 Entering Gaussian System, Link 0=g16
 Input=hcooht_h2o_mp2_avtz_opt_anharm.gjf
 Output=hcooht_h2o_mp2_avtz_opt_anharm.log
 Initial command:
 /sw/contrib/chem-src/g16/c01/g16/l1.exe "/scr/Gau-90344.inp" -scrdir="/scr/"
 Entering Link 1 = /sw/contrib/chem-src/g16/c01/g16/l1.exe PID=     90347.
  
 Copyright (c) 1988-2019, Gaussian, Inc.  All Rights Reserved.
  
 This is part of the Gaussian(R) 16 program.  It is based on
 the Gaussian(R) 09 system (copyright 2009, Gaussian, Inc.),
 the Gaussian(R) 03 system (copyright 2003, Gaussian, Inc.),
 the Gaussian(R) 98 system (copyright 1998, Gaussian, Inc.),
 the Gaussian(R) 94 system (copyright 1995, Gaussian, Inc.),
 the Gaussian 92(TM) system (copyright 1992, Gaussian, Inc.),
 the Gaussian 90(TM) system (copyright 1990, Gaussian, Inc.),
 the Gaussian 88(TM) system (copyright 1988, Gaussian, Inc.),
 the Gaussian 86(TM) system (copyright 1986, Carnegie Mellon
 University), and the Gaussian 82(TM) system (copyright 1983,
 Carnegie Mellon University). Gaussian is a federally registered
 trademark of Gaussian, Inc.
  
 This software contains proprietary and confidential information,
 including trade secrets, belonging to Gaussian, Inc.
  
 This software is provided under written license and may be
 used, copied, transmitted, or stored only in accord with that
 written license.
  
 The following legend is applicable only to US Government
 contracts under FAR:
  
                    RESTRICTED RIGHTS LEGEND
  
 Use, reproduction and disclosure by the US Government is
 subject to restrictions as set forth in subparagraphs (a)
 and (c) of the Commercial Computer Software - Restricted
 Rights clause in FAR 52.227-19.
  
 Gaussian, Inc.
 340 Quinnipiac St., Bldg. 40, Wallingford CT 06492
  
  
 ---------------------------------------------------------------
 Warning -- This program may not be used in any manner that
 competes with the business of Gaussian, Inc. or will provide
 assistance to any competitor of Gaussian, Inc.  The licensee
 of this program is prohibited from giving any competitor of
 Gaussian, Inc. access to this program.  By using this program,
 the user acknowledges that Gaussian, Inc. is engaged in the
 business of creating and licensing software in the field of
 computational chemistry and represents and warrants to the
 licensee that it is not a competitor of Gaussian, Inc. and that
 it will not use this program in any manner prohibited above.
 ---------------------------------------------------------------
  

 Cite this work as:
 Gaussian 16, Revision C.01,
 M. J. Frisch, G. W. Trucks, H. B. Schlegel, G. E. Scuseria, 
 M. A. Robb, J. R. Cheeseman, G. Scalmani, V. Barone, 
 G. A. Petersson, H. Nakatsuji, X. Li, M. Caricato, A. V. Marenich, 
 J. Bloino, B. G. Janesko, R. Gomperts, B. Mennucci, H. P. Hratchian, 
 J. V. Ortiz, A. F. Izmaylov, J. L. Sonnenberg, D. Williams-Young, 
 F. Ding, F. Lipparini, F. Egidi, J. Goings, B. Peng, A. Petrone, 
 T. Henderson, D. Ranasinghe, V. G. Zakrzewski, J. Gao, N. Rega, 
 G. Zheng, W. Liang, M. Hada, M. Ehara, K. Toyota, R. Fukuda, 
 J. Hasegawa, M. Ishida, T. Nakajima, Y. Honda, O. Kitao, H. Nakai, 
 T. Vreven, K. Throssell, J. A. Montgomery, Jr., J. E. Peralta, 
 F. Ogliaro, M. J. Bearpark, J. J. Heyd, E. N. Brothers, K. N. Kudin, 
 V. N. Staroverov, T. A. Keith, R. Kobayashi, J. Normand, 
 K. Raghavachari, A. P. Rendell, J. C. Burant, S. S. Iyengar, 
 J. Tomasi, M. Cossi, J. M. Millam, M. Klene, C. Adamo, R. Cammi, 
 J. W. Ochterski, R. L. Martin, K. Morokuma, O. Farkas, 
 J. B. Foresman, and D. J. Fox, Gaussian, Inc., Wallingford CT, 2019.
 
 ******************************************
 Gaussian 16:  EM64L-G16RevC.01  3-Jul-2019
                22-Mar-2025 
 ******************************************
 %nprocshared=40
 Will use up to   40 processors via shared memory.
 %mem=50gb
 ----------------------------------------------
 # MP2/aug-cc-pVTZ opt freq=(vibrot,anharmonic)
 ----------------------------------------------
 1/18=20,19=15,38=1,80=1/1,3;
 2/9=110,12=2,17=6,18=5,40=1/2;
 3/5=16,6=1,7=10,11=9,25=1,30=1,71=1/1,2,3;
 4//1;
 5/5=2,38=5/2;
 8/6=4,10=1/1;
 9/15=2,16=-3/6;
 10/5=1/2;
 6/7=2,8=2,9=2,10=2/1;
 7/12=2/1,2,3,16;
 1/18=20,19=15,80=1/3(2);
 2/9=110/2;
 99//99;
 2/9=110/2;
 3/5=16,6=1,7=10,11=9,25=1,30=1,71=1/1,2,3;
 4/5=5,16=3,69=1/1;
 5/5=2,38=5/2;
 8/6=4,10=1/1;
 9/15=2,16=-3/6;
 10/5=1/2;
 7/12=2/1,2,3,16;
 1/18=20,19=15,80=1/3(-8);
 2/9=110/2;
 6/7=2,8=2,9=2,10=2/1;
 99/9=10/99;
 ----
 blah
 ----
 Symbolic Z-matrix:
 Charge =  0 Multiplicity = 1
 C                     1.03144  -0.29808  -0.00035 
 O                     2.23923  -0.17689   0.00071 
 O                     0.18357   0.75714  -0.00076 
 H                    -0.73731   0.41842  -0.00162 
 O                    -2.42386  -0.2396    0.00033 
 H                     0.51467  -1.28023  -0.00104 
 H                    -2.97628  -0.03412   0.76654 
 H                    -2.98117  -0.04072  -0.76406 
 
 Add virtual bond connecting atoms O5         and H4         Dist= 3.42D+00.

 GradGradGradGradGradGradGradGradGradGradGradGradGradGradGradGradGradGrad
 Berny optimization.
 Initialization pass.
                           ----------------------------
                           !    Initial Parameters    !
                           ! (Angstroms and Degrees)  !
 --------------------------                            --------------------------
 ! Name  Definition              Value          Derivative Info.                !
 --------------------------------------------------------------------------------
 ! R1    R(1,2)                  1.2139         estimate D2E/DX2                !
 ! R2    R(1,3)                  1.3537         estimate D2E/DX2                !
 ! R3    R(1,6)                  1.1098         estimate D2E/DX2                !
 ! R4    R(3,4)                  0.9812         estimate D2E/DX2                !
 ! R5    R(4,5)                  1.8104         estimate D2E/DX2                !
 ! R6    R(5,7)                  0.9667         estimate D2E/DX2                !
 ! R7    R(5,8)                  0.9667         estimate D2E/DX2                !
 ! A1    A(2,1,3)              123.0521         estimate D2E/DX2                !
 ! A2    A(2,1,6)              123.4813         estimate D2E/DX2                !
 ! A3    A(3,1,6)              113.4666         estimate D2E/DX2                !
 ! A4    A(1,3,4)              108.5871         estimate D2E/DX2                !
 ! A5    A(4,5,7)              117.1268         estimate D2E/DX2                !
 ! A6    A(4,5,8)              117.4815         estimate D2E/DX2                !
 ! A7    A(7,5,8)              104.6889         estimate D2E/DX2                !
 ! A8    L(3,4,5,6,-1)         178.881          estimate D2E/DX2                !
 ! A9    L(3,4,5,6,-2)         179.8842         estimate D2E/DX2                !
 ! D1    D(2,1,3,4)           -179.999          estimate D2E/DX2                !
 ! D2    D(2,1,3,6)           -179.9985         estimate D2E/DX2                !
 ! D3    D(6,1,3,4)             -0.0006         estimate D2E/DX2                !
 ! D4    D(1,3,5,7)            116.9077         estimate D2E/DX2                !
 ! D5    D(1,3,5,8)           -116.7396         estimate D2E/DX2                !
 ! D6    D(4,5,7,8)            132.0912         estimate D2E/DX2                !
 --------------------------------------------------------------------------------
 Trust Radius=3.00D-01 FncErr=1.00D-07 GrdErr=1.00D-07 EigMax=2.50D+02 EigMin=1.00D-04
 Number of steps in this run=     32 maximum allowed number of steps=    100.
 GradGradGradGradGradGradGradGradGradGradGradGradGradGradGradGradGradGrad

                          Input orientation:                          
 ---------------------------------------------------------------------
 Center     Atomic      Atomic             Coordinates (Angstroms)
 Number     Number       Type             X           Y           Z
 ---------------------------------------------------------------------
      1          6           0        1.031435   -0.298081   -0.000346
      2          8           0        2.239233   -0.176894    0.000708
      3          8           0        0.183566    0.757141   -0.000758
      4          1           0       -0.737312    0.418420   -0.001617
      5          8           0       -2.423863   -0.239604    0.000331
      6          1           0        0.514666   -1.280233   -0.001037
      7          1           0       -2.976279   -0.034118    0.766542
      8          1           0       -2.981169   -0.040720   -0.764056
 ---------------------------------------------------------------------
                    Distance matrix (angstroms):
                    1          2          3          4          5
     1  C    0.000000
     2  O    1.213863   0.000000
     3  O    1.353653   2.257917   0.000000
     4  H    1.908361   3.035494   0.981198   0.000000
     5  O    3.455793   4.663518   2.791449   1.810374   0.000000
     6  H    1.109808   2.047313   2.064103   2.110183   3.117349
     7  H    4.088956   5.273372   3.346560   2.409944   0.966678
     8  H    4.092735   5.277879   3.351828   2.413921   0.966660
                    6          7          8
     6  H    0.000000
     7  H    3.785324   0.000000
     8  H    3.786747   1.530620   0.000000
 Stoichiometry    CH4O3
 Framework group  C1[X(CH4O3)]
 Deg. of freedom    18
 Full point group                 C1      NOp   1
 Largest Abelian subgroup         C1      NOp   1
 Largest concise Abelian subgroup C1      NOp   1
                         Standard orientation:                         
 ---------------------------------------------------------------------
 Center     Atomic      Atomic             Coordinates (Angstroms)
 Number     Number       Type             X           Y           Z
 ---------------------------------------------------------------------
      1          6           0        1.031435   -0.298081   -0.000346
      2          8           0        2.239233   -0.176894    0.000708
      3          8           0        0.183566    0.757141   -0.000758
      4          1           0       -0.737312    0.418420   -0.001617
      5          8           0       -2.423863   -0.239604    0.000331
      6          1           0        0.514666   -1.280233   -0.001037
      7          1           0       -2.976279   -0.034118    0.766542
      8          1           0       -2.981169   -0.040720   -0.764056
 ---------------------------------------------------------------------
 Rotational constants (GHZ):          34.4960887           2.4441244           2.3070110
 Standard basis: Aug-CC-pVTZ (5D, 7F)
 There are   320 symmetry adapted cartesian basis functions of A   symmetry.
 There are   276 symmetry adapted basis functions of A   symmetry.
   276 basis functions,   396 primitive gaussians,   320 cartesian basis functions
    17 alpha electrons       17 beta electrons
       nuclear repulsion energy       115.2418546996 Hartrees.
 NAtoms=    8 NActive=    8 NUniq=    8 SFac= 1.00D+00 NAtFMM=   60 NAOKFM=F Big=F
 Integral buffers will be    131072 words long.
 Raffenetti 1 integral format.
 Two-electron integral symmetry is turned on.
 One-electron integrals computed using PRISM.
 NBasis=   276 RedAO= T EigKep=  5.98D-05  NBF=   276
 NBsUse=   276 1.00D-06 EigRej= -1.00D+00 NBFU=   276
 ExpMin= 2.53D-02 ExpMax= 1.53D+04 ExpMxC= 5.22D+02 IAcc=3 IRadAn=         5 AccDes= 0.00D+00
 Harris functional with IExCor=  205 and IRadAn=       5 diagonalized for initial guess.
 HarFok:  IExCor=  205 AccDes= 0.00D+00 IRadAn=         5 IDoV= 1 UseB2=F ITyADJ=14
 ICtDFT=  3500011 ScaDFX=  1.000000  1.000000  1.000000  1.000000
 FoFCou: FMM=F IPFlag=           0 FMFlag=      100000 FMFlg1=           0
         NFxFlg=           0 DoJE=T BraDBF=F KetDBF=T FulRan=T
         wScrn=  0.000000 ICntrl=       500 IOpCl=  0 I1Cent=   200000004 NGrid=           0
         NMat0=    1 NMatS0=      1 NMatT0=    0 NMatD0=    1 NMtDS0=    0 NMtDT0=    0
 Petite list used in FoFCou.
 Keep R1 ints in memory in canonical form, NReq=750660223.
 Requested convergence on RMS density matrix=1.00D-08 within 128 cycles.
 Requested convergence on MAX density matrix=1.00D-06.
 Requested convergence on             energy=1.00D-06.
 No special actions if energy rises.
 SCF Done:  E(RHF) =  -264.904072436     A.U. after   12 cycles
            NFock= 12  Conv=0.92D-08     -V/T= 2.0022
 ExpMin= 2.53D-02 ExpMax= 1.53D+04 ExpMxC= 5.22D+02 IAcc=3 IRadAn=         5 AccDes= 0.00D+00
 HarFok:  IExCor=  205 AccDes= 0.00D+00 IRadAn=         5 IDoV=-2 UseB2=F ITyADJ=14
 ICtDFT= 12500011 ScaDFX=  1.000000  1.000000  1.000000  1.000000
 Range of M.O.s used for correlation:     5   276
 NBasis=   276 NAE=    17 NBE=    17 NFC=     4 NFV=     0
 NROrb=    272 NOA=    13 NOB=    13 NVA=   259 NVB=   259

 **** Warning!!: The largest alpha MO coefficient is  0.28211146D+02

 Disk-based method using ON**2 memory for 13 occupieds at a time.
 Estimated scratch disk usage=   790820812 words.
 Actual    scratch disk usage=   724480972 words.
 JobTyp=1 Pass  1:  I=   5 to  17 NPSUse= 40 ParTrn=T ParDer=T DoDerP=T.
 (rs|ai) integrals will be sorted in core.
 Spin components of T(2) and E(2):
     alpha-alpha T2 =       0.3075465817D-01 E2=     -0.1159449431D+00
     alpha-beta  T2 =       0.1701583331D+00 E2=     -0.6862858576D+00
     beta-beta   T2 =       0.3075465817D-01 E2=     -0.1159449431D+00
 ANorm=    0.1109805230D+01
 E2 =    -0.9181757439D+00 EUMP2 =    -0.26582224818029D+03
          IDoAtm=11111111
          Differentiating once with respect to electric field.
                with respect to dipole field.
          Differentiating once with respect to nuclear coordinates.
 Keep R1 ints in memory in canonical form, NReq=750669880.
          There are     1 degrees of freedom in the 1st order CPHF.  IDoFFX=0 NUNeed=     1.
 LinEq1:  Iter=  0 NonCon=     1 RMS=3.80D-03 Max=7.75D-02 NDo=     1
 AX will form     1 AO Fock derivatives at one time.
 LinEq1:  Iter=  1 NonCon=     1 RMS=9.68D-04 Max=1.33D-02 NDo=     1
 LinEq1:  Iter=  2 NonCon=     1 RMS=3.87D-04 Max=6.15D-03 NDo=     1
 LinEq1:  Iter=  3 NonCon=     1 RMS=1.61D-04 Max=2.60D-03 NDo=     1
 LinEq1:  Iter=  4 NonCon=     1 RMS=4.37D-05 Max=3.89D-04 NDo=     1
 LinEq1:  Iter=  5 NonCon=     1 RMS=1.73D-05 Max=3.21D-04 NDo=     1
 LinEq1:  Iter=  6 NonCon=     1 RMS=6.05D-06 Max=7.58D-05 NDo=     1
 LinEq1:  Iter=  7 NonCon=     1 RMS=1.47D-06 Max=1.57D-05 NDo=     1
 LinEq1:  Iter=  8 NonCon=     1 RMS=3.94D-07 Max=5.69D-06 NDo=     1
 LinEq1:  Iter=  9 NonCon=     1 RMS=1.23D-07 Max=1.53D-06 NDo=     1
 LinEq1:  Iter= 10 NonCon=     1 RMS=4.61D-08 Max=4.99D-07 NDo=     1
 LinEq1:  Iter= 11 NonCon=     1 RMS=9.80D-09 Max=9.05D-08 NDo=     1
 LinEq1:  Iter= 12 NonCon=     1 RMS=1.57D-09 Max=1.53D-08 NDo=     1
 LinEq1:  Iter= 13 NonCon=     1 RMS=2.25D-10 Max=1.91D-09 NDo=     1
 LinEq1:  Iter= 14 NonCon=     0 RMS=3.41D-11 Max=3.07D-10 NDo=     1
 Linear equations converged to 1.000D-10 1.000D-09 after    14 iterations.
 End of Minotr F.D. properties file   721 does not exist.
 End of Minotr F.D. properties file   722 does not exist.
 End of Minotr F.D. properties file   788 does not exist.

 **********************************************************************

            Population analysis using the SCF Density.

 **********************************************************************

 Orbital symmetries:
       Occupied  (A) (A) (A) (A) (A) (A) (A) (A) (A) (A) (A) (A)
                 (A) (A) (A) (A) (A)
       Virtual   (A) (A) (A) (A) (A) (A) (A) (A) (A) (A) (A) (A)
                 (A) (A) (A) (A) (A) (A) (A) (A) (A) (A) (A) (A)
                 (A) (A) (A) (A) (A) (A) (A) (A) (A) (A) (A) (A)
                 (A) (A) (A) (A) (A) (A) (A) (A) (A) (A) (A) (A)
                 (A) (A) (A) (A) (A) (A) (A) (A) (A) (A) (A) (A)
                 (A) (A) (A) (A) (A) (A) (A) (A) (A) (A) (A) (A)
                 (A) (A) (A) (A) (A) (A) (A) (A) (A) (A) (A) (A)
                 (A) (A) (A) (A) (A) (A) (A) (A) (A) (A) (A) (A)
                 (A) (A) (A) (A) (A) (A) (A) (A) (A) (A) (A) (A)
                 (A) (A) (A) (A) (A) (A) (A) (A) (A) (A) (A) (A)
                 (A) (A) (A) (A) (A) (A) (A) (A) (A) (A) (A) (A)
                 (A) (A) (A) (A) (A) (A) (A) (A) (A) (A) (A) (A)
                 (A) (A) (A) (A) (A) (A) (A) (A) (A) (A) (A) (A)
                 (A) (A) (A) (A) (A) (A) (A) (A) (A) (A) (A) (A)
                 (A) (A) (A) (A) (A) (A) (A) (A) (A) (A) (A) (A)
                 (A) (A) (A) (A) (A) (A) (A) (A) (A) (A) (A) (A)
                 (A) (A) (A) (A) (A) (A) (A) (A) (A) (A) (A) (A)
                 (A) (A) (A) (A) (A) (A) (A) (A) (A) (A) (A) (A)
                 (A) (A) (A) (A) (A) (A) (A) (A) (A) (A) (A) (A)
                 (A) (A) (A) (A) (A) (A) (A) (A) (A) (A) (A) (A)
                 (A) (A) (A) (A) (A) (A) (A) (A) (A) (A) (A) (A)
                 (A) (A) (A) (A) (A) (A) (A)
 The electronic state is 1-A.
 Alpha  occ. eigenvalues --  -20.62229 -20.59731 -20.54187 -11.37843  -1.43891
 Alpha  occ. eigenvalues --   -1.40559  -1.34745  -0.84266  -0.76920  -0.76765
 Alpha  occ. eigenvalues --   -0.64874  -0.64381  -0.60494  -0.58077  -0.55415
 Alpha  occ. eigenvalues --   -0.46592  -0.44622
 Alpha virt. eigenvalues --    0.01066   0.03498   0.04285   0.05285   0.09010
 Alpha virt. eigenvalues --    0.09923   0.11451   0.12196   0.14659   0.15440
 Alpha virt. eigenvalues --    0.15985   0.16434   0.17267   0.18817   0.19428
 Alpha virt. eigenvalues --    0.20669   0.21307   0.23082   0.24681   0.25658
 Alpha virt. eigenvalues --    0.26102   0.26689   0.28258   0.29731   0.31825
 Alpha virt. eigenvalues --    0.33088   0.34659   0.36259   0.37108   0.38138
 Alpha virt. eigenvalues --    0.39179   0.39826   0.41638   0.41926   0.43138
 Alpha virt. eigenvalues --    0.43325   0.43545   0.46823   0.51498   0.54151
 Alpha virt. eigenvalues --    0.55253   0.56874   0.59449   0.59615   0.60930
 Alpha virt. eigenvalues --    0.62155   0.66855   0.68844   0.69833   0.70561
 Alpha virt. eigenvalues --    0.72815   0.74788   0.76185   0.76433   0.77794
 Alpha virt. eigenvalues --    0.82064   0.82762   0.83626   0.84020   0.85124
 Alpha virt. eigenvalues --    0.88931   0.89904   0.90898   0.91551   0.91994
 Alpha virt. eigenvalues --    0.92955   0.93145   0.95104   0.97326   0.98751
 Alpha virt. eigenvalues --    1.00277   1.00526   1.01429   1.02012   1.03585
 Alpha virt. eigenvalues --    1.04417   1.04972   1.09220   1.10574   1.13208
 Alpha virt. eigenvalues --    1.13272   1.15231   1.16895   1.19922   1.21810
 Alpha virt. eigenvalues --    1.24220   1.25993   1.26117   1.29981   1.34912
 Alpha virt. eigenvalues --    1.35032   1.35758   1.36411   1.42055   1.44324
 Alpha virt. eigenvalues --    1.45013   1.49634   1.50446   1.52342   1.54101
 Alpha virt. eigenvalues --    1.57685   1.58942   1.60394   1.62522   1.63333
 Alpha virt. eigenvalues --    1.69422   1.69684   1.75823   1.78062   1.82600
 Alpha virt. eigenvalues --    1.82744   1.82937   1.85808   1.92062   1.92453
 Alpha virt. eigenvalues --    2.03775   2.05860   2.07536   2.10335   2.17005
 Alpha virt. eigenvalues --    2.22610   2.27718   2.29876   2.30641   2.33977
 Alpha virt. eigenvalues --    2.36103   2.36771   2.39152   2.43678   2.46679
 Alpha virt. eigenvalues --    2.46718   2.48918   2.52137   2.53731   2.54014
 Alpha virt. eigenvalues --    2.58305   2.62254   2.63538   2.63679   2.66545
 Alpha virt. eigenvalues --    2.67107   2.67886   2.71920   2.72694   2.77183
 Alpha virt. eigenvalues --    2.81698   2.82586   2.85328   2.90150   2.92097
 Alpha virt. eigenvalues --    2.92394   2.95846   2.99371   3.01566   3.06394
 Alpha virt. eigenvalues --    3.09181   3.16743   3.20739   3.27589   3.32817
 Alpha virt. eigenvalues --    3.35228   3.46818   3.54944   3.55750   3.70290
 Alpha virt. eigenvalues --    3.72011   3.80441   3.86051   3.86992   3.97178
 Alpha virt. eigenvalues --    3.98012   4.04563   4.05683   4.12796   4.15413
 Alpha virt. eigenvalues --    4.17079   4.21446   4.22153   4.25656   4.32097
 Alpha virt. eigenvalues --    4.32687   4.35100   4.35113   4.38428   4.42249
 Alpha virt. eigenvalues --    4.45606   4.47379   4.49622   4.60137   4.62046
 Alpha virt. eigenvalues --    4.65706   4.66997   4.70725   4.74772   4.79662
 Alpha virt. eigenvalues --    4.86676   4.95317   5.01971   5.10149   5.10572
 Alpha virt. eigenvalues --    5.12402   5.17794   5.19411   5.20798   5.23170
 Alpha virt. eigenvalues --    5.25721   5.33916   5.40200   5.54757   5.55203
 Alpha virt. eigenvalues --    5.61326   5.74396   5.80637   5.93205   6.24017
 Alpha virt. eigenvalues --    6.32684   6.38545   6.50865   6.53864   6.63221
 Alpha virt. eigenvalues --    6.64691   6.79785   6.82851   6.87649   6.88203
 Alpha virt. eigenvalues --    6.92642   7.00240   7.01226   7.13689   7.14916
 Alpha virt. eigenvalues --    7.18144   7.22199   7.25373   7.26644   7.31551
 Alpha virt. eigenvalues --    7.32940   7.36459   7.38579   7.39662   7.42198
 Alpha virt. eigenvalues --    7.45751   7.49639   7.58064   7.59398   7.66598
 Alpha virt. eigenvalues --    7.69072   7.76322   7.81561   7.86708   7.90178
 Alpha virt. eigenvalues --    7.93261   8.00898   8.29917   8.58836   8.79804
 Alpha virt. eigenvalues --   15.02269  15.62085  16.57241  17.50120
          Condensed to atoms (all electrons):
               1          2          3          4          5          6
     1  C    4.875664   0.520675   0.291490   0.015818   0.008485   0.241373
     2  O    0.520675   8.230758  -0.090651  -0.012302  -0.001086  -0.055608
     3  O    0.291490  -0.090651   8.079645   0.152090  -0.032122  -0.028447
     4  H    0.015818  -0.012302   0.152090   0.501864  -0.023555   0.010853
     5  O    0.008485  -0.001086  -0.032122  -0.023555   7.886308   0.001539
     6  H    0.241373  -0.055608  -0.028447   0.010853   0.001539   0.296072
     7  H    0.001198   0.000074  -0.003102   0.001391   0.295682   0.000465
     8  H    0.001194   0.000073  -0.003075   0.001310   0.295458   0.000458
               7          8
     1  C    0.001198   0.001194
     2  O    0.000074   0.000073
     3  O   -0.003102  -0.003075
     4  H    0.001391   0.001310
     5  O    0.295682   0.295458
     6  H    0.000465   0.000458
     7  H    0.469604   0.005391
     8  H    0.005391   0.469946
 Mulliken charges:
               1
     1  C    0.044103
     2  O   -0.591934
     3  O   -0.365828
     4  H    0.352531
     5  O   -0.430709
     6  H    0.533295
     7  H    0.229296
     8  H    0.229246
 Sum of Mulliken charges =   0.00000
 Mulliken charges with hydrogens summed into heavy atoms:
               1
     1  C    0.577398
     2  O   -0.591934
     3  O   -0.013297
     5  O    0.027833
 Electronic spatial extent (au):  <R**2>=            482.4892
 Charge=             -0.0000 electrons
 Dipole moment (field-independent basis, Debye):
    X=             -7.1049    Y=             -1.0651    Z=             -0.0009  Tot=              7.1843
 Quadrupole moment (field-independent basis, Debye-Ang):
   XX=            -20.3240   YY=            -25.5590   ZZ=            -21.2301
   XY=             -2.1420   XZ=             -0.0030   YZ=              0.0162
 Traceless Quadrupole moment (field-independent basis, Debye-Ang):
   XX=              2.0470   YY=             -3.1880   ZZ=              1.1409
   XY=             -2.1420   XZ=             -0.0030   YZ=              0.0162
 Octapole moment (field-independent basis, Debye-Ang**2):
  XXX=            -79.6021  YYY=             -1.1882  ZZZ=              0.0110  XYY=             -1.1075
  XXY=              7.4375  XXZ=             -0.0366  XZZ=             -9.9097  YZZ=              0.0011
  YYZ=             -0.0031  XYZ=             -0.0411
 Hexadecapole moment (field-independent basis, Debye-Ang**3):
 XXXX=           -372.0975 YYYY=            -53.8284 ZZZZ=            -20.4402 XXXY=             -5.2132
 XXXZ=              0.1341 YYYX=             -1.5837 YYYZ=              0.0105 ZZZX=             -0.0239
 ZZZY=              0.0167 XXYY=            -95.8520 XXZZ=            -59.3204 YYZZ=            -13.1638
 XXYZ=              0.1315 YYXZ=              0.0065 ZZXY=              0.4571
 N-N= 1.152418546996D+02 E-N=-8.573062517451D+02  KE= 2.643262357585D+02
 Calling FoFJK, ICntrl=  10002127 FMM=F ISym2X=0 I1Cent= 0 IOpClX= 0 NMat=1 NMatS=1 NMatT=0.
 ***** Axes restored to original set *****
 -------------------------------------------------------------------
 Center     Atomic                   Forces (Hartrees/Bohr)
 Number     Number              X              Y              Z
 -------------------------------------------------------------------
      1        6           0.008204890    0.003404626    0.000010199
      2        8          -0.017954251   -0.001670692   -0.000016113
      3        8           0.003314661   -0.008865909   -0.000001029
      4        1           0.003041962    0.000713609   -0.000010766
      5        8          -0.004447533    0.001928612    0.000037633
      6        1           0.003064412    0.006271268    0.000003506
      7        1           0.002368057   -0.000912348   -0.003013767
      8        1           0.002407801   -0.000869165    0.002990336
 -------------------------------------------------------------------
 Cartesian Forces:  Max     0.017954251 RMS     0.005027638

 GradGradGradGradGradGradGradGradGradGradGradGradGradGradGradGradGradGrad
 Berny optimization.
 FormGI is forming the generalized inverse of G from B-inverse, IUseBI=4.
 Internal  Forces:  Max     0.018031352 RMS     0.004890522
 Search for a local minimum.
 Step number   1 out of a maximum of   32
 All quantities printed in internal units (Hartrees-Bohrs-Radians)
 Mixed Optimization -- RFO/linear search
 Second derivative matrix not updated -- first step.
 ITU=  0
     Eigenvalues ---    0.00230   0.00230   0.00230   0.02305   0.02305
     Eigenvalues ---    0.03357   0.05998   0.13928   0.16000   0.16000
     Eigenvalues ---    0.16000   0.22000   0.32620   0.51153   0.54061
     Eigenvalues ---    0.54065   0.54252   0.98155
 RFO step:  Lambda=-7.66721372D-04 EMin= 2.30000000D-03
 Linear search not attempted -- first point.
 Iteration  1 RMS(Cart)=  0.01150079 RMS(Int)=  0.00000896
 Iteration  2 RMS(Cart)=  0.00001269 RMS(Int)=  0.00000060
 Iteration  3 RMS(Cart)=  0.00000000 RMS(Int)=  0.00000060
 Variable       Old X    -DE/DX   Delta X   Delta X   Delta X     New X
                                 (Linear)    (Quad)   (Total)
    R1        2.29387  -0.01803   0.00000  -0.01836  -0.01836   2.27551
    R2        2.55803  -0.01043   0.00000  -0.01919  -0.01919   2.53884
    R3        2.09723  -0.00698   0.00000  -0.02134  -0.02134   2.07589
    R4        1.85419  -0.00346   0.00000  -0.00675  -0.00675   1.84744
    R5        3.42111  -0.00036   0.00000  -0.00591  -0.00591   3.41520
    R6        1.82676  -0.00394   0.00000  -0.00727  -0.00727   1.81949
    R7        1.82672  -0.00393   0.00000  -0.00726  -0.00726   1.81946
    A1        2.14766  -0.00005   0.00000  -0.00024  -0.00024   2.14742
    A2        2.15515   0.00025   0.00000   0.00148   0.00148   2.15663
    A3        1.98037  -0.00019   0.00000  -0.00124  -0.00124   1.97913
    A4        1.89520  -0.00064   0.00000  -0.00399  -0.00399   1.89121
    A5        2.04425  -0.00003   0.00000   0.00030   0.00030   2.04455
    A6        2.05044  -0.00010   0.00000  -0.00016  -0.00016   2.05028
    A7        1.82717   0.00022   0.00000   0.00209   0.00209   1.82925
    A8        3.12206   0.00004   0.00000   0.00585   0.00585   3.12792
    A9        3.13957   0.00000   0.00000   0.00007   0.00007   3.13965
    D1       -3.14158  -0.00000   0.00000  -0.00001  -0.00001  -3.14158
    D2       -3.14157  -0.00000   0.00000  -0.00003  -0.00003   3.14159
    D3       -0.00001   0.00000   0.00000   0.00002   0.00002   0.00001
    D4        2.04042  -0.00008   0.00000  -0.00087  -0.00087   2.03956
    D5       -2.03749   0.00008   0.00000   0.00054   0.00054  -2.03695
    D6        2.30543   0.00003   0.00000   0.00197   0.00197   2.30740
         Item               Value     Threshold  Converged?
 Maximum Force            0.018031     0.000450     NO 
 RMS     Force            0.004891     0.000300     NO 
 Maximum Displacement     0.031732     0.001800     NO 
 RMS     Displacement     0.011497     0.001200     NO 
 Predicted change in Energy=-3.839026D-04
 GradGradGradGradGradGradGradGradGradGradGradGradGradGradGradGradGradGrad

                          Input orientation:                          
 ---------------------------------------------------------------------
 Center     Atomic      Atomic             Coordinates (Angstroms)
 Number     Number       Type             X           Y           Z
 ---------------------------------------------------------------------
      1          6           0        1.024173   -0.296806   -0.000340
      2          8           0        2.222441   -0.177944    0.000620
      3          8           0        0.184105    0.751654   -0.000850
      4          1           0       -0.732531    0.411763   -0.001611
      5          8           0       -2.418280   -0.239678    0.000376
      6          1           0        0.510125   -1.267626   -0.000889
      7          1           0       -2.967562   -0.034600    0.764101
      8          1           0       -2.972194   -0.040851   -0.761638
 ---------------------------------------------------------------------
                    Distance matrix (angstroms):
                    1          2          3          4          5
     1  C    0.000000
     2  O    1.204149   0.000000
     3  O    1.343496   2.240305   0.000000
     4  H    1.894222   3.013240   0.977623   0.000000
     5  O    3.442927   4.641132   2.784807   1.807244   0.000000
     6  H    1.098516   2.029639   2.045429   2.089149   3.103585
     7  H    4.072723   5.247817   3.337117   2.404354   0.962831
     8  H    4.076277   5.252053   3.342018   2.408026   0.962818
                    6          7          8
     6  H    0.000000
     7  H    3.768272   0.000000
     8  H    3.769650   1.525759   0.000000
 Stoichiometry    CH4O3
 Framework group  C1[X(CH4O3)]
 Deg. of freedom    18
 Full point group                 C1      NOp   1
 Largest Abelian subgroup         C1      NOp   1
 Largest concise Abelian subgroup C1      NOp   1
                         Standard orientation:                         
 ---------------------------------------------------------------------
 Center     Atomic      Atomic             Coordinates (Angstroms)
 Number     Number       Type             X           Y           Z
 ---------------------------------------------------------------------
      1          6           0        1.027346   -0.295949   -0.000313
      2          8           0        2.225651   -0.177457    0.000647
      3          8           0        0.187602    0.752769   -0.000823
      4          1           0       -0.729139    0.413161   -0.001584
      5          8           0       -2.415089   -0.237760    0.000403
      6          1           0        0.512999   -1.266611   -0.000862
      7          1           0       -2.964308   -0.032513    0.764128
      8          1           0       -2.968941   -0.038762   -0.761611
 ---------------------------------------------------------------------
 Rotational constants (GHZ):          34.9214324           2.4666297           2.3288046
 Standard basis: Aug-CC-pVTZ (5D, 7F)
 There are   320 symmetry adapted cartesian basis functions of A   symmetry.
 There are   276 symmetry adapted basis functions of A   symmetry.
   276 basis functions,   396 primitive gaussians,   320 cartesian basis functions
    17 alpha electrons       17 beta electrons
       nuclear repulsion energy       115.9388480632 Hartrees.
 NAtoms=    8 NActive=    8 NUniq=    8 SFac= 1.00D+00 NAtFMM=   60 NAOKFM=F Big=F
 Integral buffers will be    131072 words long.
 Raffenetti 1 integral format.
 Two-electron integral symmetry is turned on.
 One-electron integrals computed using PRISM.
 NBasis=   276 RedAO= T EigKep=  5.69D-05  NBF=   276
 NBsUse=   276 1.00D-06 EigRej= -1.00D+00 NBFU=   276
 Initial guess from the checkpoint file:  "/scr/Gau-90347.chk"
 B after Tr=     0.000000   -0.000000   -0.000000
         Rot=    1.000000    0.000028   -0.000010    0.000325 Ang=   0.04 deg.
 ExpMin= 2.53D-02 ExpMax= 1.53D+04 ExpMxC= 5.22D+02 IAcc=3 IRadAn=         5 AccDes= 0.00D+00
 Harris functional with IExCor=  205 and IRadAn=       5 diagonalized for initial guess.
 HarFok:  IExCor=  205 AccDes= 0.00D+00 IRadAn=         5 IDoV= 1 UseB2=F ITyADJ=14
 ICtDFT=  3500011 ScaDFX=  1.000000  1.000000  1.000000  1.000000
 FoFCou: FMM=F IPFlag=           0 FMFlag=      100000 FMFlg1=           0
         NFxFlg=           0 DoJE=T BraDBF=F KetDBF=T FulRan=T
         wScrn=  0.000000 ICntrl=       500 IOpCl=  0 I1Cent=   200000004 NGrid=           0
         NMat0=    1 NMatS0=      1 NMatT0=    0 NMatD0=    1 NMtDS0=    0 NMtDT0=    0
 Petite list used in FoFCou.
 Keep R1 ints in memory in canonical form, NReq=750660734.
 Requested convergence on RMS density matrix=1.00D-08 within 128 cycles.
 Requested convergence on MAX density matrix=1.00D-06.
 Requested convergence on             energy=1.00D-06.
 No special actions if energy rises.
 SCF Done:  E(RHF) =  -264.906642667     A.U. after    9 cycles
            NFock=  9  Conv=0.83D-08     -V/T= 2.0018
 ExpMin= 2.53D-02 ExpMax= 1.53D+04 ExpMxC= 5.22D+02 IAcc=3 IRadAn=         5 AccDes= 0.00D+00
 HarFok:  IExCor=  205 AccDes= 0.00D+00 IRadAn=         5 IDoV=-2 UseB2=F ITyADJ=14
 ICtDFT= 12500011 ScaDFX=  1.000000  1.000000  1.000000  1.000000
 Range of M.O.s used for correlation:     5   276
 NBasis=   276 NAE=    17 NBE=    17 NFC=     4 NFV=     0
 NROrb=    272 NOA=    13 NOB=    13 NVA=   259 NVB=   259

 **** Warning!!: The largest alpha MO coefficient is  0.27913105D+02

 Disk-based method using ON**2 memory for 13 occupieds at a time.
 Estimated scratch disk usage=   790820812 words.
 Actual    scratch disk usage=   724480972 words.
 JobTyp=1 Pass  1:  I=   5 to  17 NPSUse= 40 ParTrn=T ParDer=T DoDerP=T.
 (rs|ai) integrals will be sorted in core.
 Spin components of T(2) and E(2):
     alpha-alpha T2 =       0.3047686369D-01 E2=     -0.1156865354D+00
     alpha-beta  T2 =       0.1685399406D+00 E2=     -0.6846273619D+00
     beta-beta   T2 =       0.3047686369D-01 E2=     -0.1156865354D+00
 ANorm=    0.1108825355D+01
 E2 =    -0.9160004327D+00 EUMP2 =    -0.26582264310018D+03
          IDoAtm=11111111
          Differentiating once with respect to electric field.
                with respect to dipole field.
          Differentiating once with respect to nuclear coordinates.
 Keep R1 ints in memory in canonical form, NReq=750670902.
          There are     1 degrees of freedom in the 1st order CPHF.  IDoFFX=0 NUNeed=     1.
 LinEq1:  Iter=  0 NonCon=     1 RMS=3.73D-03 Max=7.91D-02 NDo=     1
 AX will form     1 AO Fock derivatives at one time.
 LinEq1:  Iter=  1 NonCon=     1 RMS=9.34D-04 Max=1.34D-02 NDo=     1
 LinEq1:  Iter=  2 NonCon=     1 RMS=3.70D-04 Max=6.13D-03 NDo=     1
 LinEq1:  Iter=  3 NonCon=     1 RMS=1.53D-04 Max=2.62D-03 NDo=     1
 LinEq1:  Iter=  4 NonCon=     1 RMS=4.18D-05 Max=3.86D-04 NDo=     1
 LinEq1:  Iter=  5 NonCon=     1 RMS=1.63D-05 Max=3.15D-04 NDo=     1
 LinEq1:  Iter=  6 NonCon=     1 RMS=5.85D-06 Max=8.05D-05 NDo=     1
 LinEq1:  Iter=  7 NonCon=     1 RMS=1.43D-06 Max=1.54D-05 NDo=     1
 LinEq1:  Iter=  8 NonCon=     1 RMS=3.80D-07 Max=5.28D-06 NDo=     1
 LinEq1:  Iter=  9 NonCon=     1 RMS=1.16D-07 Max=1.53D-06 NDo=     1
 LinEq1:  Iter= 10 NonCon=     1 RMS=4.30D-08 Max=4.95D-07 NDo=     1
 LinEq1:  Iter= 11 NonCon=     1 RMS=9.03D-09 Max=8.79D-08 NDo=     1
 LinEq1:  Iter= 12 NonCon=     1 RMS=1.43D-09 Max=1.44D-08 NDo=     1
 LinEq1:  Iter= 13 NonCon=     1 RMS=2.07D-10 Max=1.80D-09 NDo=     1
 LinEq1:  Iter= 14 NonCon=     0 RMS=3.14D-11 Max=2.99D-10 NDo=     1
 Linear equations converged to 1.000D-10 1.000D-09 after    14 iterations.
 End of Minotr F.D. properties file   721 does not exist.
 End of Minotr F.D. properties file   722 does not exist.
 End of Minotr F.D. properties file   788 does not exist.
 Calling FoFJK, ICntrl=  10002127 FMM=F ISym2X=0 I1Cent= 0 IOpClX= 0 NMat=1 NMatS=1 NMatT=0.
 ***** Axes restored to original set *****
 -------------------------------------------------------------------
 Center     Atomic                   Forces (Hartrees/Bohr)
 Number     Number              X              Y              Z
 -------------------------------------------------------------------
      1        6           0.001520531    0.002183147   -0.000000391
      2        8          -0.000862364   -0.000651768    0.000000187
      3        8          -0.000337836   -0.001801746   -0.000001323
      4        1          -0.000215580    0.000721258   -0.000011657
      5        8          -0.000435146    0.000332929    0.000025730
      6        1          -0.000223108   -0.000495520    0.000000367
      7        1           0.000266421   -0.000151661   -0.000023667
      8        1           0.000287082   -0.000136640    0.000010753
 -------------------------------------------------------------------
 Cartesian Forces:  Max     0.002183147 RMS     0.000735011

 GradGradGradGradGradGradGradGradGradGradGradGradGradGradGradGradGradGrad
 Berny optimization.
 Using GEDIIS/GDIIS optimizer.
 FormGI is forming the generalized inverse of G from B-inverse, IUseBI=4.
 Internal  Forces:  Max     0.001296272 RMS     0.000447182
 Search for a local minimum.
 Step number   2 out of a maximum of   32
 All quantities printed in internal units (Hartrees-Bohrs-Radians)
 Mixed Optimization -- En-DIIS/RFO-DIIS
 Update second derivatives using D2CorX and points    1    2
 DE= -3.95D-04 DEPred=-3.84D-04 R= 1.03D+00
 TightC=F SS=  1.41D+00  RLast= 3.76D-02 DXNew= 5.0454D-01 1.1266D-01
 Trust test= 1.03D+00 RLast= 3.76D-02 DXMaxT set to 3.00D-01
 ITU=  1  0
 Use linear search instead of GDIIS.
     Eigenvalues ---    0.00230   0.00230   0.00230   0.02305   0.02305
     Eigenvalues ---    0.03341   0.05986   0.13913   0.15979   0.16000
     Eigenvalues ---    0.16147   0.21914   0.33960   0.50965   0.52937
     Eigenvalues ---    0.54063   0.54110   0.95034
 RFO step:  Lambda=-2.35882906D-05 EMin= 2.29999779D-03
 Quartic linear search produced a step of  0.01996.
 Iteration  1 RMS(Cart)=  0.02056786 RMS(Int)=  0.00018329
 Iteration  2 RMS(Cart)=  0.00033597 RMS(Int)=  0.00001533
 Iteration  3 RMS(Cart)=  0.00000001 RMS(Int)=  0.00001533
 Variable       Old X    -DE/DX   Delta X   Delta X   Delta X     New X
                                 (Linear)    (Quad)   (Total)
    R1        2.27551  -0.00092  -0.00037  -0.00115  -0.00152   2.27399
    R2        2.53884  -0.00054  -0.00038  -0.00121  -0.00159   2.53725
    R3        2.07589   0.00054  -0.00043   0.00148   0.00106   2.07695
    R4        1.84744  -0.00018  -0.00013  -0.00042  -0.00055   1.84689
    R5        3.41520  -0.00013  -0.00012  -0.00218  -0.00230   3.41290
    R6        1.81949  -0.00020  -0.00015  -0.00046  -0.00060   1.81888
    R7        1.81946  -0.00020  -0.00014  -0.00046  -0.00060   1.81886
    A1        2.14742   0.00083  -0.00000   0.00385   0.00384   2.15127
    A2        2.15663  -0.00045   0.00003  -0.00214  -0.00211   2.15452
    A3        1.97913  -0.00038  -0.00002  -0.00171  -0.00173   1.97740
    A4        1.89121   0.00130  -0.00008   0.00823   0.00815   1.89935
    A5        2.04455  -0.00004   0.00001   0.00045   0.00044   2.04499
    A6        2.05028  -0.00012  -0.00000  -0.00003  -0.00004   2.05024
    A7        1.82925   0.00026   0.00004   0.00272   0.00273   1.83199
    A8        3.12792  -0.00005   0.00012  -0.03875  -0.03862   3.08930
    A9        3.13965   0.00000   0.00000   0.00058   0.00058   3.14023
    D1       -3.14158   0.00000  -0.00000   0.00004   0.00004  -3.14155
    D2        3.14159   0.00000  -0.00000   0.00004   0.00004  -3.14155
    D3        0.00001  -0.00000   0.00000  -0.00001  -0.00001   0.00001
    D4        2.03956  -0.00013  -0.00002  -0.00867  -0.00873   2.03083
    D5       -2.03695   0.00012   0.00001   0.00849   0.00854  -2.02841
    D6        2.30740   0.00005   0.00004   0.00286   0.00287   2.31026
         Item               Value     Threshold  Converged?
 Maximum Force            0.001296     0.000450     NO 
 RMS     Force            0.000447     0.000300     NO 
 Maximum Displacement     0.054485     0.001800     NO 
 RMS     Displacement     0.020674     0.001200     NO 
 Predicted change in Energy=-1.192135D-05
 GradGradGradGradGradGradGradGradGradGradGradGradGradGradGradGradGradGrad

                          Input orientation:                          
 ---------------------------------------------------------------------
 Center     Atomic      Atomic             Coordinates (Angstroms)
 Number     Number       Type             X           Y           Z
 ---------------------------------------------------------------------
      1          6           0        1.016409   -0.295964   -0.000373
      2          8           0        2.215610   -0.196180    0.000226
      3          8           0        0.189511    0.761845   -0.000961
      4          1           0       -0.733513    0.440595   -0.001341
      5          8           0       -2.405824   -0.241394    0.000387
      6          1           0        0.488801   -1.260121   -0.000456
      7          1           0       -2.958333   -0.048523    0.764563
      8          1           0       -2.962384   -0.054347   -0.762279
 ---------------------------------------------------------------------
                    Distance matrix (angstroms):
                    1          2          3          4          5
     1  C    0.000000
     2  O    1.203345   0.000000
     3  O    1.342655   2.241181   0.000000
     4  H    1.898617   3.017086   0.977330   0.000000
     5  O    3.422668   4.621655   2.782491   1.806028   0.000000
     6  H    1.099076   2.028260   2.043997   2.094394   3.068658
     7  H    4.055235   5.232179   3.339408   2.403263   0.962512
     8  H    4.058285   5.235757   3.343684   2.406629   0.962500
                    6          7          8
     6  H    0.000000
     7  H    3.733089   0.000000
     8  H    3.734293   1.526858   0.000000
 Stoichiometry    CH4O3
 Framework group  C1[X(CH4O3)]
 Deg. of freedom    18
 Full point group                 C1      NOp   1
 Largest Abelian subgroup         C1      NOp   1
 Largest concise Abelian subgroup C1      NOp   1
                         Standard orientation:                         
 ---------------------------------------------------------------------
 Center     Atomic      Atomic             Coordinates (Angstroms)
 Number     Number       Type             X           Y           Z
 ---------------------------------------------------------------------
      1          6           0        1.018875   -0.291754   -0.000235
      2          8           0        2.217962   -0.190615    0.000506
      3          8           0        0.190782    0.765121   -0.000576
      4          1           0       -0.731878    0.442828   -0.001140
      5          8           0       -2.403418   -0.241051    0.000225
      6          1           0        0.492356   -1.256506   -0.000662
      7          1           0       -2.956215   -0.049038    0.764408
      8          1           0       -2.960119   -0.054400   -0.762436
 ---------------------------------------------------------------------
 Rotational constants (GHZ):          34.0320623           2.4879142           2.3436869
 Standard basis: Aug-CC-pVTZ (5D, 7F)
 There are   320 symmetry adapted cartesian basis functions of A   symmetry.
 There are   276 symmetry adapted basis functions of A   symmetry.
   276 basis functions,   396 primitive gaussians,   320 cartesian basis functions
    17 alpha electrons       17 beta electrons
       nuclear repulsion energy       116.0726970757 Hartrees.
 NAtoms=    8 NActive=    8 NUniq=    8 SFac= 1.00D+00 NAtFMM=   60 NAOKFM=F Big=F
 Integral buffers will be    131072 words long.
 Raffenetti 1 integral format.
 Two-electron integral symmetry is turned on.
 One-electron integrals computed using PRISM.
 NBasis=   276 RedAO= T EigKep=  5.74D-05  NBF=   276
 NBsUse=   276 1.00D-06 EigRej= -1.00D+00 NBFU=   276
 Initial guess from the checkpoint file:  "/scr/Gau-90347.chk"
 B after Tr=     0.000000    0.000000   -0.000000
         Rot=    1.000000   -0.000158    0.000017    0.000400 Ang=  -0.05 deg.
 ExpMin= 2.53D-02 ExpMax= 1.53D+04 ExpMxC= 5.22D+02 IAcc=3 IRadAn=         5 AccDes= 0.00D+00
 Harris functional with IExCor=  205 and IRadAn=       5 diagonalized for initial guess.
 HarFok:  IExCor=  205 AccDes= 0.00D+00 IRadAn=         5 IDoV= 1 UseB2=F ITyADJ=14
 ICtDFT=  3500011 ScaDFX=  1.000000  1.000000  1.000000  1.000000
 FoFCou: FMM=F IPFlag=           0 FMFlag=      100000 FMFlg1=           0
         NFxFlg=           0 DoJE=T BraDBF=F KetDBF=T FulRan=T
         wScrn=  0.000000 ICntrl=       500 IOpCl=  0 I1Cent=   200000004 NGrid=           0
         NMat0=    1 NMatS0=      1 NMatT0=    0 NMatD0=    1 NMtDS0=    0 NMtDT0=    0
 Petite list used in FoFCou.
 Keep R1 ints in memory in canonical form, NReq=750660852.
 Requested convergence on RMS density matrix=1.00D-08 within 128 cycles.
 Requested convergence on MAX density matrix=1.00D-06.
 Requested convergence on             energy=1.00D-06.
 No special actions if energy rises.
 SCF Done:  E(RHF) =  -264.906858301     A.U. after    9 cycles
            NFock=  9  Conv=0.74D-08     -V/T= 2.0018
 ExpMin= 2.53D-02 ExpMax= 1.53D+04 ExpMxC= 5.22D+02 IAcc=3 IRadAn=         5 AccDes= 0.00D+00
 HarFok:  IExCor=  205 AccDes= 0.00D+00 IRadAn=         5 IDoV=-2 UseB2=F ITyADJ=14
 ICtDFT= 12500011 ScaDFX=  1.000000  1.000000  1.000000  1.000000
 Range of M.O.s used for correlation:     5   276
 NBasis=   276 NAE=    17 NBE=    17 NFC=     4 NFV=     0
 NROrb=    272 NOA=    13 NOB=    13 NVA=   259 NVB=   259

 **** Warning!!: The largest alpha MO coefficient is  0.26976693D+02

 Disk-based method using ON**2 memory for 13 occupieds at a time.
 Estimated scratch disk usage=   790917340 words.
 Actual    scratch disk usage=   724653276 words.
 JobTyp=1 Pass  1:  I=   5 to  17 NPSUse= 40 ParTrn=T ParDer=T DoDerP=T.
 (rs|ai) integrals will be sorted in core.
 Spin components of T(2) and E(2):
     alpha-alpha T2 =       0.3045328909D-01 E2=     -0.1156620121D+00
     alpha-beta  T2 =       0.1684023557D+00 E2=     -0.6844617510D+00
     beta-beta   T2 =       0.3045328909D-01 E2=     -0.1156620121D+00
 ANorm=    0.1108742050D+01
 E2 =    -0.9157857752D+00 EUMP2 =    -0.26582264407654D+03
          IDoAtm=11111111
          Differentiating once with respect to electric field.
                with respect to dipole field.
          Differentiating once with respect to nuclear coordinates.
 Keep R1 ints in memory in canonical form, NReq=750671328.
          There are     1 degrees of freedom in the 1st order CPHF.  IDoFFX=0 NUNeed=     1.
 LinEq1:  Iter=  0 NonCon=     1 RMS=3.73D-03 Max=7.95D-02 NDo=     1
 AX will form     1 AO Fock derivatives at one time.
 LinEq1:  Iter=  1 NonCon=     1 RMS=9.30D-04 Max=1.35D-02 NDo=     1
 LinEq1:  Iter=  2 NonCon=     1 RMS=3.69D-04 Max=6.16D-03 NDo=     1
 LinEq1:  Iter=  3 NonCon=     1 RMS=1.52D-04 Max=2.65D-03 NDo=     1
 LinEq1:  Iter=  4 NonCon=     1 RMS=4.15D-05 Max=3.94D-04 NDo=     1
 LinEq1:  Iter=  5 NonCon=     1 RMS=1.62D-05 Max=3.14D-04 NDo=     1
 LinEq1:  Iter=  6 NonCon=     1 RMS=5.80D-06 Max=8.08D-05 NDo=     1
 LinEq1:  Iter=  7 NonCon=     1 RMS=1.42D-06 Max=1.54D-05 NDo=     1
 LinEq1:  Iter=  8 NonCon=     1 RMS=3.77D-07 Max=5.28D-06 NDo=     1
 LinEq1:  Iter=  9 NonCon=     1 RMS=1.16D-07 Max=1.33D-06 NDo=     1
 LinEq1:  Iter= 10 NonCon=     1 RMS=4.27D-08 Max=5.00D-07 NDo=     1
 LinEq1:  Iter= 11 NonCon=     1 RMS=8.94D-09 Max=8.81D-08 NDo=     1
 LinEq1:  Iter= 12 NonCon=     1 RMS=1.42D-09 Max=1.44D-08 NDo=     1
 LinEq1:  Iter= 13 NonCon=     1 RMS=2.05D-10 Max=1.80D-09 NDo=     1
 LinEq1:  Iter= 14 NonCon=     0 RMS=3.11D-11 Max=2.85D-10 NDo=     1
 Linear equations converged to 1.000D-10 1.000D-09 after    14 iterations.
 End of Minotr F.D. properties file   721 does not exist.
 End of Minotr F.D. properties file   722 does not exist.
 End of Minotr F.D. properties file   788 does not exist.
 Calling FoFJK, ICntrl=  10002127 FMM=F ISym2X=0 I1Cent= 0 IOpClX= 0 NMat=1 NMatS=1 NMatT=0.
 ***** Axes restored to original set *****
 -------------------------------------------------------------------
 Center     Atomic                   Forces (Hartrees/Bohr)
 Number     Number              X              Y              Z
 -------------------------------------------------------------------
      1        6          -0.000601369    0.000126529    0.000004044
      2        8           0.000301512    0.000235241   -0.000001529
      3        8           0.000245264    0.000278898    0.000001642
      4        1           0.000235888   -0.000579938   -0.000017310
      5        8           0.000106240    0.000312733    0.000026023
      6        1          -0.000162269   -0.000256968   -0.000001525
      7        1          -0.000072826   -0.000065822    0.000049471
      8        1          -0.000052440   -0.000050674   -0.000060815
 -------------------------------------------------------------------
 Cartesian Forces:  Max     0.000601369 RMS     0.000230702

 GradGradGradGradGradGradGradGradGradGradGradGradGradGradGradGradGradGrad
 Berny optimization.
 Using GEDIIS/GDIIS optimizer.
 FormGI is forming the generalized inverse of G from B-inverse, IUseBI=4.
 Internal  Forces:  Max     0.000477005 RMS     0.000196247
 Search for a local minimum.
 Step number   3 out of a maximum of   32
 All quantities printed in internal units (Hartrees-Bohrs-Radians)
 Mixed Optimization -- En-DIIS/RFO-DIIS
 Swapping is turned off.
 Update second derivatives using D2CorX and points    1    2    3
 DE= -9.76D-07 DEPred=-1.19D-05 R= 8.19D-02
 Trust test= 8.19D-02 RLast= 4.19D-02 DXMaxT set to 1.50D-01
 ITU= -1  1  0
     Eigenvalues ---    0.00230   0.00230   0.00560   0.02305   0.02305
     Eigenvalues ---    0.03062   0.05876   0.13372   0.15162   0.16002
     Eigenvalues ---    0.16051   0.21766   0.33555   0.48544   0.51607
     Eigenvalues ---    0.54063   0.54296   0.92672
 En-DIIS/RFO-DIIS/Sim-DIIS IScMMF=       -3 using points:     3    2
 RFO step:  Lambda=-3.19344931D-05.
 DidBck=T Rises=F RFO-DIIS coefs:   -0.58077    1.58077
 Iteration  1 RMS(Cart)=  0.04841786 RMS(Int)=  0.00084183
 Iteration  2 RMS(Cart)=  0.00145514 RMS(Int)=  0.00000893
 Iteration  3 RMS(Cart)=  0.00000005 RMS(Int)=  0.00000893
 Variable       Old X    -DE/DX   Delta X   Delta X   Delta X     New X
                                 (Linear)    (Quad)   (Total)
    R1        2.27399   0.00032   0.00240  -0.00419  -0.00179   2.27220
    R2        2.53725  -0.00037   0.00251  -0.00493  -0.00241   2.53484
    R3        2.07695   0.00030  -0.00167   0.00236   0.00069   2.07764
    R4        1.84689  -0.00008   0.00088  -0.00167  -0.00080   1.84609
    R5        3.41290  -0.00006   0.00363  -0.00637  -0.00274   3.41016
    R6        1.81888   0.00007   0.00095  -0.00167  -0.00071   1.81817
    R7        1.81886   0.00007   0.00095  -0.00166  -0.00071   1.81815
    A1        2.15127  -0.00030  -0.00608   0.00871   0.00264   2.15390
    A2        2.15452   0.00017   0.00334  -0.00471  -0.00137   2.15315
    A3        1.97740   0.00013   0.00274  -0.00400  -0.00126   1.97613
    A4        1.89935  -0.00032  -0.01288   0.01883   0.00595   1.90531
    A5        2.04499   0.00012  -0.00069   0.00189   0.00119   2.04618
    A6        2.05024  -0.00000   0.00006   0.00043   0.00048   2.05073
    A7        1.83199   0.00002  -0.00432   0.00742   0.00308   1.83506
    A8        3.08930   0.00048   0.06105   0.00983   0.07088   3.16018
    A9        3.14023  -0.00000  -0.00092   0.00039  -0.00052   3.13970
    D1       -3.14155  -0.00000  -0.00006   0.00006   0.00000  -3.14154
    D2       -3.14155  -0.00000  -0.00007   0.00006  -0.00001  -3.14156
    D3        0.00001   0.00000   0.00001  -0.00000   0.00001   0.00002
    D4        2.03083   0.00000   0.01380  -0.00562   0.00816   2.03898
    D5       -2.02841  -0.00000  -0.01350   0.00489  -0.00859  -2.03700
    D6        2.31026   0.00012  -0.00453   0.00912   0.00458   2.31484
         Item               Value     Threshold  Converged?
 Maximum Force            0.000477     0.000450     NO 
 RMS     Force            0.000196     0.000300     YES
 Maximum Displacement     0.111783     0.001800     NO 
 RMS     Displacement     0.047864     0.001200     NO 
 Predicted change in Energy=-1.607853D-05
 GradGradGradGradGradGradGradGradGradGradGradGradGradGradGradGradGradGrad

                          Input orientation:                          
 ---------------------------------------------------------------------
 Center     Atomic      Atomic             Coordinates (Angstroms)
 Number     Number       Type             X           Y           Z
 ---------------------------------------------------------------------
      1          6           0        1.037796   -0.296112   -0.000365
      2          8           0        2.232049   -0.156395    0.000485
      3          8           0        0.174100    0.730203   -0.001035
      4          1           0       -0.738431    0.381442   -0.001627
      5          8           0       -2.435777   -0.231355    0.000513
      6          1           0        0.543907   -1.278376   -0.000638
      7          1           0       -2.979651   -0.018994    0.765240
      8          1           0       -2.983717   -0.024502   -0.762806
 ---------------------------------------------------------------------
                    Distance matrix (angstroms):
                    1          2          3          4          5
     1  C    0.000000
     2  O    1.202398   0.000000
     3  O    1.341378   2.240807   0.000000
     4  H    1.901070   3.018780   0.976908   0.000000
     5  O    3.474177   4.668428   2.781377   1.804580   0.000000
     6  H    1.099441   2.026984   2.042339   2.097472   3.158286
     7  H    4.099125   5.269303   3.330859   2.402395   0.962135
     8  H    4.102153   5.272972   3.334919   2.405305   0.962124
                    6          7          8
     6  H    0.000000
     7  H    3.819434   0.000000
     8  H    3.820632   1.528062   0.000000
 Stoichiometry    CH4O3
 Framework group  C1[X(CH4O3)]
 Deg. of freedom    18
 Full point group                 C1      NOp   1
 Largest Abelian subgroup         C1      NOp   1
 Largest concise Abelian subgroup C1      NOp   1
                         Standard orientation:                         
 ---------------------------------------------------------------------
 Center     Atomic      Atomic             Coordinates (Angstroms)
 Number     Number       Type             X           Y           Z
 ---------------------------------------------------------------------
      1          6           0        1.042624   -0.297185   -0.000347
      2          8           0        2.236932   -0.157941    0.000653
      3          8           0        0.179333    0.729471   -0.000639
      4          1           0       -0.733336    0.381070   -0.001450
      5          8           0       -2.430923   -0.231059    0.000299
      6          1           0        0.548348   -1.279254   -0.001080
      7          1           0       -2.974771   -0.018811    0.765077
      8          1           0       -2.978724   -0.023661   -0.762972
 ---------------------------------------------------------------------
 Rotational constants (GHZ):          36.6727612           2.4364814           2.3092570
 Standard basis: Aug-CC-pVTZ (5D, 7F)
 There are   320 symmetry adapted cartesian basis functions of A   symmetry.
 There are   276 symmetry adapted basis functions of A   symmetry.
   276 basis functions,   396 primitive gaussians,   320 cartesian basis functions
    17 alpha electrons       17 beta electrons
       nuclear repulsion energy       115.8699908066 Hartrees.
 NAtoms=    8 NActive=    8 NUniq=    8 SFac= 1.00D+00 NAtFMM=   60 NAOKFM=F Big=F
 Integral buffers will be    131072 words long.
 Raffenetti 1 integral format.
 Two-electron integral symmetry is turned on.
 One-electron integrals computed using PRISM.
 NBasis=   276 RedAO= T EigKep=  5.70D-05  NBF=   276
 NBsUse=   276 1.00D-06 EigRej= -1.00D+00 NBFU=   276
 Initial guess from the checkpoint file:  "/scr/Gau-90347.chk"
 B after Tr=    -0.000000   -0.000000    0.000000
         Rot=    0.999999    0.000015    0.000000   -0.001304 Ang=   0.15 deg.
 ExpMin= 2.53D-02 ExpMax= 1.53D+04 ExpMxC= 5.22D+02 IAcc=3 IRadAn=         5 AccDes= 0.00D+00
 Harris functional with IExCor=  205 and IRadAn=       5 diagonalized for initial guess.
 HarFok:  IExCor=  205 AccDes= 0.00D+00 IRadAn=         5 IDoV= 1 UseB2=F ITyADJ=14
 ICtDFT=  3500011 ScaDFX=  1.000000  1.000000  1.000000  1.000000
 FoFCou: FMM=F IPFlag=           0 FMFlag=      100000 FMFlg1=           0
         NFxFlg=           0 DoJE=T BraDBF=F KetDBF=T FulRan=T
         wScrn=  0.000000 ICntrl=       500 IOpCl=  0 I1Cent=   200000004 NGrid=           0
         NMat0=    1 NMatS0=      1 NMatT0=    0 NMatD0=    1 NMtDS0=    0 NMtDT0=    0
 Petite list used in FoFCou.
 Keep R1 ints in memory in canonical form, NReq=750660072.
 Requested convergence on RMS density matrix=1.00D-08 within 128 cycles.
 Requested convergence on MAX density matrix=1.00D-06.
 Requested convergence on             energy=1.00D-06.
 No special actions if energy rises.
 SCF Done:  E(RHF) =  -264.907117492     A.U. after   10 cycles
            NFock= 10  Conv=0.54D-08     -V/T= 2.0017
 ExpMin= 2.53D-02 ExpMax= 1.53D+04 ExpMxC= 5.22D+02 IAcc=3 IRadAn=         5 AccDes= 0.00D+00
 HarFok:  IExCor=  205 AccDes= 0.00D+00 IRadAn=         5 IDoV=-2 UseB2=F ITyADJ=14
 ICtDFT= 12500011 ScaDFX=  1.000000  1.000000  1.000000  1.000000
 Range of M.O.s used for correlation:     5   276
 NBasis=   276 NAE=    17 NBE=    17 NFC=     4 NFV=     0
 NROrb=    272 NOA=    13 NOB=    13 NVA=   259 NVB=   259

 **** Warning!!: The largest alpha MO coefficient is  0.29833301D+02

 Disk-based method using ON**2 memory for 13 occupieds at a time.
 Estimated scratch disk usage=   790820812 words.
 Actual    scratch disk usage=   724480972 words.
 JobTyp=1 Pass  1:  I=   5 to  17 NPSUse= 40 ParTrn=T ParDer=T DoDerP=T.
 (rs|ai) integrals will be sorted in core.
 Spin components of T(2) and E(2):
     alpha-alpha T2 =       0.3042420187D-01 E2=     -0.1156244782D+00
     alpha-beta  T2 =       0.1682539516D+00 E2=     -0.6842726774D+00
     beta-beta   T2 =       0.3042420187D-01 E2=     -0.1156244782D+00
 ANorm=    0.1108648887D+01
 E2 =    -0.9155216338D+00 EUMP2 =    -0.26582263912608D+03
          IDoAtm=11111111
          Differentiating once with respect to electric field.
                with respect to dipole field.
          Differentiating once with respect to nuclear coordinates.
 Keep R1 ints in memory in canonical form, NReq=750669991.
          There are     1 degrees of freedom in the 1st order CPHF.  IDoFFX=0 NUNeed=     1.
 LinEq1:  Iter=  0 NonCon=     1 RMS=3.72D-03 Max=8.08D-02 NDo=     1
 AX will form     1 AO Fock derivatives at one time.
 LinEq1:  Iter=  1 NonCon=     1 RMS=9.28D-04 Max=1.31D-02 NDo=     1
 LinEq1:  Iter=  2 NonCon=     1 RMS=3.67D-04 Max=6.20D-03 NDo=     1
 LinEq1:  Iter=  3 NonCon=     1 RMS=1.52D-04 Max=2.59D-03 NDo=     1
 LinEq1:  Iter=  4 NonCon=     1 RMS=4.14D-05 Max=3.87D-04 NDo=     1
 LinEq1:  Iter=  5 NonCon=     1 RMS=1.62D-05 Max=3.12D-04 NDo=     1
 LinEq1:  Iter=  6 NonCon=     1 RMS=5.80D-06 Max=8.23D-05 NDo=     1
 LinEq1:  Iter=  7 NonCon=     1 RMS=1.41D-06 Max=1.54D-05 NDo=     1
 LinEq1:  Iter=  8 NonCon=     1 RMS=3.75D-07 Max=5.14D-06 NDo=     1
 LinEq1:  Iter=  9 NonCon=     1 RMS=1.14D-07 Max=1.67D-06 NDo=     1
 LinEq1:  Iter= 10 NonCon=     1 RMS=4.22D-08 Max=4.68D-07 NDo=     1
 LinEq1:  Iter= 11 NonCon=     1 RMS=8.85D-09 Max=8.80D-08 NDo=     1
 LinEq1:  Iter= 12 NonCon=     1 RMS=1.40D-09 Max=1.42D-08 NDo=     1
 LinEq1:  Iter= 13 NonCon=     1 RMS=2.03D-10 Max=1.74D-09 NDo=     1
 LinEq1:  Iter= 14 NonCon=     0 RMS=3.08D-11 Max=2.78D-10 NDo=     1
 Linear equations converged to 1.000D-10 1.000D-09 after    14 iterations.
 End of Minotr F.D. properties file   721 does not exist.
 End of Minotr F.D. properties file   722 does not exist.
 End of Minotr F.D. properties file   788 does not exist.
 Calling FoFJK, ICntrl=  10002127 FMM=F ISym2X=0 I1Cent= 0 IOpClX= 0 NMat=1 NMatS=1 NMatT=0.
 ***** Axes restored to original set *****
 -------------------------------------------------------------------
 Center     Atomic                   Forces (Hartrees/Bohr)
 Number     Number              X              Y              Z
 -------------------------------------------------------------------
      1        6          -0.002053533   -0.001371324    0.000001759
      2        8           0.001718786    0.000768060    0.000000094
      3        8           0.000621798    0.001205659   -0.000003824
      4        1          -0.000416813   -0.000244374   -0.000005073
      5        8           0.000813270   -0.000265821    0.000016156
      6        1          -0.000048242   -0.000306997   -0.000000950
      7        1          -0.000324999    0.000102649    0.000104209
      8        1          -0.000310267    0.000112148   -0.000112371
 -------------------------------------------------------------------
 Cartesian Forces:  Max     0.002053533 RMS     0.000730091

 GradGradGradGradGradGradGradGradGradGradGradGradGradGradGradGradGradGrad
 Berny optimization.
 Using GEDIIS/GDIIS optimizer.
 FormGI is forming the generalized inverse of G from B-inverse, IUseBI=4.
 Internal  Forces:  Max     0.001796390 RMS     0.000519051
 Search for a local minimum.
 Step number   4 out of a maximum of   32
 All quantities printed in internal units (Hartrees-Bohrs-Radians)
 Mixed Optimization -- En-DIIS/RFO-DIIS
 Swapping is turned off.
 Update second derivatives using D2CorX and points    1    2    3    4
 DE=  4.95D-06 DEPred=-1.61D-05 R=-3.08D-01
 Trust test=-3.08D-01 RLast= 7.25D-02 DXMaxT set to 7.50D-02
 ITU= -1 -1  1  0
     Eigenvalues ---    0.00230   0.00230   0.01130   0.02305   0.02305
     Eigenvalues ---    0.03142   0.05680   0.13808   0.15498   0.16022
     Eigenvalues ---    0.16399   0.25669   0.32036   0.42375   0.51449
     Eigenvalues ---    0.54063   0.54355   0.90323
 En-DIIS/RFO-DIIS/Sim-DIIS IScMMF=       -3 using points:     4    3    2
 RFO step:  Lambda=-2.93955653D-05.
 EnCoef did     2 forward-backward iterations
 DidBck=T Rises=T En-DIIS coefs:    0.37480    0.31460    0.31059
 Iteration  1 RMS(Cart)=  0.02414936 RMS(Int)=  0.00021370
 Iteration  2 RMS(Cart)=  0.00039585 RMS(Int)=  0.00000323
 Iteration  3 RMS(Cart)=  0.00000001 RMS(Int)=  0.00000323
 Variable       Old X    -DE/DX   Delta X   Delta X   Delta X     New X
                                 (Linear)    (Quad)   (Total)
    R1        2.27220   0.00180   0.00159   0.00046   0.00205   2.27425
    R2        2.53484   0.00045   0.00200  -0.00020   0.00180   2.53663
    R3        2.07764   0.00030  -0.00076   0.00116   0.00041   2.07805
    R4        1.84609   0.00033   0.00067   0.00007   0.00074   1.84683
    R5        3.41016  -0.00015   0.00242  -0.00175   0.00067   3.41083
    R6        1.81817   0.00029   0.00063   0.00012   0.00075   1.81892
    R7        1.81815   0.00029   0.00063   0.00012   0.00075   1.81890
    A1        2.15390  -0.00092  -0.00284  -0.00063  -0.00348   2.15043
    A2        2.15315   0.00036   0.00151   0.00008   0.00160   2.15475
    A3        1.97613   0.00056   0.00133   0.00055   0.00188   1.97801
    A4        1.90531  -0.00075  -0.00625   0.00034  -0.00591   1.89939
    A5        2.04618   0.00011  -0.00088   0.00066  -0.00022   2.04596
    A6        2.05073   0.00009  -0.00029   0.00031   0.00002   2.05075
    A7        1.83506  -0.00026  -0.00277   0.00038  -0.00239   1.83268
    A8        3.16018  -0.00041  -0.03232  -0.00167  -0.03399   3.12619
    A9        3.13970   0.00001   0.00015   0.00033   0.00048   3.14018
    D1       -3.14154  -0.00000  -0.00001  -0.00002  -0.00003  -3.14157
    D2       -3.14156  -0.00000  -0.00001  -0.00003  -0.00004   3.14158
    D3        0.00002   0.00000  -0.00000   0.00002   0.00001   0.00003
    D4        2.03898   0.00003  -0.00239  -0.00116  -0.00354   2.03544
    D5       -2.03700  -0.00003   0.00272   0.00094   0.00365  -2.03335
    D6        2.31484  -0.00003  -0.00375   0.00134  -0.00241   2.31243
         Item               Value     Threshold  Converged?
 Maximum Force            0.001796     0.000450     NO 
 RMS     Force            0.000519     0.000300     NO 
 Maximum Displacement     0.055500     0.001800     NO 
 RMS     Displacement     0.024353     0.001200     NO 
 Predicted change in Energy=-1.461685D-05
 GradGradGradGradGradGradGradGradGradGradGradGradGradGradGradGradGradGrad

                          Input orientation:                          
 ---------------------------------------------------------------------
 Center     Atomic      Atomic             Coordinates (Angstroms)
 Number     Number       Type             X           Y           Z
 ---------------------------------------------------------------------
      1          6           0        1.026360   -0.296405   -0.000365
      2          8           0        2.223776   -0.175720    0.000191
      3          8           0        0.182230    0.747286   -0.001015
      4          1           0       -0.735321    0.410812   -0.001367
      5          8           0       -2.420137   -0.236633    0.000443
      6          1           0        0.515151   -1.270010   -0.000400
      7          1           0       -2.968937   -0.033960    0.764779
      8          1           0       -2.972845   -0.039459   -0.762500
 ---------------------------------------------------------------------
                    Distance matrix (angstroms):
                    1          2          3          4          5
     1  C    0.000000
     2  O    1.203482   0.000000
     3  O    1.342329   2.240502   0.000000
     4  H    1.898336   3.016667   0.977300   0.000000
     5  O    3.447016   4.644313   2.782160   1.804936   0.000000
     6  H    1.099655   2.029007   2.044583   2.094957   3.111878
     7  H    4.076362   5.250615   3.335662   2.402882   0.962532
     8  H    4.079279   5.254059   3.339660   2.405947   0.962521
                    6          7          8
     6  H    0.000000
     7  H    3.775207   0.000000
     8  H    3.776396   1.527294   0.000000
 Stoichiometry    CH4O3
 Framework group  C1[X(CH4O3)]
 Deg. of freedom    18
 Full point group                 C1      NOp   1
 Largest Abelian subgroup         C1      NOp   1
 Largest concise Abelian subgroup C1      NOp   1
                         Standard orientation:                         
 ---------------------------------------------------------------------
 Center     Atomic      Atomic             Coordinates (Angstroms)
 Number     Number       Type             X           Y           Z
 ---------------------------------------------------------------------
      1          6           0        1.029850   -0.295290   -0.000230
      2          8           0        2.227244   -0.174389    0.000502
      3          8           0        0.185531    0.748249   -0.000563
      4          1           0       -0.731959    0.411609   -0.001146
      5          8           0       -2.416658   -0.236141    0.000228
      6          1           0        0.518817   -1.268987   -0.000702
      7          1           0       -2.965577   -0.033867    0.764585
      8          1           0       -2.969319   -0.038768   -0.762697
 ---------------------------------------------------------------------
 Rotational constants (GHZ):          35.2519390           2.4629409           2.3270198
 Standard basis: Aug-CC-pVTZ (5D, 7F)
 There are   320 symmetry adapted cartesian basis functions of A   symmetry.
 There are   276 symmetry adapted basis functions of A   symmetry.
   276 basis functions,   396 primitive gaussians,   320 cartesian basis functions
    17 alpha electrons       17 beta electrons
       nuclear repulsion energy       115.9584775317 Hartrees.
 NAtoms=    8 NActive=    8 NUniq=    8 SFac= 1.00D+00 NAtFMM=   60 NAOKFM=F Big=F
 Integral buffers will be    131072 words long.
 Raffenetti 1 integral format.
 Two-electron integral symmetry is turned on.
 One-electron integrals computed using PRISM.
 NBasis=   276 RedAO= T EigKep=  5.72D-05  NBF=   276
 NBsUse=   276 1.00D-06 EigRej= -1.00D+00 NBFU=   276
 Initial guess from the checkpoint file:  "/scr/Gau-90347.chk"
 B after Tr=    -0.000000    0.000000   -0.000000
         Rot=    1.000000   -0.000026    0.000001    0.000697 Ang=  -0.08 deg.
 ExpMin= 2.53D-02 ExpMax= 1.53D+04 ExpMxC= 5.22D+02 IAcc=3 IRadAn=         5 AccDes= 0.00D+00
 Harris functional with IExCor=  205 and IRadAn=       5 diagonalized for initial guess.
 HarFok:  IExCor=  205 AccDes= 0.00D+00 IRadAn=         5 IDoV= 1 UseB2=F ITyADJ=14
 ICtDFT=  3500011 ScaDFX=  1.000000  1.000000  1.000000  1.000000
 FoFCou: FMM=F IPFlag=           0 FMFlag=      100000 FMFlg1=           0
         NFxFlg=           0 DoJE=T BraDBF=F KetDBF=T FulRan=T
         wScrn=  0.000000 ICntrl=       500 IOpCl=  0 I1Cent=   200000004 NGrid=           0
         NMat0=    1 NMatS0=      1 NMatT0=    0 NMatD0=    1 NMtDS0=    0 NMtDT0=    0
 Petite list used in FoFCou.
 Keep R1 ints in memory in canonical form, NReq=750660734.
 Requested convergence on RMS density matrix=1.00D-08 within 128 cycles.
 Requested convergence on MAX density matrix=1.00D-06.
 Requested convergence on             energy=1.00D-06.
 No special actions if energy rises.
 SCF Done:  E(RHF) =  -264.906865813     A.U. after    9 cycles
            NFock=  9  Conv=0.86D-08     -V/T= 2.0018
 ExpMin= 2.53D-02 ExpMax= 1.53D+04 ExpMxC= 5.22D+02 IAcc=3 IRadAn=         5 AccDes= 0.00D+00
 HarFok:  IExCor=  205 AccDes= 0.00D+00 IRadAn=         5 IDoV=-2 UseB2=F ITyADJ=14
 ICtDFT= 12500011 ScaDFX=  1.000000  1.000000  1.000000  1.000000
 Range of M.O.s used for correlation:     5   276
 NBasis=   276 NAE=    17 NBE=    17 NFC=     4 NFV=     0
 NROrb=    272 NOA=    13 NOB=    13 NVA=   259 NVB=   259

 **** Warning!!: The largest alpha MO coefficient is  0.27939067D+02

 Disk-based method using ON**2 memory for 13 occupieds at a time.
 Estimated scratch disk usage=   790820812 words.
 Actual    scratch disk usage=   724480972 words.
 JobTyp=1 Pass  1:  I=   5 to  17 NPSUse= 40 ParTrn=T ParDer=T DoDerP=T.
 (rs|ai) integrals will be sorted in core.
 Spin components of T(2) and E(2):
     alpha-alpha T2 =       0.3045384870D-01 E2=     -0.1156609451D+00
     alpha-beta  T2 =       0.1684137998D+00 E2=     -0.6844660091D+00
     beta-beta   T2 =       0.3045384870D-01 E2=     -0.1156609451D+00
 ANorm=    0.1108747716D+01
 E2 =    -0.9157878993D+00 EUMP2 =    -0.26582265371273D+03
          IDoAtm=11111111
          Differentiating once with respect to electric field.
                with respect to dipole field.
          Differentiating once with respect to nuclear coordinates.
 Keep R1 ints in memory in canonical form, NReq=750670902.
          There are     1 degrees of freedom in the 1st order CPHF.  IDoFFX=0 NUNeed=     1.
 LinEq1:  Iter=  0 NonCon=     1 RMS=3.73D-03 Max=7.99D-02 NDo=     1
 AX will form     1 AO Fock derivatives at one time.
 LinEq1:  Iter=  1 NonCon=     1 RMS=9.31D-04 Max=1.33D-02 NDo=     1
 LinEq1:  Iter=  2 NonCon=     1 RMS=3.69D-04 Max=6.17D-03 NDo=     1
 LinEq1:  Iter=  3 NonCon=     1 RMS=1.52D-04 Max=2.62D-03 NDo=     1
 LinEq1:  Iter=  4 NonCon=     1 RMS=4.16D-05 Max=3.90D-04 NDo=     1
 LinEq1:  Iter=  5 NonCon=     1 RMS=1.62D-05 Max=3.14D-04 NDo=     1
 LinEq1:  Iter=  6 NonCon=     1 RMS=5.81D-06 Max=8.12D-05 NDo=     1
 LinEq1:  Iter=  7 NonCon=     1 RMS=1.42D-06 Max=1.54D-05 NDo=     1
 LinEq1:  Iter=  8 NonCon=     1 RMS=3.77D-07 Max=5.24D-06 NDo=     1
 LinEq1:  Iter=  9 NonCon=     1 RMS=1.16D-07 Max=1.52D-06 NDo=     1
 LinEq1:  Iter= 10 NonCon=     1 RMS=4.27D-08 Max=4.99D-07 NDo=     1
 LinEq1:  Iter= 11 NonCon=     1 RMS=8.94D-09 Max=8.81D-08 NDo=     1
 LinEq1:  Iter= 12 NonCon=     1 RMS=1.42D-09 Max=1.44D-08 NDo=     1
 LinEq1:  Iter= 13 NonCon=     1 RMS=2.05D-10 Max=1.78D-09 NDo=     1
 LinEq1:  Iter= 14 NonCon=     0 RMS=3.11D-11 Max=2.90D-10 NDo=     1
 Linear equations converged to 1.000D-10 1.000D-09 after    14 iterations.
 End of Minotr F.D. properties file   721 does not exist.
 End of Minotr F.D. properties file   722 does not exist.
 End of Minotr F.D. properties file   788 does not exist.
 Calling FoFJK, ICntrl=  10002127 FMM=F ISym2X=0 I1Cent= 0 IOpClX= 0 NMat=1 NMatS=1 NMatT=0.
 ***** Axes restored to original set *****
 -------------------------------------------------------------------
 Center     Atomic                   Forces (Hartrees/Bohr)
 Number     Number              X              Y              Z
 -------------------------------------------------------------------
      1        6          -0.000227442    0.000047370   -0.000001997
      2        8           0.000122208    0.000003224    0.000000834
      3        8           0.000113293   -0.000042379    0.000001597
      4        1          -0.000116939   -0.000083604   -0.000013298
      5        8           0.000153928    0.000116637    0.000022605
      6        1           0.000027928    0.000018228    0.000000598
      7        1          -0.000045703   -0.000036292   -0.000031035
      8        1          -0.000027273   -0.000023184    0.000020695
 -------------------------------------------------------------------
 Cartesian Forces:  Max     0.000227442 RMS     0.000078898

 GradGradGradGradGradGradGradGradGradGradGradGradGradGradGradGradGradGrad
 Berny optimization.
 Using GEDIIS/GDIIS optimizer.
 FormGI is forming the generalized inverse of G from B-inverse, IUseBI=4.
 Internal  Forces:  Max     0.000121915 RMS     0.000047293
 Search for a local minimum.
 Step number   5 out of a maximum of   32
 All quantities printed in internal units (Hartrees-Bohrs-Radians)
 Mixed Optimization -- En-DIIS/RFO-DIIS
 Swapping is turned off.
 Update second derivatives using D2CorX and points    1    2    3    4    5
 DE= -1.46D-05 DEPred=-1.46D-05 R= 9.98D-01
 TightC=F SS=  1.41D+00  RLast= 3.54D-02 DXNew= 1.2613D-01 1.0632D-01
 Trust test= 9.98D-01 RLast= 3.54D-02 DXMaxT set to 1.06D-01
 ITU=  1 -1 -1  1  0
     Eigenvalues ---    0.00230   0.00230   0.01172   0.02305   0.02305
     Eigenvalues ---    0.03110   0.05586   0.13851   0.15650   0.16037
     Eigenvalues ---    0.16278   0.25852   0.32252   0.50894   0.52937
     Eigenvalues ---    0.54063   0.54133   0.94383
 En-DIIS/RFO-DIIS/Sim-DIIS IScMMF=       -3 using points:     5    4    3    2
 RFO step:  Lambda=-3.57703117D-07.
 DidBck=F Rises=F RFO-DIIS coefs:    1.19343   -0.05213   -0.03459   -0.10671
 Iteration  1 RMS(Cart)=  0.00097329 RMS(Int)=  0.00000117
 Iteration  2 RMS(Cart)=  0.00000058 RMS(Int)=  0.00000106
 Variable       Old X    -DE/DX   Delta X   Delta X   Delta X     New X
                                 (Linear)    (Quad)   (Total)
    R1        2.27425   0.00012  -0.00002   0.00018   0.00016   2.27441
    R2        2.53663  -0.00010  -0.00016  -0.00010  -0.00026   2.53637
    R3        2.07805  -0.00003   0.00029  -0.00030  -0.00001   2.07803
    R4        1.84683   0.00004  -0.00003   0.00013   0.00010   1.84693
    R5        3.41083  -0.00010  -0.00050  -0.00161  -0.00211   3.40872
    R6        1.81892  -0.00001  -0.00002   0.00001  -0.00001   1.81891
    R7        1.81890  -0.00001  -0.00002   0.00001  -0.00001   1.81889
    A1        2.15043   0.00000   0.00011  -0.00005   0.00006   2.15049
    A2        2.15475  -0.00002  -0.00011  -0.00006  -0.00017   2.15457
    A3        1.97801   0.00002  -0.00000   0.00011   0.00011   1.97812
    A4        1.89939  -0.00003   0.00057  -0.00064  -0.00007   1.89932
    A5        2.04596   0.00008   0.00017   0.00073   0.00090   2.04686
    A6        2.05075   0.00001   0.00007   0.00039   0.00045   2.05120
    A7        1.83268  -0.00005   0.00026  -0.00027  -0.00001   1.83266
    A8        3.12619  -0.00000  -0.00068   0.00010  -0.00058   3.12561
    A9        3.14018  -0.00000   0.00008  -0.00121  -0.00113   3.13905
    D1       -3.14157   0.00000  -0.00000   0.00003   0.00003  -3.14154
    D2        3.14158   0.00000  -0.00000   0.00005   0.00005  -3.14155
    D3        0.00003  -0.00000   0.00000  -0.00002  -0.00002   0.00001
    D4        2.03544  -0.00001  -0.00046  -0.00040  -0.00087   2.03457
    D5       -2.03335   0.00001   0.00040   0.00030   0.00071  -2.03265
    D6        2.31243   0.00004   0.00049   0.00089   0.00138   2.31380
         Item               Value     Threshold  Converged?
 Maximum Force            0.000122     0.000450     YES
 RMS     Force            0.000047     0.000300     YES
 Maximum Displacement     0.001830     0.001800     NO 
 RMS     Displacement     0.000973     0.001200     YES
 Predicted change in Energy=-1.745850D-07
 GradGradGradGradGradGradGradGradGradGradGradGradGradGradGradGradGradGrad

                          Input orientation:                          
 ---------------------------------------------------------------------
 Center     Atomic      Atomic             Coordinates (Angstroms)
 Number     Number       Type             X           Y           Z
 ---------------------------------------------------------------------
      1          6           0        1.025784   -0.296346   -0.000343
      2          8           0        2.223337   -0.176168    0.000930
      3          8           0        0.182127    0.747549   -0.001108
      4          1           0       -0.735575    0.411331   -0.002066
      5          8           0       -2.419169   -0.236179    0.000588
      6          1           0        0.514327   -1.269812   -0.000954
      7          1           0       -2.968185   -0.034377    0.764990
      8          1           0       -2.972369   -0.040088   -0.762270
 ---------------------------------------------------------------------
                    Distance matrix (angstroms):
                    1          2          3          4          5
     1  C    0.000000
     2  O    1.203568   0.000000
     3  O    1.342190   2.240490   0.000000
     4  H    1.898209   3.016674   0.977354   0.000000
     5  O    3.445478   4.642893   2.781090   1.803819   0.000000
     6  H    1.099648   2.028983   2.044530   2.094875   3.110273
     7  H    4.075064   5.249361   3.335083   2.402411   0.962525
     8  H    4.078165   5.253222   3.339249   2.405189   0.962515
                    6          7          8
     6  H    0.000000
     7  H    3.773706   0.000000
     8  H    3.774767   1.527277   0.000000
 Stoichiometry    CH4O3
 Framework group  C1[X(CH4O3)]
 Deg. of freedom    18
 Full point group                 C1      NOp   1
 Largest Abelian subgroup         C1      NOp   1
 Largest concise Abelian subgroup C1      NOp   1
                         Standard orientation:                         
 ---------------------------------------------------------------------
 Center     Atomic      Atomic             Coordinates (Angstroms)
 Number     Number       Type             X           Y           Z
 ---------------------------------------------------------------------
[...]
 16,0.00000232,-0.00020291,-0.00000239,-0.00000145,-0.00019001,-0.00003
 611,0.00005232,0.00009349,0.00018500,0.00000206,0.00002268,-0.00004606
 ,0.00003437,0.00000930,-0.00001370,-0.00000170,-0.00000931,-0.00000010
 ,0.00000102,-0.00000069,-0.00004210,-0.00008729,-0.00011802,-0.0000941
 8,-0.00059828,0.00018896,0.00004110,0.00032138,0.00002946,0.00000142,0
 .00087847,0.00018068,-0.00021174,-0.00225590,-0.00182877,0.00043865,0.
 31411222,-0.10943248,-0.43270241,-0.00012772,0.00016089,0.00007427,-0.
 26525431,-0.00003384,0.00031951,0.00001159,0.00001835,-0.00008673,-0.0
 0001016,0.00045757,-0.00013717,0.00003515,-0.00075135,0.00023632,0.000
 02346,-0.11030010,0.02343439,0.14362605,0.00007520,-0.00009025,-0.0000
 2766,0.09526505,-0.02014971,0.00025359,-0.00038428,0.00005967,-0.00022
 710,0.00008320,-0.00004353,-0.00017725,0.00032068,0.00032797,0.0003809
 6,-0.00008124,-0.00126162,-0.29240524,0.09716240,0.26900247,-0.0000920
 8,0.00009613,0.00000456,0.36233889,-0.12041152,-0.25246685,-0.00059941
 ,0.00018987,-0.00004143,0.00032142,0.00002917,-0.00000197,0.00087982,0
 .00018269,0.00020957,-0.00225640,-0.00183083,-0.00043017,0.31399222,-0
 .10834612,0.43299412,-0.00012779,0.00015987,-0.00007504,-0.04707586,0.
 01526911,-0.07007175,-0.26513399,-0.00003331,0.00032021,-0.00001423,0.
 00001831,-0.00008716,0.00001055,0.00045865,-0.00013845,-0.00003392,-0.
 00075212,0.00023755,-0.00002886,-0.10954935,0.02283669,-0.14302888,0.0
 0007536,-0.00009033,0.00003020,0.01543620,-0.00352637,0.02321463,0.094
 34625,-0.01955214,-0.00025227,0.00038339,0.00005726,0.00022717,-0.0000
 8305,-0.00004340,0.00017834,-0.00031710,0.00033008,-0.00038469,0.00007
 258,-0.00126444,0.29270335,-0.09656412,0.26973540,0.00009163,-0.000095
 29,0.00000658,0.07001980,-0.02324690,-0.01562266,-0.36258333,0.1198505
 1,-0.25319883,1.22867114,0.10409721,-0.18055642,-0.00145820,-0.0005022
 9,-0.22607897,-1.24722207,-0.15914733,0.00159859,1.25450139,-0.1642795
 6,0.18427316,0.00020640,0.16185363,-0.18042721,0.00166979,0.00032448,0
 .20223463,-0.00165922,-0.00025604,-0.20328438,0.02665876,0.02000014,-0
 .00009507,-0.00375051,0.00366682,-0.00006793,-0.04800357,0.05927927,-0
 .06277376,0.00031489,-0.00452366,-0.00026122,-0.00008546,-0.06475299,0
 .05115598,-0.00025418,0.00024168,0.02474327,0.00003700,0.00000224,-0.0
 0162862,0.00022129,-0.00018556,-0.02107296,-0.00575599,0.00640993,-0.0
 0001409,-0.00155357,-0.00027375,-0.00000313,0.02112704,0.01393583,-0.0
 0001744,-0.01385082,-0.01335920,0.00529610,-0.00000830,0.00334113,-0.0
 0115515,0.00002224,0.03149129,0.01574661,-0.00007852,-0.02056706,-0.01
 745961,0.00001351,-0.00002520,0.00125777,0.00001660,0.00001410,0.00047
 696,-0.00006928,-0.00006231,0.00019213,0.00003326,0.00006463,-0.003004
 58,0.00008503,-0.00089489,0.00000325,0.00021979,0.00014891,-0.00000361
 ,-0.00054301,0.00022961,0.00000195,0.00021439,0.00031065,0.00000077,-0
 .00090276,0.00044258,-0.00051692,0.00000409,-0.00020437,0.00016020,-0.
 00000329,-0.00052489,0.00010492,0.00000117,-0.00015007,0.00032438,0.00
 000202,-0.00011177,-0.00043439,-0.00000120,0.00000250,-0.00000330,-0.0
 0000036,-0.00000137,-0.00003628,0.00000169,0.00000064,0.00007871,0.000
 00564,0.00000310,0.00016880,-0.00001283,-0.00000904,-0.00022076,-0.002
 44526,0.02947134,-0.00003404,-0.00217947,-0.00108397,0.00006381,0.0044
 2966,-0.00407151,0.00001057,-0.00020976,-0.00112706,0.00000509,0.00023
 746,0.00022097,-0.00000099,0.00021257,0.01383928,0.05425055,-0.0000129
 7,-0.00136041,-0.00258833,-0.00000206,0.01001090,-0.00390447,0.0000178
 3,0.00077347,-0.00269742,0.00000913,0.00013603,0.00011016,-0.00000166,
 -0.02337508,-0.04514476,0.00002850,-0.00004001,-0.00213810,0.00000777,
 0.00003436,0.00221592,0.00001014,0.00001674,-0.00229230,-0.00000230,-0
 .00000155,0.00092504,0.00000026,-0.00000117,-0.00001884,-0.00004428,-0
 .00001085,0.00130836,0.00000436,0.00003122,0.00001154,-0.00000764,-0.0
 0001584,0.00001054,0.00004045,-0.00004867,-0.00004821,0.00001407,-0.00
 004487,-0.00006001,0.00034254,0.00016530,-0.00000432,-0.00002249,-0.00
 001167,0.00000060,-0.00031127,-0.00001037,0.00001353,0.00001436,0.0000
 2085,-0.00000056,0.00000496,0.00005398,-0.00003395,-0.00002660,-0.0000
 6457,-0.00002767,-0.00003974,0.00009020,0.00012661,0.00007559,-0.00001
 721,-0.00001286,0.00000263,-0.00007186,-0.00006512,-0.00000700,-0.0001
 2251,-0.00000688,0.00004172,0.00000943,0.00001078,-0.00007745,0.000058
 02,-0.00001086,0.00006614,0.00004437,-0.00000654,-0.00016268,0.0000143
 2,0.00001502,0.00002506,0.00001911,-0.00000094,0.00010504,-0.00002474,
 -0.00004376,0.00000403,0.00003235,-0.00001197,-0.00000790,-0.00001624,
 -0.00001025,0.00004119,-0.00004787,0.00004901,0.00001460,-0.00004491,0
 .00006004,0.00034659,0.00016225,0.00001236,-0.00002271,-0.00001249,-0.
 00000069,-0.00006003,-0.00000101,0.00000917,-0.00031576,-0.00000923,0.
 00001376,-0.00001618,0.00002014,-0.00000090,-0.00000484,0.00005475,-0.
 00003412,0.00002777,-0.00006377,-0.00002725,0.00003737,0.00009124,0.00
 012505,-0.00006978,-0.00001745,-0.00001287,-0.00000016,-0.00000359,0.0
 0000002,0.00000200,-0.00007208,-0.00006371,0.00000877,0.00012134,-0.00
 000840,-0.00004210,-0.00000912,0.00001099,0.00007660,-0.00005696,-0.00
 000938,-0.00006807,-0.00004598,-0.00000958,0.00017288,-0.00000812,0.00
 001668,-0.00002522,-0.00001854,0.00000086,-0.00001520,-0.00000644,0.00
 004319,-0.00010767,0.00002382,-0.00004437,0.23028708,1.54405904,2.2367
 7200,-0.00360569,-0.00720246,-0.59905173,-0.00506847,-0.01888444,-0.00
 008741,-0.00394973,0.03335177,-0.00348492,-0.00004220,-0.02451500,-0.0
 0571986,-0.00012442,0.00013212,-0.01363020,0.00012166,-0.00000961,0.00
 451598,0.00366585,-0.00210954,-0.00006250,-0.00338460,0.00123801,-0.00
 005990,0.00595402,-0.04587664,0.02010860,0.00015651,0.00317965,-0.0087
 6396,-0.00006930,0.00560858,-0.02670306,-0.00005521,0.00001239,-0.0153
 3510,0.00002375,0.00002730,0.00102680,0.00004918,-0.00004205,0.0025526
 8,0.00002091,0.00797624,-0.00002176,-0.00055227,-0.00275331,0.00000056
 ,0.00136706,-0.00292113,0.00003616,-0.00157910,0.00287672,-0.00072948,
 -0.00000813,-0.00028352,0.00045281,0.00002053,0.00096805,0.00183357,-0
 .00002080,-0.00132517,-0.00526478,-0.00002280,-0.00001218,0.00260020,0
 .00002142,0.00001161,-0.00027497,0.00001266,-0.00001690,0.00127029,-0.
 00001800,0.00002592,-0.00102848,-0.00078453,-0.00017756,0.00000283,0.0
 0071608,0.00015361,-0.00000412,-0.00064423,0.00001502,0.00000193,0.002
 02291,0.00032487,0.00000033,-0.00071635,-0.00074941,-0.00081456,0.0000
 0547,0.00058787,0.00029627,-0.00000426,-0.00019096,0.00025334,0.000000
 28,0.00090631,0.00001383,0.00000110,0.00025260,-0.00053780,0.00000149,
 0.00000345,-0.00021108,-0.00000189,-0.00000183,-0.00000185,0.00000111,
 -0.00000002,-0.00003775,0.00000274,0.00000242,-0.00051424,-0.00001299,
 -0.00000804,0.00012795,-0.22832813,-1.53102807,0.00377540,0.01236577,-
 0.00742088,0.00006574,-0.00669146,0.04002043,-0.00005664,-0.00167210,-
 0.00275479,0.00000712,-0.00048913,0.00045112,-0.00000119,0.22502512,-1
 .53384532,-2.25207324,0.00709307,0.04006883,0.01728003,-0.00006992,-0.
 00534398,0.01334554,0.00002146,-0.00189155,0.00368417,-0.00000713,0.00
 031944,0.00014083,-0.00000131,1.50063549,2.21783086,0.00380534,0.00706
 848,0.62559044,-0.00007752,0.00001418,0.00833327,0.00006015,-0.0000294
 5,0.01048756,0.00000186,-0.00001840,-0.00208666,0.00000029,-0.00000032
 ,0.00055500,-0.00378995,-0.00703688,-0.64268874,0.00010348,0.00008159,
 0.00004570,-0.00006302,-0.00002689,-0.00000759,-0.00013328,-0.00001299
 ,0.00006636,0.00019606,0.00009709,0.00007235,-0.00005497,-0.00062747,0
 .00009520,-0.00010487,0.00002881,-0.00014852,0.00007046,0.00009112,0.0
 0011097,-0.00003714,-0.00007618,-0.00003001,0.00001294,-0.00008511,-0.
 00003711,0.00000899,0.00000391,0.00000472,0.00006047,-0.00044451,0.000
 32397,-0.00029626,0.00004835,-0.00010417,0.00010954,0.00043893,-0.0001
 7485,-0.00004097,-0.00015297,0.00001968,0.00009317,0.00005177,0.000015
 22,-0.00003710,0.00000170,0.00001690,0.00008373,-0.00001170,0.00001837
 ,-0.00001593,0.00010769,0.00004028,-0.00004196,0.00009730,-0.00009656,
 -0.00007885,0.00002588,-0.00005927,0.00010383,0.00008272,-0.00004657,-
 0.00006377,-0.00002732,0.00000806,-0.00013334,-0.00001288,-0.00006553,
 0.00019649,0.00009672,-0.00007306,-0.00004975,-0.00063007,-0.00008448,
 -0.00010522,0.00002829,0.00014836,-0.00001388,0.00002349,0.00003792,0.
 00006563,0.00009267,0.00011063,0.00003488,-0.00007721,-0.00003035,-0.0
 0001250,-0.00008505,-0.00003693,-0.00000757,0.00000469,0.00000515,-0.0
 0006289,-0.00044348,0.00032414,0.00030158,0.00004838,-0.00010402,-0.00
 010716,0.00002093,-0.00009353,-0.00011967,0.00043905,-0.00017509,0.000
 04225,0.00015116,0.00001779,-0.00009318,-0.00005122,0.00001575,0.00003
 639,-0.00000050,0.00001862,-0.00008529,0.00001015,0.00001549,0.0000276
 7,-0.00010193,0.00004175,0.00004150,-0.00009658,-0.00009431,-0.0000446
 4,0.00011560,0.00004536,0.00007529,-0.00002667,-0.00006046,0.00027642,
 0.00868683,-0.04227526,0.00013677,-0.00021441,0.00612933,-0.00008028,-
 0.00167906,-0.00010620,0.00319733,0.00243532,0.00986788,-0.00000347,-0
 .00377102,-0.00529162,-0.00005446,0.00012313,0.00309711,0.00006512,-0.
 00005020,-0.00494621,-0.00017488,-0.02321603,-0.00002163,-0.00578671,0
 .00614559,-0.00006901,5.25484805,-0.06139002,0.02593340,0.00015690,0.0
 0445042,0.00434700,-0.00010037,2.44044390,-0.35415783,-0.00002664,0.00
 001704,-0.01834557,0.00002143,-0.00000702,-0.00010436,-0.01050037,-0.0
 0401988,-1.24979257,-0.00869880,0.03751783,-0.00006915,0.01293274,-0.0
 1206220,0.00000810,-5.22704234,-2.39379459,0.01048474,5.16395852,0.048
 48643,0.00840482,-0.00005731,0.00536237,-0.00980487,0.00004184,-2.4192
 8013,0.32563540,0.00396718,2.35503404,-0.31994740,-0.00011366,-0.00002
 160,0.00642695,0.00001448,0.00003886,0.00281249,0.01054612,0.00393711,
 1.26418110,-0.01039440,-0.00391214,-1.24679856,0.00713427,-0.02029733,
 0.00003565,-0.00864720,0.00656474,-0.00000773,-0.01988033,0.00534247,0
 .00001490,0.04609548,0.00694749,-0.00004481,-0.01069843,0.00068488,-0.
 00457540,0.00001320,-0.00198813,0.00173520,-0.00000544,-0.00324367,0.0
 0221126,0.00000411,0.01121310,-0.01042340,-0.00002787,0.00896084,0.008
 75383,0.00000229,0.00000409,0.00078887,0.00000025,-0.00000360,-0.00050
 389,0.00000587,0.00000601,0.00227934,-0.00001935,-0.00002347,-0.027901
 25,-0.00001546,0.00004033,0.04650710,0.00065650,0.00283803,0.00001855,
 -0.00042698,-0.00064854,0.00005908,-0.00008946,0.00378618,0.00000353,0
 .00322358,-0.00830537,0.00001258,-0.00026761,-0.00018125,-0.00000021,-
 0.00307911,0.00002312,0.00466787,0.00010382,-0.00127645,-0.00134800,-0
 .00000929,0.00179138,-0.00437724,0.00003500,-0.00669648,0.00425271,-0.
 00000951,0.00298172,0.00060719,-0.00000188,0.00248557,-0.00393109,0.00
 005563,0.00008981,0.00192530,0.00000368,0.00002601,-0.00037085,0.00003
 481,0.00001976,0.00233470,0.00000587,-0.00001757,-0.00318831,-0.000005
 07,-0.00000139,0.00009654,-0.00009348,-0.00011852,-0.00078611,0.000442
 75,-0.00192466,-0.00012675,-0.00059414,0.00066819,0.00007889,-0.000938
 21,0.00057849,-0.00058149,0.00476381,0.00588335,0.00542960,-0.00686901
 ,-0.00772462,-0.00351442,-0.00000834,0.00034592,-0.00001158,0.00116142
 ,0.00053703,-0.00101266,-0.00004760,-0.00054978,0.00024774,0.00004437,
 -0.00132296,0.00020351,-0.00042027,0.00440336,0.00095191,0.00493856,-0
 .00524938,0.00082543,-0.01065812,0.00001285,0.00006435,-0.00000333,0.0
 0212193,-0.00195351,0.00097755,-0.00138282,-0.00000840,-0.00087624,0.0
 0035513,0.00000787,-0.00224569,0.00027761,-0.00027444,0.00847936,0.003
 59499,0.00222296,0.00010488,-0.00678273,-0.01061216,-0.00001906,0.0001
 3203,-0.00000682,-0.00384529,0.00497906,0.00813078,0.00044403,-0.00192
 561,0.00013276,-0.00059476,0.00066791,-0.00007999,-0.00093614,0.000583
 16,0.00058390,0.00476698,0.00587182,-0.00544991,-0.00686713,-0.0077211
 5,0.00354103,-0.00000859,0.00034523,0.00001015,0.00204170,0.00004696,-
 0.00257550,0.00115390,0.00053637,-0.00101066,0.00004887,-0.00054834,0.
 00024669,-0.00004405,-0.00131808,0.00020448,0.00042384,0.00438493,0.00
 093084,-0.00494341,-0.00525055,0.00086591,0.01063663,0.00001257,0.0000
 6423,0.00000523,0.00005140,0.00067323,-0.00117327,0.00213169,-0.001974
 73,-0.00097748,0.00138476,-0.00001359,0.00087748,-0.00035572,0.0000078
 3,0.00224990,-0.00027715,-0.00027820,-0.00849517,-0.00359353,0.0022446
 1,-0.00008236,0.00675979,-0.01065453,0.00001901,-0.00013164,-0.0000044
 5,0.00257103,0.00116734,0.00054022,0.00383757,-0.00495384,0.00815811,-
 0.00068086,-0.00022737,-0.00004929,0.00014847,-0.00029947,-0.00073525,
 0.00057951,0.00013770,-0.00011475,-0.00073699,0.00007745,0.00005307,0.
 00001176,0.00004683,-0.00000134,-0.00005361,0.00013301,-0.00006444,0.0
 0006671,-0.00005337,0.00022188,0.00016033,0.00093028,-0.00005213,0.000
 35296,-0.00042775,-0.00006123,0.01274635,0.00002746,-0.00040975,0.0001
 9136,-0.00005032,0.00004701,-0.00008623,0.00578001,-0.00017930,-0.0001
 3019,0.00008279,0.00062661,0.00002556,0.00000862,-0.00012358,0.0000374
 3,-0.00010843,-0.00373457,0.00036495,-0.00147910,-0.00000494,-0.000421
 12,0.00045184,-0.00000583,-0.01486332,-0.00641547,0.00005893,0.0167246
 4,0.00039495,-0.00051783,-0.00001188,-0.00023706,0.00015858,0.00002164
 ,-0.00720737,0.00086421,-0.00000760,0.00857161,-0.00088737,-0.00002074
 ,-0.00001007,0.00000021,0.00002191,0.00000993,-0.00002284,0.00004372,-
 0.00000756,0.00371317,-0.00005241,0.00000367,-0.00520147,-0.00023265,-
 0.00011372,0.00000226,0.00011634,0.00005051,-0.00000336,0.00130754,0.0
 0067984,-0.00000011,-0.00035505,-0.00040575,0.00000192,1.31268154,-0.0
 0014822,0.00043229,0.00000266,0.00007630,-0.00013300,-0.00000287,0.000
 87402,0.00027556,-0.00000016,-0.00010019,-0.00069679,0.00000270,-0.906
 60747,-1.03351569,0.,0.00000115,0.00013774,-0.00000048,-0.00000082,-0.
 00003471,0.00000022,-0.00000002,-0.00002063,0.00000334,0.00000303,-0.0
 0090828,0.00148811,0.00556736,3.68662087,0.00006767,0.00016960,0.00002
 285,-0.00014765,-0.00006123,0.00005700,0.00007024,0.00004925,0.0000079
 4,0.00005616,-0.00001564,0.00000212,-0.00000301,-0.00007203,-0.0000003
 2,-0.00009655,-0.00000897,0.00013556,0.00010782,-0.00007143,-0.0000425
 0,-0.00001242,-0.00003551,-0.00001656,0.00002317,0.00018789,0.00009028
 ,0.00000230,0.00004318,-0.00007387,-0.00000137,-0.00008428,-0.00003794
 ,0.00005372,0.00009527,0.00019510,0.00000184,0.00002324,-0.00005112,0.
 00003514,0.00000944,-0.00001254,-0.00000220,-0.00000959,-0.00001732,0.
 00000050,-0.00000046,-0.00000246,-0.00008916,-0.00012025,-0.00012885,-
 0.00012941,0.00029094,-0.00001356,0.00012854,-0.00006870,-0.00001135,0
 .00011337,-0.00003585,-0.00000332,-0.00075381,-0.00055009,0.00009109,-
 0.65696045,0.45523727,1.83018675,0.00002668,-0.00001501,0.00001832,0.6
 2679344,-0.00005951,0.00017847,-0.00004712,0.00005009,-0.00004076,0.00
 001664,0.00004325,-0.00029126,-0.00007374,-0.00060963,0.00049458,0.000
 44923,0.45532384,0.51525090,-0.63038047,0.00000704,-0.00002737,0.00000
 308,-0.45612578,-0.54915760,-0.00092894,0.00051242,-0.00007898,0.00066
 222,-0.00005473,0.00003668,0.00091261,-0.00046991,-0.00022445,-0.00169
 406,-0.00018998,0.00121923,1.74793607,-0.60074919,-1.84078529,-0.00012
 203,0.00009593,0.00000741,-1.78852264,0.61553998,1.88073857,-0.0001295
 4,0.00029165,0.00001180,0.00012843,-0.00006897,0.00001168,0.00011253,-
 0.00003489,0.00000375,-0.00075248,-0.00055067,-0.00008760,-0.65655424,
 0.45074032,-1.83167763,0.00002646,-0.00001584,-0.00001817,0.03078164,0
 .00137070,0.04175679,0.62638721,-0.00005581,0.00017744,0.00004486,0.00
 004788,-0.00004105,-0.00001640,0.00004307,-0.00028994,0.00007534,-0.00
 060695,0.00049434,-0.00045019,0.45102957,0.51846060,0.62481113,0.00000
 731,-0.00002755,-0.00000072,0.00126721,0.03359304,-0.01468453,-0.45173
 228,-0.55236687,0.00093128,-0.00051510,-0.00008097,-0.00066302,0.00005
 537,0.00003814,-0.00091576,0.00047134,-0.00022401,0.00169719,0.0001907
 0,0.00121730,-1.74942538,0.59517996,-1.84500719,0.00012160,-0.00009517
 ,0.00000978,-0.04174529,0.01449239,-0.04091317,1.78999938,-0.60977949,
 1.88496010,-0.00048643,0.00039948,-0.00047254,0.00014676,-0.00029664,-
 0.00029132,0.00003585,-0.00013347,-0.00011295,0.00035278,0.00002175,0.
 00015592,0.00001211,-0.00011054,-0.00022863,-0.00005260,0.00013292,0.0
 0027878,0.00006531,-0.00005343,-0.00033580,0.00026312,-0.00050829,-0.0
 0004982,-0.00040654,0.00019479,-0.00006111,-0.00020834,-0.00052818,0.0
 0041881,0.00018820,0.00026762,0.00007518,-0.00008587,0.00024439,-0.000
 50816,-0.00012885,0.00008086,0.00002265,0.00002572,0.00000829,0.000056
 65,0.00006322,-0.00009513,-0.00028331,-0.00028101,0.00041840,-0.000007
 92,0.00018890,-0.00012191,-0.00000530,0.00064188,0.00008830,0.00002913
 ,-0.00068979,-0.00005080,0.00038133,-0.00001318,0.00013415,-0.00010985
 ,0.00002172,0.00035073,-0.00017777,-0.00001900,-0.00112141,-0.00005910
 ,-0.00001948,-0.00001302,-0.00004515,0.00002063,0.00001087,-0.00000397
 ,0.00001263,-0.00001821,0.00008044,-0.00001681,0.00001870,0.00024654,0
 .00024996,-0.00023902,0.00000178,-0.00012308,0.00007069,-0.00000308,0.
 00086280,0.00010407,0.00000100,-0.00108160,0.00058090,0.00000133,1.504
 06273,0.00072718,-0.00145058,0.00000567,-0.00045760,0.00031997,-0.0000
 0327,-0.00027128,0.00157913,-0.00000096,0.00221999,-0.00102239,-0.0000
 0079,-1.02272913,-1.15275141,-0.00000265,0.00000496,0.00008417,0.00000
 074,-0.00000168,-0.00003679,0.00000347,-0.00000068,0.00067913,0.000000
 70,-0.00000035,-0.00271349,0.00044878,0.00602344,3.60933429,0.00001606
 ,-0.00006124,0.00002317,0.00006022,0.00000205,0.00005631,0.00000892,-0
 .00004831,0.00000810,-0.00002024,0.00004251,0.00000210,0.00001432,-0.0
 0007104,-0.00000023,-0.00011086,0.00001387,-0.00006050,0.00010715,-0.0
 0005838,0.00000828,-0.00001236,0.00004744,-0.00008959,0.00002310,-0.00
 006690,-0.00004193,0.00000277,-0.00000272,0.00018301,-0.00000201,0.000
 13861,0.00011351,0.00005316,0.00009488,0.00006167,0.00000176,0.0000230
 0,-0.00001402,0.00003486,0.00000963,0.00000505,-0.00000168,-0.00000928
 ,0.00001294,0.00000075,-0.00000119,-0.00007101,-0.00008895,-0.00011963
 ,-0.00003126,0.00010075,0.00006219,0.00000258,-0.00005388,-0.00002836,
 -0.00001006,-0.00057993,-0.00006420,0.00025229,0.00062029,0.00003135,-
 0.00049261,-0.75244253,0.51280983,1.91981577,0.00001597,-0.00003567,-0
 .00001130,0.74781568,-0.00029239,0.00051358,-0.00006573,0.00017951,-0.
 00011020,0.00002103,-0.00003062,-0.00064952,-0.00030295,-0.00070782,0.
 00051601,0.00088464,0.51363043,0.57503873,-0.65836020,-0.00000127,-0.0
 0005629,0.00001588,-0.50979801,-0.57198204,-0.00026867,0.00023187,-0.0
 0005476,0.00019638,-0.00004407,0.00002739,-0.00001638,-0.00034283,-0.0
 0027989,-0.00026706,0.00006620,0.00121122,1.92374139,-0.65865959,-1.80
 198261,-0.00000589,0.00002774,0.00001736,-1.92146400,0.65825552,1.7967
 9350,0.00010170,0.00006195,-0.00000360,-0.00005425,-0.00002847,0.00001
 053,-0.00058192,-0.00006367,-0.00025061,0.00062155,0.00003255,0.000492
 21,-0.75154256,0.50777205,-1.92026659,0.00001562,-0.00003624,0.0000113
 9,0.00452365,-0.00297983,-0.00191575,0.74691621,-0.00029095,0.00051394
 ,0.00006243,0.00017870,-0.00011067,-0.00002075,-0.00002715,-0.00064808
 ,0.00030579,-0.00070865,0.00051369,-0.00088495,0.50858476,0.57810355,0
 .65233652,-0.00000128,-0.00005644,-0.00001328,-0.00297711,-0.00327028,
 0.00046516,-0.50475833,-0.57504572,0.00027233,-0.00023583,-0.00005601,
 -0.00019760,0.00004493,0.00002776,0.00001312,0.00034490,-0.00028071,0.
 00026894,-0.00006481,0.00121147,-1.92419194,0.65263669,-1.80529369,0.0
 0000539,-0.00002676,0.00001926,0.00190731,-0.00044819,0.00426779,1.921
 92243,-0.65225092,1.80010414\\@
 The archive entry for this job was punched.


 TIME IS NATURE'S WAY OF MAKING SURE EVERYTHING
 DOESN'T HAPPEN AT ONCE.
                     - WOODY ALLEN
 Job cpu time:      16 days 12 hours 19 minutes 59.9 seconds.
 Elapsed time:       0 days 10 hours  3 minutes 19.2 seconds.
 File lengths (MBytes):  RWF=  16743 Int=      0 D2E=      0 Chk=     51 Scr=      1
 Normal termination of Gaussian 16 at Sun Mar 23 06:59:04 2025.
