 Entering Gaussian System, Link 0=g16
 Input=aconh2t_nh3_mp2_avdz_opt_anharm.gjf
 Output=aconh2t_nh3_mp2_avdz_opt_anharm.log
 Initial command:
 /sw/contrib/chem-src/g16/c01/g16/l1.exe "/scr/Gau-36234.inp" -scrdir="/scr/"
 Entering Link 1 = /sw/contrib/chem-src/g16/c01/g16/l1.exe PID=     36235.
  
 Copyright (c) 1988-2019, Gaussian, Inc.  All Rights Reserved.
  
 This is part of the Gaussian(R) 16 program.  It is based on
 the Gaussian(R) 09 system (copyright 2009, Gaussian, Inc.),
 the Gaussian(R) 03 system (copyright 2003, Gaussian, Inc.),
 the Gaussian(R) 98 system (copyright 1998, Gaussian, Inc.),
 the Gaussian(R) 94 system (copyright 1995, Gaussian, Inc.),
 the Gaussian 92(TM) system (copyright 1992, Gaussian, Inc.),
 the Gaussian 90(TM) system (copyright 1990, Gaussian, Inc.),
 the Gaussian 88(TM) system (copyright 1988, Gaussian, Inc.),
 the Gaussian 86(TM) system (copyright 1986, Carnegie Mellon
 University), and the Gaussian 82(TM) system (copyright 1983,
 Carnegie Mellon University). Gaussian is a federally registered
 trademark of Gaussian, Inc.
  
 This software contains proprietary and confidential information,
 including trade secrets, belonging to Gaussian, Inc.
  
 This software is provided under written license and may be
 used, copied, transmitted, or stored only in accord with that
 written license.
  
 The following legend is applicable only to US Government
 contracts under FAR:
  
                    RESTRICTED RIGHTS LEGEND
  
 Use, reproduction and disclosure by the US Government is
 subject to restrictions as set forth in subparagraphs (a)
 and (c) of the Commercial Computer Software - Restricted
 Rights clause in FAR 52.227-19.
  
 Gaussian, Inc.
 340 Quinnipiac St., Bldg. 40, Wallingford CT 06492
  
  
 ---------------------------------------------------------------
 Warning -- This program may not be used in any manner that
 competes with the business of Gaussian, Inc. or will provide
 assistance to any competitor of Gaussian, Inc.  The licensee
 of this program is prohibited from giving any competitor of
 Gaussian, Inc. access to this program.  By using this program,
 the user acknowledges that Gaussian, Inc. is engaged in the
 business of creating and licensing software in the field of
 computational chemistry and represents and warrants to the
 licensee that it is not a competitor of Gaussian, Inc. and that
 it will not use this program in any manner prohibited above.
 ---------------------------------------------------------------
  

 Cite this work as:
 Gaussian 16, Revision C.01,
 M. J. Frisch, G. W. Trucks, H. B. Schlegel, G. E. Scuseria, 
 M. A. Robb, J. R. Cheeseman, G. Scalmani, V. Barone, 
 G. A. Petersson, H. Nakatsuji, X. Li, M. Caricato, A. V. Marenich, 
 J. Bloino, B. G. Janesko, R. Gomperts, B. Mennucci, H. P. Hratchian, 
 J. V. Ortiz, A. F. Izmaylov, J. L. Sonnenberg, D. Williams-Young, 
 F. Ding, F. Lipparini, F. Egidi, J. Goings, B. Peng, A. Petrone, 
 T. Henderson, D. Ranasinghe, V. G. Zakrzewski, J. Gao, N. Rega, 
 G. Zheng, W. Liang, M. Hada, M. Ehara, K. Toyota, R. Fukuda, 
 J. Hasegawa, M. Ishida, T. Nakajima, Y. Honda, O. Kitao, H. Nakai, 
 T. Vreven, K. Throssell, J. A. Montgomery, Jr., J. E. Peralta, 
 F. Ogliaro, M. J. Bearpark, J. J. Heyd, E. N. Brothers, K. N. Kudin, 
 V. N. Staroverov, T. A. Keith, R. Kobayashi, J. Normand, 
 K. Raghavachari, A. P. Rendell, J. C. Burant, S. S. Iyengar, 
 J. Tomasi, M. Cossi, J. M. Millam, M. Klene, C. Adamo, R. Cammi, 
 J. W. Ochterski, R. L. Martin, K. Morokuma, O. Farkas, 
 J. B. Foresman, and D. J. Fox, Gaussian, Inc., Wallingford CT, 2019.
 
 ******************************************
 Gaussian 16:  EM64L-G16RevC.01  3-Jul-2019
                29-Mar-2025 
 ******************************************
 %nprocshared=40
 Will use up to   40 processors via shared memory.
 %mem=50gb
 ----------------------------------------------
 # MP2/aug-cc-pVDZ opt freq=(vibrot,anharmonic)
 ----------------------------------------------
 1/18=20,19=15,38=1,80=1/1,3;
 2/9=110,12=2,17=6,18=5,40=1/2;
 3/5=16,7=10,11=9,25=1,30=1,71=1/1,2,3;
 4//1;
 5/5=2,38=5/2;
 8/6=4,10=1/1;
 9/15=2,16=-3/6;
 10/5=1/2;
 6/7=2,8=2,9=2,10=2/1;
 7/12=2/1,2,3,16;
 1/18=20,19=15,80=1/3(2);
 2/9=110/2;
 99//99;
 2/9=110/2;
 3/5=16,7=10,11=9,25=1,30=1,71=1/1,2,3;
 4/5=5,16=3,69=1/1;
 5/5=2,38=5/2;
 8/6=4,10=1/1;
 9/15=2,16=-3/6;
 10/5=1/2;
 7/12=2/1,2,3,16;
 1/18=20,19=15,80=1/3(-8);
 2/9=110/2;
 6/7=2,8=2,9=2,10=2/1;
 99/9=10/99;
 ----
 blah
 ----
 Symbolic Z-matrix:
 Charge =  0 Multiplicity = 1
 C                    -1.00905  -0.10399   0.00062 
 O                    -2.17808  -0.45283   0.01026 
 N                    -0.00953  -1.02109  -0.01179 
 C                    -0.56458   1.34948  -0.00377 
 H                    -1.44794   1.99677   0.04437 
 H                     0.00164   1.56491  -0.92358 
 H                     0.09276   1.55015   0.85654 
 N                     2.62665  -0.04281   0.00454 
 H                     3.1621   -0.72956  -0.52791 
 H                     3.01013  -0.05496   0.9503 
 H                     2.85926   0.8694   -0.38876 
 H                     0.92956  -0.72564  -0.01948 
 H                    -0.22324  -1.98212  -0.0131 
 
 Add virtual bond connecting atoms H12        and N8         Dist= 3.46D+00.

 GradGradGradGradGradGradGradGradGradGradGradGradGradGradGradGradGradGrad
 Berny optimization.
 Initialization pass.
                           ----------------------------
                           !    Initial Parameters    !
                           ! (Angstroms and Degrees)  !
 --------------------------                            --------------------------
 ! Name  Definition              Value          Derivative Info.                !
 --------------------------------------------------------------------------------
 ! R1    R(1,2)                  1.22           estimate D2E/DX2                !
 ! R2    R(1,3)                  1.3566         estimate D2E/DX2                !
 ! R3    R(1,4)                  1.5199         estimate D2E/DX2                !
 ! R4    R(3,12)                 0.9845         estimate D2E/DX2                !
 ! R5    R(3,13)                 0.9845         estimate D2E/DX2                !
 ! R6    R(4,5)                  1.0962         estimate D2E/DX2                !
 ! R7    R(4,6)                  1.1014         estimate D2E/DX2                !
 ! R8    R(4,7)                  1.1011         estimate D2E/DX2                !
 ! R9    R(8,9)                  1.0207         estimate D2E/DX2                !
 ! R10   R(8,10)                 1.0206         estimate D2E/DX2                !
 ! R11   R(8,11)                 1.0203         estimate D2E/DX2                !
 ! R12   R(8,12)                 1.8295         estimate D2E/DX2                !
 ! A1    A(2,1,3)              120.8489         estimate D2E/DX2                !
 ! A2    A(2,1,4)              123.6198         estimate D2E/DX2                !
 ! A3    A(3,1,4)              115.5309         estimate D2E/DX2                !
 ! A4    A(1,3,12)             120.0            estimate D2E/DX2                !
 ! A5    A(1,3,13)             120.0            estimate D2E/DX2                !
 ! A6    A(12,3,13)            120.0            estimate D2E/DX2                !
 ! A7    A(1,4,5)              109.2014         estimate D2E/DX2                !
 ! A8    A(1,4,6)              109.8649         estimate D2E/DX2                !
 ! A9    A(1,4,7)              110.2788         estimate D2E/DX2                !
 ! A10   A(5,4,6)              109.6006         estimate D2E/DX2                !
 ! A11   A(5,4,7)              109.824          estimate D2E/DX2                !
 ! A12   A(6,4,7)              108.056          estimate D2E/DX2                !
 ! A13   A(9,8,10)             106.1569         estimate D2E/DX2                !
 ! A14   A(9,8,11)             106.3121         estimate D2E/DX2                !
 ! A15   A(9,8,12)             103.2184         estimate D2E/DX2                !
 ! A16   A(10,8,11)            106.3917         estimate D2E/DX2                !
 ! A17   A(10,8,12)            110.8712         estimate D2E/DX2                !
 ! A18   A(11,8,12)            122.6935         estimate D2E/DX2                !
 ! A19   L(3,12,8,4,-1)        175.5389         estimate D2E/DX2                !
 ! A20   L(3,12,8,4,-2)        178.7835         estimate D2E/DX2                !
 ! D1    D(2,1,3,12)           180.0            estimate D2E/DX2                !
 ! D2    D(2,1,3,13)             0.0            estimate D2E/DX2                !
 ! D3    D(4,1,3,12)             0.2196         estimate D2E/DX2                !
 ! D4    D(4,1,3,13)          -179.7804         estimate D2E/DX2                !
 ! D5    D(2,1,4,5)              2.29           estimate D2E/DX2                !
 ! D6    D(2,1,4,6)           -117.9435         estimate D2E/DX2                !
 ! D7    D(2,1,4,7)            123.0551         estimate D2E/DX2                !
 ! D8    D(3,1,4,5)           -177.9364         estimate D2E/DX2                !
 ! D9    D(3,1,4,6)             61.8301         estimate D2E/DX2                !
 ! D10   D(3,1,4,7)            -57.1713         estimate D2E/DX2                !
 ! D11   D(1,3,8,9)           -148.0086         estimate D2E/DX2                !
 ! D12   D(1,3,8,10)            97.9654         estimate D2E/DX2                !
 ! D13   D(1,3,8,11)           -27.8695         estimate D2E/DX2                !
 ! D14   D(13,3,8,9)            32.8745         estimate D2E/DX2                !
 ! D15   D(13,3,8,10)          -81.1515         estimate D2E/DX2                !
 ! D16   D(13,3,8,11)          153.0135         estimate D2E/DX2                !
 --------------------------------------------------------------------------------
 Trust Radius=3.00D-01 FncErr=1.00D-07 GrdErr=1.00D-07 EigMax=2.50D+02 EigMin=1.00D-04
 Number of steps in this run=     58 maximum allowed number of steps=    100.
 GradGradGradGradGradGradGradGradGradGradGradGradGradGradGradGradGradGrad

                          Input orientation:                          
 ---------------------------------------------------------------------
 Center     Atomic      Atomic             Coordinates (Angstroms)
 Number     Number       Type             X           Y           Z
 ---------------------------------------------------------------------
      1          6           0       -1.009052   -0.103985    0.000621
      2          8           0       -2.178076   -0.452834    0.010260
      3          7           0       -0.009531   -1.021091   -0.011785
      4          6           0       -0.564575    1.349477   -0.003774
      5          1           0       -1.447942    1.996771    0.044371
      6          1           0        0.001644    1.564909   -0.923584
      7          1           0        0.092761    1.550152    0.856542
      8          7           0        2.626648   -0.042809    0.004543
      9          1           0        3.162103   -0.729560   -0.527908
     10          1           0        3.010128   -0.054962    0.950299
     11          1           0        2.859257    0.869398   -0.388761
     12          1           0        0.929558   -0.725636   -0.019476
     13          1           0       -0.223239   -1.982115   -0.013097
 ---------------------------------------------------------------------
                    Distance matrix (angstroms):
                    1          2          3          4          5
     1  C    0.000000
     2  O    1.220002   0.000000
     3  N    1.356569   2.241872   0.000000
     4  C    1.519911   2.419072   2.434693   0.000000
     5  H    2.146559   2.556330   3.343601   1.096196   0.000000
     6  H    2.158904   3.113604   2.742061   1.101392   1.795756
     7  H    2.163969   3.144018   2.715832   1.101138   1.798014
     8  N    3.636217   4.822191   2.811893   3.481729   4.556727
     9  H    4.250791   5.374357   3.226552   4.299447   5.386362
    10  H    4.130145   5.287668   3.313209   3.957424   4.990461
    11  H    4.007856   5.223240   3.456299   3.478695   4.473314
    12  H    2.035943   3.119726   0.984500   2.557103   3.614980
    13  H    2.035943   2.482062   0.984500   3.349045   4.163500
                    6          7          8          9         10
     6  H    0.000000
     7  H    1.782518   0.000000
     8  N    3.215093   3.111914   0.000000
     9  H    3.925513   4.066282   1.020707   0.000000
    10  H    3.896973   3.331098   1.020617   1.631954   0.000000
    11  H    2.989268   3.109293   1.020253   1.633323   1.634101
    12  H    2.631546   2.578148   1.829466   2.289711   2.391451
    13  H    3.668915   3.651443   3.447184   3.646158   3.885449
                   11         12         13
    11  H    0.000000
    12  H    2.530661   0.000000
    13  H    4.215926   1.705204   0.000000
 Stoichiometry    C2H8N2O
 Framework group  C1[X(C2H8N2O)]
 Deg. of freedom    33
 Full point group                 C1      NOp   1
 Largest Abelian subgroup         C1      NOp   1
 Largest concise Abelian subgroup C1      NOp   1
                         Standard orientation:                         
 ---------------------------------------------------------------------
 Center     Atomic      Atomic             Coordinates (Angstroms)
 Number     Number       Type             X           Y           Z
 ---------------------------------------------------------------------
      1          6           0       -1.005410   -0.074676    0.000828
      2          8           0       -2.175445   -0.420115    0.010622
      3          7           0       -0.008562   -0.994695   -0.010919
      4          6           0       -0.556704    1.377483   -0.004488
      5          1           0       -1.438186    2.027377    0.043180
      6          1           0        0.010195    1.590666   -0.924404
      7          1           0        0.101162    1.576805    0.855737
      8          7           0        2.630453   -0.024080    0.004933
      9          1           0        3.163938   -0.712733   -0.527037
     10          1           0        3.013839   -0.036732    0.950721
     11          1           0        2.865739    0.887190   -0.388951
     12          1           0        0.931384   -0.701980   -0.018745
     13          1           0       -0.225066   -1.955094   -0.011618
 ---------------------------------------------------------------------
 Rotational constants (GHZ):           8.8359831           2.2862611           1.8556366
 Standard basis: Aug-CC-pVDZ (5D, 7F)
 There are   197 symmetry adapted cartesian basis functions of A   symmetry.
 There are   187 symmetry adapted basis functions of A   symmetry.
   187 basis functions,   303 primitive gaussians,   197 cartesian basis functions
    21 alpha electrons       21 beta electrons
       nuclear repulsion energy       180.6850996866 Hartrees.
 NAtoms=   13 NActive=   13 NUniq=   13 SFac= 1.00D+00 NAtFMM=   60 NAOKFM=F Big=F
 Integral buffers will be    131072 words long.
 Raffenetti 1 integral format.
 Two-electron integral symmetry is turned on.
 One-electron integrals computed using PRISM.
 NBasis=   187 RedAO= T EigKep=  5.36D-05  NBF=   187
 NBsUse=   187 1.00D-06 EigRej= -1.00D+00 NBFU=   187
 ExpMin= 2.97D-02 ExpMax= 1.17D+04 ExpMxC= 4.01D+02 IAcc=3 IRadAn=         5 AccDes= 0.00D+00
 Harris functional with IExCor=  205 and IRadAn=       5 diagonalized for initial guess.
 HarFok:  IExCor=  205 AccDes= 0.00D+00 IRadAn=         5 IDoV= 1 UseB2=F ITyADJ=14
 ICtDFT=  3500011 ScaDFX=  1.000000  1.000000  1.000000  1.000000
 FoFCou: FMM=F IPFlag=           0 FMFlag=      100000 FMFlg1=           0
         NFxFlg=           0 DoJE=T BraDBF=F KetDBF=T FulRan=T
         wScrn=  0.000000 ICntrl=       500 IOpCl=  0 I1Cent=   200000004 NGrid=           0
         NMat0=    1 NMatS0=      1 NMatT0=    0 NMatD0=    1 NMtDS0=    0 NMtDT0=    0
 Petite list used in FoFCou.
 Requested convergence on RMS density matrix=1.00D-08 within 128 cycles.
 Requested convergence on MAX density matrix=1.00D-06.
 Requested convergence on             energy=1.00D-06.
 No special actions if energy rises.
 SCF Done:  E(RHF) =  -264.218222715     A.U. after   13 cycles
            NFock= 13  Conv=0.53D-08     -V/T= 2.0012
 ExpMin= 2.97D-02 ExpMax= 1.17D+04 ExpMxC= 4.01D+02 IAcc=3 IRadAn=         5 AccDes= 0.00D+00
 HarFok:  IExCor=  205 AccDes= 0.00D+00 IRadAn=         5 IDoV=-2 UseB2=F ITyADJ=14
 ICtDFT= 12500011 ScaDFX=  1.000000  1.000000  1.000000  1.000000
 Range of M.O.s used for correlation:     6   187
 NBasis=   187 NAE=    21 NBE=    21 NFC=     5 NFV=     0
 NROrb=    182 NOA=    16 NOB=    16 NVA=   166 NVB=   166

 **** Warning!!: The largest alpha MO coefficient is  0.40936506D+02

 Fully direct method using O(ONN) memory.
 JobTyp=1 Pass  1:  I=   6 to  21 NPSUse= 40 ParTrn=T ParDer=T DoDerP=T.
 Spin components of T(2) and E(2):
     alpha-alpha T2 =       0.3497675159D-01 E2=     -0.1085228481D+00
     alpha-beta  T2 =       0.1993400702D+00 E2=     -0.6448821954D+00
     beta-beta   T2 =       0.3497675159D-01 E2=     -0.1085228481D+00
 ANorm=    0.1126629297D+01
 E2 =    -0.8619278915D+00 EUMP2 =    -0.26508015060648D+03
          IDoAtm=1111111111111
          Differentiating once with respect to electric field.
                with respect to dipole field.
          Differentiating once with respect to nuclear coordinates.
 Keep R1 ints in memory in canonical form, NReq=163456967.
          There are     1 degrees of freedom in the 1st order CPHF.  IDoFFX=0 NUNeed=     1.
 LinEq1:  Iter=  0 NonCon=     1 RMS=4.28D-03 Max=5.01D-02 NDo=     1
 AX will form     1 AO Fock derivatives at one time.
 LinEq1:  Iter=  1 NonCon=     1 RMS=1.22D-03 Max=1.17D-02 NDo=     1
 LinEq1:  Iter=  2 NonCon=     1 RMS=4.52D-04 Max=4.15D-03 NDo=     1
 LinEq1:  Iter=  3 NonCon=     1 RMS=1.34D-04 Max=1.68D-03 NDo=     1
 LinEq1:  Iter=  4 NonCon=     1 RMS=4.30D-05 Max=4.20D-04 NDo=     1
 LinEq1:  Iter=  5 NonCon=     1 RMS=9.36D-06 Max=1.16D-04 NDo=     1
 LinEq1:  Iter=  6 NonCon=     1 RMS=3.15D-06 Max=2.86D-05 NDo=     1
 LinEq1:  Iter=  7 NonCon=     1 RMS=7.81D-07 Max=1.09D-05 NDo=     1
 LinEq1:  Iter=  8 NonCon=     1 RMS=1.88D-07 Max=2.54D-06 NDo=     1
 LinEq1:  Iter=  9 NonCon=     1 RMS=7.26D-08 Max=7.55D-07 NDo=     1
 LinEq1:  Iter= 10 NonCon=     1 RMS=1.83D-08 Max=1.46D-07 NDo=     1
 LinEq1:  Iter= 11 NonCon=     1 RMS=4.28D-09 Max=3.43D-08 NDo=     1
 LinEq1:  Iter= 12 NonCon=     1 RMS=1.32D-09 Max=1.07D-08 NDo=     1
 LinEq1:  Iter= 13 NonCon=     1 RMS=2.58D-10 Max=2.23D-09 NDo=     1
 LinEq1:  Iter= 14 NonCon=     0 RMS=5.12D-11 Max=6.43D-10 NDo=     1
 Linear equations converged to 1.000D-10 1.000D-09 after    14 iterations.
 End of Minotr F.D. properties file   721 does not exist.
 End of Minotr F.D. properties file   722 does not exist.
 End of Minotr F.D. properties file   788 does not exist.

 **********************************************************************

            Population analysis using the SCF Density.

 **********************************************************************

 Orbital symmetries:
       Occupied  (A) (A) (A) (A) (A) (A) (A) (A) (A) (A) (A) (A)
                 (A) (A) (A) (A) (A) (A) (A) (A) (A)
       Virtual   (A) (A) (A) (A) (A) (A) (A) (A) (A) (A) (A) (A)
                 (A) (A) (A) (A) (A) (A) (A) (A) (A) (A) (A) (A)
                 (A) (A) (A) (A) (A) (A) (A) (A) (A) (A) (A) (A)
                 (A) (A) (A) (A) (A) (A) (A) (A) (A) (A) (A) (A)
                 (A) (A) (A) (A) (A) (A) (A) (A) (A) (A) (A) (A)
                 (A) (A) (A) (A) (A) (A) (A) (A) (A) (A) (A) (A)
                 (A) (A) (A) (A) (A) (A) (A) (A) (A) (A) (A) (A)
                 (A) (A) (A) (A) (A) (A) (A) (A) (A) (A) (A) (A)
                 (A) (A) (A) (A) (A) (A) (A) (A) (A) (A) (A) (A)
                 (A) (A) (A) (A) (A) (A) (A) (A) (A) (A) (A) (A)
                 (A) (A) (A) (A) (A) (A) (A) (A) (A) (A) (A) (A)
                 (A) (A) (A) (A) (A) (A) (A) (A) (A) (A) (A) (A)
                 (A) (A) (A) (A) (A) (A) (A) (A) (A) (A) (A) (A)
                 (A) (A) (A) (A) (A) (A) (A) (A) (A) (A)
 The electronic state is 1-A.
 Alpha  occ. eigenvalues --  -20.50512 -15.58805 -15.54870 -11.33823 -11.23506
 Alpha  occ. eigenvalues --   -1.36217  -1.19453  -1.17670  -0.98714  -0.77888
 Alpha  occ. eigenvalues --   -0.71156  -0.66336  -0.66213  -0.64349  -0.59629
 Alpha  occ. eigenvalues --   -0.56966  -0.54574  -0.50528  -0.46729  -0.40185
 Alpha  occ. eigenvalues --   -0.38487
 Alpha virt. eigenvalues --    0.01987   0.04252   0.04536   0.05184   0.06462
 Alpha virt. eigenvalues --    0.07154   0.07931   0.09708   0.10564   0.13251
 Alpha virt. eigenvalues --    0.14264   0.15304   0.16475   0.17340   0.17713
 Alpha virt. eigenvalues --    0.18141   0.18563   0.19419   0.20190   0.21278
 Alpha virt. eigenvalues --    0.21370   0.22924   0.24407   0.26089   0.26350
 Alpha virt. eigenvalues --    0.27311   0.29995   0.30773   0.32644   0.34229
 Alpha virt. eigenvalues --    0.34957   0.35312   0.36554   0.37113   0.39587
 Alpha virt. eigenvalues --    0.41779   0.42320   0.43547   0.43941   0.45241
 Alpha virt. eigenvalues --    0.47378   0.48190   0.48998   0.49971   0.51240
 Alpha virt. eigenvalues --    0.51733   0.51886   0.52378   0.53501   0.56057
 Alpha virt. eigenvalues --    0.56936   0.57387   0.58020   0.59607   0.60852
 Alpha virt. eigenvalues --    0.62526   0.63635   0.65654   0.67097   0.67340
 Alpha virt. eigenvalues --    0.68553   0.68850   0.69475   0.70799   0.71682
 Alpha virt. eigenvalues --    0.74428   0.75213   0.75915   0.75982   0.78733
 Alpha virt. eigenvalues --    0.80466   0.83685   0.84669   0.88291   0.91018
 Alpha virt. eigenvalues --    0.91837   0.94731   0.96315   0.98666   1.00411
 Alpha virt. eigenvalues --    1.02035   1.03066   1.04842   1.06404   1.11490
 Alpha virt. eigenvalues --    1.12598   1.13272   1.15208   1.19366   1.22615
 Alpha virt. eigenvalues --    1.24882   1.27973   1.31101   1.32643   1.36551
 Alpha virt. eigenvalues --    1.38206   1.43559   1.43662   1.45369   1.51379
 Alpha virt. eigenvalues --    1.57128   1.62373   1.64405   1.65522   1.74824
 Alpha virt. eigenvalues --    1.76246   1.80639   1.81925   1.83261   1.85753
 Alpha virt. eigenvalues --    1.86698   1.89964   1.91654   1.95328   1.98360
 Alpha virt. eigenvalues --    2.00257   2.02872   2.05031   2.08339   2.10494
 Alpha virt. eigenvalues --    2.13621   2.16687   2.20105   2.20591   2.25964
 Alpha virt. eigenvalues --    2.28155   2.30975   2.32542   2.34285   2.36090
 Alpha virt. eigenvalues --    2.37515   2.39034   2.41022   2.42660   2.43523
 Alpha virt. eigenvalues --    2.45269   2.48377   2.55695   2.60630   2.63468
 Alpha virt. eigenvalues --    2.64338   2.68078   2.79414   2.81559   2.84061
 Alpha virt. eigenvalues --    2.87167   2.89686   2.90297   2.90749   2.95725
 Alpha virt. eigenvalues --    2.98341   2.99512   3.04596   3.09845   3.17371
 Alpha virt. eigenvalues --    3.24915   3.45915   3.54343   3.57045   3.68306
 Alpha virt. eigenvalues --    3.74574   3.80235   3.84908   3.91241   4.10415
 Alpha virt. eigenvalues --    4.20207
          Condensed to atoms (all electrons):
               1          2          3          4          5          6
     1  C    4.731877   0.304875   0.268913   0.297359  -0.020733  -0.013066
     2  O    0.304875   8.654228  -0.127509  -0.024801   0.023524  -0.004186
     3  N    0.268913  -0.127509   6.274135  -0.030901   0.025185  -0.031653
     4  C    0.297359  -0.024801  -0.030901   4.453544   0.332933   0.333133
     5  H   -0.020733   0.023524   0.025185   0.332933   0.940134  -0.100533
     6  H   -0.013066  -0.004186  -0.031653   0.333133  -0.100533   0.842480
     7  H   -0.030883  -0.002082  -0.029219   0.352532  -0.111371  -0.084573
     8  N    0.040101  -0.002576  -0.085549  -0.020279  -0.002513   0.017089
     9  H   -0.000012  -0.000296  -0.006843   0.000339  -0.000088  -0.000149
    10  H    0.007940  -0.000127  -0.004883  -0.004655  -0.000260   0.001357
    11  H   -0.001065  -0.000093   0.003779  -0.006067  -0.000171   0.001765
    12  H   -0.145861   0.009028   0.388720  -0.026169  -0.005013   0.010138
    13  H   -0.115389  -0.036938   0.419658   0.008368   0.001798   0.000333
               7          8          9         10         11         12
     1  C   -0.030883   0.040101  -0.000012   0.007940  -0.001065  -0.145861
     2  O   -0.002082  -0.002576  -0.000296  -0.000127  -0.000093   0.009028
     3  N   -0.029219  -0.085549  -0.006843  -0.004883   0.003779   0.388720
     4  C    0.352532  -0.020279   0.000339  -0.004655  -0.006067  -0.026169
     5  H   -0.111371  -0.002513  -0.000088  -0.000260  -0.000171  -0.005013
     6  H   -0.084573   0.017089  -0.000149   0.001357   0.001765   0.010138
     7  H    0.865466   0.002115   0.003108  -0.003704  -0.001821   0.013505
     8  N    0.002115   6.235607   0.415424   0.438221   0.401244  -0.158053
     9  H    0.003108   0.415424   0.716272  -0.055562  -0.087869  -0.008249
    10  H   -0.003704   0.438221  -0.055562   0.655473  -0.085372  -0.014130
    11  H   -0.001821   0.401244  -0.087869  -0.085372   0.712918  -0.004388
    12  H    0.013505  -0.158053  -0.008249  -0.014130  -0.004388   1.116466
    13  H   -0.000056   0.015650   0.001288   0.001315  -0.000426  -0.308233
              13
     1  C   -0.115389
     2  O   -0.036938
     3  N    0.419658
     4  C    0.008368
     5  H    0.001798
     6  H    0.000333
     7  H   -0.000056
     8  N    0.015650
     9  H    0.001288
    10  H    0.001315
    11  H   -0.000426
    12  H   -0.308233
    13  H    1.128659
 Mulliken charges:
               1
     1  C    0.675943
     2  O   -0.793048
     3  N   -0.063832
     4  C    0.334663
     5  H   -0.082894
     6  H    0.027865
     7  H    0.026985
     8  N   -0.296482
     9  H    0.022635
    10  H    0.064389
    11  H    0.067564
    12  H    0.132237
    13  H   -0.116026
 Sum of Mulliken charges =  -0.00000
 Mulliken charges with hydrogens summed into heavy atoms:
               1
     1  C    0.675943
     2  O   -0.793048
     3  N   -0.047621
     4  C    0.306619
     8  N   -0.141894
 Electronic spatial extent (au):  <R**2>=            647.1361
 Charge=             -0.0000 electrons
 Dipole moment (field-independent basis, Debye):
    X=              6.8591    Y=              0.9821    Z=             -0.0115  Tot=              6.9291
 Quadrupole moment (field-independent basis, Debye-Ang):
   XX=            -33.2525   YY=            -27.7957   ZZ=            -31.5108
   XY=             -2.8156   XZ=              0.0919   YZ=              0.0207
 Traceless Quadrupole moment (field-independent basis, Debye-Ang):
   XX=             -2.3995   YY=              3.0573   ZZ=             -0.6578
   XY=             -2.8156   XZ=              0.0919   YZ=              0.0207
 Octapole moment (field-independent basis, Debye-Ang**2):
  XXX=             63.1372  YYY=             -9.7802  ZZZ=              0.9977  XYY=              4.6208
  XXY=              4.0494  XXZ=             -0.1178  XZZ=              5.8602  YZZ=              0.6858
  YYZ=             -0.9522  XYZ=              0.1117
 Hexadecapole moment (field-independent basis, Debye-Ang**3):
 XXXX=           -557.2914 YYYY=           -170.1838 ZZZZ=            -41.9141 XXXY=            -20.3248
 XXXZ=             -0.5267 YYYX=              0.4844 YYYZ=              0.0574 ZZZX=              3.2485
 ZZZY=             -0.1874 XXYY=           -115.2018 XXZZ=            -90.4855 YYZZ=            -39.6791
 XXYZ=              1.2517 YYXZ=             -2.9801 ZZXY=              0.9151
 N-N= 1.806850996866D+02 E-N=-9.819840777600D+02  KE= 2.639096621095D+02
 Calling FoFJK, ICntrl=  10002127 FMM=F ISym2X=0 I1Cent= 0 IOpClX= 0 NMat=1 NMatS=1 NMatT=0.
 ***** Axes restored to original set *****
 -------------------------------------------------------------------
 Center     Atomic                   Forces (Hartrees/Bohr)
 Number     Number              X              Y              Z
 -------------------------------------------------------------------
      1        6           0.010553398   -0.001438012   -0.000119901
      2        8          -0.031727481   -0.000025251    0.000361527
      3        7          -0.012337996    0.012407099    0.000007352
      4        6           0.001743122    0.000473733   -0.000135215
      5        1          -0.000491816   -0.000612266    0.000041375
      6        1           0.000022725    0.000456026    0.000122303
      7        1           0.000082498    0.000329587   -0.000149388
      8        7           0.008905018    0.001803762    0.000154980
      9        1           0.001635038    0.000856597   -0.000024326
     10        1           0.000603400    0.000374521   -0.000161642
     11        1           0.000130033   -0.000179878   -0.000043669
     12        1           0.031890748    0.009771381    0.000003512
     13        1          -0.011008686   -0.024217300   -0.000056909
 -------------------------------------------------------------------
 Cartesian Forces:  Max     0.031890748 RMS     0.009250616

 GradGradGradGradGradGradGradGradGradGradGradGradGradGradGradGradGradGrad
 Berny optimization.
 FormGI is forming the generalized inverse of G from B-inverse, IUseBI=4.
 Internal  Forces:  Max     0.044960083 RMS     0.009556273
 Search for a local minimum.
 Step number   1 out of a maximum of   58
 All quantities printed in internal units (Hartrees-Bohrs-Radians)
 Mixed Optimization -- RFO/linear search
 Second derivative matrix not updated -- first step.
 ITU=  0
     Eigenvalues ---    0.00230   0.00230   0.00230   0.00503   0.01182
     Eigenvalues ---    0.01310   0.02266   0.05784   0.05830   0.07300
     Eigenvalues ---    0.07357   0.07627   0.15999   0.16000   0.16000
     Eigenvalues ---    0.16000   0.16000   0.16000   0.16000   0.16000
     Eigenvalues ---    0.25000   0.25000   0.30375   0.33529   0.33557
     Eigenvalues ---    0.34106   0.44225   0.44240   0.44298   0.50520
     Eigenvalues ---    0.50521   0.53647   0.95382
 RFO step:  Lambda=-1.07938095D-02 EMin= 2.30000000D-03
 Linear search not attempted -- first point.
 Iteration  1 RMS(Cart)=  0.16531858 RMS(Int)=  0.00467425
 Iteration  2 RMS(Cart)=  0.01023768 RMS(Int)=  0.00013495
 Iteration  3 RMS(Cart)=  0.00010983 RMS(Int)=  0.00012866
 Iteration  4 RMS(Cart)=  0.00000000 RMS(Int)=  0.00012866
 Variable       Old X    -DE/DX   Delta X   Delta X   Delta X     New X
                                 (Linear)    (Quad)   (Total)
    R1        2.30547   0.03041   0.00000   0.03153   0.03153   2.33700
    R2        2.56354   0.01405   0.00000   0.02567   0.02567   2.58922
    R3        2.87222   0.00102   0.00000   0.00323   0.00323   2.87545
    R4        1.86044   0.04496   0.00000   0.08714   0.08714   1.94758
    R5        1.86044   0.02603   0.00000   0.05044   0.05044   1.91088
    R6        2.07151   0.00004   0.00000   0.00010   0.00010   2.07161
    R7        2.08133  -0.00000   0.00000  -0.00000  -0.00000   2.08133
    R8        2.08085  -0.00001   0.00000  -0.00002  -0.00002   2.08083
    R9        1.92886   0.00029   0.00000   0.00065   0.00065   1.92951
   R10        1.92869   0.00007   0.00000   0.00016   0.00016   1.92885
   R11        1.92800  -0.00011   0.00000  -0.00025  -0.00025   1.92775
   R12        3.45719   0.01152   0.00000   0.16768   0.16768   3.62487
    A1        2.10921   0.01414   0.00000   0.05423   0.05423   2.16344
    A2        2.15757  -0.00672   0.00000  -0.02577  -0.02577   2.13181
    A3        2.01640  -0.00742   0.00000  -0.02845  -0.02845   1.98794
    A4        2.09440   0.00615   0.00000   0.03598   0.03598   2.13037
    A5        2.09440  -0.00818   0.00000  -0.04789  -0.04789   2.04650
    A6        2.09440   0.00203   0.00000   0.01191   0.01191   2.10630
    A7        1.90592  -0.00145   0.00000  -0.00934  -0.00934   1.89659
    A8        1.91750   0.00085   0.00000   0.00544   0.00543   1.92294
    A9        1.92473   0.00067   0.00000   0.00431   0.00430   1.92903
   A10        1.91289   0.00014   0.00000   0.00002   0.00003   1.91292
   A11        1.91679   0.00021   0.00000   0.00033   0.00033   1.91712
   A12        1.88593  -0.00040   0.00000  -0.00061  -0.00063   1.88530
   A13        1.85279  -0.00083   0.00000  -0.00132  -0.00153   1.85125
   A14        1.85550  -0.00113   0.00000  -0.00501  -0.00455   1.85095
   A15        1.80150   0.00240   0.00000   0.01670   0.01691   1.81841
   A16        1.85689  -0.00056   0.00000  -0.00701  -0.00731   1.84958
   A17        1.93507   0.00066   0.00000   0.00270   0.00241   1.93748
   A18        2.14141  -0.00063   0.00000  -0.00518  -0.00515   2.13625
   A19        3.06373   0.00252   0.00000   0.17720   0.17716   3.24089
   A20        3.12036   0.00025   0.00000   0.01143   0.01141   3.13177
    D1        3.14159   0.00016   0.00000   0.00561   0.00558  -3.13602
    D2        0.00000   0.00000   0.00000   0.00100   0.00112   0.00112
    D3        0.00383   0.00013   0.00000   0.00295   0.00283   0.00666
    D4       -3.13776  -0.00003   0.00000  -0.00166  -0.00162  -3.13938
    D5        0.03997   0.00001   0.00000   0.00144   0.00147   0.04143
    D6       -2.05850   0.00022   0.00000   0.00388   0.00392  -2.05458
    D7        2.14772  -0.00023   0.00000  -0.00142  -0.00140   2.14632
    D8       -3.10558   0.00010   0.00000   0.00438   0.00435  -3.10122
    D9        1.07914   0.00030   0.00000   0.00682   0.00681   1.08595
   D10       -0.99783  -0.00014   0.00000   0.00152   0.00149  -0.99634
   D11       -2.58324   0.00010   0.00000  -0.00482  -0.00461  -2.58785
   D12        1.70982  -0.00024   0.00000   0.01791   0.01787   1.72768
   D13       -0.48642   0.00015   0.00000  -0.01265  -0.01296  -0.49938
   D14        0.57377   0.00005   0.00000  -0.00853  -0.00822   0.56555
   D15       -1.41636  -0.00029   0.00000   0.01420   0.01426  -1.40210
   D16        2.67059   0.00010   0.00000  -0.01636  -0.01657   2.65402
         Item               Value     Threshold  Converged?
 Maximum Force            0.044960     0.000450     NO 
 RMS     Force            0.009556     0.000300     NO 
 Maximum Displacement     0.571846     0.001800     NO 
 RMS     Displacement     0.171763     0.001200     NO 
 Predicted change in Energy=-5.835191D-03
 GradGradGradGradGradGradGradGradGradGradGradGradGradGradGradGradGradGrad

                          Input orientation:                          
 ---------------------------------------------------------------------
 Center     Atomic      Atomic             Coordinates (Angstroms)
 Number     Number       Type             X           Y           Z
 ---------------------------------------------------------------------
      1          6           0       -1.089074   -0.095607   -0.002220
      2          8           0       -2.264285   -0.480602    0.004826
      3          7           0       -0.008020   -0.937381   -0.010238
      4          6           0       -0.720834    1.380782   -0.004198
      5          1           0       -1.642492    1.972339    0.044500
      6          1           0       -0.167885    1.633151   -0.922684
      7          1           0       -0.077596    1.619401    0.857072
      8          7           0        2.818620   -0.109270    0.003650
      9          1           0        3.271517   -0.853912   -0.528268
     10          1           0        3.202532   -0.162863    0.947881
     11          1           0        3.161865    0.767181   -0.389619
     12          1           0        0.960244   -0.584351   -0.011128
     13          1           0       -0.194906   -1.931154   -0.011324
 ---------------------------------------------------------------------
                    Distance matrix (angstroms):
                    1          2          3          4          5
     1  C    0.000000
     2  O    1.236686   0.000000
     3  N    1.370156   2.302088   0.000000
     4  C    1.521620   2.418072   2.425287   0.000000
     5  H    2.141227   2.530834   3.337809   1.096251   0.000000
     6  H    2.164358   3.118192   2.732352   1.101391   1.795818
     7  H    2.168576   3.149277   2.700778   1.101127   1.798260
     8  N    3.907722   5.096451   2.945480   3.840319   4.923036
     9  H    4.457186   5.573926   3.321247   4.605146   5.697652
    10  H    4.396032   5.556654   3.438824   4.322279   5.371168
    11  H    4.354878   5.581725   3.619065   3.949735   4.972194
    12  H    2.106812   3.226237   1.030614   2.586082   3.648835
    13  H    2.041777   2.527191   1.011194   3.353442   4.163638
                    6          7          8          9         10
     6  H    0.000000
     7  H    1.782098   0.000000
     8  N    3.579571   3.479180   0.000000
     9  H    4.262690   4.387824   1.021051   0.000000
    10  H    4.252574   3.734160   1.020702   1.631356   0.000000
    11  H    3.481565   3.574161   1.020120   1.630702   1.629583
    12  H    2.649702   2.586002   1.918197   2.383711   2.474915
    13  H    3.679073   3.657091   3.521480   3.666575   3.948356
                   11         12         13
    11  H    0.000000
    12  H    2.610944   0.000000
    13  H    4.323428   1.774331   0.000000
 Stoichiometry    C2H8N2O
 Framework group  C1[X(C2H8N2O)]
 Deg. of freedom    33
 Full point group                 C1      NOp   1
 Largest Abelian subgroup         C1      NOp   1
 Largest concise Abelian subgroup C1      NOp   1
                         Standard orientation:                         
 ---------------------------------------------------------------------
 Center     Atomic      Atomic             Coordinates (Angstroms)
 Number     Number       Type             X           Y           Z
 ---------------------------------------------------------------------
      1          6           0       -1.067473   -0.106361   -0.000010
      2          8           0       -2.229614   -0.529157    0.007988
      3          7           0        0.040232   -0.912737   -0.008581
      4          6           0       -0.747171    1.381163   -0.002652
      5          1           0       -1.687442    1.942621    0.046551
      6          1           0       -0.203326    1.651012   -0.921605
      7          1           0       -0.111373    1.640711    0.858089
      8          7           0        2.838622    0.006353    0.003046
      9          1           0        3.314984   -0.723409   -0.528998
     10          1           0        3.224739   -0.034520    0.947013
     11          1           0        3.153064    0.893330   -0.390708
     12          1           0        0.996572   -0.528581   -0.010264
     13          1           0       -0.114420   -1.912035   -0.009264
 ---------------------------------------------------------------------
 Rotational constants (GHZ):           8.9439679           2.0189892           1.6793737
 Standard basis: Aug-CC-pVDZ (5D, 7F)
 There are   197 symmetry adapted cartesian basis functions of A   symmetry.
 There are   187 symmetry adapted basis functions of A   symmetry.
   187 basis functions,   303 primitive gaussians,   197 cartesian basis functions
    21 alpha electrons       21 beta electrons
       nuclear repulsion energy       176.5648509309 Hartrees.
 NAtoms=   13 NActive=   13 NUniq=   13 SFac= 1.00D+00 NAtFMM=   60 NAOKFM=F Big=F
 Integral buffers will be    131072 words long.
 Raffenetti 1 integral format.
 Two-electron integral symmetry is turned on.
 One-electron integrals computed using PRISM.
 NBasis=   187 RedAO= T EigKep=  6.12D-05  NBF=   187
 NBsUse=   187 1.00D-06 EigRej= -1.00D+00 NBFU=   187
 Initial guess from the checkpoint file:  "/scr/Gau-36235.chk"
 B after Tr=    -0.000000   -0.000000   -0.000000
         Rot=    0.999841   -0.000415   -0.000091   -0.017815 Ang=  -2.04 deg.
 ExpMin= 2.97D-02 ExpMax= 1.17D+04 ExpMxC= 4.01D+02 IAcc=3 IRadAn=         5 AccDes= 0.00D+00
 Harris functional with IExCor=  205 and IRadAn=       5 diagonalized for initial guess.
 HarFok:  IExCor=  205 AccDes= 0.00D+00 IRadAn=         5 IDoV= 1 UseB2=F ITyADJ=14
 ICtDFT=  3500011 ScaDFX=  1.000000  1.000000  1.000000  1.000000
 FoFCou: FMM=F IPFlag=           0 FMFlag=      100000 FMFlg1=           0
         NFxFlg=           0 DoJE=T BraDBF=F KetDBF=T FulRan=T
         wScrn=  0.000000 ICntrl=       500 IOpCl=  0 I1Cent=   200000004 NGrid=           0
         NMat0=    1 NMatS0=      1 NMatT0=    0 NMatD0=    1 NMtDS0=    0 NMtDT0=    0
 Petite list used in FoFCou.
 Requested convergence on RMS density matrix=1.00D-08 within 128 cycles.
 Requested convergence on MAX density matrix=1.00D-06.
 Requested convergence on             energy=1.00D-06.
 No special actions if energy rises.
 SCF Done:  E(RHF) =  -264.219777850     A.U. after   12 cycles
            NFock= 12  Conv=0.52D-08     -V/T= 2.0023
 ExpMin= 2.97D-02 ExpMax= 1.17D+04 ExpMxC= 4.01D+02 IAcc=3 IRadAn=         5 AccDes= 0.00D+00
 HarFok:  IExCor=  205 AccDes= 0.00D+00 IRadAn=         5 IDoV=-2 UseB2=F ITyADJ=14
 ICtDFT= 12500011 ScaDFX=  1.000000  1.000000  1.000000  1.000000
 Range of M.O.s used for correlation:     6   187
 NBasis=   187 NAE=    21 NBE=    21 NFC=     5 NFV=     0
 NROrb=    182 NOA=    16 NOB=    16 NVA=   166 NVB=   166

 **** Warning!!: The largest alpha MO coefficient is  0.37215760D+02

 Fully direct method using O(ONN) memory.
 JobTyp=1 Pass  1:  I=   6 to  21 NPSUse= 40 ParTrn=T ParDer=T DoDerP=T.
 Spin components of T(2) and E(2):
     alpha-alpha T2 =       0.3544913159D-01 E2=     -0.1087895482D+00
     alpha-beta  T2 =       0.2023790866D+00 E2=     -0.6477697176D+00
     beta-beta   T2 =       0.3544913159D-01 E2=     -0.1087895482D+00
 ANorm=    0.1128395919D+01
 E2 =    -0.8653488141D+00 EUMP2 =    -0.26508512666446D+03
          IDoAtm=1111111111111
          Differentiating once with respect to electric field.
                with respect to dipole field.
          Differentiating once with respect to nuclear coordinates.
 Keep R1 ints in memory in canonical form, NReq=163450216.
          There are     1 degrees of freedom in the 1st order CPHF.  IDoFFX=0 NUNeed=     1.
 LinEq1:  Iter=  0 NonCon=     1 RMS=4.40D-03 Max=4.90D-02 NDo=     1
 AX will form     1 AO Fock derivatives at one time.
 LinEq1:  Iter=  1 NonCon=     1 RMS=1.28D-03 Max=1.53D-02 NDo=     1
 LinEq1:  Iter=  2 NonCon=     1 RMS=4.82D-04 Max=5.50D-03 NDo=     1
 LinEq1:  Iter=  3 NonCon=     1 RMS=1.46D-04 Max=1.64D-03 NDo=     1
 LinEq1:  Iter=  4 NonCon=     1 RMS=4.76D-05 Max=4.81D-04 NDo=     1
 LinEq1:  Iter=  5 NonCon=     1 RMS=1.12D-05 Max=1.30D-04 NDo=     1
 LinEq1:  Iter=  6 NonCon=     1 RMS=3.94D-06 Max=3.56D-05 NDo=     1
 LinEq1:  Iter=  7 NonCon=     1 RMS=9.90D-07 Max=1.42D-05 NDo=     1
 LinEq1:  Iter=  8 NonCon=     1 RMS=2.38D-07 Max=3.02D-06 NDo=     1
 LinEq1:  Iter=  9 NonCon=     1 RMS=8.52D-08 Max=7.35D-07 NDo=     1
 LinEq1:  Iter= 10 NonCon=     1 RMS=2.18D-08 Max=1.55D-07 NDo=     1
 LinEq1:  Iter= 11 NonCon=     1 RMS=5.47D-09 Max=4.80D-08 NDo=     1
 LinEq1:  Iter= 12 NonCon=     1 RMS=1.61D-09 Max=1.68D-08 NDo=     1
 LinEq1:  Iter= 13 NonCon=     1 RMS=3.54D-10 Max=2.54D-09 NDo=     1
 LinEq1:  Iter= 14 NonCon=     0 RMS=6.55D-11 Max=6.58D-10 NDo=     1
 Linear equations converged to 1.000D-10 1.000D-09 after    14 iterations.
 End of Minotr F.D. properties file   721 does not exist.
 End of Minotr F.D. properties file   722 does not exist.
 End of Minotr F.D. properties file   788 does not exist.
 Calling FoFJK, ICntrl=  10002127 FMM=F ISym2X=0 I1Cent= 0 IOpClX= 0 NMat=1 NMatS=1 NMatT=0.
 ***** Axes restored to original set *****
 -------------------------------------------------------------------
 Center     Atomic                   Forces (Hartrees/Bohr)
 Number     Number              X              Y              Z
 -------------------------------------------------------------------
      1        6           0.002405112    0.001941539    0.000332592
      2        8           0.000916716   -0.002709713   -0.000148311
      3        7          -0.001054399    0.002467620   -0.000028523
      4        6          -0.000078105    0.000735616   -0.000228712
      5        1           0.000074803    0.000365321    0.000059856
      6        1           0.000056984    0.000143927   -0.000101628
      7        1           0.000119327    0.000128539    0.000132402
      8        7           0.003366816    0.000268510    0.000283762
      9        1           0.000696286    0.000453285    0.000073189
     10        1           0.000034804   -0.000139138    0.000075213
     11        1          -0.000417377    0.000245458   -0.000435054
     12        1          -0.006076432   -0.002748701    0.000014567
     13        1          -0.000044534   -0.001152262   -0.000029353
 -------------------------------------------------------------------
 Cartesian Forces:  Max     0.006076432 RMS     0.001470557

 GradGradGradGradGradGradGradGradGradGradGradGradGradGradGradGradGradGrad
 Berny optimization.
 Using GEDIIS/GDIIS optimizer.
 FormGI is forming the generalized inverse of G from B-inverse, IUseBI=4.
 Internal  Forces:  Max     0.004449333 RMS     0.001185718
 Search for a local minimum.
 Step number   2 out of a maximum of   58
 All quantities printed in internal units (Hartrees-Bohrs-Radians)
 Mixed Optimization -- RFO/linear search
 Update second derivatives using D2CorX and points    1    2
 DE= -4.98D-03 DEPred=-5.84D-03 R= 8.53D-01
 TightC=F SS=  1.41D+00  RLast= 2.85D-01 DXNew= 5.0454D-01 8.5536D-01
 Trust test= 8.53D-01 RLast= 2.85D-01 DXMaxT set to 5.05D-01
 ITU=  1  0
 Use linear search instead of GDIIS.
     Eigenvalues ---    0.00230   0.00230   0.00258   0.00503   0.01224
     Eigenvalues ---    0.01296   0.02266   0.05351   0.05603   0.07266
     Eigenvalues ---    0.07388   0.07695   0.15828   0.16000   0.16000
     Eigenvalues ---    0.16000   0.16000   0.16000   0.16000   0.16143
     Eigenvalues ---    0.25000   0.26602   0.30348   0.33529   0.33556
     Eigenvalues ---    0.34106   0.44226   0.44239   0.44297   0.49528
     Eigenvalues ---    0.51651   0.54691   0.94702
 RFO step:  Lambda=-1.21427374D-03 EMin= 2.29991790D-03
 Quartic linear search produced a step of -0.02897.
 Iteration  1 RMS(Cart)=  0.12913430 RMS(Int)=  0.03792525
 Iteration  2 RMS(Cart)=  0.14954372 RMS(Int)=  0.01019465
 Iteration  3 RMS(Cart)=  0.04976986 RMS(Int)=  0.00160976
 Iteration  4 RMS(Cart)=  0.00076083 RMS(Int)=  0.00153443
 Iteration  5 RMS(Cart)=  0.00000053 RMS(Int)=  0.00153443
 Variable       Old X    -DE/DX   Delta X   Delta X   Delta X     New X
                                 (Linear)    (Quad)   (Total)
    R1        2.33700  -0.00003  -0.00091   0.00679   0.00588   2.34287
    R2        2.58922  -0.00239  -0.00074   0.00120   0.00046   2.58968
    R3        2.87545   0.00137  -0.00009   0.00510   0.00501   2.88045
    R4        1.94758  -0.00291  -0.00252   0.01318   0.01065   1.95822
    R5        1.91088   0.00114  -0.00146   0.01308   0.01162   1.92250
    R6        2.07161   0.00014  -0.00000   0.00041   0.00041   2.07202
    R7        2.08133   0.00015   0.00000   0.00042   0.00042   2.08175
    R8        2.08083   0.00020   0.00000   0.00058   0.00058   2.08141
    R9        1.92951  -0.00006  -0.00002   0.00001  -0.00001   1.92950
   R10        1.92885   0.00009  -0.00000   0.00023   0.00023   1.92907
   R11        1.92775   0.00024   0.00001   0.00047   0.00048   1.92822
   R12        3.62487   0.00377  -0.00486   0.09701   0.09216   3.71702
    A1        2.16344  -0.00445  -0.00157  -0.00569  -0.00727   2.15617
    A2        2.13181   0.00224   0.00075   0.00318   0.00392   2.13572
    A3        1.98794   0.00221   0.00082   0.00251   0.00333   1.99127
    A4        2.13037   0.00002  -0.00104   0.00778   0.00674   2.13711
    A5        2.04650   0.00015   0.00139  -0.00929  -0.00790   2.03860
    A6        2.10630  -0.00017  -0.00034   0.00150   0.00115   2.10746
    A7        1.89659   0.00048   0.00027   0.00111   0.00138   1.89797
    A8        1.92294   0.00007  -0.00016   0.00154   0.00138   1.92432
    A9        1.92903   0.00001  -0.00012   0.00081   0.00069   1.92971
   A10        1.91292  -0.00022  -0.00000  -0.00101  -0.00101   1.91191
   A11        1.91712  -0.00025  -0.00001  -0.00137  -0.00138   1.91574
   A12        1.88530  -0.00010   0.00002  -0.00112  -0.00110   1.88420
   A13        1.85125  -0.00047   0.00004  -0.00261  -0.00577   1.84548
   A14        1.85095  -0.00040   0.00013  -0.00396   0.00188   1.85283
   A15        1.81841   0.00113  -0.00049   0.01032   0.01159   1.83000
   A16        1.84958   0.00052   0.00021   0.00172  -0.00078   1.84879
   A17        1.93748   0.00014  -0.00007   0.00165  -0.00172   1.93576
   A18        2.13625  -0.00095   0.00015  -0.00704  -0.00528   2.13098
   A19        3.24089  -0.00162  -0.00513  -0.44357  -0.44855   2.79234
   A20        3.13177   0.00001  -0.00033   0.00540   0.00351   3.13528
    D1       -3.13602  -0.00002  -0.00016  -0.00116  -0.00143  -3.13744
    D2        0.00112  -0.00002  -0.00003  -0.00254  -0.00253  -0.00141
    D3        0.00666   0.00008  -0.00008   0.00581   0.00554   0.01220
    D4       -3.13938   0.00008   0.00005   0.00444   0.00443  -3.13495
    D5        0.04143   0.00010  -0.00004   0.00845   0.00838   0.04982
    D6       -2.05458   0.00003  -0.00011   0.00806   0.00792  -2.04666
    D7        2.14632   0.00011   0.00004   0.00796   0.00798   2.15429
    D8       -3.10122  -0.00000  -0.00013   0.00161   0.00150  -3.09972
    D9        1.08595  -0.00007  -0.00020   0.00122   0.00104   1.08699
   D10       -0.99634   0.00001  -0.00004   0.00112   0.00110  -0.99524
   D11       -2.58785   0.00013   0.00013   0.01815   0.02156  -2.56629
   D12        1.72768  -0.00026  -0.00052  -0.06073  -0.06182   1.66587
   D13       -0.49938   0.00013   0.00038   0.04807   0.04516  -0.45422
   D14        0.56555   0.00014   0.00024   0.01635   0.02006   0.58561
   D15       -1.40210  -0.00026  -0.00041  -0.06253  -0.06332  -1.46543
   D16        2.65402   0.00013   0.00048   0.04628   0.04366   2.69768
         Item               Value     Threshold  Converged?
 Maximum Force            0.004449     0.000450     NO 
 RMS     Force            0.001186     0.000300     NO 
 Maximum Displacement     0.891510     0.001800     NO 
 RMS     Displacement     0.319964     0.001200     NO 
 Predicted change in Energy=-7.037525D-04
 GradGradGradGradGradGradGradGradGradGradGradGradGradGradGradGradGradGrad

                          Input orientation:                          
 ---------------------------------------------------------------------
 Center     Atomic      Atomic             Coordinates (Angstroms)
 Number     Number       Type             X           Y           Z
 ---------------------------------------------------------------------
      1          6           0       -1.040856   -0.116418    0.000605
      2          8           0       -2.264787   -0.314053    0.005617
      3          7           0       -0.111346   -1.123321   -0.011620
      4          6           0       -0.440511    1.284641   -0.003568
      5          1           0       -1.254716    2.017039    0.050333
      6          1           0        0.141310    1.447515   -0.924716
      7          1           0        0.237443    1.417610    0.854251
      8          7           0        2.607036    0.052823    0.001922
      9          1           0        3.256391   -0.533092   -0.524932
     10          1           0        2.988694    0.108450    0.947079
     11          1           0        2.690098    0.991547   -0.389305
     12          1           0        0.908324   -0.938707   -0.012021
     13          1           0       -0.467396   -2.076319   -0.015396
 ---------------------------------------------------------------------
                    Distance matrix (angstroms):
                    1          2          3          4          5
     1  C    0.000000
     2  O    1.239795   0.000000
     3  N    1.370398   2.300548   0.000000
     4  C    1.524270   2.425673   2.430370   0.000000
     5  H    2.144726   2.540912   3.342603   1.096468   0.000000
     6  H    2.167861   3.123770   2.739850   1.101615   1.795541
     7  H    2.171636   3.159112   2.706976   1.101434   1.797815
     8  N    3.651816   4.885619   2.961942   3.287089   4.332854
     9  H    4.349268   5.550933   3.457385   4.152476   5.213845
    10  H    4.145317   5.353870   3.470823   3.747880   4.738502
    11  H    3.911474   5.139206   3.530354   3.167871   4.099570
    12  H    2.115566   3.234059   1.036248   2.600520   3.663204
    13  H    2.042136   2.517267   1.017345   3.361088   4.168905
                    6          7          8          9         10
     6  H    0.000000
     7  H    1.781813   0.000000
     8  N    2.980542   2.864277   0.000000
     9  H    3.712998   3.849861   1.021045   0.000000
    10  H    3.661189   3.048262   1.020822   1.627899   0.000000
    11  H    2.644029   2.782711   1.020372   1.632055   1.629399
    12  H    2.667466   2.598603   1.966964   2.437420   2.518799
    13  H    3.689822   3.668872   3.739743   4.062975   4.200492
                   11         12         13
    11  H    0.000000
    12  H    2.653854   0.000000
    13  H    4.418300   1.785155   0.000000
 Stoichiometry    C2H8N2O
 Framework group  C1[X(C2H8N2O)]
 Deg. of freedom    33
 Full point group                 C1      NOp   1
 Largest Abelian subgroup         C1      NOp   1
 Largest concise Abelian subgroup C1      NOp   1
                         Standard orientation:                         
 ---------------------------------------------------------------------
 Center     Atomic      Atomic             Coordinates (Angstroms)
 Number     Number       Type             X           Y           Z
 ---------------------------------------------------------------------
      1          6           0       -1.019844   -0.056093    0.002274
      2          8           0       -2.251580   -0.197116    0.007853
      3          7           0       -0.137715   -1.104774   -0.008076
      4          6           0       -0.355587    1.315808   -0.004776
      5          1           0       -1.135171    2.085047    0.047781
      6          1           0        0.232906    1.449874   -0.926329
      7          1           0        0.327974    1.419102    0.852681
      8          7           0        2.631972   -0.055100    0.002738
      9          1           0        3.253519   -0.671354   -0.523040
     10          1           0        3.016008   -0.015241    0.947728
     11          1           0        2.758104    0.878022   -0.390370
     12          1           0        0.889378   -0.967337   -0.008989
     13          1           0       -0.537296   -2.040361   -0.009903
 ---------------------------------------------------------------------
 Rotational constants (GHZ):           8.9698781           2.2526393           1.8389601
 Standard basis: Aug-CC-pVDZ (5D, 7F)
 There are   197 symmetry adapted cartesian basis functions of A   symmetry.
 There are   187 symmetry adapted basis functions of A   symmetry.
   187 basis functions,   303 primitive gaussians,   197 cartesian basis functions
    21 alpha electrons       21 beta electrons
       nuclear repulsion energy       179.1435222633 Hartrees.
 NAtoms=   13 NActive=   13 NUniq=   13 SFac= 1.00D+00 NAtFMM=   60 NAOKFM=F Big=F
 Integral buffers will be    131072 words long.
 Raffenetti 1 integral format.
 Two-electron integral symmetry is turned on.
 One-electron integrals computed using PRISM.
 NBasis=   187 RedAO= T EigKep=  5.30D-05  NBF=   187
 NBsUse=   187 1.00D-06 EigRej= -1.00D+00 NBFU=   187
 Initial guess from the checkpoint file:  "/scr/Gau-36235.chk"
 B after Tr=     0.000000    0.000000    0.000000
         Rot=    0.998962    0.001047    0.000079    0.045543 Ang=   5.22 deg.
 ExpMin= 2.97D-02 ExpMax= 1.17D+04 ExpMxC= 4.01D+02 IAcc=3 IRadAn=         5 AccDes= 0.00D+00
 Harris functional with IExCor=  205 and IRadAn=       5 diagonalized for initial guess.
 HarFok:  IExCor=  205 AccDes= 0.00D+00 IRadAn=         5 IDoV= 1 UseB2=F ITyADJ=14
 ICtDFT=  3500011 ScaDFX=  1.000000  1.000000  1.000000  1.000000
 FoFCou: FMM=F IPFlag=           0 FMFlag=      100000 FMFlg1=           0
         NFxFlg=           0 DoJE=T BraDBF=F KetDBF=T FulRan=T
         wScrn=  0.000000 ICntrl=       500 IOpCl=  0 I1Cent=   200000004 NGrid=           0
         NMat0=    1 NMatS0=      1 NMatT0=    0 NMatD0=    1 NMtDS0=    0 NMtDT0=    0
 Petite list used in FoFCou.
 Requested convergence on RMS density matrix=1.00D-08 within 128 cycles.
 Requested convergence on MAX density matrix=1.00D-06.
 Requested convergence on             energy=1.00D-06.
 No special actions if energy rises.
 SCF Done:  E(RHF) =  -264.216890622     A.U. after   14 cycles
            NFock= 14  Conv=0.27D-08     -V/T= 2.0024
 ExpMin= 2.97D-02 ExpMax= 1.17D+04 ExpMxC= 4.01D+02 IAcc=3 IRadAn=         5 AccDes= 0.00D+00
 HarFok:  IExCor=  205 AccDes= 0.00D+00 IRadAn=         5 IDoV=-2 UseB2=F ITyADJ=14
 ICtDFT= 12500011 ScaDFX=  1.000000  1.000000  1.000000  1.000000
 Range of M.O.s used for correlation:     6   187
 NBasis=   187 NAE=    21 NBE=    21 NFC=     5 NFV=     0
 NROrb=    182 NOA=    16 NOB=    16 NVA=   166 NVB=   166

 **** Warning!!: The largest alpha MO coefficient is  0.40463784D+02

 Fully direct method using O(ONN) memory.
 JobTyp=1 Pass  1:  I=   6 to  21 NPSUse= 40 ParTrn=T ParDer=T DoDerP=T.
 Spin components of T(2) and E(2):
     alpha-alpha T2 =       0.3564461093D-01 E2=     -0.1090873427D+00
     alpha-beta  T2 =       0.2032045600D+00 E2=     -0.6489940930D+00
     beta-beta   T2 =       0.3564461093D-01 E2=     -0.1090873427D+00
 ANorm=    0.1128934800D+01
 E2 =    -0.8671687784D+00 EUMP2 =    -0.26508405940026D+03
          IDoAtm=1111111111111
          Differentiating once with respect to electric field.
                with respect to dipole field.
          Differentiating once with respect to nuclear coordinates.
 Keep R1 ints in memory in canonical form, NReq=163456469.
          There are     1 degrees of freedom in the 1st order CPHF.  IDoFFX=0 NUNeed=     1.
 LinEq1:  Iter=  0 NonCon=     1 RMS=4.45D-03 Max=5.44D-02 NDo=     1
 AX will form     1 AO Fock derivatives at one time.
 LinEq1:  Iter=  1 NonCon=     1 RMS=1.30D-03 Max=1.28D-02 NDo=     1
 LinEq1:  Iter=  2 NonCon=     1 RMS=4.92D-04 Max=4.87D-03 NDo=     1
 LinEq1:  Iter=  3 NonCon=     1 RMS=1.47D-04 Max=1.52D-03 NDo=     1
 LinEq1:  Iter=  4 NonCon=     1 RMS=4.89D-05 Max=5.81D-04 NDo=     1
 LinEq1:  Iter=  5 NonCon=     1 RMS=1.14D-05 Max=1.45D-04 NDo=     1
 LinEq1:  Iter=  6 NonCon=     1 RMS=4.06D-06 Max=4.94D-05 NDo=     1
 LinEq1:  Iter=  7 NonCon=     1 RMS=1.05D-06 Max=1.78D-05 NDo=     1
 LinEq1:  Iter=  8 NonCon=     1 RMS=2.45D-07 Max=3.45D-06 NDo=     1
 LinEq1:  Iter=  9 NonCon=     1 RMS=8.84D-08 Max=7.73D-07 NDo=     1
 LinEq1:  Iter= 10 NonCon=     1 RMS=2.18D-08 Max=1.69D-07 NDo=     1
 LinEq1:  Iter= 11 NonCon=     1 RMS=5.25D-09 Max=4.40D-08 NDo=     1
 LinEq1:  Iter= 12 NonCon=     1 RMS=1.63D-09 Max=1.25D-08 NDo=     1
 LinEq1:  Iter= 13 NonCon=     1 RMS=2.91D-10 Max=1.99D-09 NDo=     1
 LinEq1:  Iter= 14 NonCon=     0 RMS=5.57D-11 Max=5.68D-10 NDo=     1
 Linear equations converged to 1.000D-10 1.000D-09 after    14 iterations.
 End of Minotr F.D. properties file   721 does not exist.
 End of Minotr F.D. properties file   722 does not exist.
 End of Minotr F.D. properties file   788 does not exist.
 Calling FoFJK, ICntrl=  10002127 FMM=F ISym2X=0 I1Cent= 0 IOpClX= 0 NMat=1 NMatS=1 NMatT=0.
 ***** Axes restored to original set *****
 -------------------------------------------------------------------
 Center     Atomic                   Forces (Hartrees/Bohr)
 Number     Number              X              Y              Z
 -------------------------------------------------------------------
      1        6           0.000801064    0.001895168   -0.000620576
      2        8           0.005215640   -0.001119885    0.000154708
      3        7           0.003790160   -0.006973474    0.000155973
      4        6          -0.001093312    0.000895329    0.000417328
      5        1          -0.000383985   -0.000112171   -0.000007450
      6        1          -0.000586722   -0.000258619    0.000241743
      7        1          -0.000488892   -0.000168470   -0.000367470
      8        7           0.005040812   -0.002263264    0.000341708
      9        1           0.001353328    0.001073036   -0.000087406
     10        1           0.000125959    0.000078798    0.000283243
     11        1          -0.000960465   -0.000338393   -0.000537771
     12        1          -0.014305535    0.003420866   -0.000005687
     13        1           0.001491948    0.003871079    0.000031658
 -------------------------------------------------------------------
 Cartesian Forces:  Max     0.014305535 RMS     0.003071592

 GradGradGradGradGradGradGradGradGradGradGradGradGradGradGradGradGradGrad
 Berny optimization.
 Using GEDIIS/GDIIS optimizer.
 FormGI is forming the generalized inverse of G from B-inverse, IUseBI=4.
 Internal  Forces:  Max     0.010489415 RMS     0.002667975
 Search for a local minimum.
 Step number   3 out of a maximum of   58
 All quantities printed in internal units (Hartrees-Bohrs-Radians)
 Mixed Optimization -- RFO/linear search
 Update second derivatives using D2CorX and points    1    3    2
 DE=  1.07D-03 DEPred=-7.04D-04 R=-1.52D+00
 Trust test=-1.52D+00 RLast= 4.73D-01 DXMaxT set to 2.52D-01
 ITU= -1  1  0
 Use linear search instead of GDIIS.
     Eigenvalues ---    0.00230   0.00230   0.00502   0.01200   0.01280
     Eigenvalues ---    0.02127   0.02265   0.04087   0.06299   0.07253
     Eigenvalues ---    0.07358   0.07395   0.15656   0.15999   0.16000
     Eigenvalues ---    0.16000   0.16000   0.16000   0.16043   0.16266
     Eigenvalues ---    0.23894   0.25573   0.30330   0.33534   0.33570
     Eigenvalues ---    0.34105   0.44227   0.44239   0.44297   0.49978
     Eigenvalues ---    0.51395   0.53644   0.95120
 RFO step:  Lambda=-8.98713994D-04 EMin= 2.29840825D-03
 Quartic linear search produced a step of -0.66150.
 Iteration  1 RMS(Cart)=  0.16647553 RMS(Int)=  0.01499189
 Iteration  2 RMS(Cart)=  0.07109337 RMS(Int)=  0.00142609
 Iteration  3 RMS(Cart)=  0.00255856 RMS(Int)=  0.00058010
 Iteration  4 RMS(Cart)=  0.00000074 RMS(Int)=  0.00058010
 Variable       Old X    -DE/DX   Delta X   Delta X   Delta X     New X
                                 (Linear)    (Quad)   (Total)
    R1        2.34287  -0.00497  -0.00389   0.00021  -0.00368   2.33920
    R2        2.58968  -0.00152  -0.00030  -0.00587  -0.00617   2.58351
    R3        2.88045  -0.00068  -0.00331   0.00613   0.00282   2.88327
    R4        1.95822  -0.00825  -0.00704  -0.00837  -0.01543   1.94280
    R5        1.92250  -0.00415  -0.00769   0.00378  -0.00391   1.91859
    R6        2.07202   0.00021  -0.00027   0.00080   0.00053   2.07256
    R7        2.08175  -0.00055  -0.00028   0.00010  -0.00019   2.08157
    R8        2.08141  -0.00061  -0.00038   0.00028  -0.00011   2.08130
    R9        1.92950   0.00029   0.00001   0.00006   0.00007   1.92956
   R10        1.92907   0.00031  -0.00015   0.00055   0.00040   1.92947
   R11        1.92822  -0.00018  -0.00032   0.00064   0.00032   1.92855
   R12        3.71702   0.00407  -0.06096   0.13030   0.06935   3.78637
    A1        2.15617  -0.00558   0.00481  -0.03027  -0.02546   2.13071
    A2        2.13572  -0.00105  -0.00259   0.01014   0.00756   2.14328
    A3        1.99127   0.00663  -0.00220   0.02007   0.01788   2.00915
    A4        2.13711   0.00245  -0.00446   0.00755   0.00310   2.14021
    A5        2.03860  -0.00118   0.00523  -0.00410   0.00111   2.03972
    A6        2.10746  -0.00126  -0.00076  -0.00345  -0.00421   2.10325
    A7        1.89797  -0.00048  -0.00091   0.00291   0.00199   1.89996
    A8        1.92432  -0.00032  -0.00091   0.00029  -0.00062   1.92370
    A9        1.92971   0.00001  -0.00045   0.00031  -0.00015   1.92957
   A10        1.91191   0.00021   0.00067  -0.00146  -0.00079   1.91112
   A11        1.91574   0.00022   0.00092  -0.00178  -0.00086   1.91488
   A12        1.88420   0.00037   0.00073  -0.00035   0.00039   1.88458
   A13        1.84548   0.00025   0.00382  -0.00279   0.00136   1.84685
   A14        1.85283  -0.00054  -0.00125  -0.00003  -0.00336   1.84948
   A15        1.83000   0.00305  -0.00767   0.02137   0.01252   1.84252
   A16        1.84879  -0.00014   0.00052  -0.00149   0.00064   1.84944
   A17        1.93576   0.00011   0.00113  -0.00118   0.00118   1.93694
   A18        2.13098  -0.00239   0.00349  -0.01435  -0.01098   2.11999
   A19        2.79234   0.01049   0.29672  -0.01550   0.28146   3.07380
   A20        3.13528  -0.00016  -0.00232  -0.02134  -0.02354   3.11174
    D1       -3.13744   0.00011   0.00094  -0.00159  -0.00031  -3.13775
    D2       -0.00141   0.00013   0.00168  -0.00124   0.00012  -0.00129
    D3        0.01220  -0.00011  -0.00366   0.00566   0.00232   0.01452
    D4       -3.13495  -0.00008  -0.00293   0.00601   0.00275  -3.13220
    D5        0.04982  -0.00011  -0.00555   0.01508   0.00954   0.05936
    D6       -2.04666   0.00012  -0.00524   0.01488   0.00965  -2.03701
    D7        2.15429  -0.00014  -0.00528   0.01493   0.00966   2.16395
    D8       -3.09972   0.00007  -0.00099   0.00772   0.00672  -3.09300
    D9        1.08699   0.00030  -0.00069   0.00752   0.00683   1.09381
   D10       -0.99524   0.00004  -0.00073   0.00757   0.00684  -0.98841
   D11       -2.56629  -0.00017  -0.01426  -0.01409  -0.02905  -2.59533
   D12        1.66587   0.00004   0.04089  -0.02214   0.01856   1.68443
   D13       -0.45422  -0.00025  -0.02987  -0.00201  -0.03035  -0.48456
   D14        0.58561  -0.00003  -0.01327   0.00321  -0.01117   0.57443
   D15       -1.46543   0.00019   0.04189  -0.00484   0.03643  -1.42899
   D16        2.69768  -0.00010  -0.02888   0.01529  -0.01247   2.68520
         Item               Value     Threshold  Converged?
 Maximum Force            0.010489     0.000450     NO 
 RMS     Force            0.002668     0.000300     NO 
 Maximum Displacement     0.694104     0.001800     NO 
 RMS     Displacement     0.233885     0.001200     NO 
 Predicted change in Energy=-1.017030D-03
 GradGradGradGradGradGradGradGradGradGradGradGradGradGradGradGradGradGrad

                          Input orientation:                          
 ---------------------------------------------------------------------
 Center     Atomic      Atomic             Coordinates (Angstroms)
 Number     Number       Type             X           Y           Z
 ---------------------------------------------------------------------
      1          6           0       -1.091081   -0.097928    0.004718
      2          8           0       -2.279839   -0.442627    0.022312
      3          7           0       -0.071341   -1.008270   -0.016694
      4          6           0       -0.654528    1.363976   -0.009504
      5          1           0       -1.544915    2.000554    0.060050
      6          1           0       -0.112545    1.590401   -0.941344
      7          1           0        0.019632    1.574491    0.835614
      8          7           0        2.807197   -0.062852    0.007312
      9          1           0        3.351105   -0.750205   -0.516439
     10          1           0        3.182047   -0.076431    0.956949
     11          1           0        3.057402    0.847484   -0.380237
     12          1           0        0.918693   -0.731401   -0.028077
     13          1           0       -0.332144   -1.989478   -0.016410
 ---------------------------------------------------------------------
                    Distance matrix (angstroms):
                    1          2          3          4          5
     1  C    0.000000
     2  O    1.237850   0.000000
     3  N    1.367132   2.280118   0.000000
     4  C    1.525761   2.430322   2.442890   0.000000
     5  H    2.147709   2.551602   3.351169   1.096749   0.000000
     6  H    2.168646   3.123941   2.758581   1.101517   1.795188
     7  H    2.172800   3.165090   2.721280   1.101378   1.797453
     8  N    3.898437   5.101215   3.029914   3.744283   4.816773
     9  H    4.519966   5.665015   3.468354   4.557613   5.645355
    10  H    4.377993   5.553363   3.521483   4.210475   5.240464
    11  H    4.272225   5.505686   3.655820   3.765983   4.764950
    12  H    2.107500   3.211937   1.028083   2.620300   3.679770
    13  H    2.038233   2.487522   1.015277   3.368922   4.170973
                    6          7          8          9         10
     6  H    0.000000
     7  H    1.781938   0.000000
     8  N    3.486845   3.337288   0.000000
     9  H    4.201887   4.281468   1.021081   0.000000
    10  H    4.151647   3.569472   1.021032   1.628934   0.000000
    11  H    3.303836   3.351847   1.020543   1.630161   1.630098
    12  H    2.699680   2.621337   2.003661   2.481024   2.553827
    13  H    3.703953   3.681245   3.683465   3.918182   4.117853
                   11         12         13
    11  H    0.000000
    12  H    2.681598   0.000000
    13  H    4.435059   1.774116   0.000000
 Stoichiometry    C2H8N2O
 Framework group  C1[X(C2H8N2O)]
 Deg. of freedom    33
 Full point group                 C1      NOp   1
 Largest Abelian subgroup         C1      NOp   1
 Largest concise Abelian subgroup C1      NOp   1
                         Standard orientation:                         
 ---------------------------------------------------------------------
 Center     Atomic      Atomic             Coordinates (Angstroms)
 Number     Number       Type             X           Y           Z
 ---------------------------------------------------------------------
      1          6           0       -1.066142   -0.082868    0.002607
      2          8           0       -2.252225   -0.436729    0.018790
      3          7           0       -0.039419   -0.985301   -0.019884
      4          6           0       -0.640834    1.382374   -0.008564
      5          1           0       -1.536133    2.011954    0.061631
      6          1           0       -0.100028    1.614732   -0.939628
      7          1           0        0.031162    1.596458    0.837381
      8          7           0        2.831749   -0.017826    0.007749
      9          1           0        3.381252   -0.699980   -0.516959
     10          1           0        3.206101   -0.030329    0.957596
     11          1           0        3.075188    0.895142   -0.377913
     12          1           0        0.948464   -0.700806   -0.030111
     13          1           0       -0.292669   -1.968483   -0.021627
 ---------------------------------------------------------------------
 Rotational constants (GHZ):           8.7951417           2.0311178           1.6824921
 Standard basis: Aug-CC-pVDZ (5D, 7F)
 There are   197 symmetry adapted cartesian basis functions of A   symmetry.
 There are   187 symmetry adapted basis functions of A   symmetry.
   187 basis functions,   303 primitive gaussians,   197 cartesian basis functions
    21 alpha electrons       21 beta electrons
       nuclear repulsion energy       176.3488834142 Hartrees.
 NAtoms=   13 NActive=   13 NUniq=   13 SFac= 1.00D+00 NAtFMM=   60 NAOKFM=F Big=F
 Integral buffers will be    131072 words long.
 Raffenetti 1 integral format.
 Two-electron integral symmetry is turned on.
 One-electron integrals computed using PRISM.
 NBasis=   187 RedAO= T EigKep=  5.82D-05  NBF=   187
 NBsUse=   187 1.00D-06 EigRej= -1.00D+00 NBFU=   187
 Lowest energy guess from the checkpoint file:  "/scr/Gau-36235.chk"
 B after Tr=     0.000000    0.000000    0.000000
         Rot=    0.999902    0.000315   -0.000111    0.014007 Ang=   1.61 deg.
 B after Tr=    -0.000000   -0.000000    0.000000
         Rot=    0.999515   -0.001592   -0.000256   -0.031099 Ang=  -3.57 deg.
 Requested convergence on RMS density matrix=1.00D-08 within 128 cycles.
 Requested convergence on MAX density matrix=1.00D-06.
 Requested convergence on             energy=1.00D-06.
 No special actions if energy rises.
 SCF Done:  E(RHF) =  -264.220750032     A.U. after   12 cycles
            NFock= 12  Conv=0.34D-08     -V/T= 2.0024
 ExpMin= 2.97D-02 ExpMax= 1.17D+04 ExpMxC= 4.01D+02 IAcc=3 IRadAn=         5 AccDes= 0.00D+00
 HarFok:  IExCor=  205 AccDes= 0.00D+00 IRadAn=         5 IDoV=-2 UseB2=F ITyADJ=14
 ICtDFT= 12500011 ScaDFX=  1.000000  1.000000  1.000000  1.000000
 Range of M.O.s used for correlation:     6   187
 NBasis=   187 NAE=    21 NBE=    21 NFC=     5 NFV=     0
 NROrb=    182 NOA=    16 NOB=    16 NVA=   166 NVB=   166

 **** Warning!!: The largest alpha MO coefficient is  0.40511744D+02

 Fully direct method using O(ONN) memory.
 JobTyp=1 Pass  1:  I=   6 to  21 NPSUse= 40 ParTrn=T ParDer=T DoDerP=T.
 Spin components of T(2) and E(2):
     alpha-alpha T2 =       0.3542432140D-01 E2=     -0.1086447268D+00
     alpha-beta  T2 =       0.2025115050D+00 E2=     -0.6476335449D+00
     beta-beta   T2 =       0.3542432140D-01 E2=     -0.1086447268D+00
 ANorm=    0.1128432607D+01
 E2 =    -0.8649229986D+00 EUMP2 =    -0.26508567303090D+03
          IDoAtm=1111111111111
          Differentiating once with respect to electric field.
                with respect to dipole field.
          Differentiating once with respect to nuclear coordinates.
 Keep R1 ints in memory in canonical form, NReq=163451114.
          There are     1 degrees of freedom in the 1st order CPHF.  IDoFFX=0 NUNeed=     1.
 LinEq1:  Iter=  0 NonCon=     1 RMS=4.40D-03 Max=5.08D-02 NDo=     1
 AX will form     1 AO Fock derivatives at one time.
 LinEq1:  Iter=  1 NonCon=     1 RMS=1.29D-03 Max=1.49D-02 NDo=     1
 LinEq1:  Iter=  2 NonCon=     1 RMS=4.84D-04 Max=4.57D-03 NDo=     1
 LinEq1:  Iter=  3 NonCon=     1 RMS=1.45D-04 Max=1.49D-03 NDo=     1
 LinEq1:  Iter=  4 NonCon=     1 RMS=4.78D-05 Max=4.99D-04 NDo=     1
 LinEq1:  Iter=  5 NonCon=     1 RMS=1.12D-05 Max=1.39D-04 NDo=     1
 LinEq1:  Iter=  6 NonCon=     1 RMS=4.02D-06 Max=3.79D-05 NDo=     1
 LinEq1:  Iter=  7 NonCon=     1 RMS=1.03D-06 Max=1.52D-05 NDo=     1
 LinEq1:  Iter=  8 NonCon=     1 RMS=2.41D-07 Max=3.27D-06 NDo=     1
 LinEq1:  Iter=  9 NonCon=     1 RMS=8.41D-08 Max=7.08D-07 NDo=     1
 LinEq1:  Iter= 10 NonCon=     1 RMS=2.14D-08 Max=1.47D-07 NDo=     1
 LinEq1:  Iter= 11 NonCon=     1 RMS=5.49D-09 Max=4.58D-08 NDo=     1
 LinEq1:  Iter= 12 NonCon=     1 RMS=1.64D-09 Max=1.70D-08 NDo=     1
 LinEq1:  Iter= 13 NonCon=     1 RMS=3.52D-10 Max=2.33D-09 NDo=     1
 LinEq1:  Iter= 14 NonCon=     1 RMS=7.84D-11 Max=1.17D-09 NDo=     1
 LinEq1:  Iter= 15 NonCon=     0 RMS=1.90D-11 Max=3.20D-10 NDo=     1
 Linear equations converged to 1.000D-10 1.000D-09 after    15 iterations.
 End of Minotr F.D. properties file   721 does not exist.
 End of Minotr F.D. properties file   722 does not exist.
 End of Minotr F.D. properties file   788 does not exist.
 Calling FoFJK, ICntrl=  10002127 FMM=F ISym2X=0 I1Cent= 0 IOpClX= 0 NMat=1 NMatS=1 NMatT=0.
 ***** Axes restored to original set *****
 -------------------------------------------------------------------
 Center     Atomic                   Forces (Hartrees/Bohr)
 Number     Number              X              Y              Z
 -------------------------------------------------------------------
      1        6          -0.001327051   -0.000204794   -0.000948104
      2        8          -0.000269495    0.002071168    0.000321116
      3        7           0.005371490   -0.001770087    0.000001951
      4        6          -0.000174018   -0.001864463    0.000430637
      5        1          -0.000060245   -0.000467354    0.000005283
      6        1          -0.000039178   -0.000339630   -0.000019371
      7        1           0.000099385   -0.000219914   -0.000062629
      8        7           0.002077818   -0.000825364    0.000251826
      9        1           0.000513144    0.000508398   -0.000056063
     10        1          -0.000245468    0.000072321   -0.000049991
     11        1          -0.000707657   -0.000038906   -0.000248456
     12        1          -0.005891832    0.000322674    0.000372326
     13        1           0.000653108    0.002755949    0.000001477
 -------------------------------------------------------------------
 Cartesian Forces:  Max     0.005891832 RMS     0.001539598

 GradGradGradGradGradGradGradGradGradGradGradGradGradGradGradGradGradGrad
 Berny optimization.
 Using GEDIIS/GDIIS optimizer.
 FormGI is forming the generalized inverse of G from B-inverse, IUseBI=4.
 Internal  Forces:  Max     0.004091201 RMS     0.001163413
 Search for a local minimum.
 Step number   4 out of a maximum of   58
 All quantities printed in internal units (Hartrees-Bohrs-Radians)
 Mixed Optimization -- RFO/linear search
 Update second derivatives using D2CorX and points    1    3    2    4
 DE= -5.46D-04 DEPred=-1.02D-03 R= 5.37D-01
 TightC=F SS=  1.41D+00  RLast= 2.50D-01 DXNew= 4.2426D-01 7.4974D-01
 Trust test= 5.37D-01 RLast= 2.50D-01 DXMaxT set to 4.24D-01
 ITU=  1 -1  1  0
 Use linear search instead of GDIIS.
     Eigenvalues ---    0.00230   0.00233   0.00496   0.01188   0.01301
     Eigenvalues ---    0.01529   0.02266   0.03413   0.05993   0.07260
     Eigenvalues ---    0.07364   0.07452   0.15387   0.15999   0.16000
     Eigenvalues ---    0.16000   0.16000   0.16036   0.16069   0.16540
     Eigenvalues ---    0.25298   0.29024   0.33533   0.33562   0.33948
     Eigenvalues ---    0.34521   0.44228   0.44250   0.44301   0.50181
     Eigenvalues ---    0.53602   0.55796   0.95243
 RFO step:  Lambda=-2.86521885D-04 EMin= 2.29842730D-03
 Quartic linear search produced a step of -0.06120.
 Iteration  1 RMS(Cart)=  0.02586021 RMS(Int)=  0.00032672
 Iteration  2 RMS(Cart)=  0.00064532 RMS(Int)=  0.00006524
 Iteration  3 RMS(Cart)=  0.00000021 RMS(Int)=  0.00006524
 Variable       Old X    -DE/DX   Delta X   Delta X   Delta X     New X
                                 (Linear)    (Quad)   (Total)
    R1        2.33920  -0.00031  -0.00013   0.00061   0.00047   2.33967
    R2        2.58351   0.00063   0.00035  -0.00052  -0.00017   2.58333
    R3        2.88327  -0.00282  -0.00048  -0.00671  -0.00719   2.87608
    R4        1.94280  -0.00409   0.00029  -0.00893  -0.00864   1.93416
    R5        1.91859  -0.00283  -0.00047  -0.00278  -0.00325   1.91535
    R6        2.07256  -0.00022  -0.00006  -0.00038  -0.00043   2.07212
    R7        2.08157  -0.00007  -0.00001  -0.00007  -0.00009   2.08148
    R8        2.08130  -0.00003  -0.00003   0.00014   0.00011   2.08141
    R9        1.92956  -0.00004  -0.00000  -0.00010  -0.00010   1.92946
   R10        1.92947  -0.00014  -0.00004  -0.00014  -0.00018   1.92929
   R11        1.92855  -0.00011  -0.00005   0.00002  -0.00003   1.92851
   R12        3.78637   0.00145  -0.00988   0.07356   0.06367   3.85004
    A1        2.13071   0.00378   0.00200   0.00567   0.00762   2.13833
    A2        2.14328  -0.00105  -0.00070  -0.00031  -0.00106   2.14221
    A3        2.00915  -0.00273  -0.00130  -0.00518  -0.00654   2.00261
    A4        2.14021  -0.00105  -0.00060  -0.00405  -0.00467   2.13554
    A5        2.03972   0.00045   0.00042   0.00091   0.00131   2.04103
    A6        2.10325   0.00060   0.00019   0.00310   0.00328   2.10652
    A7        1.89996  -0.00047  -0.00021  -0.00156  -0.00177   1.89819
    A8        1.92370  -0.00039  -0.00005  -0.00236  -0.00241   1.92129
    A9        1.92957  -0.00009  -0.00003  -0.00033  -0.00037   1.92920
   A10        1.91112   0.00040   0.00011   0.00169   0.00180   1.91292
   A11        1.91488   0.00037   0.00014   0.00202   0.00216   1.91703
[...]
 798,-0.00001502,-0.00004828,0.00001438,-0.00001926,0.00004695,0.000002
 04,-0.00009164,0.00000016,-0.00002897,-0.00000083,-0.00004492,0.000010
 26,-0.00000319,0.00000569,-0.00000554,-0.00000475,-0.00008439,-0.00002
 389,-0.00000953,-0.00000739,0.00000416,0.00000075,0.00000332,-0.000001
 34,-0.00000027,-0.00000082,0.00000067,-0.00000275,0.00000938,-0.000001
 17,0.00003983,0.00002689,-0.00000678,0.00001687,-0.00003547,0.00000218
 ,-0.00001304,-0.00001876,0.00004253,-0.00000967,-0.00001541,-0.0000374
 1,-0.00004078,0.00002639,0.00000855,0.00002735,0.00013550,0.00001337,0
 .00000645,-0.00000830,0.00000250,-0.00001043,-0.00001134,-0.00000869,0
 .00000404,0.00003788,-0.00000693,-0.00000138,0.00001022,-0.00000317,0.
 00000722,0.00000188,0.00000298,-0.00000652,0.00000075,-0.00000037,-0.0
 0000129,0.00002273,-0.00001234,0.00001496,0.00007877,0.00000600,-0.000
 00641,-0.00003180,-0.00001004,-0.00000302,-0.00003065,0.00001773,-0.00
 000179,-0.00001952,0.00000424,-0.00000962,-0.00007820,-0.00000528,0.00
 000779,0.00002757,0.00044741,0.00041446,-0.00014909,0.00012760,-0.0002
 2245,0.00001399,-0.00044484,-0.00036570,-0.00000275,0.00039391,-0.0000
 8315,0.00000367,0.00010706,0.00017293,-0.00003354,-0.00000449,0.000081
 94,0.00000126,-0.00001761,-0.00005514,-0.00001925,0.00006005,-0.000025
 47,-0.00004206,0.00002313,-0.00006103,-0.00003903,0.00024321,-0.000116
 02,0.00011838,0.00007397,0.00008339,0.00001676,-0.00001871,0.00005448,
 0.00011379,-0.00007443,0.00008607,-0.00000397,0.00001372,-0.00003457,0
 .00002336,0.00007576,-0.00002516,-0.00001868,-0.00018095,0.00004320,-0
 .00008052,0.00006561,-0.00005859,0.00007437,0.00000513,-0.00004734,-0.
 00000418,0.00024593,-0.00020548,0.00013793,0.00006392,0.00012507,-0.00
 001429,-0.00001581,-0.00001175,-0.00000167,0.00000415,0.00014456,0.000
 09614,-0.00005705,0.00004903,-0.00005359,0.00001401,-0.00001526,-0.000
 00251,0.00003984,-0.00001107,-0.00000071,-0.00001926,-0.00003809,0.000
 19262,-0.00003112,-0.00003418,-0.00002865,0.00000959,-0.00000500,-0.00
 000483,0.00000693,0.00000890,-0.00000220,0.00000516,-0.00000997,0.0000
 5791,0.00002317,-0.00000038,0.00003165,0.00001544,0.00000253,-0.000010
 96,-0.00000615,0.00001123,-0.00001344,0.00000127,-0.00001802,0.0000013
 1,0.00005138,0.00000818,-0.00002503,0.00002209,0.00003884,0.00000924,-
 0.00000746,-0.00001113,0.00000409,-0.00000482,-0.00002204,0.00000289,-
 0.00003526,0.00002573,0.00005484,-0.00003060,-0.00004532,-0.00003354,-
 0.00001902,-0.00002270,0.00003121,-0.00000008,0.00000324,-0.00000894,0
 .00000584,0.00000783,0.00000233,0.00002508,-0.00000156,-0.00006013,-0.
 00000207,-0.00001830,0.00001031,-0.00000786,0.00001312,0.00004108,-0.0
 0000160,-0.00000465,-0.00000112,-0.00000887,0.00000251,-0.00000770,0.0
 0000745,-0.00001493,-0.00003830,-0.00004863,-0.00000200,0.00000896,0.0
 0002052,-0.00000877,-0.00001240,-0.00001882,-0.00002481,-0.00000062,0.
 00000111,0.00001233,0.00000232,0.00000486,0.00001826,0.00000844,0.0000
 3110,-0.00003831,0.00006117,-0.00000682,-0.00000521,-0.00002276,0.0000
 3004,0.00002805,-0.00003129,0.00017537,-0.00015528,-0.00000576,-0.0000
 1206,0.00010210,0.00000890,-0.00002334,0.00002036,0.00000400,-0.000266
 69,-0.00009148,0.00002137,0.00005981,0.00001776,0.00005399,0.00006814,
 0.00001802,-0.00004208,0.00007811,-0.00002092,-0.00000382,-0.00003692,
 0.00000002,-0.00001941,0.00001700,-0.00000817,0.00001953,0.00000268,-0
 .00007922,-0.00026081,0.00000936,0.00004228,-0.00000779,-0.00000530,0.
 00005189,0.00000004,0.00000837,0.00011099,0.00043054,0.00000175,-0.000
 00025,0.00000954,-0.00000787,0.00000223,0.00001132,-0.00000060,0.00000
 529,0.00000545,0.00002955,-0.00000872,-0.00033398,0.00002126,-0.000010
 53,-0.00000805,-0.00000205,0.00000307,-0.00001161,-0.00004474,0.000009
 53,0.00050962,0.00037825,-0.00038462,0.00001165,-0.00023298,0.00008846
 ,-0.00001248,0.00066627,0.00006370,-0.00000826,0.00003396,0.00004229,-
 0.00002563,-0.00007100,-0.00000188,0.00001007,-0.00007141,0.00000314,-
 0.00001526,0.00001019,-0.00011916,0.00002132,-0.69159617,-0.00029851,-
 0.00003724,-0.00002017,0.00021848,0.00009131,0.00001320,-0.00022647,0.
 00020997,-0.00006013,-0.00048659,-0.00027113,-0.00006119,0.00009596,0.
 00001676,0.00003273,0.00009491,0.00002139,-0.00001718,-0.00025261,0.00
 064663,0.00002816,0.90269778,0.94751085,0.00002522,-0.00002596,-0.0000
 0208,-0.00001686,0.00000548,-0.00000691,-0.00001175,-0.00003596,0.0010
 5427,-0.00002258,-0.00002020,0.00041462,-0.00001952,0.00003131,-0.0000
 2651,0.00001725,-0.00002999,-0.00002843,0.00001618,0.00001411,-0.00032
 490,-0.21055809,-0.09792113,2.77299070,-0.00016401,0.00021872,-0.00000
 157,0.00011388,-0.00005052,0.00000606,0.00025654,0.00001952,0.00002241
 ,0.00008277,-0.00000818,0.00000663,0.00000322,-0.00000120,-0.00000512,
 0.00000373,-0.00000147,0.00000495,0.00011893,-0.00006592,0.00000048,0.
 00116210,-0.00703239,0.00270043,-0.00255324,-0.00007491,0.00018333,0.0
 0000338,0.00003556,-0.00007034,-0.00000028,0.00012468,-0.00010760,0.00
 001305,0.00006623,-0.00002223,0.00000621,-0.00002116,-0.00000708,-0.00
 000744,-0.00001946,-0.00000742,0.00000410,-0.00007375,0.00005242,-0.00
 000828,-0.03378830,-0.00229291,-0.00325269,0.00050145,0.00952581,-0.00
 002390,0.00003332,0.00000232,0.00001765,-0.00000726,-0.00001979,0.0000
 4216,-0.00000909,-0.00016961,0.00000634,-0.00000337,-0.00003302,0.0000
 1937,0.00000051,0.00000200,-0.00002013,-0.00000211,0.00000008,-0.00000
 466,0.00000193,0.00003724,0.00146091,-0.00154027,-0.01807160,-0.001737
 44,0.00323174,-0.00248980,-0.00010697,0.00012146,0.00001569,0.00005113
 ,-0.00003042,-0.00001158,-0.00043835,-0.00009609,0.00012610,-0.0000328
 4,0.00000623,-0.00002336,0.00002376,-0.00000207,-0.00000357,-0.0000243
 1,0.00001067,-0.00000289,-0.00009061,0.00005750,-0.00000238,0.40843205
 ,-0.32541634,-0.50326562,0.00049263,0.01599698,0.00971116,-0.40545707,
 0.00025314,-0.00016871,-0.00003530,-0.00015227,0.00001388,-0.00000226,
 -0.00004764,0.00000657,-0.00032762,0.00018514,0.00015981,-0.00013087,-
 0.00000548,-0.00001078,-0.00000830,-0.00005932,0.00001090,0.00001076,0
 .00011643,-0.00034436,0.00015954,-0.31342634,-0.34353536,-1.32541930,0
 .00333641,-0.00383731,-0.00271450,0.30801712,0.35091121,-0.00003037,0.
 00016294,-0.00004685,-0.00002731,-0.00007233,0.00001063,0.00046482,-0.
 00011736,-0.00035514,0.00029944,0.00005219,-0.00011279,-0.00001713,-0.
 00003928,-0.00001139,-0.00002399,-0.00000842,0.00003014,0.00009789,-0.
 00027416,0.00007067,-0.48375407,-1.32221293,-1.52775941,-0.00255319,0.
 00517005,0.01071086,0.49067966,1.32318854,1.50662620,-0.00010464,0.000
 14584,-0.00001277,0.00003841,-0.00004376,0.00001089,-0.00039735,-0.000
 10865,-0.00014447,0.00000261,0.00000951,0.00004225,-0.00002910,0.00001
 035,-0.00000320,0.00002027,-0.00000830,0.00000694,-0.00007542,0.000025
 31,-0.00001576,0.28151508,-0.56897030,0.71093215,0.00076996,0.01747159
 ,-0.00940012,-0.00300027,0.00144999,-0.00525541,-0.27888860,0.00024492
 ,-0.00016564,0.00005875,-0.00015458,0.00001074,-0.00001432,-0.00004877
 ,-0.00003212,0.00036257,0.00020003,0.00015305,0.00018028,-0.00005988,0
 .00001158,-0.00002065,-0.00000836,-0.00001473,0.00000766,0.00014648,-0
 .00036317,-0.00017907,-0.55604213,-0.60102618,1.42646594,0.00325368,-0
 .00337006,0.00102727,0.00168246,-0.00373672,-0.00646408,0.55031963,0.6
 0785427,0.00003856,-0.00016458,-0.00005862,0.00002447,0.00007354,0.000
 02312,-0.00049733,0.00015299,-0.00040843,-0.00028638,-0.00003124,-0.00
 013967,0.00001537,0.00000842,0.00003336,0.00002316,0.00004064,-0.00000
 434,-0.00010640,0.00025729,0.00007239,0.69267950,1.42165902,-1.2249505
 1,0.00159125,-0.00512812,0.00971239,0.00327272,0.00437076,0.00948556,-
 0.69650793,-1.42046136,1.20491328,0.00000757,0.00005173,-0.00001152,-0
 .00002730,-0.00003009,-0.00000316,-0.00033476,0.00011581,0.00000877,0.
 00000911,-0.00000414,-0.00000210,0.00000608,-0.00000863,-0.00000652,0.
 00000599,-0.00000793,0.00000685,-0.00002363,0.00001401,0.00000176,-0.0
 0009786,-0.00048767,0.00023428,-0.00035644,-0.00019439,-0.00007677,0.0
 0011587,0.00038086,0.00010641,0.00011014,0.00051376,-0.00025591,0.0005
 8687,-0.00004699,0.00007897,-0.00001333,0.00002000,-0.00000784,0.00001
 290,0.00020977,-0.00035098,-0.00000574,0.00004359,0.00004678,0.0000027
 3,-0.00001980,0.00000667,0.00000111,-0.00002129,0.00000524,-0.00000216
 ,0.00003906,-0.00013755,0.00000001,0.00077853,-0.00126604,0.00019617,-
 0.00015088,-0.00004370,-0.00001784,-0.00030766,0.00049352,0.00053385,-
 0.00027651,0.00063496,-0.00070312,-0.00032441,0.00055707,-0.00002165,-
 0.00001708,0.00016397,0.00000625,0.00000350,-0.00001810,-0.00001225,-0
 .00000991,-0.00024584,0.00001319,0.00000970,-0.00006383,-0.00000507,-0
 .00000578,-0.00000068,0.00000225,0.00000304,0.00000163,0.00000234,-0.0
 0000115,-0.00004758,0.00021339,0.00011974,-0.00365511,-0.00004343,-0.0
 0003189,0.00037092,-0.00056155,0.00089988,0.00148572,0.00039743,-0.000
 96763,0.00147721,-0.00000327,-0.00001249,0.00058479,-0.00001710,-0.000
 00746,-0.00000054,0.00002161,-0.00000417,0.00000190,-0.00007329,-0.000
 00589,-0.00001955,0.00000513,0.00000490,0.00000551,-0.00000442,0.00000
 042,0.00000009,-0.00000430,0.00000059,0.00000001,-0.00001880,-0.000008
 61,-0.00000272,-0.00012847,0.00006377,-0.00003109,0.00006995,-0.000024
 53,0.00000543,0.00003498,-0.00004805,0.00001326,0.00003890,-0.00004724
 ,0.00000892,-0.00000163,0.00005659,0.00001237,0.00007744,-0.00007927,-
 0.00007051,0.00000725,0.00001921,0.00002116,-0.00000350,0.00002663,0.0
 0002849,-0.00002403,0.00002195,0.00001341,0.00000612,0.00000216,-0.000
 00185,0.00000124,0.00000189,-0.00000596,-0.00000187,0.00000193,-0.0000
 1226,-0.00000099,0.00008854,-0.00006804,-0.00000778,-0.00001924,-0.000
 00292,-0.00000033,-0.00003985,0.00003736,0.00008098,-0.00002467,0.0000
 4400,-0.00007424,-0.00001892,-0.00001709,0.00001007,0.00001965,0.00003
 420,0.00001548,0.00000298,-0.00003460,0.00000264,-0.00000844,-0.000009
 52,-0.00001958,-0.00000121,0.00010798,-0.00000582,0.00000003,0.0000168
 4,0.00000091,0.00000395,-0.00000348,-0.00000130,-0.00000316,-0.0000047
 2,-0.00000104,-0.00000273,0.00000989,-0.00002306,-0.00001986,0.0003658
 6,0.00000852,0.00000016,-0.00005201,0.00006563,0.00000866,-0.00013420,
 -0.00004998,0.00000464,-0.00015572,0.00000118,0.00000789,-0.00005309,0
 .00000641,0.00000709,-0.00005324,-0.02115016,0.01101602,-0.02727247,-0
 .00092025,-0.00094997,0.00351995,0.00469719,-0.00015962,0.00033220,-0.
 00095552,0.00286058,0.00516003,0.00052430,-0.00127769,-0.00370506,0.00
 045459,0.00033525,-0.00025914,-0.00014250,-0.00029003,-0.00037467,0.01
 365998,-0.04321916,-0.00059252,-0.00758835,0.00412064,-0.00054268,0.10
 987603,-0.01355652,0.00936710,0.00009117,0.00327913,-0.00090974,-0.000
 04145,1.57501532,4.10727678,0.00070498,-0.00168829,-0.00933765,-0.0005
 3382,0.00000218,0.00388446,0.14743621,0.33097507,-1.14909295,0.0035253
 6,0.00349420,0.00012265,-0.00040735,-0.00073761,0.00003921,0.00155325,
 -0.00234164,0.00025293,-0.00373514,-0.00403668,0.00449151,-0.00010567,
 0.00023607,-0.00084859,-0.00002803,0.00137299,-0.00459270,0.00008236,0
 .00036335,-0.00365339,-0.00018000,0.00031643,0.00291762,0.00001518,-0.
 00007421,-0.00041473,0.00046013,-0.00015301,-0.00443579,-0.00023332,-0
 .00017987,-0.00011001,0.00000540,-0.00029556,0.00011662,0.00001915,0.0
 0003533,-0.00005075,-0.00003366,0.00031885,-0.00049745,0.00027897,0.00
 004291,0.00032025,-0.00009358,-0.00063320,-0.00122850,0.00032679,0.000
 15919,0.00026214,-0.00004149,-0.00039747,0.00101914,-0.00063919,0.0002
 8656,0.00049091,-0.00001682,0.00019581,-0.00053858,0.00000076,0.000202
 35,-0.00006745,-0.00000294,0.00002463,0.00002841,0.00015660,-0.0004270
 1,0.00023582,0.00005339,0.00026328,-0.00052118,-0.00017220,-0.00016889
 ,0.00041710,0.00003445,-0.00024325,-0.00011826,0.00000394,0.00004179,0
 .00003820,-0.00006920,0.00022011,0.00047866,0.00032620,0.00009077,-0.0
 0020878,0.00002649,0.00006482,0.00000884,-0.00014909,-0.00057240,-0.00
 116301,-0.00048624,0.00014528,0.00026862,0.00006678,-0.00046575,0.0009
 2585,0.00065492,0.00027616,0.00045852,0.00015287,0.00007072,-0.0000793
 0,0.00009916,0.00015715,-0.00054396,-0.00003345,-0.00031823,-0.0001509
 8,0.00000798,0.00000322,0.00003544,-0.00023869,0.00051611,0.00037343,0
 .00007384,-0.00016934,-0.00054438,-0.00000335,-0.00008905,0.00004811,0
 .00011626,0.00008405,0.00045976,0.00031656,-0.00031215,-0.00000700,-0.
 00016122,0.00008610,-0.00000051,-0.00023303,0.00022042,0.00001571,0.00
 054279,0.00013857,0.00005514,-0.00013705,0.00004854,-0.00004368,-0.000
 14036,0.00005027,0.00003625,-0.00032108,0.00025726,-0.00011759,-0.0000
 2841,0.00006502,0.00005434,0.00002449,0.00028867,0.00019044,0.00004032
 ,-0.00011408,0.00020417,0.00001235,-0.00009173,0.00009659,-0.00005850,
 -0.00008915,0.00010575,0.00005533,0.00002540,-0.00034137,0.00001953,-0
 .00001654,0.00004852,-0.00001337,0.00000535,0.00000445,0.00001495,0.00
 003614,-0.00025035,0.00005577,0.00000755,0.00007021,-0.00000585,0.0000
 7222,-0.00002963,-0.00001027,-0.00006466,-0.00002288,-0.00004381,-0.00
 000976,0.00003062,0.00137749,-0.00103313,0.00005495,-0.00061923,0.0001
 0379,-0.00003855,0.00020109,-0.00252299,-0.00012977,-0.00023769,0.0001
 0895,-0.00000796,0.00003040,0.00003517,0.00000997,0.00003083,0.0000339
 3,-0.00000296,0.00000737,0.00007187,0.00000065,0.00096869,0.00032717,-
 0.00012544,0.00002691,-0.00020378,0.00005111,-0.00001500,-0.00044118,-
 0.00104750,-0.00009415,-0.00012966,-0.00002789,-0.00000606,0.00000053,
 0.00004787,0.00000384,0.00000145,0.00004737,0.00000055,0.00004954,-0.0
 0003464,-0.00000186,-0.00065854,0.00284524,0.00011351,-0.00005468,-0.0
 0026681,-0.00005083,0.00000478,0.00006521,-0.00003546,-0.00022022,0.00
 046081,-0.00001854,0.00000672,-0.00003108,0.00000537,-0.00000353,-0.00
 000204,-0.00000161,0.00001176,-0.00000291,-0.00000088,0.00000098,0.000
 06549,-0.00014280,-0.00004157,0.00286779,0.00014173,-0.00019316,-0.000
 00034,-0.00006224,-0.00000230,-0.00000367,-0.00020053,-0.00013594,-0.0
 0001467,0.00001674,0.00001913,0.00000141,0.00000327,-0.00000223,0.0000
 0539,0.00000396,-0.00000173,-0.00000491,-0.00000957,0.00002457,0.00000
 075,-0.00095820,-0.00128411,-0.00011440,0.00064164,0.00016755,-0.00016
 497,0.00000278,-0.00008113,-0.00000101,-0.00000509,-0.00035730,-0.0000
 7046,-0.00002237,0.00000698,0.00002631,0.00000128,-0.00000175,0.000003
 89,0.00000487,-0.00000115,0.00000425,-0.00000457,-0.00000898,-0.000008
 44,-0.00000084,-0.00021813,-0.00106066,-0.00007016,0.00026919,0.000516
 70,0.00001618,-0.00001859,-0.00000274,-0.00000753,-0.00000030,0.000004
 01,-0.00002448,-0.00000911,-0.00005029,0.00000092,0.00000194,0.0000039
 9,0.00000070,-0.00000153,-0.00000046,-0.00000005,0.00000175,-0.0000014
 1,-0.00000004,0.00000070,-0.00000228,-0.00005964,-0.00013328,0.0001333
 2,0.00004411,0.00005070,-0.00009040,0.00025786,-0.00006803,-0.00006309
 ,-0.00011456,0.00000009,0.00001402,-0.00012044,-0.00033593,0.00003932,
 -0.00005921,0.00002146,-0.00001016,-0.00000147,0.00001309,0.00000254,-
 0.00000812,0.00001177,0.00000065,0.00001102,-0.00000900,0.00000731,-0.
 00148569,0.00020629,0.00095189,0.00013806,-0.00015165,-0.00003894,0.00
 076111,-0.00000782,0.00000429,-0.00001497,-0.00000170,0.00000676,0.000
 00498,0.00012545,-0.00011544,0.00002380,0.00000524,-0.00000326,-0.0000
 0173,0.00000106,-0.00000448,-0.00000174,-0.00000040,-0.00000404,0.0000
 0207,-0.00000131,0.00000507,0.00000970,-0.00029052,0.00011785,0.000047
 51,0.00009473,0.00002471,-0.00005598,0.00013607,-0.00002247,-0.0000868
 9,0.00008562,0.00001624,0.00005246,-0.00002043,-0.00000007,0.00029086,
 0.00005493,-0.00003972,-0.00000516,-0.00001196,-0.00000345,0.00000344,
 -0.00000429,-0.00000059,0.00000169,-0.00000384,0.00000184,0.00000645,0
 .00001232,-0.00000540,0.00014713,-0.00019104,-0.00028514,0.00012076,0.
 00001814,0.00003346,-0.00019852,0.00010034,0.00014977,0.00023626,-0.00
 006384,0.00008518,-0.00010436,-0.00000030,-0.00002819,-0.00007709,-0.0
 0032067,-0.00007396,-0.00005977,0.00001943,0.00000587,-0.00000785,0.00
 001149,-0.00000091,-0.00000123,0.00001257,-0.00000155,0.00001222,-0.00
 000707,-0.00000627,-0.00131945,0.00026498,-0.00107097,0.00014157,-0.00
 015223,0.00003288,0.00008150,0.00006194,0.00015712,0.00069251,-0.00001
 827,0.00001115,0.00001172,0.00000388,0.00000514,-0.00000373,0.00015233
 ,-0.00010711,-0.00001220,0.00000488,-0.00000438,0.00000245,0.00000031,
 -0.00000435,-0.00000267,0.00000106,-0.00000505,0.00000164,-0.00000030,
 0.00000660,-0.00000881,-0.00028633,0.00007526,-0.00004000,0.00010763,0
 .00002172,0.00006356,0.00007520,0.00008566,0.00004453,0.00013401,0.000
 02402,0.00011325,-0.00009572,0.00002992,-0.00006520,0.00002146,-0.0000
 0802,-0.00028366,-0.00009862,-0.00008936,-0.00000105,0.00001439,-0.000
 00048,-0.00000251,0.00000472,0.00000166,-0.00000359,0.00000571,-0.0000
 0062,-0.00000469,-0.00001257,-0.00000937,-0.00031951,0.00025951,-0.000
 40279,-0.00009509,-0.00003917,0.00003286,-0.00014370,-0.00002280,0.000
 04595,0.00029242,-0.00010845,0.00016598,0.00185335,0.00376443,0.000303
 55,0.00159708,-0.00209864,0.00000494,-0.71247814,-0.19193291,-0.061741
 45,-0.00046597,-0.00037379,-0.00007951,-0.00010234,0.00005416,-0.00006
 160,-0.00009195,0.00006099,0.00005336,-0.00016994,-0.00027850,-0.00002
 110,0.00502558,0.00252330,0.00058903,0.00019321,0.00059249,0.00004294,
 0.00089963,0.00000131,-0.00045914,0.00076577,-0.00004770,0.00054181,0.
 70976752,0.00305733,0.00116224,0.00025759,-0.00017200,-0.00038004,-0.0
 0001325,-0.19019383,0.12524673,-0.01365084,-0.00016807,0.00003895,-0.0
 0003724,0.00001229,-0.00002442,0.00000837,0.00002456,-0.00001625,-0.00
 000871,-0.00007525,0.00033515,0.00001311,0.00248671,-0.00144187,0.0002
 1282,0.00076702,0.00051855,0.00007262,-0.00007285,-0.00015359,-0.00002
 774,-0.00012558,-0.00015983,-0.00000762,0.18626537,-0.13083529,0.00026
 588,0.00028454,-0.00045762,0.00009922,-0.00013332,-0.00007531,-0.06167
 929,-0.01374847,0.17123367,-0.00005903,-0.00003799,0.00047506,0.000131
 63,0.00008585,0.00002467,-0.00014460,-0.00008469,0.00000792,-0.0000126
 8,0.00000031,-0.00003010,0.00058536,0.00021662,-0.00280615,0.00004975,
 0.00006083,-0.00008712,-0.00054420,-0.00006317,0.00005875,0.00062314,0
 .00003700,0.00019801,0.06096307,0.01288040,-0.16511973,-0.00495549,0.0
 2731325,0.00068631,0.00369549,-0.00313176,0.00025589,0.59551010,-1.367
 90723,-0.08593669,-0.00127818,0.00199684,-0.00013828,0.00001225,0.0001
 6408,0.00004385,0.00003409,0.00022103,-0.00000342,0.00028229,-0.000143
 26,0.00000172,-0.00302119,-0.00065599,-0.00022431,-0.00004966,-0.00006
 390,-0.00000704,-0.00035969,-0.00012404,-0.00003019,-0.00036009,-0.000
 12670,-0.00002849,-0.00679379,-0.00180571,-0.00027825,-0.58271614,0.00
 113898,0.00987566,0.00034401,-0.00199265,0.00003631,0.00000657,-1.3460
 0071,-4.23718310,-0.31567161,-0.00094632,0.00341983,-0.00001643,-0.000
 28878,-0.00004093,0.00005232,-0.00026776,0.00000126,-0.00007306,-0.000
 22085,-0.00049610,-0.00004158,0.00216920,0.00055329,0.00014560,0.00033
 720,0.00018940,0.00002751,0.00017349,0.00005894,-0.00005658,0.00016527
 ,0.00005116,0.00007917,0.00146950,0.00570967,0.00050210,1.34426340,4.2
 1782461,-0.00046808,0.00191784,0.00401014,0.00030913,-0.00006764,-0.00
 289003,-0.08496196,-0.31697554,0.98710792,-0.00028161,0.00015662,0.002
 59422,0.00015410,0.00047523,-0.00013442,-0.00015648,-0.00043756,-0.000
 20332,-0.00000027,-0.00003754,0.00013072,-0.00009688,-0.00002446,0.000
 20428,0.00001092,0.00000361,0.00002705,-0.00001710,-0.00002801,0.00002
 836,-0.00001476,0.00001497,0.00003626,-0.00013590,0.00030049,-0.003422
 05,0.08565889,0.31470198,-0.98748914\\@
 The archive entry for this job was punched.


 IF NO USE IS MADE OF THE LABOR OF PAST AGES,
 THE WORLD MUST REMAIN ALWAYS IN THE INFANCY OF KNOWLEDGE.

                          -- CICERO
 Job cpu time:       6 days  8 hours 51 minutes 24.6 seconds.
 Elapsed time:       0 days  3 hours 51 minutes 16.3 seconds.
 File lengths (MBytes):  RWF=   5329 Int=      0 D2E=      0 Chk=     48 Scr=      1
 Normal termination of Gaussian 16 at Sat Mar 29 21:58:21 2025.
