 Entering Gaussian System, Link 0=g16
 Input=aconh2t_h2o_mp2_avdz_opt_anharm.gjf
 Output=aconh2t_h2o_mp2_avdz_opt_anharm.log
 Initial command:
 /sw/contrib/chem-src/g16/c01/g16/l1.exe "/scr/Gau-1635.inp" -scrdir="/scr/"
 Entering Link 1 = /sw/contrib/chem-src/g16/c01/g16/l1.exe PID=      1638.
  
 Copyright (c) 1988-2019, Gaussian, Inc.  All Rights Reserved.
  
 This is part of the Gaussian(R) 16 program.  It is based on
 the Gaussian(R) 09 system (copyright 2009, Gaussian, Inc.),
 the Gaussian(R) 03 system (copyright 2003, Gaussian, Inc.),
 the Gaussian(R) 98 system (copyright 1998, Gaussian, Inc.),
 the Gaussian(R) 94 system (copyright 1995, Gaussian, Inc.),
 the Gaussian 92(TM) system (copyright 1992, Gaussian, Inc.),
 the Gaussian 90(TM) system (copyright 1990, Gaussian, Inc.),
 the Gaussian 88(TM) system (copyright 1988, Gaussian, Inc.),
 the Gaussian 86(TM) system (copyright 1986, Carnegie Mellon
 University), and the Gaussian 82(TM) system (copyright 1983,
 Carnegie Mellon University). Gaussian is a federally registered
 trademark of Gaussian, Inc.
  
 This software contains proprietary and confidential information,
 including trade secrets, belonging to Gaussian, Inc.
  
 This software is provided under written license and may be
 used, copied, transmitted, or stored only in accord with that
 written license.
  
 The following legend is applicable only to US Government
 contracts under FAR:
  
                    RESTRICTED RIGHTS LEGEND
  
 Use, reproduction and disclosure by the US Government is
 subject to restrictions as set forth in subparagraphs (a)
 and (c) of the Commercial Computer Software - Restricted
 Rights clause in FAR 52.227-19.
  
 Gaussian, Inc.
 340 Quinnipiac St., Bldg. 40, Wallingford CT 06492
  
  
 ---------------------------------------------------------------
 Warning -- This program may not be used in any manner that
 competes with the business of Gaussian, Inc. or will provide
 assistance to any competitor of Gaussian, Inc.  The licensee
 of this program is prohibited from giving any competitor of
 Gaussian, Inc. access to this program.  By using this program,
 the user acknowledges that Gaussian, Inc. is engaged in the
 business of creating and licensing software in the field of
 computational chemistry and represents and warrants to the
 licensee that it is not a competitor of Gaussian, Inc. and that
 it will not use this program in any manner prohibited above.
 ---------------------------------------------------------------
  

 Cite this work as:
 Gaussian 16, Revision C.01,
 M. J. Frisch, G. W. Trucks, H. B. Schlegel, G. E. Scuseria, 
 M. A. Robb, J. R. Cheeseman, G. Scalmani, V. Barone, 
 G. A. Petersson, H. Nakatsuji, X. Li, M. Caricato, A. V. Marenich, 
 J. Bloino, B. G. Janesko, R. Gomperts, B. Mennucci, H. P. Hratchian, 
 J. V. Ortiz, A. F. Izmaylov, J. L. Sonnenberg, D. Williams-Young, 
 F. Ding, F. Lipparini, F. Egidi, J. Goings, B. Peng, A. Petrone, 
 T. Henderson, D. Ranasinghe, V. G. Zakrzewski, J. Gao, N. Rega, 
 G. Zheng, W. Liang, M. Hada, M. Ehara, K. Toyota, R. Fukuda, 
 J. Hasegawa, M. Ishida, T. Nakajima, Y. Honda, O. Kitao, H. Nakai, 
 T. Vreven, K. Throssell, J. A. Montgomery, Jr., J. E. Peralta, 
 F. Ogliaro, M. J. Bearpark, J. J. Heyd, E. N. Brothers, K. N. Kudin, 
 V. N. Staroverov, T. A. Keith, R. Kobayashi, J. Normand, 
 K. Raghavachari, A. P. Rendell, J. C. Burant, S. S. Iyengar, 
 J. Tomasi, M. Cossi, J. M. Millam, M. Klene, C. Adamo, R. Cammi, 
 J. W. Ochterski, R. L. Martin, K. Morokuma, O. Farkas, 
 J. B. Foresman, and D. J. Fox, Gaussian, Inc., Wallingford CT, 2019.
 
 ******************************************
 Gaussian 16:  EM64L-G16RevC.01  3-Jul-2019
                 4-Apr-2025 
 ******************************************
 %nprocshared=40
 Will use up to   40 processors via shared memory.
 %mem=50gb
 ----------------------------------------------
 # MP2/aug-cc-pVDZ opt freq=(vibrot,anharmonic)
 ----------------------------------------------
 1/18=20,19=15,38=1,80=1/1,3;
 2/9=110,12=2,17=6,18=5,40=1/2;
 3/5=16,7=10,11=9,25=1,30=1,71=1/1,2,3;
 4//1;
 5/5=2,38=5/2;
 8/6=4,10=1/1;
 9/15=2,16=-3/6;
 10/5=1/2;
 6/7=2,8=2,9=2,10=2/1;
 7/12=2/1,2,3,16;
 1/18=20,19=15,80=1/3(2);
 2/9=110/2;
 99//99;
 2/9=110/2;
 3/5=16,7=10,11=9,25=1,30=1,71=1/1,2,3;
 4/5=5,16=3,69=1/1;
 5/5=2,38=5/2;
 8/6=4,10=1/1;
 9/15=2,16=-3/6;
 10/5=1/2;
 7/12=2/1,2,3,16;
 1/18=20,19=15,80=1/3(-8);
 2/9=110/2;
 6/7=2,8=2,9=2,10=2/1;
 99/9=10/99;
 ----
 blah
 ----
 Symbolic Z-matrix:
 Charge =  0 Multiplicity = 1
 C                    -1.06695  -0.07805  -0.00006 
 O                    -2.25743  -0.41067  -0.00067 
 N                    -0.04803  -0.9946    0.00078 
 C                    -0.61416   1.37357   0.00018 
 H                    -1.20922   1.80683  -0.81223 
 H                     0.45524   1.56831  -0.17575 
 H                    -0.88833   1.84614   0.95623 
 O                     2.81677   0.00283  -0.00042 
 H                     3.40866  -0.0228   -0.76359 
 H                     3.40834  -0.01936   0.76311 
 H                    -0.29633  -1.9752    0.0009 
 H                     0.92792  -0.71715   0.00088 
 
 Add virtual bond connecting atoms H12        and O8         Dist= 3.82D+00.

 GradGradGradGradGradGradGradGradGradGradGradGradGradGradGradGradGradGrad
 Berny optimization.
 Initialization pass.
                           ----------------------------
                           !    Initial Parameters    !
                           ! (Angstroms and Degrees)  !
 --------------------------                            --------------------------
 ! Name  Definition              Value          Derivative Info.                !
 --------------------------------------------------------------------------------
 ! R1    R(1,2)                  1.2361         estimate D2E/DX2                !
 ! R2    R(1,3)                  1.3705         estimate D2E/DX2                !
 ! R3    R(1,4)                  1.5206         estimate D2E/DX2                !
 ! R4    R(3,11)                 1.0115         estimate D2E/DX2                !
 ! R5    R(3,12)                 1.0146         estimate D2E/DX2                !
 ! R6    R(4,5)                  1.0963         estimate D2E/DX2                !
 ! R7    R(4,6)                  1.1011         estimate D2E/DX2                !
 ! R8    R(4,7)                  1.1011         estimate D2E/DX2                !
 ! R9    R(8,9)                  0.9661         estimate D2E/DX2                !
 ! R10   R(8,10)                 0.9661         estimate D2E/DX2                !
 ! R11   R(8,12)                 2.0214         estimate D2E/DX2                !
 ! A1    A(2,1,3)              122.4172         estimate D2E/DX2                !
 ! A2    A(2,1,4)              122.9344         estimate D2E/DX2                !
 ! A3    A(3,1,4)              114.6484         estimate D2E/DX2                !
 ! A4    A(1,3,11)             117.7628         estimate D2E/DX2                !
 ! A5    A(1,3,12)             122.158          estimate D2E/DX2                !
 ! A6    A(11,3,12)            120.0793         estimate D2E/DX2                !
 ! A7    A(1,4,5)              102.4469         estimate D2E/DX2                !
 ! A8    A(1,4,6)              117.2581         estimate D2E/DX2                !
 ! A9    A(1,4,7)              109.6143         estimate D2E/DX2                !
 ! A10   A(5,4,6)              109.8078         estimate D2E/DX2                !
 ! A11   A(5,4,7)              109.795          estimate D2E/DX2                !
 ! A12   A(6,4,7)              107.7358         estimate D2E/DX2                !
 ! A13   A(9,8,10)             104.3909         estimate D2E/DX2                !
 ! A14   A(9,8,12)             124.2991         estimate D2E/DX2                !
 ! A15   A(10,8,12)            124.2958         estimate D2E/DX2                !
 ! A16   L(3,12,8,4,-1)        175.0041         estimate D2E/DX2                !
 ! A17   L(3,12,8,4,-2)        180.0423         estimate D2E/DX2                !
 ! D1    D(2,1,3,11)            -0.0001         estimate D2E/DX2                !
 ! D2    D(2,1,3,12)           179.9731         estimate D2E/DX2                !
 ! D3    D(4,1,3,11)           179.985          estimate D2E/DX2                !
 ! D4    D(4,1,3,12)            -0.0418         estimate D2E/DX2                !
 ! D5    D(2,1,4,5)            -49.3425         estimate D2E/DX2                !
 ! D6    D(2,1,4,6)           -169.6136         estimate D2E/DX2                !
 ! D7    D(2,1,4,7)             67.1979         estimate D2E/DX2                !
 ! D8    D(3,1,4,5)            130.6724         estimate D2E/DX2                !
 ! D9    D(3,1,4,6)             10.4014         estimate D2E/DX2                !
 ! D10   D(3,1,4,7)           -112.7872         estimate D2E/DX2                !
 ! D11   D(1,3,8,9)           -105.9509         estimate D2E/DX2                !
 ! D12   D(1,3,8,10)           105.8071         estimate D2E/DX2                !
 ! D13   D(11,3,8,9)            73.9895         estimate D2E/DX2                !
 ! D14   D(11,3,8,10)          -74.2525         estimate D2E/DX2                !
 --------------------------------------------------------------------------------
 Trust Radius=3.00D-01 FncErr=1.00D-07 GrdErr=1.00D-07 EigMax=2.50D+02 EigMin=1.00D-04
 Number of steps in this run=     52 maximum allowed number of steps=    100.
 GradGradGradGradGradGradGradGradGradGradGradGradGradGradGradGradGradGrad

                          Input orientation:                          
 ---------------------------------------------------------------------
 Center     Atomic      Atomic             Coordinates (Angstroms)
 Number     Number       Type             X           Y           Z
 ---------------------------------------------------------------------
      1          6           0       -1.066949   -0.078046   -0.000057
      2          8           0       -2.257426   -0.410668   -0.000665
      3          7           0       -0.048025   -0.994599    0.000783
      4          6           0       -0.614157    1.373569    0.000181
      5          1           0       -1.209223    1.806832   -0.812233
      6          1           0        0.455244    1.568311   -0.175747
      7          1           0       -0.888326    1.846137    0.956231
      8          8           0        2.816768    0.002828   -0.000418
      9          1           0        3.408658   -0.022803   -0.763593
     10          1           0        3.408341   -0.019355    0.763110
     11          1           0       -0.296329   -1.975197    0.000900
     12          1           0        0.927923   -0.717151    0.000877
 ---------------------------------------------------------------------
                    Distance matrix (angstroms):
                    1          2          3          4          5
     1  C    0.000000
     2  O    1.236072   0.000000
     3  N    1.370502   2.285264   0.000000
     4  C    1.520594   2.425662   2.434897   0.000000
     5  H    2.057337   2.583540   3.139648   1.096283   0.000000
     6  H    2.249095   3.362378   2.617814   1.101133   1.797903
     7  H    2.156124   2.807713   3.112678   1.101145   1.797772
     8  O    3.884559   5.091014   3.033464   3.694615   4.485764
     9  H    4.540605   5.730358   3.671146   4.326228   4.967369
    10  H    4.540274   5.730392   3.671336   4.324672   5.209468
    11  H    2.047691   2.508716   1.011547   3.363815   3.974708
    12  H    2.094748   3.200060   1.014619   2.597907   3.405735
                    6          7          8          9         10
     6  H    0.000000
     7  H    1.778690   0.000000
     8  O    2.838710   4.247433   0.000000
     9  H    3.405857   4.991473   0.966140   0.000000
    10  H    3.481798   4.688145   0.966140   1.526707   0.000000
    11  H    3.626639   3.983178   3.688354   4.257138   4.258035
    12  H    2.340504   3.283581   2.021412   2.687114   2.687079
                   11         12
    11  H    0.000000
    12  H    1.755412   0.000000
 Stoichiometry    C2H7NO2
 Framework group  C1[X(C2H7NO2)]
 Deg. of freedom    30
 Full point group                 C1      NOp   1
 Largest Abelian subgroup         C1      NOp   1
 Largest concise Abelian subgroup C1      NOp   1
                         Standard orientation:                         
 ---------------------------------------------------------------------
 Center     Atomic      Atomic             Coordinates (Angstroms)
 Number     Number       Type             X           Y           Z
 ---------------------------------------------------------------------
      1          6           0       -1.063512   -0.079695    0.001193
      2          8           0       -2.253733   -0.413230    0.001274
      3          7           0       -0.043885   -0.995465    0.002260
      4          6           0       -0.611834    1.372267    0.000268
      5          1           0       -1.207547    1.804520   -0.812209
      6          1           0        0.457349    1.567710   -0.176208
      7          1           0       -0.885994    1.845275    0.956103
      8          8           0        2.820141    0.004159   -0.000733
      9          1           0        3.411755   -0.021537   -0.764120
     10          1           0        3.412028   -0.017051    0.762580
     11          1           0       -0.291436   -1.976253    0.003141
     12          1           0        0.931850   -0.717268    0.001786
 ---------------------------------------------------------------------
 Rotational constants (GHZ):           9.0908178           1.9753102           1.6523427
 Standard basis: Aug-CC-pVDZ (5D, 7F)
 There are   188 symmetry adapted cartesian basis functions of A   symmetry.
 There are   178 symmetry adapted basis functions of A   symmetry.
   178 basis functions,   292 primitive gaussians,   188 cartesian basis functions
    21 alpha electrons       21 beta electrons
       nuclear repulsion energy       174.1984327071 Hartrees.
 NAtoms=   12 NActive=   12 NUniq=   12 SFac= 1.00D+00 NAtFMM=   60 NAOKFM=F Big=F
 Integral buffers will be    131072 words long.
 Raffenetti 1 integral format.
 Two-electron integral symmetry is turned on.
 One-electron integrals computed using PRISM.
 NBasis=   178 RedAO= T EigKep=  7.23D-05  NBF=   178
 NBsUse=   178 1.00D-06 EigRej= -1.00D+00 NBFU=   178
 ExpMin= 2.97D-02 ExpMax= 1.17D+04 ExpMxC= 4.01D+02 IAcc=3 IRadAn=         5 AccDes= 0.00D+00
 Harris functional with IExCor=  205 and IRadAn=       5 diagonalized for initial guess.
 HarFok:  IExCor=  205 AccDes= 0.00D+00 IRadAn=         5 IDoV= 1 UseB2=F ITyADJ=14
 ICtDFT=  3500011 ScaDFX=  1.000000  1.000000  1.000000  1.000000
 FoFCou: FMM=F IPFlag=           0 FMFlag=      100000 FMFlg1=           0
         NFxFlg=           0 DoJE=T BraDBF=F KetDBF=T FulRan=T
         wScrn=  0.000000 ICntrl=       500 IOpCl=  0 I1Cent=   200000004 NGrid=           0
         NMat0=    1 NMatS0=      1 NMatT0=    0 NMatD0=    1 NMtDS0=    0 NMtDT0=    0
 Petite list used in FoFCou.
 Keep R1 ints in memory in canonical form, NReq=135776920.
 Requested convergence on RMS density matrix=1.00D-08 within 128 cycles.
 Requested convergence on MAX density matrix=1.00D-06.
 Requested convergence on             energy=1.00D-06.
 No special actions if energy rises.
 SCF Done:  E(RHF) =  -284.055252929     A.U. after   13 cycles
            NFock= 13  Conv=0.90D-08     -V/T= 2.0021
 ExpMin= 2.97D-02 ExpMax= 1.17D+04 ExpMxC= 4.01D+02 IAcc=3 IRadAn=         5 AccDes= 0.00D+00
 HarFok:  IExCor=  205 AccDes= 0.00D+00 IRadAn=         5 IDoV=-2 UseB2=F ITyADJ=14
 ICtDFT= 12500011 ScaDFX=  1.000000  1.000000  1.000000  1.000000
 Range of M.O.s used for correlation:     6   178
 NBasis=   178 NAE=    21 NBE=    21 NFC=     5 NFV=     0
 NROrb=    173 NOA=    16 NOB=    16 NVA=   157 NVB=   157

 **** Warning!!: The largest alpha MO coefficient is  0.25052404D+02

 Fully direct method using O(ONN) memory.
 JobTyp=1 Pass  1:  I=   6 to  21 NPSUse= 40 ParTrn=T ParDer=T DoDerP=T.
 Spin components of T(2) and E(2):
     alpha-alpha T2 =       0.3549773120D-01 E2=     -0.1131640480D+00
     alpha-beta  T2 =       0.1982099877D+00 E2=     -0.6568366269D+00
     beta-beta   T2 =       0.3549773120D-01 E2=     -0.1131640480D+00
 ANorm=    0.1126590187D+01
 E2 =    -0.8831647230D+00 EUMP2 =    -0.28493841765244D+03
          IDoAtm=111111111111
          Differentiating once with respect to electric field.
                with respect to dipole field.
          Differentiating once with respect to nuclear coordinates.
 Keep R1 ints in memory in canonical form, NReq=135788087.
          There are     1 degrees of freedom in the 1st order CPHF.  IDoFFX=0 NUNeed=     1.
 LinEq1:  Iter=  0 NonCon=     1 RMS=4.68D-03 Max=8.52D-02 NDo=     1
 AX will form     1 AO Fock derivatives at one time.
 LinEq1:  Iter=  1 NonCon=     1 RMS=1.35D-03 Max=1.71D-02 NDo=     1
 LinEq1:  Iter=  2 NonCon=     1 RMS=5.04D-04 Max=7.51D-03 NDo=     1
 LinEq1:  Iter=  3 NonCon=     1 RMS=1.59D-04 Max=2.35D-03 NDo=     1
 LinEq1:  Iter=  4 NonCon=     1 RMS=5.21D-05 Max=7.67D-04 NDo=     1
 LinEq1:  Iter=  5 NonCon=     1 RMS=1.30D-05 Max=1.44D-04 NDo=     1
 LinEq1:  Iter=  6 NonCon=     1 RMS=4.91D-06 Max=5.66D-05 NDo=     1
 LinEq1:  Iter=  7 NonCon=     1 RMS=1.33D-06 Max=2.90D-05 NDo=     1
 LinEq1:  Iter=  8 NonCon=     1 RMS=4.57D-07 Max=6.93D-06 NDo=     1
 LinEq1:  Iter=  9 NonCon=     1 RMS=1.64D-07 Max=2.29D-06 NDo=     1
 LinEq1:  Iter= 10 NonCon=     1 RMS=3.09D-08 Max=2.88D-07 NDo=     1
 LinEq1:  Iter= 11 NonCon=     1 RMS=9.03D-09 Max=1.24D-07 NDo=     1
 LinEq1:  Iter= 12 NonCon=     1 RMS=2.66D-09 Max=6.51D-08 NDo=     1
 LinEq1:  Iter= 13 NonCon=     1 RMS=7.23D-10 Max=1.68D-08 NDo=     1
 LinEq1:  Iter= 14 NonCon=     1 RMS=1.89D-10 Max=2.79D-09 NDo=     1
 LinEq1:  Iter= 15 NonCon=     0 RMS=3.06D-11 Max=2.58D-10 NDo=     1
 Linear equations converged to 1.000D-10 1.000D-09 after    15 iterations.
 End of Minotr F.D. properties file   721 does not exist.
 End of Minotr F.D. properties file   722 does not exist.
 End of Minotr F.D. properties file   788 does not exist.

 **********************************************************************

            Population analysis using the SCF Density.

 **********************************************************************

 Orbital symmetries:
       Occupied  (A) (A) (A) (A) (A) (A) (A) (A) (A) (A) (A) (A)
                 (A) (A) (A) (A) (A) (A) (A) (A) (A)
       Virtual   (A) (A) (A) (A) (A) (A) (A) (A) (A) (A) (A) (A)
                 (A) (A) (A) (A) (A) (A) (A) (A) (A) (A) (A) (A)
                 (A) (A) (A) (A) (A) (A) (A) (A) (A) (A) (A) (A)
                 (A) (A) (A) (A) (A) (A) (A) (A) (A) (A) (A) (A)
                 (A) (A) (A) (A) (A) (A) (A) (A) (A) (A) (A) (A)
                 (A) (A) (A) (A) (A) (A) (A) (A) (A) (A) (A) (A)
                 (A) (A) (A) (A) (A) (A) (A) (A) (A) (A) (A) (A)
                 (A) (A) (A) (A) (A) (A) (A) (A) (A) (A) (A) (A)
                 (A) (A) (A) (A) (A) (A) (A) (A) (A) (A) (A) (A)
                 (A) (A) (A) (A) (A) (A) (A) (A) (A) (A) (A) (A)
                 (A) (A) (A) (A) (A) (A) (A) (A) (A) (A) (A) (A)
                 (A) (A) (A) (A) (A) (A) (A) (A) (A) (A) (A) (A)
                 (A) (A) (A) (A) (A) (A) (A) (A) (A) (A) (A) (A)
                 (A)
 The electronic state is 1-A.
 Alpha  occ. eigenvalues --  -20.61419 -20.51209 -15.57294 -11.34989 -11.23421
 Alpha  occ. eigenvalues --   -1.38998  -1.35666  -1.19010  -0.98726  -0.77991
 Alpha  occ. eigenvalues --   -0.75041  -0.70878  -0.64700  -0.62451  -0.59739
 Alpha  occ. eigenvalues --   -0.56484  -0.54810  -0.53192  -0.50432  -0.40833
 Alpha  occ. eigenvalues --   -0.39339
 Alpha virt. eigenvalues --    0.01812   0.04435   0.04907   0.04976   0.07050
 Alpha virt. eigenvalues --    0.07575   0.08804   0.10874   0.13344   0.14455
 Alpha virt. eigenvalues --    0.15548   0.16250   0.16928   0.17813   0.17941
 Alpha virt. eigenvalues --    0.18778   0.19581   0.21201   0.21697   0.22095
 Alpha virt. eigenvalues --    0.23700   0.25806   0.26602   0.28374   0.29203
 Alpha virt. eigenvalues --    0.30789   0.32032   0.33793   0.33949   0.35015
 Alpha virt. eigenvalues --    0.36473   0.37305   0.38776   0.40257   0.40678
 Alpha virt. eigenvalues --    0.41582   0.43569   0.44514   0.45918   0.46527
 Alpha virt. eigenvalues --    0.48756   0.49226   0.51067   0.53216   0.53967
 Alpha virt. eigenvalues --    0.55530   0.55579   0.57526   0.58410   0.59645
 Alpha virt. eigenvalues --    0.60982   0.62227   0.64634   0.64951   0.65936
 Alpha virt. eigenvalues --    0.66716   0.67349   0.69816   0.70501   0.72116
 Alpha virt. eigenvalues --    0.75313   0.76101   0.77373   0.79256   0.80309
 Alpha virt. eigenvalues --    0.80951   0.84487   0.88280   0.89150   0.92497
 Alpha virt. eigenvalues --    0.94040   0.96212   0.96644   0.97960   1.00033
 Alpha virt. eigenvalues --    1.01774   1.07295   1.10767   1.11584   1.12272
 Alpha virt. eigenvalues --    1.13754   1.15081   1.21323   1.23064   1.27630
 Alpha virt. eigenvalues --    1.29205   1.33063   1.33456   1.36779   1.39739
 Alpha virt. eigenvalues --    1.41640   1.45593   1.47275   1.49792   1.51560
 Alpha virt. eigenvalues --    1.56770   1.59617   1.62083   1.66138   1.74495
 Alpha virt. eigenvalues --    1.78308   1.81275   1.83797   1.89461   1.92069
 Alpha virt. eigenvalues --    1.92933   1.95175   1.98994   2.00060   2.02946
 Alpha virt. eigenvalues --    2.03277   2.06162   2.08577   2.12529   2.14405
 Alpha virt. eigenvalues --    2.15354   2.21275   2.26467   2.28747   2.32096
 Alpha virt. eigenvalues --    2.33142   2.35224   2.38488   2.41120   2.42005
 Alpha virt. eigenvalues --    2.46240   2.51353   2.56309   2.59648   2.60858
 Alpha virt. eigenvalues --    2.66925   2.67264   2.73357   2.74931   2.79747
 Alpha virt. eigenvalues --    2.82014   2.86364   2.87631   2.91523   2.98425
 Alpha virt. eigenvalues --    3.01897   3.08212   3.13628   3.16983   3.43018
 Alpha virt. eigenvalues --    3.58285   3.67236   3.67505   3.75855   3.79178
 Alpha virt. eigenvalues --    3.83352   3.85091   3.90027   4.03569   4.07224
 Alpha virt. eigenvalues --    4.17093   4.29955
          Condensed to atoms (all electrons):
               1          2          3          4          5          6
     1  C    4.854393   0.246989   0.176987   0.286328  -0.041718  -0.012239
     2  O    0.246989   8.695878  -0.098897  -0.006180   0.016179  -0.011621
     3  N    0.176987  -0.098897   6.421187  -0.053353   0.024615  -0.088220
     4  C    0.286328  -0.006180  -0.053353   4.376920   0.348203   0.333895
     5  H   -0.041718   0.016179   0.024615   0.348203   0.714480  -0.068152
     6  H   -0.012239  -0.011621  -0.088220   0.333895  -0.068152   1.021926
     7  H   -0.055409   0.008898   0.020605   0.338722  -0.042751  -0.070046
     8  O    0.024645  -0.001472  -0.049549  -0.012287   0.001226   0.003325
     9  H   -0.000555  -0.000077   0.001733   0.000250   0.000360  -0.000194
    10  H   -0.000716  -0.000026   0.001709   0.000062  -0.000156   0.001087
    11  H   -0.099089  -0.012535   0.447638   0.013690   0.001311   0.000727
    12  H   -0.066480   0.006413   0.366529  -0.022085  -0.005359   0.010367
               7          8          9         10         11         12
     1  C   -0.055409   0.024645  -0.000555  -0.000716  -0.099089  -0.066480
     2  O    0.008898  -0.001472  -0.000077  -0.000026  -0.012535   0.006413
     3  N    0.020605  -0.049549   0.001733   0.001709   0.447638   0.366529
     4  C    0.338722  -0.012287   0.000250   0.000062   0.013690  -0.022085
     5  H   -0.042751   0.001226   0.000360  -0.000156   0.001311  -0.005359
     6  H   -0.070046   0.003325  -0.000194   0.001087   0.000727   0.010367
     7  H    0.756238   0.000781  -0.000206   0.000366   0.001326  -0.003088
     8  O    0.000781   7.857167   0.350160   0.346548   0.005995  -0.042874
     9  H   -0.000206   0.350160   0.480870  -0.046022  -0.000321   0.000744
    10  H    0.000366   0.346548  -0.046022   0.484620  -0.000216   0.001283
    11  H    0.001326   0.005995  -0.000321  -0.000216   0.921660  -0.234970
    12  H   -0.003088  -0.042874   0.000744   0.001283  -0.234970   0.928992
 Mulliken charges:
               1
     1  C    0.686863
     2  O   -0.843549
     3  N   -0.170983
     4  C    0.395835
     5  H    0.051761
     6  H   -0.120855
     7  H    0.044564
     8  O   -0.483665
     9  H    0.213258
    10  H    0.211461
    11  H   -0.045217
    12  H    0.060526
 Sum of Mulliken charges =  -0.00000
 Mulliken charges with hydrogens summed into heavy atoms:
               1
     1  C    0.686863
     2  O   -0.843549
     3  N   -0.155674
     4  C    0.371306
     8  O   -0.058946
 Electronic spatial extent (au):  <R**2>=            692.7518
 Charge=             -0.0000 electrons
 Dipole moment (field-independent basis, Debye):
    X=              7.1399    Y=              0.5453    Z=              0.0022  Tot=              7.1607
 Quadrupole moment (field-independent basis, Debye-Ang):
   XX=            -28.2153   YY=            -28.8511   ZZ=            -29.6161
   XY=             -3.1609   XZ=              0.0669   YZ=              0.0867
 Traceless Quadrupole moment (field-independent basis, Debye-Ang):
   XX=              0.6789   YY=              0.0430   ZZ=             -0.7219
   XY=             -3.1609   XZ=              0.0669   YZ=              0.0867
 Octapole moment (field-independent basis, Debye-Ang**2):
  XXX=            106.2461  YYY=            -10.7712  ZZZ=              0.2767  XYY=              0.7593
  XXY=              3.7256  XXZ=             -0.4493  XZZ=             10.9826  YZZ=              1.2894
  YYZ=              0.3248  XYZ=              0.0939
 Hexadecapole moment (field-independent basis, Debye-Ang**3):
 XXXX=           -425.4606 YYYY=           -166.4181 ZZZZ=            -38.1015 XXXY=            -14.9899
 XXXZ=              0.7574 YYYX=              2.5931 YYYZ=              0.8022 ZZZX=             -0.0630
 ZZZY=              0.7038 XXYY=           -140.3369 XXZZ=            -77.5102 YYZZ=            -37.3264
 XXYZ=             -0.6765 YYXZ=              0.0237 ZZXY=             -1.4350
 N-N= 1.741984327071D+02 E-N=-1.017425858756D+03  KE= 2.834509494314D+02
 Calling FoFJK, ICntrl=  10002127 FMM=F ISym2X=0 I1Cent= 0 IOpClX= 0 NMat=1 NMatS=1 NMatT=0.
 ***** Axes restored to original set *****
 -------------------------------------------------------------------
 Center     Atomic                   Forces (Hartrees/Bohr)
 Number     Number              X              Y              Z
 -------------------------------------------------------------------
      1        6           0.009923993   -0.006239740    0.004784542
      2        8           0.001414162    0.003356738   -0.000142579
      3        7          -0.000691990   -0.000660364   -0.000159220
      4        6          -0.006379123    0.002422354   -0.002348316
      5        1           0.000056537    0.009507189    0.000668547
      6        1          -0.000609255   -0.007202059   -0.000945208
      7        1          -0.003381961   -0.000532066   -0.001760896
      8        8           0.000138231    0.000092920   -0.000127184
      9        1           0.000013584   -0.000042206    0.000024742
     10        1          -0.000054494    0.000061346    0.000013891
     11        1          -0.000049848   -0.000740385   -0.000011024
     12        1          -0.000379835   -0.000023727    0.000002705
 -------------------------------------------------------------------
 Cartesian Forces:  Max     0.009923993 RMS     0.003275147

 GradGradGradGradGradGradGradGradGradGradGradGradGradGradGradGradGradGrad
 Berny optimization.
 FormGI is forming the generalized inverse of G from B-inverse, IUseBI=4.
 Internal  Forces:  Max     0.014650058 RMS     0.003485243
 Search for a local minimum.
 Step number   1 out of a maximum of   52
 All quantities printed in internal units (Hartrees-Bohrs-Radians)
 Mixed Optimization -- RFO/linear search
 Second derivative matrix not updated -- first step.
 ITU=  0
     Eigenvalues ---    0.00230   0.00230   0.00230   0.00494   0.01124
     Eigenvalues ---    0.01270   0.01336   0.02082   0.04158   0.06505
     Eigenvalues ---    0.07943   0.16000   0.16000   0.16000   0.16000
     Eigenvalues ---    0.16000   0.16000   0.16000   0.25000   0.25000
     Eigenvalues ---    0.30309   0.33556   0.33557   0.34097   0.45207
     Eigenvalues ---    0.45714   0.50880   0.54173   0.54174   0.88603
 RFO step:  Lambda=-3.10482057D-03 EMin= 2.30000000D-03
 Linear search not attempted -- first point.
 Iteration  1 RMS(Cart)=  0.05466716 RMS(Int)=  0.00213670
 Iteration  2 RMS(Cart)=  0.00215689 RMS(Int)=  0.00054197
 Iteration  3 RMS(Cart)=  0.00000253 RMS(Int)=  0.00054197
 Iteration  4 RMS(Cart)=  0.00000000 RMS(Int)=  0.00054197
 Variable       Old X    -DE/DX   Delta X   Delta X   Delta X     New X
                                 (Linear)    (Quad)   (Total)
    R1        2.33584  -0.00227   0.00000  -0.00255  -0.00255   2.33329
    R2        2.58987   0.00012   0.00000   0.00023   0.00023   2.59010
    R3        2.87351   0.00093   0.00000   0.00305   0.00305   2.87655
    R4        1.91155   0.00073   0.00000   0.00159   0.00159   1.91313
    R5        1.91735  -0.00025   0.00000  -0.00055  -0.00055   1.91681
    R6        2.07168   0.00323   0.00000   0.00939   0.00939   2.08107
    R7        2.08084  -0.00171   0.00000  -0.00506  -0.00506   2.07578
    R8        2.08086  -0.00092   0.00000  -0.00270  -0.00270   2.07816
    R9        1.82574  -0.00001   0.00000  -0.00002  -0.00002   1.82572
   R10        1.82574  -0.00002   0.00000  -0.00004  -0.00004   1.82570
   R11        3.81992   0.00013   0.00000   0.00294   0.00294   3.82286
    A1        2.13658   0.00107   0.00000   0.00423   0.00422   2.14080
    A2        2.14561  -0.00559   0.00000  -0.02209  -0.02210   2.12351
    A3        2.00099   0.00452   0.00000   0.01786   0.01784   2.01884
    A4        2.05535   0.00037   0.00000   0.00227   0.00227   2.05762
    A5        2.13206  -0.00048   0.00000  -0.00297  -0.00297   2.12909
    A6        2.09578   0.00011   0.00000   0.00070   0.00070   2.09648
    A7        1.78804   0.01465   0.00000   0.09821   0.09906   1.88710
    A8        2.04654  -0.01211   0.00000  -0.07611  -0.07610   1.97044
    A9        1.91313  -0.00133   0.00000  -0.01518  -0.01615   1.89698
   A10        1.91651  -0.00115   0.00000   0.00521   0.00687   1.92338
   A11        1.91628  -0.00562   0.00000  -0.03152  -0.03167   1.88462
   A12        1.88034   0.00549   0.00000   0.02064   0.01900   1.89934
   A13        1.82197  -0.00000   0.00000  -0.00090  -0.00091   1.82106
   A14        2.16943   0.00001   0.00000  -0.00074  -0.00075   2.16868
   A15        2.16937  -0.00004   0.00000  -0.00104  -0.00106   2.16831
   A16        3.05440  -0.00028   0.00000  -0.04670  -0.04670   3.00770
   A17        3.14233   0.00015   0.00000   0.02870   0.02860   3.17093
    D1       -0.00000  -0.00017   0.00000  -0.00913  -0.00924  -0.00925
    D2        3.14112  -0.00018   0.00000  -0.00931  -0.00929   3.13183
    D3        3.14133  -0.00004   0.00000   0.00031   0.00029  -3.14156
    D4       -0.00073  -0.00004   0.00000   0.00013   0.00024  -0.00049
    D5       -0.86119   0.00064   0.00000   0.00278   0.00203  -0.85916
    D6       -2.96032  -0.00181   0.00000  -0.03266  -0.03138  -2.99170
    D7        1.17282   0.00110   0.00000   0.01024   0.00961   1.18244
    D8        2.28066   0.00050   0.00000  -0.00672  -0.00740   2.27326
    D9        0.18154  -0.00195   0.00000  -0.04216  -0.04082   0.14072
   D10       -1.96851   0.00096   0.00000   0.00074   0.00018  -1.96833
   D11       -1.84919   0.00002   0.00000   0.00966   0.00972  -1.83947
   D12        1.84668   0.00000   0.00000  -0.00480  -0.00474   1.84194
   D13        1.29136  -0.00010   0.00000  -0.01284  -0.01290   1.27846
   D14       -1.29595  -0.00012   0.00000  -0.02729  -0.02736  -1.32331
         Item               Value     Threshold  Converged?
 Maximum Force            0.014650     0.000450     NO 
 RMS     Force            0.003485     0.000300     NO 
 Maximum Displacement     0.171007     0.001800     NO 
 RMS     Displacement     0.054949     0.001200     NO 
 Predicted change in Energy=-1.575887D-03
 GradGradGradGradGradGradGradGradGradGradGradGradGradGradGradGradGradGrad

                          Input orientation:                          
 ---------------------------------------------------------------------
 Center     Atomic      Atomic             Coordinates (Angstroms)
 Number     Number       Type             X           Y           Z
 ---------------------------------------------------------------------
      1          6           0       -1.057226   -0.087069   -0.002540
      2          8           0       -2.252601   -0.395471   -0.025079
      3          7           0       -0.052997   -1.019673    0.016880
      4          6           0       -0.606813    1.366967   -0.007317
      5          1           0       -1.141239    1.888463   -0.816754
      6          1           0        0.478392    1.477818   -0.136330
      7          1           0       -0.899898    1.829791    0.946238
      8          8           0        2.790883    0.028302   -0.013755
      9          1           0        3.375430    0.001251   -0.782507
     10          1           0        3.391303    0.041951    0.743009
     11          1           0       -0.314841   -1.997605    0.020587
     12          1           0        0.926106   -0.754866    0.026937
 ---------------------------------------------------------------------
                    Distance matrix (angstroms):
                    1          2          3          4          5
     1  C    0.000000
     2  O    1.234724   0.000000
     3  N    1.370622   2.286843   0.000000
     4  C    1.522207   2.411456   2.450173   0.000000
     5  H    2.138394   2.660494   3.215039   1.101253   0.000000
     6  H    2.196563   3.313595   2.557989   1.098454   1.804109
     7  H    2.144594   2.779398   3.114546   1.099715   1.780401
     8  O    3.849854   5.061269   3.030981   3.651904   4.423414
     9  H    4.501621   5.692611   3.665436   4.280696   4.895206
    10  H    4.512416   5.712701   3.676616   4.278269   5.136770
    11  H    2.049834   2.514723   1.012386   3.377332   4.060246
    12  H    2.092947   3.199383   1.014330   2.617860   3.460191
                    6          7          8          9         10
     6  H    0.000000
     7  H    1.787602   0.000000
     8  O    2.731984   4.217679   0.000000
     9  H    3.315211   4.960902   0.966130   0.000000
    10  H    3.364521   4.653180   0.966116   1.526142   0.000000
    11  H    3.568249   3.980965   3.708234   4.272995   4.291525
    12  H    2.282976   3.295430   2.022969   2.688141   2.687912
                   11         12
    11  H    0.000000
    12  H    1.756243   0.000000
 Stoichiometry    C2H7NO2
 Framework group  C1[X(C2H7NO2)]
 Deg. of freedom    30
 Full point group                 C1      NOp   1
 Largest Abelian subgroup         C1      NOp   1
 Largest concise Abelian subgroup C1      NOp   1
                         Standard orientation:                         
 ---------------------------------------------------------------------
 Center     Atomic      Atomic             Coordinates (Angstroms)
 Number     Number       Type             X           Y           Z
 ---------------------------------------------------------------------
      1          6           0       -1.052228   -0.082275    0.003740
      2          8           0       -2.249639   -0.382630   -0.019427
      3          7           0       -0.054198   -1.021603    0.017997
      4          6           0       -0.592178    1.368747    0.005589
      5          1           0       -1.123678    1.897640   -0.800970
      6          1           0        0.493651    1.473012   -0.123659
      7          1           0       -0.881542    1.828941    0.961551
      8          8           0        2.796553    0.007618   -0.009642
      9          1           0        3.380389   -0.019634   -0.778928
     10          1           0        3.397561    0.013666    0.746754
     11          1           0       -0.322524   -1.997783    0.017219
     12          1           0        0.926647   -0.763348    0.028627
 ---------------------------------------------------------------------
 Rotational constants (GHZ):           9.0278058           2.0024546           1.6690293
 Standard basis: Aug-CC-pVDZ (5D, 7F)
 There are   188 symmetry adapted cartesian basis functions of A   symmetry.
 There are   178 symmetry adapted basis functions of A   symmetry.
   178 basis functions,   292 primitive gaussians,   188 cartesian basis functions
    21 alpha electrons       21 beta electrons
       nuclear repulsion energy       174.4610080246 Hartrees.
 NAtoms=   12 NActive=   12 NUniq=   12 SFac= 1.00D+00 NAtFMM=   60 NAOKFM=F Big=F
 Integral buffers will be    131072 words long.
 Raffenetti 1 integral format.
 Two-electron integral symmetry is turned on.
 One-electron integrals computed using PRISM.
 NBasis=   178 RedAO= T EigKep=  7.22D-05  NBF=   178
 NBsUse=   178 1.00D-06 EigRej= -1.00D+00 NBFU=   178
 Initial guess from the checkpoint file:  "/scr/Gau-1638.chk"
 B after Tr=    -0.000000   -0.000000    0.000000
         Rot=    0.999994   -0.001667    0.000391    0.002900 Ang=  -0.39 deg.
 ExpMin= 2.97D-02 ExpMax= 1.17D+04 ExpMxC= 4.01D+02 IAcc=3 IRadAn=         5 AccDes= 0.00D+00
 Harris functional with IExCor=  205 and IRadAn=       5 diagonalized for initial guess.
 HarFok:  IExCor=  205 AccDes= 0.00D+00 IRadAn=         5 IDoV= 1 UseB2=F ITyADJ=14
 ICtDFT=  3500011 ScaDFX=  1.000000  1.000000  1.000000  1.000000
 FoFCou: FMM=F IPFlag=           0 FMFlag=      100000 FMFlg1=           0
         NFxFlg=           0 DoJE=T BraDBF=F KetDBF=T FulRan=T
         wScrn=  0.000000 ICntrl=       500 IOpCl=  0 I1Cent=   200000004 NGrid=           0
         NMat0=    1 NMatS0=      1 NMatT0=    0 NMatD0=    1 NMtDS0=    0 NMtDT0=    0
 Petite list used in FoFCou.
 Keep R1 ints in memory in canonical form, NReq=135777051.
 Requested convergence on RMS density matrix=1.00D-08 within 128 cycles.
 Requested convergence on MAX density matrix=1.00D-06.
 Requested convergence on             energy=1.00D-06.
 No special actions if energy rises.
 SCF Done:  E(RHF) =  -284.057164644     A.U. after   12 cycles
            NFock= 12  Conv=0.52D-08     -V/T= 2.0021
 ExpMin= 2.97D-02 ExpMax= 1.17D+04 ExpMxC= 4.01D+02 IAcc=3 IRadAn=         5 AccDes= 0.00D+00
 HarFok:  IExCor=  205 AccDes= 0.00D+00 IRadAn=         5 IDoV=-2 UseB2=F ITyADJ=14
 ICtDFT= 12500011 ScaDFX=  1.000000  1.000000  1.000000  1.000000
 Range of M.O.s used for correlation:     6   178
 NBasis=   178 NAE=    21 NBE=    21 NFC=     5 NFV=     0
 NROrb=    173 NOA=    16 NOB=    16 NVA=   157 NVB=   157

 **** Warning!!: The largest alpha MO coefficient is  0.26825535D+02

 Fully direct method using O(ONN) memory.
 JobTyp=1 Pass  1:  I=   6 to  21 NPSUse= 40 ParTrn=T ParDer=T DoDerP=T.
 Spin components of T(2) and E(2):
     alpha-alpha T2 =       0.3544952951D-01 E2=     -0.1130816985D+00
     alpha-beta  T2 =       0.1980631874D+00 E2=     -0.6566116779D+00
     beta-beta   T2 =       0.3544952951D-01 E2=     -0.1130816985D+00
 ANorm=    0.1126482244D+01
 E2 =    -0.8827750749D+00 EUMP2 =    -0.28493993971883D+03
          IDoAtm=111111111111
          Differentiating once with respect to electric field.
                with respect to dipole field.
          Differentiating once with respect to nuclear coordinates.
 Keep R1 ints in memory in canonical form, NReq=135788264.
          There are     1 degrees of freedom in the 1st order CPHF.  IDoFFX=0 NUNeed=     1.
 LinEq1:  Iter=  0 NonCon=     1 RMS=4.66D-03 Max=8.69D-02 NDo=     1
 AX will form     1 AO Fock derivatives at one time.
 LinEq1:  Iter=  1 NonCon=     1 RMS=1.35D-03 Max=1.72D-02 NDo=     1
 LinEq1:  Iter=  2 NonCon=     1 RMS=5.01D-04 Max=7.80D-03 NDo=     1
 LinEq1:  Iter=  3 NonCon=     1 RMS=1.58D-04 Max=2.30D-03 NDo=     1
 LinEq1:  Iter=  4 NonCon=     1 RMS=5.17D-05 Max=7.71D-04 NDo=     1
 LinEq1:  Iter=  5 NonCon=     1 RMS=1.28D-05 Max=1.41D-04 NDo=     1
 LinEq1:  Iter=  6 NonCon=     1 RMS=4.84D-06 Max=5.54D-05 NDo=     1
 LinEq1:  Iter=  7 NonCon=     1 RMS=1.31D-06 Max=2.84D-05 NDo=     1
 LinEq1:  Iter=  8 NonCon=     1 RMS=4.52D-07 Max=7.23D-06 NDo=     1
 LinEq1:  Iter=  9 NonCon=     1 RMS=1.60D-07 Max=2.35D-06 NDo=     1
 LinEq1:  Iter= 10 NonCon=     1 RMS=2.92D-08 Max=2.27D-07 NDo=     1
 LinEq1:  Iter= 11 NonCon=     1 RMS=8.30D-09 Max=7.35D-08 NDo=     1
 LinEq1:  Iter= 12 NonCon=     1 RMS=2.01D-09 Max=1.98D-08 NDo=     1
 LinEq1:  Iter= 13 NonCon=     1 RMS=4.55D-10 Max=7.42D-09 NDo=     1
 LinEq1:  Iter= 14 NonCon=     1 RMS=1.14D-10 Max=3.27D-09 NDo=     1
 LinEq1:  Iter= 15 NonCon=     0 RMS=2.60D-11 Max=5.64D-10 NDo=     1
 Linear equations converged to 1.000D-10 1.000D-09 after    15 iterations.
 End of Minotr F.D. properties file   721 does not exist.
 End of Minotr F.D. properties file   722 does not exist.
 End of Minotr F.D. properties file   788 does not exist.
 Calling FoFJK, ICntrl=  10002127 FMM=F ISym2X=0 I1Cent= 0 IOpClX= 0 NMat=1 NMatS=1 NMatT=0.
 ***** Axes restored to original set *****
 -------------------------------------------------------------------
 Center     Atomic                   Forces (Hartrees/Bohr)
 Number     Number              X              Y              Z
 -------------------------------------------------------------------
      1        6           0.000737007    0.001492503   -0.002068454
      2        8          -0.001566183   -0.001593015    0.000864415
      3        7          -0.000031594    0.001000450    0.000567766
      4        6           0.000320149   -0.000546668   -0.000462843
      5        1           0.000946737   -0.000538987    0.001265243
      6        1           0.000666880   -0.000152031   -0.000550184
      7        1          -0.000916222   -0.000092926    0.000337274
      8        8           0.000285878   -0.000019172    0.000037917
      9        1          -0.000054594   -0.000042411   -0.000067374
     10        1          -0.000026645    0.000082159    0.000069736
     11        1          -0.000285760    0.000499747    0.000230611
     12        1          -0.000075651   -0.000089649   -0.000224107
 -------------------------------------------------------------------
 Cartesian Forces:  Max     0.002068454 RMS     0.000741633

 GradGradGradGradGradGradGradGradGradGradGradGradGradGradGradGradGradGrad
 Berny optimization.
 Using GEDIIS/GDIIS optimizer.
 FormGI is forming the generalized inverse of G from B-inverse, IUseBI=4.
 Internal  Forces:  Max     0.002226586 RMS     0.000716939
 Search for a local minimum.
 Step number   2 out of a maximum of   52
 All quantities printed in internal units (Hartrees-Bohrs-Radians)
 Mixed Optimization -- En-DIIS/RFO-DIIS
 Update second derivatives using D2CorX and points    1    2
 DE= -1.52D-03 DEPred=-1.58D-03 R= 9.66D-01
 TightC=F SS=  1.41D+00  RLast= 1.59D-01 DXNew= 5.0454D-01 4.7691D-01
 Trust test= 9.66D-01 RLast= 1.59D-01 DXMaxT set to 4.77D-01
 ITU=  1  0
 Use linear search instead of GDIIS.
     Eigenvalues ---    0.00230   0.00230   0.00233   0.00493   0.01147
     Eigenvalues ---    0.01280   0.01332   0.02078   0.04156   0.06964
     Eigenvalues ---    0.07605   0.14303   0.15998   0.16000   0.16000
     Eigenvalues ---    0.16000   0.16000   0.16365   0.24999   0.26598
     Eigenvalues ---    0.30439   0.33556   0.33636   0.34765   0.45209
     Eigenvalues ---    0.45744   0.50951   0.54173   0.54174   0.89020
 RFO step:  Lambda=-2.13135195D-04 EMin= 2.29878755D-03
 Quartic linear search produced a step of -0.01805.
 Iteration  1 RMS(Cart)=  0.04766778 RMS(Int)=  0.00081639
 Iteration  2 RMS(Cart)=  0.00126673 RMS(Int)=  0.00021054
 Iteration  3 RMS(Cart)=  0.00000049 RMS(Int)=  0.00021054
 Variable       Old X    -DE/DX   Delta X   Delta X   Delta X     New X
                                 (Linear)    (Quad)   (Total)
    R1        2.33329   0.00190   0.00005   0.00187   0.00192   2.33521
    R2        2.59010  -0.00110  -0.00000  -0.00211  -0.00211   2.58799
    R3        2.87655  -0.00097  -0.00006  -0.00287  -0.00293   2.87363
    R4        1.91313  -0.00041  -0.00003  -0.00073  -0.00076   1.91237
    R5        1.91681   0.00010   0.00001   0.00018   0.00019   1.91700
    R6        2.08107  -0.00164  -0.00017  -0.00388  -0.00405   2.07702
    R7        2.07578   0.00071   0.00009   0.00161   0.00170   2.07748
    R8        2.07816   0.00050   0.00005   0.00121   0.00126   2.07942
    R9        1.82572   0.00002   0.00000   0.00004   0.00004   1.82576
   R10        1.82570   0.00004   0.00000   0.00007   0.00007   1.82576
   R11        3.82286   0.00020  -0.00005   0.00486   0.00481   3.82766
    A1        2.14080  -0.00049  -0.00008  -0.00134  -0.00202   2.13879
    A2        2.12351   0.00223   0.00040   0.00689   0.00667   2.13018
    A3        2.01884  -0.00173  -0.00032  -0.00502  -0.00595   2.01289
    A4        2.05762  -0.00064  -0.00004  -0.00371  -0.00375   2.05387
    A5        2.12909   0.00051   0.00005   0.00285   0.00290   2.13199
    A6        2.09648   0.00013  -0.00001   0.00086   0.00084   2.09732
    A7        1.88710   0.00045  -0.00179   0.01093   0.00914   1.89624
    A8        1.97044  -0.00019   0.00137  -0.00748  -0.00610   1.96434
    A9        1.89698  -0.00076   0.00029  -0.00590  -0.00559   1.89139
   A10        1.92338  -0.00018  -0.00012  -0.00083  -0.00097   1.92240
   A11        1.88462  -0.00010   0.00057  -0.00492  -0.00433   1.88029
   A12        1.89934   0.00078  -0.00034   0.00806   0.00774   1.90708
   A13        1.82106   0.00009   0.00002   0.00190   0.00192   1.82298
   A14        2.16868  -0.00009   0.00001   0.00067   0.00068   2.16936
   A15        2.16831   0.00004   0.00002   0.00141   0.00144   2.16975
   A16        3.00770   0.00021   0.00084   0.06088   0.06172   3.06942
   A17        3.17093  -0.00001  -0.00052  -0.01059  -0.01149   3.15944
    D1       -0.00925   0.00019   0.00017   0.02135   0.02115   0.01190
    D2        3.13183   0.00023   0.00017   0.02505   0.02537  -3.12599
    D3       -3.14156  -0.00058  -0.00001  -0.04239  -0.04256   3.09906
    D4       -0.00049  -0.00054  -0.00000  -0.03870  -0.03834  -0.03883
    D5       -0.85916  -0.00036  -0.00004  -0.04443  -0.04452  -0.90367
    D6       -2.99170  -0.00032   0.00057  -0.04620  -0.04572  -3.03742
    D7        1.18244  -0.00065  -0.00017  -0.04747  -0.04770   1.13473
    D8        2.27326   0.00038   0.00013   0.01858   0.01879   2.29206
    D9        0.14072   0.00043   0.00074   0.01681   0.01759   0.15831
   D10       -1.96833   0.00010  -0.00000   0.01554   0.01561  -1.95272
   D11       -1.83947  -0.00005  -0.00018  -0.03148  -0.03140  -1.87087
   D12        1.84194  -0.00010   0.00009  -0.01415  -0.01381   1.82813
   D13        1.27846   0.00002   0.00023  -0.01634  -0.01636   1.26210
   D14       -1.32331  -0.00002   0.00049   0.00099   0.00123  -1.32208
         Item               Value     Threshold  Converged?
 Maximum Force            0.002227     0.000450     NO 
 RMS     Force            0.000717     0.000300     NO 
 Maximum Displacement     0.139490     0.001800     NO 
 RMS     Displacement     0.047380     0.001200     NO 
 Predicted change in Energy=-1.090221D-04
 GradGradGradGradGradGradGradGradGradGradGradGradGradGradGradGradGradGrad

                          Input orientation:                          
 ---------------------------------------------------------------------
 Center     Atomic      Atomic             Coordinates (Angstroms)
 Number     Number       Type             X           Y           Z
 ---------------------------------------------------------------------
      1          6           0       -1.065631   -0.082365   -0.025601
      2          8           0       -2.254249   -0.420066   -0.011614
      3          7           0       -0.041251   -0.990635    0.009532
      4          6           0       -0.641335    1.377800   -0.008467
      5          1           0       -1.175418    1.908369   -0.809275
      6          1           0        0.444117    1.502838   -0.129879
      7          1           0       -0.952513    1.818100    0.950774
      8          8           0        2.830754   -0.000375   -0.021235
      9          1           0        3.425547   -0.072564   -0.779164
     10          1           0        3.418360    0.017664    0.745475
     11          1           0       -0.284410   -1.972569    0.037637
     12          1           0        0.932527   -0.706340    0.011184
 ---------------------------------------------------------------------
                    Distance matrix (angstroms):
                    1          2          3          4          5
     1  C    0.000000
     2  O    1.235739   0.000000
     3  N    1.369504   2.285466   0.000000
     4  C    1.520659   2.415331   2.443340   0.000000
     5  H    2.142246   2.687331   3.218851   1.099109   0.000000
     6  H    2.191593   3.315528   2.544096   1.099355   1.802478
     7  H    2.139596   2.762262   3.099246   1.100381   1.776402
     8  O    3.897249   5.102302   3.038087   3.735629   4.507074
     9  H    4.553968   5.741948   3.672000   4.386007   5.009379
    10  H    4.550905   5.739624   3.677933   4.347358   5.205267
    11  H    2.046260   2.508577   1.011984   3.369644   4.070975
    12  H    2.093641   3.199690   1.014431   2.611718   3.457353
                    6          7          8          9         10
     6  H    0.000000
     7  H    1.793816   0.000000
     8  O    2.822673   4.308684   0.000000
     9  H    3.434004   5.072938   0.966151   0.000000
    10  H    3.437748   4.731622   0.966152   1.527323   0.000000
    11  H    3.554894   3.955927   3.687446   4.247465   4.262930
    12  H    2.266917   3.287705   2.025513   2.690998   2.691232
                   11         12
    11  H    0.000000
    12  H    1.756409   0.000000
 Stoichiometry    C2H7NO2
 Framework group  C1[X(C2H7NO2)]
 Deg. of freedom    30
 Full point group                 C1      NOp   1
 Largest Abelian subgroup         C1      NOp   1
 Largest concise Abelian subgroup C1      NOp   1
                         Standard orientation:                         
 ---------------------------------------------------------------------
 Center     Atomic      Atomic             Coordinates (Angstroms)
 Number     Number       Type             X           Y           Z
 ---------------------------------------------------------------------
      1          6           0       -1.062574   -0.086679   -0.018639
      2          8           0       -2.249581   -0.430110   -0.007694
      3          7           0       -0.033911   -0.990157    0.014846
      4          6           0       -0.645304    1.375430    0.004351
      5          1           0       -1.180696    1.906290   -0.795389
      6          1           0        0.439721    1.506091   -0.114936
      7          1           0       -0.960055    1.810810    0.964670
      8          8           0        2.833361    0.013936   -0.007950
      9          1           0        3.429653   -0.052703   -0.765210
     10          1           0        3.419700    0.032050    0.759728
     11          1           0       -0.272407   -1.973338    0.039078
     12          1           0        0.938491   -0.701215    0.019018
 ---------------------------------------------------------------------
 Rotational constants (GHZ):           9.0576449           1.9631166           1.6424974
 Standard basis: Aug-CC-pVDZ (5D, 7F)
 There are   188 symmetry adapted cartesian basis functions of A   symmetry.
 There are   178 symmetry adapted basis functions of A   symmetry.
   178 basis functions,   292 primitive gaussians,   188 cartesian basis functions
    21 alpha electrons       21 beta electrons
       nuclear repulsion energy       174.0427471707 Hartrees.
 NAtoms=   12 NActive=   12 NUniq=   12 SFac= 1.00D+00 NAtFMM=   60 NAOKFM=F Big=F
 Integral buffers will be    131072 words long.
 Raffenetti 1 integral format.
 Two-electron integral symmetry is turned on.
 One-electron integrals computed using PRISM.
 NBasis=   178 RedAO= T EigKep=  7.40D-05  NBF=   178
 NBsUse=   178 1.00D-06 EigRej= -1.00D+00 NBFU=   178
 Initial guess from the checkpoint file:  "/scr/Gau-1638.chk"
 B after Tr=    -0.000000    0.000000   -0.000000
         Rot=    0.999983    0.000608    0.000314   -0.005862 Ang=   0.68 deg.
 ExpMin= 2.97D-02 ExpMax= 1.17D+04 ExpMxC= 4.01D+02 IAcc=3 IRadAn=         5 AccDes= 0.00D+00
 Harris functional with IExCor=  205 and IRadAn=       5 diagonalized for initial guess.
 HarFok:  IExCor=  205 AccDes= 0.00D+00 IRadAn=         5 IDoV= 1 UseB2=F ITyADJ=14
 ICtDFT=  3500011 ScaDFX=  1.000000  1.000000  1.000000  1.000000
 FoFCou: FMM=F IPFlag=           0 FMFlag=      100000 FMFlg1=           0
         NFxFlg=           0 DoJE=T BraDBF=F KetDBF=T FulRan=T
         wScrn=  0.000000 ICntrl=       500 IOpCl=  0 I1Cent=   200000004 NGrid=           0
         NMat0=    1 NMatS0=      1 NMatT0=    0 NMatD0=    1 NMtDS0=    0 NMtDT0=    0
 Petite list used in FoFCou.
 Keep R1 ints in memory in canonical form, NReq=135776081.
 Requested convergence on RMS density matrix=1.00D-08 within 128 cycles.
 Requested convergence on MAX density matrix=1.00D-06.
 Requested convergence on             energy=1.00D-06.
 No special actions if energy rises.
 SCF Done:  E(RHF) =  -284.057200953     A.U. after   12 cycles
            NFock= 12  Conv=0.57D-08     -V/T= 2.0021
 ExpMin= 2.97D-02 ExpMax= 1.17D+04 ExpMxC= 4.01D+02 IAcc=3 IRadAn=         5 AccDes= 0.00D+00
 HarFok:  IExCor=  205 AccDes= 0.00D+00 IRadAn=         5 IDoV=-2 UseB2=F ITyADJ=14
 ICtDFT= 12500011 ScaDFX=  1.000000  1.000000  1.000000  1.000000
 Range of M.O.s used for correlation:     6   178
 NBasis=   178 NAE=    21 NBE=    21 NFC=     5 NFV=     0
 NROrb=    173 NOA=    16 NOB=    16 NVA=   157 NVB=   157

 **** Warning!!: The largest alpha MO coefficient is  0.25467472D+02

 Fully direct method using O(ONN) memory.
 JobTyp=1 Pass  1:  I=   6 to  21 NPSUse= 40 ParTrn=T ParDer=T DoDerP=T.
 Spin components of T(2) and E(2):
     alpha-alpha T2 =       0.3544348209D-01 E2=     -0.1130647924D+00
     alpha-beta  T2 =       0.1980489076D+00 E2=     -0.6565627564D+00
     beta-beta   T2 =       0.3544348209D-01 E2=     -0.1130647924D+00
 ANorm=    0.1126470537D+01
 E2 =    -0.8826923413D+00 EUMP2 =    -0.28493989329423D+03
          IDoAtm=111111111111
          Differentiating once with respect to electric field.
                with respect to dipole field.
          Differentiating once with respect to nuclear coordinates.
 Keep R1 ints in memory in canonical form, NReq=135787851.
          There are     1 degrees of freedom in the 1st order CPHF.  IDoFFX=0 NUNeed=     1.
 LinEq1:  Iter=  0 NonCon=     1 RMS=4.66D-03 Max=7.97D-02 NDo=     1
 AX will form     1 AO Fock derivatives at one time.
 LinEq1:  Iter=  1 NonCon=     1 RMS=1.35D-03 Max=1.56D-02 NDo=     1
 LinEq1:  Iter=  2 NonCon=     1 RMS=5.02D-04 Max=7.15D-03 NDo=     1
 LinEq1:  Iter=  3 NonCon=     1 RMS=1.59D-04 Max=2.09D-03 NDo=     1
 LinEq1:  Iter=  4 NonCon=     1 RMS=5.20D-05 Max=7.08D-04 NDo=     1
 LinEq1:  Iter=  5 NonCon=     1 RMS=1.29D-05 Max=1.33D-04 NDo=     1
 LinEq1:  Iter=  6 NonCon=     1 RMS=4.89D-06 Max=5.09D-05 NDo=     1
 LinEq1:  Iter=  7 NonCon=     1 RMS=1.33D-06 Max=2.62D-05 NDo=     1
 LinEq1:  Iter=  8 NonCon=     1 RMS=4.58D-07 Max=6.42D-06 NDo=     1
 LinEq1:  Iter=  9 NonCon=     1 RMS=1.62D-07 Max=2.29D-06 NDo=     1
 LinEq1:  Iter= 10 NonCon=     1 RMS=3.01D-08 Max=2.44D-07 NDo=     1
 LinEq1:  Iter= 11 NonCon=     1 RMS=8.69D-09 Max=8.33D-08 NDo=     1
 LinEq1:  Iter= 12 NonCon=     1 RMS=2.36D-09 Max=4.62D-08 NDo=     1
 LinEq1:  Iter= 13 NonCon=     1 RMS=6.53D-10 Max=1.49D-08 NDo=     1
 LinEq1:  Iter= 14 NonCon=     1 RMS=1.83D-10 Max=3.08D-09 NDo=     1
 LinEq1:  Iter= 15 NonCon=     0 RMS=3.25D-11 Max=2.84D-10 NDo=     1
 Linear equations converged to 1.000D-10 1.000D-09 after    15 iterations.
 End of Minotr F.D. properties file   721 does not exist.
 End of Minotr F.D. properties file   722 does not exist.
 End of Minotr F.D. properties file   788 does not exist.
 Calling FoFJK, ICntrl=  10002127 FMM=F ISym2X=0 I1Cent= 0 IOpClX= 0 NMat=1 NMatS=1 NMatT=0.
 ***** Axes restored to original set *****
 -------------------------------------------------------------------
 Center     Atomic                   Forces (Hartrees/Bohr)
 Number     Number              X              Y              Z
 -------------------------------------------------------------------
      1        6          -0.000586883    0.000665872    0.005920606
      2        8          -0.000437359   -0.000522393   -0.002328658
      3        7           0.000308218    0.000526394   -0.001200740
      4        6           0.000615012   -0.000341346   -0.001635364
      5        1           0.000276306    0.000057007   -0.000094292
      6        1           0.000081389    0.000501378   -0.000272471
      7        1          -0.000122412   -0.000484199    0.000073371
      8        8          -0.000093634    0.000053815    0.000036787
      9        1          -0.000020447    0.000022896    0.000076559
     10        1          -0.000000141    0.000049772   -0.000092520
     11        1          -0.000007139   -0.000029865   -0.000104101
     12        1          -0.000012910   -0.000499329   -0.000379176
 -------------------------------------------------------------------
 Cartesian Forces:  Max     0.005920606 RMS     0.001152566

 GradGradGradGradGradGradGradGradGradGradGradGradGradGradGradGradGradGrad
 Berny optimization.
 Using GEDIIS/GDIIS optimizer.
 FormGI is forming the generalized inverse of G from B-inverse, IUseBI=4.
 Internal  Forces:  Max     0.001088057 RMS     0.000516382
 Search for a local minimum.
 Step number   3 out of a maximum of   52
 All quantities printed in internal units (Hartrees-Bohrs-Radians)
 Mixed Optimization -- En-DIIS/RFO-DIIS
 Swapping is turned off.
 Update second derivatives using D2CorX and points    1    2    3
 DE=  4.64D-05 DEPred=-1.09D-04 R=-4.26D-01
 Trust test=-4.26D-01 RLast= 1.32D-01 DXMaxT set to 2.38D-01
 ITU= -1  1  0
     Eigenvalues ---    0.00225   0.00231   0.00255   0.00483   0.01262
     Eigenvalues ---    0.01335   0.01981   0.03534   0.04159   0.06899
     Eigenvalues ---    0.07551   0.10088   0.15998   0.16000   0.16000
     Eigenvalues ---    0.16000   0.16176   0.16676   0.24983   0.26519
     Eigenvalues ---    0.30351   0.33565   0.33625   0.34514   0.45225
     Eigenvalues ---    0.45733   0.50770   0.54173   0.54177   0.88471
 En-DIIS/RFO-DIIS/Sim-DIIS IScMMF=       -3 using points:     3    2
 RFO step:  Lambda=-2.42226363D-04.
 DidBck=T Rises=T En-DIIS coefs:    0.45519    0.54481
 Iteration  1 RMS(Cart)=  0.05763096 RMS(Int)=  0.00088659
 Iteration  2 RMS(Cart)=  0.00170265 RMS(Int)=  0.00004996
 Iteration  3 RMS(Cart)=  0.00000036 RMS(Int)=  0.00004996
 Variable       Old X    -DE/DX   Delta X   Delta X   Delta X     New X
                                 (Linear)    (Quad)   (Total)
    R1        2.33521   0.00054  -0.00105   0.00189   0.00084   2.33605
    R2        2.58799   0.00001   0.00115  -0.00180  -0.00065   2.58734
    R3        2.87363  -0.00004   0.00159  -0.00256  -0.00096   2.87267
    R4        1.91237   0.00003   0.00041  -0.00063  -0.00021   1.91216
    R5        1.91700  -0.00023  -0.00010  -0.00004  -0.00015   1.91685
    R6        2.07702  -0.00004   0.00221  -0.00352  -0.00131   2.07570
    R7        2.07748   0.00017  -0.00093   0.00166   0.00074   2.07822
    R8        2.07942  -0.00010  -0.00069   0.00096   0.00028   2.07970
    R9        1.82576  -0.00007  -0.00002  -0.00002  -0.00004   1.82572
   R10        1.82576  -0.00007  -0.00004   0.00000  -0.00003   1.82573
   R11        3.82766  -0.00006  -0.00262   0.00350   0.00088   3.82854
    A1        2.13879  -0.00007   0.00110  -0.00140  -0.00023   2.13856
    A2        2.13018   0.00080  -0.00363   0.00743   0.00388   2.13405
    A3        2.01289  -0.00064   0.00324  -0.00571  -0.00240   2.01049
    A4        2.05387   0.00003   0.00204  -0.00313  -0.00109   2.05278
    A5        2.13199  -0.00006  -0.00158   0.00234   0.00076   2.13275
    A6        2.09732   0.00003  -0.00046   0.00080   0.00034   2.09766
    A7        1.89624   0.00016  -0.00498   0.00801   0.00302   1.89926
    A8        1.96434   0.00078   0.00333  -0.00304   0.00029   1.96462
    A9        1.89139  -0.00085   0.00304  -0.00690  -0.00386   1.88754
   A10        1.92240  -0.00049   0.00053  -0.00203  -0.00151   1.92090
   A11        1.88029   0.00026   0.00236  -0.00313  -0.00077   1.87952
   A12        1.90708   0.00011  -0.00422   0.00694   0.00273   1.90981
   A13        1.82298  -0.00010  -0.00105   0.00037  -0.00071   1.82226
   A14        2.16936  -0.00003  -0.00037  -0.00039  -0.00080   2.16856
   A15        2.16975   0.00004  -0.00078   0.00042  -0.00040   2.16935
   A16        3.06942  -0.00066  -0.03363  -0.04289  -0.07650   2.99291
   A17        3.15944  -0.00013   0.00626  -0.01542  -0.00907   3.15036
    D1        0.01190  -0.00087  -0.01152  -0.01091  -0.02229  -0.01039
    D2       -3.12599  -0.00109  -0.01382  -0.01420  -0.02798   3.12921
    D3        3.09906   0.00088   0.02319  -0.00429   0.01887   3.11793
    D4       -0.03883   0.00067   0.02089  -0.00757   0.01317  -0.02565
    D5       -0.90367   0.00091   0.02425  -0.00564   0.01867  -0.88500
    D6       -3.03742   0.00089   0.02491  -0.00670   0.01827  -3.01915
    D7        1.13473   0.00084   0.02599  -0.00877   0.01729   1.15202
    D8        2.29206  -0.00081  -0.01024  -0.01193  -0.02223   2.26983
    D9        0.15831  -0.00082  -0.00958  -0.01298  -0.02263   0.13568
   D10       -1.95272  -0.00088  -0.00850  -0.01506  -0.02361  -1.97634
   D11       -1.87087   0.00009   0.01711  -0.00843   0.00863  -1.86224
   D12        1.82813   0.00003   0.00752  -0.02826  -0.02080   1.80734
   D13        1.26210  -0.00005   0.00891   0.00086   0.00983   1.27193
   D14       -1.32208  -0.00011  -0.00067  -0.01898  -0.01960  -1.34168
         Item               Value     Threshold  Converged?
 Maximum Force            0.001088     0.000450     NO 
 RMS     Force            0.000516     0.000300     NO 
 Maximum Displacement     0.135055     0.001800     NO 
 RMS     Displacement     0.058403     0.001200     NO 
 Predicted change in Energy=-1.225757D-04
 GradGradGradGradGradGradGradGradGradGradGradGradGradGradGradGradGradGrad

                          Input orientation:                          
 ---------------------------------------------------------------------
 Center     Atomic      Atomic             Coordinates (Angstroms)
 Number     Number       Type             X           Y           Z
 ---------------------------------------------------------------------
      1          6           0       -1.060287   -0.087500   -0.009368
      2          8           0       -2.257319   -0.396077   -0.016143
      3          7           0       -0.059322   -1.021403    0.012887
      4          6           0       -0.595159    1.359740   -0.006945
      5          1           0       -1.108988    1.898423   -0.814605
      6          1           0        0.494264    1.453068   -0.124787
      7          1           0       -0.900580    1.816356    0.946670
      8          8           0        2.782136    0.038319   -0.022204
      9          1           0        3.378940   -0.001096   -0.780936
     10          1           0        3.369500    0.079412    0.743779
     11          1           0       -0.328156   -1.996695    0.033290
     12          1           0        0.921471   -0.762689    0.007730
 ---------------------------------------------------------------------
                    Distance matrix (angstroms):
                    1          2          3          4          5
     1  C    0.000000
     2  O    1.236185   0.000000
     3  N    1.369161   2.285403   0.000000
     4  C    1.520149   2.417800   2.440770   0.000000
     5  H    2.143518   2.687180   3.211219   1.098415   0.000000
     6  H    2.191642   3.316979   2.539373   1.099744   1.801279
     7  H    2.136395   2.768142   3.103634   1.100528   1.775460
     8  O    3.844503   5.058146   3.032840   3.626638   4.385058
     9  H    4.506608   5.701608   3.673257   4.271346   4.873479
    10  H    4.496454   5.697777   3.674618   4.233361   5.078801
    11  H    2.045204   2.507208   1.011871   3.367279   4.062089
    12  H    2.093689   3.199950   1.014353   2.608656   3.446813
                    6          7          8          9         10
     6  H    0.000000
     7  H    1.795993   0.000000
     8  O    2.691913   4.202681   0.000000
     9  H    3.296434   4.960045   0.966127   0.000000
    10  H    3.302775   4.614296   0.966135   1.526869   0.000000
    11  H    3.549961   3.962486   3.717294   4.288116   4.299730
    12  H    2.260452   3.294382   2.025978   2.690943   2.691422
                   11         12
    11  H    0.000000
    12  H    1.756414   0.000000
 Stoichiometry    C2H7NO2
 Framework group  C1[X(C2H7NO2)]
 Deg. of freedom    30
 Full point group                 C1      NOp   1
 Largest Abelian subgroup         C1      NOp   1
 Largest concise Abelian subgroup C1      NOp   1
                         Standard orientation:                         
 ---------------------------------------------------------------------
 Center     Atomic      Atomic             Coordinates (Angstroms)
 Number     Number       Type             X           Y           Z
 ---------------------------------------------------------------------
      1          6           0       -1.053650   -0.076684   -0.004583
      2          8           0       -2.254490   -0.369994   -0.014919
      3          7           0       -0.064677   -1.023312    0.016089
      4          6           0       -0.570182    1.364507    0.004300
      5          1           0       -1.075481    1.912742   -0.802315
      6          1           0        0.520576    1.444427   -0.111019
      7          1           0       -0.871720    1.821342    0.959045
      8          8           0        2.790078    0.000333   -0.009299
      9          1           0        3.387877   -0.043782   -0.766988
     10          1           0        3.376356    0.031047    0.758003
     11          1           0       -0.345920   -1.995179    0.032227
     12          1           0        0.919331   -0.777068    0.013872
 ---------------------------------------------------------------------
 Rotational constants (GHZ):           9.0763034           2.0079554           1.6743881
 Standard basis: Aug-CC-pVDZ (5D, 7F)
 There are   188 symmetry adapted cartesian basis functions of A   symmetry.
 There are   178 symmetry adapted basis functions of A   symmetry.
   178 basis functions,   292 primitive gaussians,   188 cartesian basis functions
    21 alpha electrons       21 beta electrons
       nuclear repulsion energy       174.6201691127 Hartrees.
 NAtoms=   12 NActive=   12 NUniq=   12 SFac= 1.00D+00 NAtFMM=   60 NAOKFM=F Big=F
 Integral buffers will be    131072 words long.
 Raffenetti 1 integral format.
 Two-electron integral symmetry is turned on.
 One-electron integrals computed using PRISM.
 NBasis=   178 RedAO= T EigKep=  7.15D-05  NBF=   178
 NBsUse=   178 1.00D-06 EigRej= -1.00D+00 NBFU=   178
 Initial guess from the checkpoint file:  "/scr/Gau-1638.chk"
 B after Tr=     0.000000   -0.000000    0.000000
         Rot=    0.999963   -0.000187    0.000075    0.008605 Ang=  -0.99 deg.
 ExpMin= 2.97D-02 ExpMax= 1.17D+04 ExpMxC= 4.01D+02 IAcc=3 IRadAn=         5 AccDes= 0.00D+00
 Harris functional with IExCor=  205 and IRadAn=       5 diagonalized for initial guess.
 HarFok:  IExCor=  205 AccDes= 0.00D+00 IRadAn=         5 IDoV= 1 UseB2=F ITyADJ=14
 ICtDFT=  3500011 ScaDFX=  1.000000  1.000000  1.000000  1.000000
 FoFCou: FMM=F IPFlag=           0 FMFlag=      100000 FMFlg1=           0
         NFxFlg=           0 DoJE=T BraDBF=F KetDBF=T FulRan=T
         wScrn=  0.000000 ICntrl=       500 IOpCl=  0 I1Cent=   200000004 NGrid=           0
         NMat0=    1 NMatS0=      1 NMatT0=    0 NMatD0=    1 NMtDS0=    0 NMtDT0=    0
 Petite list used in FoFCou.
 Keep R1 ints in memory in canonical form, NReq=135777110.
 Requested convergence on RMS density matrix=1.00D-08 within 128 cycles.
 Requested convergence on MAX density matrix=1.00D-06.
 Requested convergence on             energy=1.00D-06.
 No special actions if energy rises.
 SCF Done:  E(RHF) =  -284.057098601     A.U. after   12 cycles
            NFock= 12  Conv=0.57D-08     -V/T= 2.0021
 ExpMin= 2.97D-02 ExpMax= 1.17D+04 ExpMxC= 4.01D+02 IAcc=3 IRadAn=         5 AccDes= 0.00D+00
 HarFok:  IExCor=  205 AccDes= 0.00D+00 IRadAn=         5 IDoV=-2 UseB2=F ITyADJ=14
 ICtDFT= 12500011 ScaDFX=  1.000000  1.000000  1.000000  1.000000
 Range of M.O.s used for correlation:     6   178
 NBasis=   178 NAE=    21 NBE=    21 NFC=     5 NFV=     0
 NROrb=    173 NOA=    16 NOB=    16 NVA=   157 NVB=   157

 **** Warning!!: The largest alpha MO coefficient is  0.28307200D+02

 Fully direct method using O(ONN) memory.
 JobTyp=1 Pass  1:  I=   6 to  21 NPSUse= 40 ParTrn=T ParDer=T DoDerP=T.
 Spin components of T(2) and E(2):
     alpha-alpha T2 =       0.3546188666D-01 E2=     -0.1131188894D+00
     alpha-beta  T2 =       0.1980531851D+00 E2=     -0.6566627339D+00
     beta-beta   T2 =       0.3546188666D-01 E2=     -0.1131188894D+00
 ANorm=    0.1126488774D+01
 E2 =    -0.8829005128D+00 EUMP2 =    -0.28493999911342D+03
          IDoAtm=111111111111
          Differentiating once with respect to electric field.
                with respect to dipole field.
          Differentiating once with respect to nuclear coordinates.
 Keep R1 ints in memory in canonical form, NReq=135788631.
          There are     1 degrees of freedom in the 1st order CPHF.  IDoFFX=0 NUNeed=     1.
 LinEq1:  Iter=  0 NonCon=     1 RMS=4.67D-03 Max=8.33D-02 NDo=     1
 AX will form     1 AO Fock derivatives at one time.
 LinEq1:  Iter=  1 NonCon=     1 RMS=1.35D-03 Max=1.63D-02 NDo=     1
 LinEq1:  Iter=  2 NonCon=     1 RMS=5.02D-04 Max=7.47D-03 NDo=     1
 LinEq1:  Iter=  3 NonCon=     1 RMS=1.59D-04 Max=2.17D-03 NDo=     1
 LinEq1:  Iter=  4 NonCon=     1 RMS=5.20D-05 Max=7.42D-04 NDo=     1
 LinEq1:  Iter=  5 NonCon=     1 RMS=1.29D-05 Max=1.41D-04 NDo=     1
 LinEq1:  Iter=  6 NonCon=     1 RMS=4.92D-06 Max=5.62D-05 NDo=     1
 LinEq1:  Iter=  7 NonCon=     1 RMS=1.34D-06 Max=2.80D-05 NDo=     1
 LinEq1:  Iter=  8 NonCon=     1 RMS=4.58D-07 Max=6.87D-06 NDo=     1
 LinEq1:  Iter=  9 NonCon=     1 RMS=1.62D-07 Max=2.35D-06 NDo=     1
 LinEq1:  Iter= 10 NonCon=     1 RMS=2.91D-08 Max=2.37D-07 NDo=     1
 LinEq1:  Iter= 11 NonCon=     1 RMS=8.28D-09 Max=7.69D-08 NDo=     1
 LinEq1:  Iter= 12 NonCon=     1 RMS=1.98D-09 Max=1.87D-08 NDo=     1
 LinEq1:  Iter= 13 NonCon=     1 RMS=4.27D-10 Max=5.07D-09 NDo=     1
 LinEq1:  Iter= 14 NonCon=     1 RMS=9.88D-11 Max=2.57D-09 NDo=     1
 LinEq1:  Iter= 15 NonCon=     0 RMS=2.33D-11 Max=5.63D-10 NDo=     1
 Linear equations converged to 1.000D-10 1.000D-09 after    15 iterations.
 End of Minotr F.D. properties file   721 does not exist.
 End of Minotr F.D. properties file   722 does not exist.
 End of Minotr F.D. properties file   788 does not exist.
 Calling FoFJK, ICntrl=  10002127 FMM=F ISym2X=0 I1Cent= 0 IOpClX= 0 NMat=1 NMatS=1 NMatT=0.
 ***** Axes restored to original set *****
 -------------------------------------------------------------------
 Center     Atomic                   Forces (Hartrees/Bohr)
 Number     Number              X              Y              Z
 -------------------------------------------------------------------
      1        6          -0.000842807    0.000561284   -0.000245914
      2        8           0.000292987   -0.000067495    0.000043795
      3        7           0.000432056   -0.000496362    0.000069550
      4        6           0.000662575   -0.000047242    0.000488244
      5        1          -0.000268320   -0.000154159   -0.000444089
      6        1          -0.000428477    0.000305942    0.000160242
      7        1           0.000183920    0.000084680    0.000008911
      8        8           0.000185255   -0.000058292   -0.000052633
      9        1           0.000039396   -0.000001887    0.000038391
     10        1           0.000007337    0.000018400   -0.000032730
     11        1          -0.000018410   -0.000184352   -0.000116567
     12        1          -0.000245513    0.000039482    0.000082800
 -------------------------------------------------------------------
 Cartesian Forces:  Max     0.000842807 RMS     0.000293171

 GradGradGradGradGradGradGradGradGradGradGradGradGradGradGradGradGradGrad
 Berny optimization.
 Using GEDIIS/GDIIS optimizer.
 FormGI is forming the generalized inverse of G from B-inverse, IUseBI=4.
 Internal  Forces:  Max     0.000758251 RMS     0.000265889
 Search for a local minimum.
 Step number   4 out of a maximum of   52
 All quantities printed in internal units (Hartrees-Bohrs-Radians)
 Mixed Optimization -- En-DIIS/RFO-DIIS
 Swapping is turned off.
 Update second derivatives using D2CorX and points    1    2    3    4
 DE= -1.06D-04 DEPred=-1.23D-04 R= 8.63D-01
 TightC=F SS=  1.41D+00  RLast= 1.06D-01 DXNew= 4.0103D-01 3.1949D-01
 Trust test= 8.63D-01 RLast= 1.06D-01 DXMaxT set to 3.19D-01
 ITU=  1 -1  1  0
     Eigenvalues ---    0.00220   0.00233   0.00367   0.00476   0.01247
     Eigenvalues ---    0.01325   0.02025   0.03406   0.04163   0.06980
     Eigenvalues ---    0.07516   0.12316   0.15995   0.16000   0.16000
     Eigenvalues ---    0.16082   0.16425   0.16495   0.24694   0.26420
     Eigenvalues ---    0.30401   0.33564   0.33737   0.35016   0.45222
     Eigenvalues ---    0.45796   0.52006   0.54174   0.54177   0.88345
 En-DIIS/RFO-DIIS/Sim-DIIS IScMMF=       -3 using points:     4    3    2
 RFO step:  Lambda=-4.52907155D-05.
 DidBck=T Rises=F RFO-DIIS coefs:    0.28040    0.45703    0.26258
 Iteration  1 RMS(Cart)=  0.06103067 RMS(Int)=  0.00097120
 Iteration  2 RMS(Cart)=  0.00159383 RMS(Int)=  0.00007253
 Iteration  3 RMS(Cart)=  0.00000051 RMS(Int)=  0.00007253
 Variable       Old X    -DE/DX   Delta X   Delta X   Delta X     New X
                                 (Linear)    (Quad)   (Total)
    R1        2.33605  -0.00027  -0.00111   0.00142   0.00031   2.33637
    R2        2.58734   0.00076   0.00102  -0.00056   0.00046   2.58780
    R3        2.87267   0.00023   0.00146  -0.00164  -0.00018   2.87248
    R4        1.91216   0.00018   0.00035  -0.00026   0.00009   1.91225
    R5        1.91685  -0.00001   0.00006  -0.00011  -0.00006   1.91679
    R6        2.07570   0.00038   0.00201  -0.00220  -0.00019   2.07551
    R7        2.07822  -0.00042  -0.00098   0.00067  -0.00031   2.07790
    R8        2.07970  -0.00001  -0.00053   0.00073   0.00020   2.07990
    R9        1.82572  -0.00001   0.00002  -0.00004  -0.00002   1.82570
   R10        1.82573  -0.00002   0.00001  -0.00004  -0.00003   1.82570
   R11        3.82854   0.00020  -0.00189   0.00549   0.00360   3.83214
    A1        2.13856  -0.00044   0.00069  -0.00224  -0.00143   2.13713
    A2        2.13405  -0.00012  -0.00454   0.00613   0.00170   2.13576
    A3        2.01049   0.00056   0.00329  -0.00359  -0.00019   2.01030
    A4        2.05278  -0.00012   0.00177  -0.00297  -0.00121   2.05157
    A5        2.13275   0.00030  -0.00131   0.00296   0.00166   2.13440
    A6        2.09766  -0.00018  -0.00046  -0.00000  -0.00046   2.09720
    A7        1.89926  -0.00068  -0.00458   0.00394  -0.00065   1.89862
    A8        1.96462   0.00057   0.00140   0.00030   0.00170   1.96632
    A9        1.88754   0.00022   0.00424  -0.00527  -0.00104   1.88650
   A10        1.92090   0.00002   0.00134  -0.00223  -0.00089   1.92000
   A11        1.87952   0.00019   0.00169  -0.00179  -0.00010   1.87941
   A12        1.90981  -0.00032  -0.00400   0.00490   0.00090   1.91071
   A13        1.82226  -0.00002   0.00001   0.00111   0.00108   1.82335
   A14        2.16856   0.00007   0.00040   0.00079   0.00116   2.16972
   A15        2.16935   0.00004  -0.00009   0.00139   0.00127   2.17062
   A16        2.99291   0.00047   0.03885   0.03913   0.07798   3.07089
   A17        3.15036   0.00006   0.00955   0.00650   0.01624   3.16661
    D1       -0.01039   0.00003   0.01049  -0.01682  -0.00619  -0.01658
    D2        3.12921   0.00000   0.01348  -0.02279  -0.00944   3.11978
    D3        3.11793   0.00005  -0.00240   0.00823   0.00596   3.12389
    D4       -0.02565   0.00003   0.00059   0.00226   0.00271  -0.02295
    D5       -0.88500  -0.00003  -0.00175   0.00257   0.00082  -0.88418
    D6       -3.01915   0.00005  -0.00114   0.00242   0.00129  -3.01786
    D7        1.15202  -0.00006   0.00009  -0.00031  -0.00021   1.15181
    D8        2.26983  -0.00005   0.01106  -0.02233  -0.01128   2.25855
    D9        0.13568   0.00003   0.01167  -0.02248  -0.01082   0.12486
   D10       -1.97634  -0.00008   0.01289  -0.02521  -0.01232  -1.98866
   D11       -1.86224   0.00002   0.00203  -0.01411  -0.01220  -1.87443
   D12        1.80734   0.00003   0.01859  -0.00443   0.01403   1.82137
   D13        1.27193  -0.00006  -0.00278  -0.02631  -0.02895   1.24298
   D14       -1.34168  -0.00005   0.01378  -0.01663  -0.00272  -1.34440
         Item               Value     Threshold  Converged?
 Maximum Force            0.000758     0.000450     NO 
 RMS     Force            0.000266     0.000300     YES
 Maximum Displacement     0.141676     0.001800     NO 
 RMS     Displacement     0.060856     0.001200     NO 
 Predicted change in Energy=-2.282538D-05
 GradGradGradGradGradGradGradGradGradGradGradGradGradGradGradGradGradGrad

                          Input orientation:                          
 ---------------------------------------------------------------------
 Center     Atomic      Atomic             Coordinates (Angstroms)
 Number     Number       Type             X           Y           Z
 ---------------------------------------------------------------------
      1          6           0       -1.067766   -0.081420   -0.007296
      2          8           0       -2.255394   -0.424215   -0.031730
      3          7           0       -0.041740   -0.987994    0.018381
      4          6           0       -0.641844    1.377732   -0.002051
      5          1           0       -1.158212    1.899789   -0.818819
      6          1           0        0.445891    1.501936   -0.104429
      7          1           0       -0.974970    1.827562    0.945617
      8          8           0        2.833843   -0.001844   -0.027442
      9          1           0        3.423155   -0.076068   -0.789402
     10          1           0        3.426665    0.018798    0.735134
     11          1           0       -0.285237   -1.970089    0.031709
     12          1           0        0.932109   -0.704330    0.019696
 ---------------------------------------------------------------------
                    Distance matrix (angstroms):
                    1          2          3          4          5
     1  C    0.000000
     2  O    1.236351   0.000000
     3  N    1.369403   2.284868   0.000000
     4  C    1.520054   2.418974   2.440738   0.000000
     5  H    2.142881   2.687807   3.207289   1.098312   0.000000
[...]
 898,0.00000502,0.00001055,0.00000371,-0.00131640,0.00084900,-0.0014934
 6,0.00033824,-0.00109374,0.00025991,-0.00026206,0.00003116,-0.00017896
 ,0.00003813,-0.00000199,-0.00055305,-0.00021862,-0.00012629,0.00001558
 ,0.00002018,-0.00000596,-0.00001368,0.00001664,-0.00000052,-0.00000441
 ,-0.00000140,-0.00000656,-0.00000603,0.00001257,-0.00000305,0.00106582
 ,-0.00126539,-0.00375203,-0.00209226,0.00066172,0.00320891,0.00017760,
 -0.00041804,-0.00002616,-0.00019537,0.00011140,0.00000367,0.00039049,-
 0.00035038,0.00007758,-0.00005199,-0.00000904,-0.00000225,0.00000907,0
 .00000644,0.00000097,0.00001575,0.00003458,-0.00000205,0.00001825,0.00
 001307,0.00000093,-0.00165225,-0.00135733,-0.00105050,0.00031770,0.000
 06262,-0.00056755,0.00030430,0.00014134,-0.00027505,-0.00002372,-0.000
 14698,0.00004876,0.00000024,-0.00025918,-0.00007758,0.00012770,-0.0000
 0708,0.00000460,0.00000273,0.00000482,0.00001050,-0.00000374,0.0000113
 0,0.00001564,0.00001967,0.00000255,0.00000185,-0.00000127,-0.00128779,
 0.00086733,0.00148192,0.00005564,0.00025013,-0.00022398,0.00034408,-0.
 00110107,-0.00026435,0.00027465,0.00003637,0.00018479,-0.00004138,-0.0
 0000630,0.00054232,0.00022715,-0.00014271,-0.00001471,-0.00001993,-0.0
 0000499,0.00000558,-0.00001272,-0.00000300,0.00000422,0.00000035,-0.00
 000733,0.00001333,-0.00001721,-0.00000087,-0.00109025,0.00126127,-0.00
 372589,0.00055629,0.00022135,0.00017120,0.00215130,-0.00063350,0.00311
 868,-0.00353578,0.01859131,0.00001773,0.00235851,-0.00185079,-0.000051
 22,0.47146152,-1.00441527,0.00664435,-0.00111365,0.00125152,0.00003131
 ,0.00006775,0.00017335,-0.00000410,0.00032120,-0.00014847,-0.00000109,
 0.00007002,0.00018238,-0.00000141,-0.00344232,-0.00123563,0.00005031,-
 0.00072424,-0.00024012,-0.00019230,-0.00071877,-0.00023890,0.00021298,
 -0.46210335,0.00137511,0.00966388,-0.00004695,-0.00119284,-0.00081989,
 0.00001170,-0.98796660,-3.20334717,0.02429177,-0.00100747,0.00255121,0
 .00000709,-0.00024634,0.00003308,-0.00004064,-0.00025766,-0.00045127,0
 .00000495,-0.00024432,0.00003307,0.00004694,0.00204466,0.00069689,-0.0
 0002560,0.00040046,0.00015669,0.00019133,0.00039647,0.00015544,-0.0002
 0230,0.98382887,3.19181505,0.00003215,-0.00024156,0.00215945,-0.000042
 10,0.00002651,-0.00195257,0.00660654,0.02445599,0.76182926,0.00004466,
 -0.00002061,0.00185943,-0.00010009,-0.00034858,-0.00010656,-0.00000186
 ,0.00000457,0.00013293,0.00009733,0.00034440,-0.00011226,0.00004074,0.
 00001432,0.00040174,-0.00003582,-0.00000998,0.00003299,0.00005176,0.00
 001502,0.00002805,-0.00665294,-0.02417840,-0.75845908,0.00438490,0.007
 97683,-0.00006866,0.00320482,-0.00404005,-0.00001163,-1.84909888,-0.54
 268682,0.02951333,-0.00039847,-0.00063134,0.00000544,-0.00016533,0.000
 03295,0.00007636,-0.00039173,-0.00052741,0.00000634,-0.00016234,0.0000
 3235,-0.00006997,0.00739185,0.00133746,-0.00014803,0.00145740,0.001415
 24,0.00226695,0.00138523,0.00138020,-0.00230151,-0.00264089,0.00286965
 ,-0.00004037,1.83503343,0.00722548,0.00315241,-0.00010719,0.00180168,-
 0.00107062,-0.00002568,-0.54907628,0.29366433,0.00714819,-0.00079832,0
 .00035055,0.00000664,0.00000579,0.00001117,-0.00003398,-0.00008032,0.0
 0052303,-0.00000364,0.00000599,0.00001085,0.00003390,0.00160890,-0.000
 45712,-0.00003466,0.00119828,0.00011269,0.00103088,0.00116612,0.000099
 46,-0.00105773,0.00410176,-0.00048698,-0.00006168,0.53284094,-0.295909
 76,-0.00005991,-0.00009782,-0.00063368,-0.00005219,0.00004039,0.000990
 33,0.02956216,0.00706686,0.44769801,-0.00000096,0.00000298,-0.00039330
 ,-0.00018106,0.00002307,0.00006937,0.00000620,0.00000324,-0.00005750,0
 .00018715,-0.00002148,0.00006695,-0.00015114,-0.00003525,-0.00457743,0
 .00060930,0.00073403,0.00045214,-0.00063769,-0.00076108,0.00053678,-0.
 00005361,-0.00005990,-0.00581338,-0.02922825,-0.00689505,-0.43833831,-
 0.00040395,0.00003191,-0.00017185,-0.00033064,0.00020163,-0.00010345,0
 .00026974,-0.00026146,0.00019536,-0.00044671,-0.00003585,-0.00001318,-
 0.00001087,0.00017581,0.00009679,0.00012717,-0.00006428,-0.00012099,-0
 .00011263,-0.00000140,0.00021422,0.00033261,0.00070015,0.00007025,0.00
 029981,-0.00029584,0.00001004,0.00349717,-0.00001742,-0.00023453,-0.00
 013069,0.00006795,-0.00003702,0.00006987,0.00169746,0.00207932,0.00013
 484,-0.00008435,0.00030672,-0.00002590,-0.00000957,-0.00012552,-0.0001
 6416,-0.00000037,-0.00232515,-0.00000180,-0.00013112,0.00004464,-0.000
 04836,0.00007267,-0.00003009,0.00001358,0.00010160,0.00000284,-0.00018
 701,0.00014698,0.00013057,-0.00005470,-0.00002314,0.00001404,0.0000020
 7,0.00003405,-0.00008531,0.00000249,-0.00015221,0.00003352,0.00008070,
 -0.00006454,-0.00013730,-0.00005144,0.00002938,0.00003326,-0.00002162,
 0.00000632,0.00008744,0.00003946,0.00004404,0.00024115,0.00001681,0.00
 001352,0.00003240,-0.00000728,-0.00001587,0.00000008,-0.00001439,0.000
 01445,-0.00000255,0.00000601,0.00001012,-0.00007603,-0.00001425,-0.000
 05361,-0.00000040,-0.00001693,0.00002293,-0.00001042,0.00000889,0.0000
 0934,-0.00001961,-0.00001457,0.00001802,-0.00005797,0.00006088,0.00001
 531,0.00004602,0.00002586,-0.00001241,0.00004532,-0.00001357,0.0000053
 0,-0.00001079,-0.00000181,-0.00001084,-0.00001531,-0.00006130,0.000092
 47,-0.00011551,0.00001915,-0.00004386,0.00009487,-0.00015581,0.0001947
 7,0.00000882,0.00005825,-0.00007817,-0.00000221,0.00001043,-0.00001307
 ,-0.00000351,0.00035008,0.00005786,-0.00002204,-0.00008618,-0.00001724
 ,0.00001745,-0.00014733,0.00014759,-0.00008313,0.00002163,-0.00004282,
 0.00003891,-0.00000861,-0.00006224,0.00006561,-0.00000106,-0.00007975,
 0.00003944,-0.00000069,0.00001609,0.00001985,-0.00002406,0.00004181,-0
 .00005540,0.00000566,-0.00000831,0.00000395,-0.00000057,0.00000304,0.0
 0000683,0.00000135,-0.00000094,-0.00002282,-0.00002956,0.00000074,0.00
 007992,0.00003733,-0.00000427,0.00000111,0.00001720,-0.00000648,-0.000
 04359,0.00002981,0.00002175,-0.00004224,-0.00001431,-0.00000773,0.0000
 0532,-0.00001279,0.00001282,0.00000326,0.00001160,0.00001331,0.0000464
 8,-0.00000660,0.00000399,0.00001415,-0.00008934,0.00001529,-0.00003192
 ,-0.00002360,-0.00005049,-0.00000015,0.00000395,0.00001719,0.00000541,
 0.00000094,0.00000466,-0.00001490,0.00000860,0.00003081,-0.00009525,-0
 .00006844,0.00000913,0.00001959,-0.00001759,-0.00002003,0.00002252,0.0
 0001644,0.00000602,0.00006196,-0.00003015,0.00000108,0.00004212,0.0000
 1764,-0.00000613,-0.00001215,0.00000304,0.00001491,-0.00001324,0.00003
 258,-0.00008299,-0.00012383,-0.00000125,-0.00000337,-0.00000049,-0.000
 01622,0.00001905,-0.00000018,-0.00000279,0.00006618,0.00010763,-0.0000
 6251,0.00013869,0.00000134,0.00005295,-0.00005832,0.00000089,0.0002877
 6,0.00035863,-0.00000637,0.00024159,-0.00001959,-0.00000191,-0.0000689
 1,0.00001881,0.00001639,0.00042014,-0.00020678,-0.00000970,-0.00006986
 ,0.00001856,-0.00001528,1.70700407,0.00006314,0.00011948,0.00000095,0.
 00013554,-0.00008775,-0.00000058,0.00050418,0.00013173,-0.00000905,-0.
 00017493,-0.00000987,0.00000183,0.00001289,-0.00001377,-0.00001284,-0.
 00099372,0.00034924,0.00000748,0.00001270,-0.00001336,0.00001328,0.027
 48880,-1.35474690,0.00000092,-0.00000251,0.00013289,0.00000010,0.00000
 190,0.00005033,-0.00000407,-0.00000468,-0.00006820,-0.00000141,0.00000
 052,0.00004764,0.00001660,0.00000127,-0.00000857,-0.00000886,-0.000000
 69,-0.00053261,-0.00001527,-0.00000135,-0.00000793,0.02434831,0.018374
 27,3.70432491,-0.00011784,0.00016214,-0.00001084,0.00010412,-0.0000271
 2,0.00000829,0.00007017,-0.00002776,-0.00009464,-0.00014852,0.00000505
 ,-0.00003906,0.00004924,-0.00002556,0.00000515,-0.00021281,0.00005007,
 -0.00002596,0.00008518,-0.00000565,0.00001748,-0.80671715,-0.00645583,
 1.95616352,0.77228593,-0.00012903,0.00022424,-0.00005651,0.00004176,-0
 .00004875,0.00000862,-0.00002538,-0.00020451,-0.00002823,0.00014740,0.
 00000246,0.00010947,-0.00002344,0.00000151,-0.00000728,0.00038711,-0.0
 0014205,-0.00019532,-0.00005727,-0.00000678,-0.00002063,-0.00645238,0.
 67753353,0.00726281,0.00642318,-0.71336361,-0.00049258,0.00035597,-0.0
 0008605,0.00042929,0.00000397,-0.00000939,0.00009516,-0.00018787,-0.00
 013303,-0.00026991,-0.00007285,-0.00004506,0.00002870,0.00000551,-0.00
 001884,-0.00008347,0.00021522,0.00025792,0.00005488,0.00000547,0.00001
 942,1.86958324,0.00785338,-1.89932189,-1.91123731,-0.00701237,1.964183
 88,-0.00010578,0.00015234,0.00001027,0.00009356,-0.00002658,-0.0000100
 3,0.00007105,-0.00002190,0.00008839,-0.00014084,0.00000686,0.00004140,
 0.00008362,-0.00000578,-0.00001920,-0.00020936,0.00004457,0.00003643,0
 .00004793,-0.00002532,-0.00000654,-0.90165713,-0.02144388,-1.98047906,
 0.03499019,0.00030174,0.04276978,0.86720564,-0.00012415,0.00022154,0.0
 0005682,0.00003882,-0.00004866,-0.00000912,-0.00002556,-0.00020251,0.0
 0002939,0.00014614,0.00000250,-0.00011321,-0.00005746,-0.00000664,0.00
 002245,0.00039282,-0.00014199,0.00018981,-0.00002326,0.00000151,0.0000
 0746,-0.02077624,0.67721502,-0.02563536,-0.00002835,0.03567893,-0.0003
 5949,0.02107344,-0.71304746,0.00049413,-0.00036172,-0.00009696,-0.0004
 3206,-0.00000317,0.00000153,-0.00009966,0.00018872,-0.00013279,0.00027
 105,0.00007231,-0.00005296,-0.00005613,-0.00000504,0.00002139,0.000092
 55,-0.00021362,0.00025436,-0.00003014,-0.00000518,-0.00001790,-1.89390
 272,-0.02621355,-1.80388297,-0.04526301,-0.00039245,-0.06553360,1.9380
 1742,0.02612273,1.86876627,0.00004599,-0.00007366,0.00000306,-0.000026
 03,-0.00000737,-0.00000345,0.00063096,-0.00024412,0.00001168,-0.000018
 16,-0.00000240,-0.00000166,0.00000578,-0.00000039,0.00000342,0.0000321
 6,-0.00002270,0.00000035,0.00000590,0.00000016,-0.00000380,-0.00006130
 ,0.00010128,-0.00000034,0.00016279,-0.00001688,0.00005067,0.00016303,-
 0.00001664,-0.00005442,-0.00046268,0.00014064,0.00018235,-0.00001112,0
 .00000830,-0.00005902,0.00000140,-0.00051221,-0.00223826,0.00006869,0.
 00000481,0.00001322,-0.00000343,-0.00000337,0.00000459,-0.00000236,-0.
 00000795,0.00000166,0.00000030,-0.00000393,0.00000253,0.00000281,-0.00
 005921,-0.00005453,0.00000128,-0.00000957,0.00000626,-0.00010652,-0.00
 000662,0.00000699,0.00010644,0.00024816,0.00186922,-0.00003620,0.00001
 407,-0.00002176,0.00000945,0.00000693,0.00003940,0.00002345,0.00001912
 ,0.00062444,0.00000416,-0.00000279,0.00000411,0.00000262,0.00001263,-0
 .00000915,-0.00000055,0.00000129,-0.00000014,-0.00000241,-0.00001192,-
 0.00000983,0.00000076,-0.00000118,-0.00001047,-0.00006156,-0.00003282,
 -0.00001217,0.00005748,0.00003316,-0.00001295,-0.00000947,-0.00004337,
 -0.00057444,0.00015272,-0.00094903,0.00001760,-0.00033574,0.00030440,0
 .00000661,-0.00518638,-0.00192863,0.00005611,-0.00007818,-0.00007691,0
 .00000574,0.00003616,0.00001420,-0.00000567,0.00002977,0.00009888,-0.0
 0000060,0.00003607,0.00001494,0.00000531,0.00063036,0.00074985,-0.0000
 2044,-0.00055130,-0.00059682,-0.00092845,-0.00054190,-0.00059956,0.000
 96299,-0.00047844,0.00020095,0.00001224,0.00628686,-0.00011970,-0.0003
 7495,-0.00000417,-0.00018087,0.00014964,-0.00000780,-0.00202862,0.0007
 5999,0.00003803,0.00001656,0.00001265,-0.00000162,0.00000863,0.0000172
 5,0.00001102,0.00005583,-0.00011465,-0.00000250,0.00000631,0.00001692,
 -0.00001164,-0.00045096,-0.00042282,0.00000255,-0.00006061,0.00031876,
 -0.00070044,-0.00004888,0.00032076,0.00070453,0.00003457,0.00026497,0.
 00000488,0.00276774,-0.00094850,0.00002028,0.00002537,0.00003551,-0.00
 001568,-0.00001938,-0.00006675,0.00008805,0.00003644,0.00181746,-0.000
 00245,-0.00000132,-0.00001885,-0.00000092,-0.00000112,0.00001597,0.000
 00084,-0.00000198,-0.00000474,0.00000069,0.00000291,0.00001637,-0.0000
 1495,-0.00001399,-0.00072311,0.00053794,0.00036471,0.00069881,-0.00050
 634,-0.00034465,0.00068658,0.00000396,-0.00001414,-0.00001706,-0.00011
 143,-0.00003285,-0.00244018,0.00090935,0.00024835,-0.00011422,-0.00033
 824,0.00020134,0.00068105,-0.00066514,-0.00021424,0.00020746,0.0006085
 0,-0.00004542,0.00003239,-0.00001085,0.00009273,-0.00010217,0.00013924
 ,-0.00006506,-0.00009685,-0.00012797,-0.00000032,0.00001995,-0.0001327
 1,-0.00021043,0.00007137,-0.00002462,0.00003973,0.00001512,0.00041836,
 -0.00010496,0.00008225,-0.00013235,0.00002334,0.00004472,0.00007074,0.
 00036729,-0.00031766,0.00013361,-0.00007587,-0.00027861,-0.00001985,-0
 .00001335,0.00003382,-0.00008929,0.00003148,0.00043643,-0.00022458,0.0
 0003059,0.00004535,0.00006761,-0.00001966,-0.00003160,-0.00001036,-0.0
 0001458,0.00000305,0.00016966,-0.00002317,0.00009897,-0.00005306,0.000
 09095,-0.00001418,0.00000080,-0.00005760,0.00002160,0.00000305,0.00000
 059,0.00018632,0.00008270,-0.00006711,-0.00025804,-0.00005351,0.000030
 60,0.00001966,-0.00002161,0.00000720,0.00004572,0.00003453,0.00004236,
 0.00026812,-0.00002331,-0.00003814,0.00004917,0.00000753,0.00000128,0.
 00000231,0.00001443,0.00000470,0.00000401,-0.00000972,0.00000881,-0.00
 009907,0.00000503,-0.00000036,0.00002166,0.00001306,0.00000581,0.00000
 097,0.00000389,0.00001793,-0.00001240,-0.00000863,-0.00002927,-0.00004
 053,-0.00003631,0.00002641,-0.00000367,-0.00004072,-0.00005726,0.00002
 013,0.00001513,0.00001696,-0.00000002,0.00000810,0.00002926,-0.0000040
 1,0.00000656,-0.00000486,0.00001742,0.00004979,0.00002983,0.00001709,0
 .00010511,-0.00004550,0.00000749,-0.00001785,0.00002876,-0.00000199,0.
 00001651,-0.00001026,-0.00000383,-0.00015876,-0.00011349,-0.00001854,0
 .00003130,0.00001126,-0.00005437,-0.00000336,-0.00002029,0.00003860,0.
 00002376,0.00000614,-0.00001700,-0.00000922,-0.00001374,0.00003063,-0.
 00000162,0.00005300,-0.00013788,-0.00000297,0.00001983,-0.00000201,-0.
 00000153,0.00017612,0.00008269,0.00000402,-0.00000539,0.00009846,-0.00
 000014,0.00000178,-0.00002436,0.00000094,-0.00000091,-0.00004204,-0.00
 002749,0.00000241,-0.00023567,-0.00000589,0.00000070,-0.00001798,0.000
 02001,-0.00000698,0.00038435,-0.00000893,-0.00002861,-0.00005821,-0.00
 000031,0.00000911,0.00000297,0.00001552,0.00000198,-0.00000372,-0.0000
 0467,0.00001467,0.00007352,-0.00000824,-0.00002136,0.00000824,0.000030
 91,0.00001870,0.00000778,-0.00000665,0.00000227,0.00002196,-0.00002766
 ,0.,0.00001669,0.00000634,0.00001304,-0.00000794,0.00000248,-0.0000140
 7,-0.00007639,0.00003025,-0.00001632,0.00001585,-0.00002360,0.00000865
 ,0.00000065,0.00001076,0.00001497,0.00001111,0.00003649,0.00004698,0.0
 0001556,-0.00001105,-0.00001827,-0.00000054,-0.00000740,-0.00002484,-0
 .00000120,-0.00003097,0.00001468,0.00000947,0.00000357,0.00000312,-0.0
 0004285,0.00005180,-0.00000356,-0.00002184,-0.00003598,-0.00000768,0.0
 0003171,-0.00014119,-0.00011401,0.00000350,-0.00001472,0.00006893,0.00
 000092,0.00035837,-0.00018832,0.00000190,0.00012145,0.00006463,-0.0000
 0012,-0.00005664,0.00002013,0.00001086,-0.00011909,-0.00013296,-0.0000
 0128,-0.00005827,0.00002044,-0.00000936,1.92607368,0.00056916,-0.00102
 362,-0.00000224,-0.00024772,0.00027866,0.00000300,-0.00010722,0.000837
 07,-0.00000146,-0.00042581,-0.00002859,0.00000593,0.00006128,0.0000386
 4,-0.00000780,-0.00041324,0.00038664,0.00000048,0.00006069,0.00003913,
 0.00000676,0.03148125,-1.51211569,0.00000085,0.00000398,0.00017780,0.0
 0000156,-0.00000084,0.00001165,0.00000415,0.00000186,0.00052876,0.0000
 0132,-0.00000040,0.00008149,0.00005213,-0.00001899,0.00001978,-0.00000
 224,-0.00000117,-0.00037444,-0.00005065,0.00001874,0.00002112,0.020992
 17,0.01860569,3.62176878,0.00012920,0.00002717,0.00001278,-0.00005145,
 -0.00003226,-0.00001208,-0.00027125,0.00006470,0.00014211,-0.00001159,
 0.00000770,-0.00002142,0.00006354,-0.00001531,0.00001078,0.00007430,-0
 .00003984,0.00001657,-0.00001794,0.00000147,0.00002347,-0.91218178,-0.
 00829540,2.05011990,0.90709887,-0.00022434,0.00038550,-0.00013765,0.00
 008560,-0.00011564,0.00001897,-0.00002089,-0.00030660,-0.00013096,0.00
 016032,-0.00001679,0.00016997,-0.00002906,-0.00001142,0.00000127,0.000
 11208,-0.00009773,-0.00018650,-0.00002246,-0.00001389,-0.00000906,-0.0
 0797793,0.75619632,0.00877685,0.00808304,-0.75253356,-0.00016111,0.000
 12728,-0.00005950,0.00009970,-0.00001400,0.00000403,-0.00016742,-0.000
 03523,-0.00016769,-0.00010806,-0.00004867,-0.00001426,-0.00000928,0.00
 001732,-0.00002613,-0.00005014,0.00010720,0.00008346,0.00002982,0.0000
 0232,0.00000520,2.05067311,0.00965405,-1.86115601,-2.05042709,-0.00923
 545,1.85274542,0.00013200,0.00002382,-0.00001772,-0.00005300,-0.000031
 40,0.00001426,-0.00026922,0.00006472,-0.00014144,-0.00000842,0.0000088
 6,0.00002081,-0.00001901,0.00000132,-0.00002289,0.00007544,-0.00004310
 ,-0.00001683,0.00006308,-0.00001549,-0.00001278,-1.01399643,-0.0240177
 8,-2.07109088,0.00487347,0.00017668,0.00015783,1.00891332,-0.00021984,
 0.00038503,0.00013989,0.00008476,-0.00011553,-0.00002016,-0.00001666,-
 0.00030497,0.00013209,0.00015629,-0.00001724,-0.00017396,-0.00002271,-
 0.00001381,0.00000999,0.00011749,-0.00009706,0.00018627,-0.00002893,-0
 .00001158,-0.00000092,-0.02367065,0.75598960,-0.02737483,0.00016392,-0
 .00376430,-0.00018989,0.02379160,-0.75232691,0.00015815,-0.00013044,-0
 .00006357,-0.00009876,0.00001534,0.00000620,0.00017042,0.00003427,-0.0
 0016810,0.00010665,0.00004853,-0.00001675,-0.00002910,-0.00000212,0.00
 000668,0.00004987,-0.00010499,0.00008165,0.00000718,-0.00001721,-0.000
 02596,-2.07164841,-0.02824001,-1.75933214,-0.00008301,0.00027334,0.008
 13356,2.07132257,0.02773783,1.75092050,-0.00006976,0.00003595,0.000004
 12,0.00002130,-0.00000980,-0.00000465,-0.00002377,-0.00021944,0.000011
 93,0.00002889,0.00001679,-0.00000205,-0.00000724,-0.00000214,0.0000024
 5,0.00000349,-0.00002797,0.00000061,-0.00000692,-0.00000119,-0.0000023
 3,-0.00028635,0.00002212,0.00000432,0.00011517,-0.00001033,0.00002732,
 0.00011750,-0.00001020,-0.00003040,-0.00005848,-0.00009064,-0.00002349
 ,-0.00000769,0.00000971,0.00001579,0.00000105,-0.00004383,0.00010207,0
 .00005363,0.00002723,0.00000028,-0.00000359,0.00000057,0.00000009,0.00
 000041,0.00001466,-0.00001019,0.00000002,-0.00000002,-0.00000189,0.000
 00001,0.00000891,0.00003913,0.00000061,-0.00000919,-0.00002066,-0.0000
 7573,-0.00000659,-0.00002022,0.00007567,0.00008736,-0.00007740,-0.0000
 3409,0.00001343,-0.00002297,0.00000824,0.00000656,-0.00001104,0.000022
 26,0.00000945,-0.00000263,0.00000386,-0.00000286,0.00003071,-0.0000032
 5,-0.00000352,-0.00000273,-0.00000037,0.00000131,-0.00000970,0.0000039
 3,0.00000431,-0.00000368,0.00000513,0.00000004,0.00013733,-0.00012410,
 -0.00002575,-0.00003453,0.00012057,0.00002593,-0.00003734,-0.00000653,
 -0.00003338,0.00002616,-0.00001007,0.00028506,0.00001294,0.00012216,-0
 .00010200,0.00000347,-0.00009126,0.00001082,-0.00003846,0.00004049,-0.
 00001874,0.00000477,0.00000233,-0.00001440,0.00000608,-0.00003798,0.00
 000410,0.00000171,0.00000242,-0.00001378,-0.00000545,0.00030097,0.0013
 1268,-0.00003262,0.00017947,-0.00033270,-0.00006466,0.00017128,-0.0003
 4507,0.00007484,0.00016616,0.00000182,0.00000436,-0.00084598,-0.000090
 75,0.00009497,-0.00000657,0.00006292,-0.00002471,-0.00001004,0.0000323
 8,-0.00016877,0.00000916,0.00007538,0.00002445,-0.00000237,-0.00001665
 ,0.00000663,0.00000732,0.00011347,-0.00017735,-0.00000264,-0.00001873,
 0.00000632,-0.00000723,0.00041958,-0.00063729,-0.00001150,0.00004401,0
 .00029878,-0.00030918,0.00004736,0.00029697,0.00030979,0.00011884,-0.0
 0000351,0.00000447,-0.00078781,0.00028349,0.00001910,0.00000812,-0.000
 21349,-0.00002081,-0.00001361,0.00003749,-0.00000664,0.00000906,-0.000
 38046,-0.00000319,-0.00000198,0.00005214,-0.00001437,0.00000165,0.0000
 1262,0.00000231,-0.00000024,0.00007811,0.00001514,0.00000094,0.0000129
 9,-0.00002841,-0.00002446,-0.00188411,0.00034209,0.00048497,0.00048646
 ,-0.00033347,-0.00047224,0.00049528,-0.00000478,-0.00001100,-0.0000695
 8,0.00003303,0.00001877,0.00137256\\@
 The archive entry for this job was punched.


 THE REASON MAN'S BEST FRIEND IS A DOG IS BECAUSE
 HE WAGS HIS TAIL INSTEAD OF HIS TONGUE.
 Job cpu time:       5 days  1 hours 31 minutes 35.4 seconds.
 Elapsed time:       0 days  3 hours  5 minutes 13.3 seconds.
 File lengths (MBytes):  RWF=   4640 Int=      0 D2E=      0 Chk=     47 Scr=      1
 Normal termination of Gaussian 16 at Fri Apr  4 04:40:44 2025.
