 Entering Gaussian System, Link 0=g16
 Input=hconh2t_h2o_mp2_avtz_opt_anharm.gjf
 Output=hconh2t_h2o_mp2_avtz_opt_anharm.log
 Initial command:
 /sw/contrib/chem-src/g16/c01/g16/l1.exe "/scr/Gau-98131.inp" -scrdir="/scr/"
 Entering Link 1 = /sw/contrib/chem-src/g16/c01/g16/l1.exe PID=     98132.
  
 Copyright (c) 1988-2019, Gaussian, Inc.  All Rights Reserved.
  
 This is part of the Gaussian(R) 16 program.  It is based on
 the Gaussian(R) 09 system (copyright 2009, Gaussian, Inc.),
 the Gaussian(R) 03 system (copyright 2003, Gaussian, Inc.),
 the Gaussian(R) 98 system (copyright 1998, Gaussian, Inc.),
 the Gaussian(R) 94 system (copyright 1995, Gaussian, Inc.),
 the Gaussian 92(TM) system (copyright 1992, Gaussian, Inc.),
 the Gaussian 90(TM) system (copyright 1990, Gaussian, Inc.),
 the Gaussian 88(TM) system (copyright 1988, Gaussian, Inc.),
 the Gaussian 86(TM) system (copyright 1986, Carnegie Mellon
 University), and the Gaussian 82(TM) system (copyright 1983,
 Carnegie Mellon University). Gaussian is a federally registered
 trademark of Gaussian, Inc.
  
 This software contains proprietary and confidential information,
 including trade secrets, belonging to Gaussian, Inc.
  
 This software is provided under written license and may be
 used, copied, transmitted, or stored only in accord with that
 written license.
  
 The following legend is applicable only to US Government
 contracts under FAR:
  
                    RESTRICTED RIGHTS LEGEND
  
 Use, reproduction and disclosure by the US Government is
 subject to restrictions as set forth in subparagraphs (a)
 and (c) of the Commercial Computer Software - Restricted
 Rights clause in FAR 52.227-19.
  
 Gaussian, Inc.
 340 Quinnipiac St., Bldg. 40, Wallingford CT 06492
  
  
 ---------------------------------------------------------------
 Warning -- This program may not be used in any manner that
 competes with the business of Gaussian, Inc. or will provide
 assistance to any competitor of Gaussian, Inc.  The licensee
 of this program is prohibited from giving any competitor of
 Gaussian, Inc. access to this program.  By using this program,
 the user acknowledges that Gaussian, Inc. is engaged in the
 business of creating and licensing software in the field of
 computational chemistry and represents and warrants to the
 licensee that it is not a competitor of Gaussian, Inc. and that
 it will not use this program in any manner prohibited above.
 ---------------------------------------------------------------
  

 Cite this work as:
 Gaussian 16, Revision C.01,
 M. J. Frisch, G. W. Trucks, H. B. Schlegel, G. E. Scuseria, 
 M. A. Robb, J. R. Cheeseman, G. Scalmani, V. Barone, 
 G. A. Petersson, H. Nakatsuji, X. Li, M. Caricato, A. V. Marenich, 
 J. Bloino, B. G. Janesko, R. Gomperts, B. Mennucci, H. P. Hratchian, 
 J. V. Ortiz, A. F. Izmaylov, J. L. Sonnenberg, D. Williams-Young, 
 F. Ding, F. Lipparini, F. Egidi, J. Goings, B. Peng, A. Petrone, 
 T. Henderson, D. Ranasinghe, V. G. Zakrzewski, J. Gao, N. Rega, 
 G. Zheng, W. Liang, M. Hada, M. Ehara, K. Toyota, R. Fukuda, 
 J. Hasegawa, M. Ishida, T. Nakajima, Y. Honda, O. Kitao, H. Nakai, 
 T. Vreven, K. Throssell, J. A. Montgomery, Jr., J. E. Peralta, 
 F. Ogliaro, M. J. Bearpark, J. J. Heyd, E. N. Brothers, K. N. Kudin, 
 V. N. Staroverov, T. A. Keith, R. Kobayashi, J. Normand, 
 K. Raghavachari, A. P. Rendell, J. C. Burant, S. S. Iyengar, 
 J. Tomasi, M. Cossi, J. M. Millam, M. Klene, C. Adamo, R. Cammi, 
 J. W. Ochterski, R. L. Martin, K. Morokuma, O. Farkas, 
 J. B. Foresman, and D. J. Fox, Gaussian, Inc., Wallingford CT, 2019.
 
 ******************************************
 Gaussian 16:  EM64L-G16RevC.01  3-Jul-2019
                30-Mar-2025 
 ******************************************
 %nprocshared=40
 Will use up to   40 processors via shared memory.
 %mem=50gb
 ----------------------------------------------
 # MP2/aug-cc-pVTZ opt freq=(vibrot,anharmonic)
 ----------------------------------------------
 1/18=20,19=15,38=1,80=1/1,3;
 2/9=110,12=2,17=6,18=5,40=1/2;
 3/5=16,6=1,7=10,11=9,25=1,30=1,71=1/1,2,3;
 4//1;
 5/5=2,38=5/2;
 8/6=4,10=1/1;
 9/15=2,16=-3/6;
 10/5=1/2;
 6/7=2,8=2,9=2,10=2/1;
 7/12=2/1,2,3,16;
 1/18=20,19=15,80=1/3(2);
 2/9=110/2;
 99//99;
 2/9=110/2;
 3/5=16,6=1,7=10,11=9,25=1,30=1,71=1/1,2,3;
 4/5=5,16=3,69=1/1;
 5/5=2,38=5/2;
 8/6=4,10=1/1;
 9/15=2,16=-3/6;
 10/5=1/2;
 7/12=2/1,2,3,16;
 1/18=20,19=15,80=1/3(-8);
 2/9=110/2;
 6/7=2,8=2,9=2,10=2/1;
 99/9=10/99;
 ----
 blah
 ----
 Symbolic Z-matrix:
 Charge =  0 Multiplicity = 1
 C                     1.03144  -0.29808  -0.00035 
 O                     2.23923  -0.17689   0.00071 
 N                     0.18357   0.75714  -0.00076 
 O                    -2.42386  -0.2396    0.00033 
 H                     0.51467  -1.28023  -0.00104 
 H                    -2.97628  -0.03412   0.76654 
 H                    -2.98117  -0.04072  -0.76406 
 H                    -0.78939   0.60684  -0.00162 
 H                     0.53988   1.6749   -0.00019 
 
 Add virtual bond connecting atoms H8         and O4         Dist= 3.48D+00.

 GradGradGradGradGradGradGradGradGradGradGradGradGradGradGradGradGradGrad
 Berny optimization.
 Initialization pass.
                           ----------------------------
                           !    Initial Parameters    !
                           ! (Angstroms and Degrees)  !
 --------------------------                            --------------------------
 ! Name  Definition              Value          Derivative Info.                !
 --------------------------------------------------------------------------------
 ! R1    R(1,2)                  1.2139         estimate D2E/DX2                !
 ! R2    R(1,3)                  1.3537         estimate D2E/DX2                !
 ! R3    R(1,5)                  1.1098         estimate D2E/DX2                !
 ! R4    R(3,8)                  0.9845         estimate D2E/DX2                !
 ! R5    R(3,9)                  0.9845         estimate D2E/DX2                !
 ! R6    R(4,6)                  0.9667         estimate D2E/DX2                !
 ! R7    R(4,7)                  0.9667         estimate D2E/DX2                !
 ! R8    R(4,8)                  1.8406         estimate D2E/DX2                !
 ! A1    A(2,1,3)              123.0521         estimate D2E/DX2                !
 ! A2    A(2,1,5)              123.4813         estimate D2E/DX2                !
 ! A3    A(3,1,5)              113.4666         estimate D2E/DX2                !
 ! A4    A(1,3,8)              120.0            estimate D2E/DX2                !
 ! A5    A(1,3,9)              120.0            estimate D2E/DX2                !
 ! A6    A(8,3,9)              120.0            estimate D2E/DX2                !
 ! A7    A(6,4,7)              104.6889         estimate D2E/DX2                !
 ! A8    A(6,4,8)              114.2386         estimate D2E/DX2                !
 ! A9    A(7,4,8)              114.6137         estimate D2E/DX2                !
 ! A10   A(3,8,4)              161.4033         estimate D2E/DX2                !
 ! D1    D(2,1,3,8)            180.0            estimate D2E/DX2                !
 ! D2    D(2,1,3,9)              0.0            estimate D2E/DX2                !
 ! D3    D(5,1,3,8)             -0.0015         estimate D2E/DX2                !
 ! D4    D(5,1,3,9)            179.9985         estimate D2E/DX2                !
 ! D5    D(1,3,8,4)              0.349          estimate D2E/DX2                !
 ! D6    D(9,3,8,4)           -179.651          estimate D2E/DX2                !
 ! D7    D(6,4,7,8)            125.9386         estimate D2E/DX2                !
 ! D8    D(6,4,8,3)            119.345          estimate D2E/DX2                !
 ! D9    D(7,4,8,3)           -119.8486         estimate D2E/DX2                !
 --------------------------------------------------------------------------------
 Trust Radius=3.00D-01 FncErr=1.00D-07 GrdErr=1.00D-07 EigMax=2.50D+02 EigMin=1.00D-04
 Number of steps in this run=     37 maximum allowed number of steps=    100.
 GradGradGradGradGradGradGradGradGradGradGradGradGradGradGradGradGradGrad

                          Input orientation:                          
 ---------------------------------------------------------------------
 Center     Atomic      Atomic             Coordinates (Angstroms)
 Number     Number       Type             X           Y           Z
 ---------------------------------------------------------------------
      1          6           0        1.031435   -0.298081   -0.000346
      2          8           0        2.239233   -0.176894    0.000708
      3          7           0        0.183566    0.757141   -0.000758
      4          8           0       -2.423863   -0.239604    0.000331
      5          1           0        0.514666   -1.280233   -0.001037
      6          1           0       -2.976279   -0.034118    0.766542
      7          1           0       -2.981169   -0.040720   -0.764056
      8          1           0       -0.789392    0.606835   -0.001622
      9          1           0        0.539876    1.674901   -0.000193
 ---------------------------------------------------------------------
                    Distance matrix (angstroms):
                    1          2          3          4          5
     1  C    0.000000
     2  O    1.213863   0.000000
     3  N    1.353653   2.257917   0.000000
     4  O    3.455793   4.663518   2.791449   0.000000
     5  H    1.109808   2.047313   2.064103   3.117349   0.000000
     6  H    4.088956   5.273372   3.346560   0.966678   3.785324
     7  H    4.092735   5.277879   3.351828   0.966660   3.786747
     8  H    2.033295   3.128387   0.984500   1.840641   2.293817
     9  H    2.033295   2.513356   0.984500   3.528325   2.955241
                    6          7          8          9
     6  H    0.000000
     7  H    1.530620   0.000000
     8  H    2.404864   2.409257   0.000000
     9  H    3.983965   3.990564   1.705204   0.000000
 Stoichiometry    CH5NO2
 Framework group  C1[X(CH5NO2)]
 Deg. of freedom    21
 Full point group                 C1      NOp   1
 Largest Abelian subgroup         C1      NOp   1
 Largest concise Abelian subgroup C1      NOp   1
                         Standard orientation:                         
 ---------------------------------------------------------------------
 Center     Atomic      Atomic             Coordinates (Angstroms)
 Number     Number       Type             X           Y           Z
 ---------------------------------------------------------------------
      1          6           0        1.020586   -0.336437   -0.000363
      2          8           0        2.229055   -0.222135    0.000691
      3          7           0        0.178744    0.723599   -0.000775
      4          8           0       -2.434322   -0.258271    0.000314
      5          1           0        0.498229   -1.315628   -0.001054
      6          1           0       -2.985558   -0.049640    0.766525
      7          1           0       -2.990486   -0.056214   -0.764073
      8          1           0       -0.795055    0.578841   -0.001639
      9          1           0        0.540279    1.639314   -0.000210
 ---------------------------------------------------------------------
 Rotational constants (GHZ):          30.6043367           2.4408585           2.2846956
 Standard basis: Aug-CC-pVTZ (5D, 7F)
 There are   345 symmetry adapted cartesian basis functions of A   symmetry.
 There are   299 symmetry adapted basis functions of A   symmetry.
   299 basis functions,   423 primitive gaussians,   345 cartesian basis functions
    17 alpha electrons       17 beta electrons
       nuclear repulsion energy       117.1423106091 Hartrees.
 NAtoms=    9 NActive=    9 NUniq=    9 SFac= 1.00D+00 NAtFMM=   60 NAOKFM=F Big=F
 Integral buffers will be    131072 words long.
 Raffenetti 1 integral format.
 Two-electron integral symmetry is turned on.
 One-electron integrals computed using PRISM.
 NBasis=   299 RedAO= T EigKep=  5.15D-05  NBF=   299
 NBsUse=   299 1.00D-06 EigRej= -1.00D+00 NBFU=   299
 ExpMin= 2.53D-02 ExpMax= 1.53D+04 ExpMxC= 5.22D+02 IAcc=3 IRadAn=         5 AccDes= 0.00D+00
 Harris functional with IExCor=  205 and IRadAn=       5 diagonalized for initial guess.
 HarFok:  IExCor=  205 AccDes= 0.00D+00 IRadAn=         5 IDoV= 1 UseB2=F ITyADJ=14
 ICtDFT=  3500011 ScaDFX=  1.000000  1.000000  1.000000  1.000000
 FoFCou: FMM=F IPFlag=           0 FMFlag=      100000 FMFlg1=           0
         NFxFlg=           0 DoJE=T BraDBF=F KetDBF=T FulRan=T
         wScrn=  0.000000 ICntrl=       500 IOpCl=  0 I1Cent=   200000004 NGrid=           0
         NMat0=    1 NMatS0=      1 NMatT0=    0 NMatD0=    1 NMtDS0=    0 NMtDT0=    0
 Petite list used in FoFCou.
 Keep R1 ints in memory in canonical form, NReq=1026496050.
 Requested convergence on RMS density matrix=1.00D-08 within 128 cycles.
 Requested convergence on MAX density matrix=1.00D-06.
 Requested convergence on             energy=1.00D-06.
 No special actions if energy rises.
 SCF Done:  E(RHF) =  -245.067656467     A.U. after   12 cycles
            NFock= 12  Conv=0.91D-08     -V/T= 2.0012
 ExpMin= 2.53D-02 ExpMax= 1.53D+04 ExpMxC= 5.22D+02 IAcc=3 IRadAn=         5 AccDes= 0.00D+00
 HarFok:  IExCor=  205 AccDes= 0.00D+00 IRadAn=         5 IDoV=-2 UseB2=F ITyADJ=14
 ICtDFT= 12500011 ScaDFX=  1.000000  1.000000  1.000000  1.000000
 Range of M.O.s used for correlation:     5   299
 NBasis=   299 NAE=    17 NBE=    17 NFC=     4 NFV=     0
 NROrb=    295 NOA=    13 NOB=    13 NVA=   282 NVB=   282

 **** Warning!!: The largest alpha MO coefficient is  0.29153186D+02

 Disk-based method using ON**2 memory for 13 occupieds at a time.
 Estimated scratch disk usage=   992766632 words.
 Actual    scratch disk usage=   909574824 words.
 JobTyp=1 Pass  1:  I=   5 to  17 NPSUse= 40 ParTrn=T ParDer=T DoDerP=T.
 (rs|ai) integrals will be sorted in core.
 Spin components of T(2) and E(2):
     alpha-alpha T2 =       0.3030921423D-01 E2=     -0.1102397508D+00
     alpha-beta  T2 =       0.1706879801D+00 E2=     -0.6671283974D+00
     beta-beta   T2 =       0.3030921423D-01 E2=     -0.1102397508D+00
 ANorm=    0.1109642469D+01
 E2 =    -0.8876078990D+00 EUMP2 =    -0.24595526436600D+03
          IDoAtm=111111111
          Differentiating once with respect to electric field.
                with respect to dipole field.
          Differentiating once with respect to nuclear coordinates.
 Keep R1 ints in memory in canonical form, NReq=1026497903.
          There are     1 degrees of freedom in the 1st order CPHF.  IDoFFX=0 NUNeed=     1.
 LinEq1:  Iter=  0 NonCon=     1 RMS=3.42D-03 Max=9.00D-02 NDo=     1
 AX will form     1 AO Fock derivatives at one time.
 LinEq1:  Iter=  1 NonCon=     1 RMS=9.07D-04 Max=1.54D-02 NDo=     1
 LinEq1:  Iter=  2 NonCon=     1 RMS=3.62D-04 Max=6.24D-03 NDo=     1
 LinEq1:  Iter=  3 NonCon=     1 RMS=1.48D-04 Max=2.65D-03 NDo=     1
 LinEq1:  Iter=  4 NonCon=     1 RMS=3.66D-05 Max=4.74D-04 NDo=     1
 LinEq1:  Iter=  5 NonCon=     1 RMS=6.61D-06 Max=1.16D-04 NDo=     1
 LinEq1:  Iter=  6 NonCon=     1 RMS=1.88D-06 Max=2.48D-05 NDo=     1
 LinEq1:  Iter=  7 NonCon=     1 RMS=7.14D-07 Max=8.66D-06 NDo=     1
 LinEq1:  Iter=  8 NonCon=     1 RMS=1.74D-07 Max=2.12D-06 NDo=     1
 LinEq1:  Iter=  9 NonCon=     1 RMS=4.92D-08 Max=1.12D-06 NDo=     1
 LinEq1:  Iter= 10 NonCon=     1 RMS=1.93D-08 Max=3.02D-07 NDo=     1
 LinEq1:  Iter= 11 NonCon=     1 RMS=6.25D-09 Max=9.71D-08 NDo=     1
 LinEq1:  Iter= 12 NonCon=     1 RMS=1.20D-09 Max=1.66D-08 NDo=     1
 LinEq1:  Iter= 13 NonCon=     1 RMS=1.98D-10 Max=2.07D-09 NDo=     1
 LinEq1:  Iter= 14 NonCon=     0 RMS=3.35D-11 Max=3.10D-10 NDo=     1
 Linear equations converged to 1.000D-10 1.000D-09 after    14 iterations.
 End of Minotr F.D. properties file   721 does not exist.
 End of Minotr F.D. properties file   722 does not exist.
 End of Minotr F.D. properties file   788 does not exist.

 **********************************************************************

            Population analysis using the SCF Density.

 **********************************************************************

 Orbital symmetries:
       Occupied  (A) (A) (A) (A) (A) (A) (A) (A) (A) (A) (A) (A)
                 (A) (A) (A) (A) (A)
       Virtual   (A) (A) (A) (A) (A) (A) (A) (A) (A) (A) (A) (A)
                 (A) (A) (A) (A) (A) (A) (A) (A) (A) (A) (A) (A)
                 (A) (A) (A) (A) (A) (A) (A) (A) (A) (A) (A) (A)
                 (A) (A) (A) (A) (A) (A) (A) (A) (A) (A) (A) (A)
                 (A) (A) (A) (A) (A) (A) (A) (A) (A) (A) (A) (A)
                 (A) (A) (A) (A) (A) (A) (A) (A) (A) (A) (A) (A)
                 (A) (A) (A) (A) (A) (A) (A) (A) (A) (A) (A) (A)
                 (A) (A) (A) (A) (A) (A) (A) (A) (A) (A) (A) (A)
                 (A) (A) (A) (A) (A) (A) (A) (A) (A) (A) (A) (A)
                 (A) (A) (A) (A) (A) (A) (A) (A) (A) (A) (A) (A)
                 (A) (A) (A) (A) (A) (A) (A) (A) (A) (A) (A) (A)
                 (A) (A) (A) (A) (A) (A) (A) (A) (A) (A) (A) (A)
                 (A) (A) (A) (A) (A) (A) (A) (A) (A) (A) (A) (A)
                 (A) (A) (A) (A) (A) (A) (A) (A) (A) (A) (A) (A)
                 (A) (A) (A) (A) (A) (A) (A) (A) (A) (A) (A) (A)
                 (A) (A) (A) (A) (A) (A) (A) (A) (A) (A) (A) (A)
                 (A) (A) (A) (A) (A) (A) (A) (A) (A) (A) (A) (A)
                 (A) (A) (A) (A) (A) (A) (A) (A) (A) (A) (A) (A)
                 (A) (A) (A) (A) (A) (A) (A) (A) (A) (A) (A) (A)
                 (A) (A) (A) (A) (A) (A) (A) (A) (A) (A) (A) (A)
                 (A) (A) (A) (A) (A) (A) (A) (A) (A) (A) (A) (A)
                 (A) (A) (A) (A) (A) (A) (A) (A) (A) (A) (A) (A)
                 (A) (A) (A) (A) (A) (A) (A) (A) (A) (A) (A) (A)
                 (A) (A) (A) (A) (A) (A)
 The electronic state is 1-A.
 Alpha  occ. eigenvalues --  -20.60771 -20.50872 -15.56020 -11.33563  -1.39261
 Alpha  occ. eigenvalues --   -1.36707  -1.20028  -0.83237  -0.75420  -0.74234
 Alpha  occ. eigenvalues --   -0.65905  -0.62590  -0.59011  -0.55168  -0.54735
 Alpha  occ. eigenvalues --   -0.41747  -0.39829
 Alpha virt. eigenvalues --    0.01314   0.03724   0.03862   0.04771   0.06870
 Alpha virt. eigenvalues --    0.09652   0.10568   0.11282   0.12819   0.14313
 Alpha virt. eigenvalues --    0.14416   0.15777   0.16021   0.16235   0.18406
 Alpha virt. eigenvalues --    0.19491   0.20333   0.21119   0.22257   0.25074
 Alpha virt. eigenvalues --    0.25689   0.26079   0.26471   0.27851   0.28313
 Alpha virt. eigenvalues --    0.29238   0.31524   0.33055   0.35245   0.35453
 Alpha virt. eigenvalues --    0.35893   0.37299   0.38100   0.39155   0.39294
 Alpha virt. eigenvalues --    0.41594   0.42497   0.42953   0.43886   0.44101
 Alpha virt. eigenvalues --    0.45421   0.46619   0.49938   0.50384   0.53127
 Alpha virt. eigenvalues --    0.55448   0.56660   0.58894   0.59053   0.60975
 Alpha virt. eigenvalues --    0.62833   0.63256   0.65782   0.66050   0.68747
 Alpha virt. eigenvalues --    0.72746   0.72870   0.73275   0.74623   0.78171
 Alpha virt. eigenvalues --    0.78371   0.80127   0.83450   0.84594   0.85456
 Alpha virt. eigenvalues --    0.87962   0.89129   0.89279   0.90010   0.90492
 Alpha virt. eigenvalues --    0.92937   0.93326   0.94596   0.94840   0.95246
 Alpha virt. eigenvalues --    0.98052   0.98919   0.99872   1.00902   1.02191
 Alpha virt. eigenvalues --    1.03572   1.04458   1.05508   1.06739   1.07113
 Alpha virt. eigenvalues --    1.08653   1.09643   1.10409   1.14304   1.15339
 Alpha virt. eigenvalues --    1.15794   1.17472   1.20457   1.21236   1.22761
 Alpha virt. eigenvalues --    1.24475   1.26812   1.27431   1.28160   1.31449
 Alpha virt. eigenvalues --    1.31575   1.33351   1.38007   1.39091   1.39714
 Alpha virt. eigenvalues --    1.41377   1.42365   1.43997   1.45225   1.49043
 Alpha virt. eigenvalues --    1.51662   1.54457   1.55319   1.55531   1.58438
 Alpha virt. eigenvalues --    1.64775   1.66467   1.67705   1.70760   1.73758
 Alpha virt. eigenvalues --    1.76810   1.79014   1.80745   1.82020   1.84488
 Alpha virt. eigenvalues --    1.86074   1.95746   1.96084   2.01322   2.02762
 Alpha virt. eigenvalues --    2.04445   2.05687   2.07529   2.11760   2.12160
 Alpha virt. eigenvalues --    2.14653   2.21464   2.25848   2.25977   2.30464
 Alpha virt. eigenvalues --    2.35345   2.36602   2.37024   2.40706   2.41245
 Alpha virt. eigenvalues --    2.47182   2.47728   2.47953   2.49706   2.53186
 Alpha virt. eigenvalues --    2.53767   2.55090   2.58684   2.60625   2.65599
 Alpha virt. eigenvalues --    2.65897   2.66202   2.69154   2.72333   2.72612
 Alpha virt. eigenvalues --    2.75344   2.76171   2.84278   2.85938   2.88646
 Alpha virt. eigenvalues --    2.91595   2.92245   2.94828   3.02446   3.05684
 Alpha virt. eigenvalues --    3.10505   3.15703   3.19115   3.27874   3.41731
 Alpha virt. eigenvalues --    3.48435   3.50729   3.59226   3.65997   3.68660
 Alpha virt. eigenvalues --    3.71584   3.80874   3.81620   3.86442   3.87610
 Alpha virt. eigenvalues --    4.01434   4.03190   4.04702   4.11374   4.13280
 Alpha virt. eigenvalues --    4.14196   4.17952   4.18414   4.21373   4.22894
 Alpha virt. eigenvalues --    4.27963   4.28565   4.30805   4.39372   4.39445
 Alpha virt. eigenvalues --    4.40579   4.43532   4.46284   4.48297   4.52131
 Alpha virt. eigenvalues --    4.52432   4.53564   4.59308   4.61916   4.63136
 Alpha virt. eigenvalues --    4.71185   4.72324   4.73932   4.78626   4.83328
 Alpha virt. eigenvalues --    4.87620   4.89192   4.93177   4.95879   5.03569
 Alpha virt. eigenvalues --    5.04027   5.12712   5.17205   5.19186   5.22301
 Alpha virt. eigenvalues --    5.24978   5.28457   5.29073   5.29298   5.31268
 Alpha virt. eigenvalues --    5.33505   5.45296   5.55892   5.58125   5.58804
 Alpha virt. eigenvalues --    5.62766   5.66098   5.70547   5.79497   5.87202
 Alpha virt. eigenvalues --    5.89268   6.09996   6.19906   6.27831   6.29031
 Alpha virt. eigenvalues --    6.34730   6.40724   6.46681   6.54596   6.63179
 Alpha virt. eigenvalues --    6.67184   6.71965   6.86027   6.92287   6.97983
 Alpha virt. eigenvalues --    6.98901   7.10990   7.12889   7.18451   7.26194
 Alpha virt. eigenvalues --    7.26712   7.32422   7.33328   7.34466   7.36247
 Alpha virt. eigenvalues --    7.36507   7.39866   7.50194   7.59024   7.62945
 Alpha virt. eigenvalues --    7.68306   7.78115   7.84308   7.88751   7.90708
 Alpha virt. eigenvalues --    7.98489   8.13963   8.82546  15.75116  16.29774
 Alpha virt. eigenvalues --   17.53768  19.09852
          Condensed to atoms (all electrons):
               1          2          3          4          5          6
     1  C    5.071865   0.485154   0.366542   0.007432   0.227497   0.002008
     2  O    0.485154   8.362593  -0.125577  -0.000587  -0.066707   0.000027
     3  N    0.366542  -0.125577   6.289770   0.013155  -0.034935  -0.001617
     4  O    0.007432  -0.000587   0.013155   7.897686  -0.003869   0.296897
     5  H    0.227497  -0.066707  -0.034935  -0.003869   0.287777   0.001088
     6  H    0.002008   0.000027  -0.001617   0.296897   0.001088   0.470815
     7  H    0.001995   0.000026  -0.001602   0.296750   0.001086   0.004980
     8  H   -0.073005  -0.012670   0.402403  -0.069461   0.002855   0.003181
     9  H   -0.045230   0.015404   0.422193  -0.003873   0.004010   0.000179
               7          8          9
     1  C    0.001995  -0.073005  -0.045230
     2  O    0.000026  -0.012670   0.015404
     3  N   -0.001602   0.402403   0.422193
     4  O    0.296750  -0.069461  -0.003873
     5  H    0.001086   0.002855   0.004010
     6  H    0.004980   0.003181   0.000179
     7  H    0.471158   0.003142   0.000175
     8  H    0.003142   0.532158  -0.102144
     9  H    0.000175  -0.102144   0.582377
 Mulliken charges:
               1
     1  C   -0.044257
     2  O   -0.657662
     3  N   -0.330331
     4  O   -0.434130
     5  H    0.581198
     6  H    0.222441
     7  H    0.222290
     8  H    0.313541
     9  H    0.126910
 Sum of Mulliken charges =  -0.00000
 Mulliken charges with hydrogens summed into heavy atoms:
               1
     1  C    0.536941
     2  O   -0.657662
     3  N    0.110120
     4  O    0.010601
 Electronic spatial extent (au):  <R**2>=            493.9507
 Charge=             -0.0000 electrons
 Dipole moment (field-independent basis, Debye):
    X=             -6.8775    Y=              1.2367    Z=             -0.0006  Tot=              6.9878
 Quadrupole moment (field-independent basis, Debye-Ang):
   XX=            -23.9412   YY=            -22.3627   ZZ=            -23.1426
   XY=             -0.5825   XZ=             -0.0029   YZ=              0.0159
 Traceless Quadrupole moment (field-independent basis, Debye-Ang):
   XX=             -0.7924   YY=              0.7861   ZZ=              0.0062
   XY=             -0.5825   XZ=             -0.0029   YZ=              0.0159
 Octapole moment (field-independent basis, Debye-Ang**2):
  XXX=            -82.0027  YYY=              5.4802  ZZZ=              0.0143  XYY=              0.9717
  XXY=              8.3363  XXZ=             -0.0382  XZZ=            -10.2700  YZZ=             -0.9708
  YYZ=             -0.0034  XYZ=             -0.0400
 Hexadecapole moment (field-independent basis, Debye-Ang**3):
 XXXX=           -399.0598 YYYY=            -52.3720 ZZZZ=            -24.2966 XXXY=             -2.6403
 XXXZ=              0.1370 YYYX=              3.1726 YYYZ=              0.0114 ZZZX=             -0.0227
 ZZZY=              0.0193 XXYY=            -98.6384 XXZZ=            -62.0798 YYZZ=            -16.1988
 XXYZ=              0.1320 YYXZ=              0.0082 ZZXY=              0.6593
 N-N= 1.171423106091D+02 E-N=-8.130099424267D+02  KE= 2.447719689546D+02
 Calling FoFJK, ICntrl=  10002127 FMM=F ISym2X=0 I1Cent= 0 IOpClX= 0 NMat=1 NMatS=1 NMatT=0.
 ***** Axes restored to original set *****
 -------------------------------------------------------------------
 Center     Atomic                   Forces (Hartrees/Bohr)
 Number     Number              X              Y              Z
 -------------------------------------------------------------------
      1        6          -0.007393254    0.004449565   -0.000001949
      2        8           0.014113271   -0.005830307    0.000009760
      3        7           0.007894366   -0.015592094    0.000005237
      4        8          -0.009483802    0.001638394    0.000024658
      5        1           0.002208968    0.006277175    0.000002658
      6        1           0.001368180   -0.001743519   -0.003437392
      7        1           0.001401670   -0.001694588    0.003427400
      8        1          -0.021148529   -0.004335119   -0.000039221
      9        1           0.011039130    0.016830492    0.000008848
 -------------------------------------------------------------------
 Cartesian Forces:  Max     0.021148529 RMS     0.007827951

 GradGradGradGradGradGradGradGradGradGradGradGradGradGradGradGradGradGrad
 Berny optimization.
 FormGI is forming the generalized inverse of G from B-inverse, IUseBI=4.
 Internal  Forces:  Max     0.028472474 RMS     0.008071542
 Search for a local minimum.
 Step number   1 out of a maximum of   37
 All quantities printed in internal units (Hartrees-Bohrs-Radians)
 Mixed Optimization -- RFO/linear search
 Second derivative matrix not updated -- first step.
 ITU=  0
     Eigenvalues ---    0.00230   0.01233   0.01948   0.02305   0.02305
     Eigenvalues ---    0.04014   0.05675   0.13434   0.16000   0.16000
     Eigenvalues ---    0.16000   0.16000   0.22000   0.25000   0.32620
     Eigenvalues ---    0.50521   0.50521   0.54061   0.54065   0.54252
     Eigenvalues ---    0.98155
 RFO step:  Lambda=-4.71994927D-03 EMin= 2.30000000D-03
 Linear search not attempted -- first point.
 Iteration  1 RMS(Cart)=  0.05655805 RMS(Int)=  0.00041371
 Iteration  2 RMS(Cart)=  0.00041974 RMS(Int)=  0.00004905
 Iteration  3 RMS(Cart)=  0.00000006 RMS(Int)=  0.00004905
 Variable       Old X    -DE/DX   Delta X   Delta X   Delta X     New X
                                 (Linear)    (Quad)   (Total)
    R1        2.29387   0.01346   0.00000   0.01365   0.01365   2.30752
    R2        2.55803   0.00178   0.00000   0.00325   0.00325   2.56128
    R3        2.09723  -0.00658   0.00000  -0.01989  -0.01989   2.07734
    R4        1.86044   0.02847   0.00000   0.05584   0.05584   1.91627
    R5        1.86044   0.01968   0.00000   0.03860   0.03860   1.89904
    R6        1.82676  -0.00388   0.00000  -0.00711  -0.00711   1.81965
    R7        1.82672  -0.00387   0.00000  -0.00709  -0.00709   1.81963
    R8        3.47831   0.00679   0.00000   0.11046   0.11046   3.58876
    A1        2.14766   0.01170   0.00000   0.05208   0.05208   2.19974
    A2        2.15515  -0.00484   0.00000  -0.01988  -0.01988   2.13528
    A3        1.98037  -0.00687   0.00000  -0.03220  -0.03220   1.94816
    A4        2.09440   0.00212   0.00000   0.01285   0.01285   2.10724
    A5        2.09440  -0.00496   0.00000  -0.03014  -0.03014   2.06426
    A6        2.09440   0.00285   0.00000   0.01729   0.01729   2.11169
    A7        1.82717  -0.00092   0.00000  -0.00015  -0.00030   1.82686
    A8        1.99384   0.00076   0.00000   0.01186   0.01174   2.00558
    A9        2.00039   0.00150   0.00000   0.01333   0.01323   2.01362
   A10        2.81702   0.00263   0.00000   0.01034   0.01034   2.82736
    D1        3.14159  -0.00000   0.00000  -0.00006  -0.00006   3.14153
    D2       -0.00000   0.00000   0.00000   0.00002   0.00002   0.00002
    D3       -0.00003  -0.00000   0.00000  -0.00001  -0.00001  -0.00004
    D4        3.14157   0.00000   0.00000   0.00007   0.00007  -3.14155
    D5        0.00609  -0.00000   0.00000  -0.00027  -0.00027   0.00583
    D6       -3.13550  -0.00001   0.00000  -0.00035  -0.00035  -3.13585
    D7        2.19804   0.00126   0.00000   0.02382   0.02384   2.22189
    D8        2.08296  -0.00029   0.00000  -0.01094  -0.01103   2.07193
    D9       -2.09175   0.00027   0.00000   0.00899   0.00909  -2.08267
         Item               Value     Threshold  Converged?
 Maximum Force            0.028472     0.000450     NO 
 RMS     Force            0.008072     0.000300     NO 
 Maximum Displacement     0.123875     0.001800     NO 
 RMS     Displacement     0.056549     0.001200     NO 
 Predicted change in Energy=-2.417516D-03
 GradGradGradGradGradGradGradGradGradGradGradGradGradGradGradGradGradGrad

                          Input orientation:                          
 ---------------------------------------------------------------------
 Center     Atomic      Atomic             Coordinates (Angstroms)
 Number     Number       Type             X           Y           Z
 ---------------------------------------------------------------------
      1          6           0        1.071971   -0.284212   -0.000188
      2          8           0        2.290865   -0.211109    0.000937
      3          7           0        0.210432    0.762105   -0.000832
      4          8           0       -2.487920   -0.246201   -0.000178
      5          1           0        0.540536   -1.246497   -0.000830
      6          1           0       -3.040316   -0.049694    0.763662
      7          1           0       -3.046721   -0.055473   -0.760807
      8          1           0       -0.791862    0.608160   -0.001820
      9          1           0        0.591088    1.692148   -0.000374
 ---------------------------------------------------------------------
                    Distance matrix (angstroms):
                    1          2          3          4          5
     1  C    0.000000
     2  O    1.221085   0.000000
     3  N    1.355370   2.296813   0.000000
     4  O    3.560093   4.778914   2.880587   0.000000
     5  H    1.099280   2.033638   2.035546   3.189379   0.000000
     6  H    4.189197   5.387885   3.436689   0.962916   3.852180
     7  H    4.194578   5.393914   3.443115   0.962908   3.855453
     8  H    2.066446   3.189736   1.014047   1.899091   2.283646
     9  H    2.034022   2.551789   1.004928   3.638336   2.939080
                    6          7          8          9
     6  H    0.000000
     7  H    1.524493   0.000000
     8  H    2.464606   2.469992   0.000000
     9  H    4.099374   4.106835   1.757152   0.000000
 Stoichiometry    CH5NO2
 Framework group  C1[X(CH5NO2)]
 Deg. of freedom    21
 Full point group                 C1      NOp   1
 Largest Abelian subgroup         C1      NOp   1
 Largest concise Abelian subgroup C1      NOp   1
                         Standard orientation:                         
 ---------------------------------------------------------------------
 Center     Atomic      Atomic             Coordinates (Angstroms)
 Number     Number       Type             X           Y           Z
 ---------------------------------------------------------------------
      1          6           0        1.053503   -0.315882   -0.000359
      2          8           0        2.272707   -0.248126    0.000622
      3          7           0        0.196561    0.734202   -0.000676
      4          8           0       -2.506186   -0.262261    0.000125
      5          1           0        0.517854   -1.275828   -0.001127
      6          1           0       -3.057616   -0.063490    0.764077
      7          1           0       -3.064244   -0.068929   -0.760392
      8          1           0       -0.806398    0.584654   -0.001565
      9          1           0        0.581292    1.662567   -0.000080
 ---------------------------------------------------------------------
 Rotational constants (GHZ):          30.1352424           2.3211102           2.1768592
 Standard basis: Aug-CC-pVTZ (5D, 7F)
 There are   345 symmetry adapted cartesian basis functions of A   symmetry.
 There are   299 symmetry adapted basis functions of A   symmetry.
   299 basis functions,   423 primitive gaussians,   345 cartesian basis functions
    17 alpha electrons       17 beta electrons
       nuclear repulsion energy       115.5970961445 Hartrees.
 NAtoms=    9 NActive=    9 NUniq=    9 SFac= 1.00D+00 NAtFMM=   60 NAOKFM=F Big=F
 Integral buffers will be    131072 words long.
 Raffenetti 1 integral format.
 Two-electron integral symmetry is turned on.
 One-electron integrals computed using PRISM.
 NBasis=   299 RedAO= T EigKep=  5.03D-05  NBF=   299
 NBsUse=   299 1.00D-06 EigRej= -1.00D+00 NBFU=   299
 Initial guess from the checkpoint file:  "/scr/Gau-98132.chk"
 B after Tr=    -0.000000   -0.000000   -0.000000
         Rot=    0.999999   -0.000110   -0.000009    0.001102 Ang=  -0.13 deg.
 ExpMin= 2.53D-02 ExpMax= 1.53D+04 ExpMxC= 5.22D+02 IAcc=3 IRadAn=         5 AccDes= 0.00D+00
 Harris functional with IExCor=  205 and IRadAn=       5 diagonalized for initial guess.
 HarFok:  IExCor=  205 AccDes= 0.00D+00 IRadAn=         5 IDoV= 1 UseB2=F ITyADJ=14
 ICtDFT=  3500011 ScaDFX=  1.000000  1.000000  1.000000  1.000000
 FoFCou: FMM=F IPFlag=           0 FMFlag=      100000 FMFlg1=           0
         NFxFlg=           0 DoJE=T BraDBF=F KetDBF=T FulRan=T
         wScrn=  0.000000 ICntrl=       500 IOpCl=  0 I1Cent=   200000004 NGrid=           0
         NMat0=    1 NMatS0=      1 NMatT0=    0 NMatD0=    1 NMtDS0=    0 NMtDT0=    0
 Petite list used in FoFCou.
 Keep R1 ints in memory in canonical form, NReq=1026496050.
 Requested convergence on RMS density matrix=1.00D-08 within 128 cycles.
 Requested convergence on MAX density matrix=1.00D-06.
 Requested convergence on             energy=1.00D-06.
 No special actions if energy rises.
 SCF Done:  E(RHF) =  -245.068731286     A.U. after   10 cycles
            NFock= 10  Conv=0.69D-08     -V/T= 2.0017
 ExpMin= 2.53D-02 ExpMax= 1.53D+04 ExpMxC= 5.22D+02 IAcc=3 IRadAn=         5 AccDes= 0.00D+00
 HarFok:  IExCor=  205 AccDes= 0.00D+00 IRadAn=         5 IDoV=-2 UseB2=F ITyADJ=14
 ICtDFT= 12500011 ScaDFX=  1.000000  1.000000  1.000000  1.000000
 Range of M.O.s used for correlation:     5   299
 NBasis=   299 NAE=    17 NBE=    17 NFC=     4 NFV=     0
 NROrb=    295 NOA=    13 NOB=    13 NVA=   282 NVB=   282

 **** Warning!!: The largest alpha MO coefficient is  0.29436957D+02

 Disk-based method using ON**2 memory for 13 occupieds at a time.
 Estimated scratch disk usage=   989956539 words.
 Actual    scratch disk usage=   906814395 words.
 JobTyp=1 Pass  1:  I=   5 to  17 NPSUse= 40 ParTrn=T ParDer=T DoDerP=T.
 (rs|ai) integrals will be sorted in core.
 Spin components of T(2) and E(2):
     alpha-alpha T2 =       0.3052452038D-01 E2=     -0.1103470258D+00
     alpha-beta  T2 =       0.1719451620D+00 E2=     -0.6681476607D+00
     beta-beta   T2 =       0.3052452038D-01 E2=     -0.1103470258D+00
 ANorm=    0.1110402721D+01
 E2 =    -0.8888417123D+00 EUMP2 =    -0.24595757299875D+03
          IDoAtm=111111111
          Differentiating once with respect to electric field.
                with respect to dipole field.
          Differentiating once with respect to nuclear coordinates.
 Keep R1 ints in memory in canonical form, NReq=1026497903.
          There are     1 degrees of freedom in the 1st order CPHF.  IDoFFX=0 NUNeed=     1.
 LinEq1:  Iter=  0 NonCon=     1 RMS=3.47D-03 Max=9.30D-02 NDo=     1
 AX will form     1 AO Fock derivatives at one time.
 LinEq1:  Iter=  1 NonCon=     1 RMS=9.35D-04 Max=1.63D-02 NDo=     1
 LinEq1:  Iter=  2 NonCon=     1 RMS=3.75D-04 Max=6.41D-03 NDo=     1
 LinEq1:  Iter=  3 NonCon=     1 RMS=1.54D-04 Max=2.66D-03 NDo=     1
 LinEq1:  Iter=  4 NonCon=     1 RMS=3.77D-05 Max=4.79D-04 NDo=     1
 LinEq1:  Iter=  5 NonCon=     1 RMS=6.66D-06 Max=1.06D-04 NDo=     1
 LinEq1:  Iter=  6 NonCon=     1 RMS=1.95D-06 Max=2.78D-05 NDo=     1
 LinEq1:  Iter=  7 NonCon=     1 RMS=7.54D-07 Max=9.57D-06 NDo=     1
 LinEq1:  Iter=  8 NonCon=     1 RMS=1.90D-07 Max=3.08D-06 NDo=     1
 LinEq1:  Iter=  9 NonCon=     1 RMS=5.33D-08 Max=1.34D-06 NDo=     1
 LinEq1:  Iter= 10 NonCon=     1 RMS=2.06D-08 Max=2.69D-07 NDo=     1
 LinEq1:  Iter= 11 NonCon=     1 RMS=6.81D-09 Max=8.88D-08 NDo=     1
 LinEq1:  Iter= 12 NonCon=     1 RMS=1.28D-09 Max=1.52D-08 NDo=     1
 LinEq1:  Iter= 13 NonCon=     1 RMS=2.03D-10 Max=1.93D-09 NDo=     1
 LinEq1:  Iter= 14 NonCon=     0 RMS=3.41D-11 Max=3.19D-10 NDo=     1
 Linear equations converged to 1.000D-10 1.000D-09 after    14 iterations.
 End of Minotr F.D. properties file   721 does not exist.
 End of Minotr F.D. properties file   722 does not exist.
 End of Minotr F.D. properties file   788 does not exist.
 Calling FoFJK, ICntrl=  10002127 FMM=F ISym2X=0 I1Cent= 0 IOpClX= 0 NMat=1 NMatS=1 NMatT=0.
 ***** Axes restored to original set *****
 -------------------------------------------------------------------
 Center     Atomic                   Forces (Hartrees/Bohr)
 Number     Number              X              Y              Z
 -------------------------------------------------------------------
      1        6          -0.003033472   -0.001820280   -0.000006894
      2        8          -0.000511264    0.002148876    0.000001612
      3        7           0.001192922    0.000958087    0.000010855
      4        8          -0.002614659    0.001357248    0.000018189
      5        1           0.000149656   -0.000884969    0.000001131
      6        1          -0.000353896   -0.000868918   -0.000369734
      7        1          -0.000325790   -0.000845358    0.000369322
      8        1           0.005350442   -0.000986445   -0.000020892
      9        1           0.000146060    0.000941759   -0.000003589
 -------------------------------------------------------------------
 Cartesian Forces:  Max     0.005350442 RMS     0.001511722

 GradGradGradGradGradGradGradGradGradGradGradGradGradGradGradGradGradGrad
 Berny optimization.
 Using GEDIIS/GDIIS optimizer.
 FormGI is forming the generalized inverse of G from B-inverse, IUseBI=4.
 Internal  Forces:  Max     0.003733826 RMS     0.001329847
 Search for a local minimum.
 Step number   2 out of a maximum of   37
 All quantities printed in internal units (Hartrees-Bohrs-Radians)
 Mixed Optimization -- RFO/linear search
 Update second derivatives using D2CorX and points    1    2
 DE= -2.31D-03 DEPred=-2.42D-03 R= 9.55D-01
 TightC=F SS=  1.41D+00  RLast= 1.56D-01 DXNew= 5.0454D-01 4.6680D-01
 Trust test= 9.55D-01 RLast= 1.56D-01 DXMaxT set to 4.67D-01
 ITU=  1  0
 Use linear search instead of GDIIS.
     Eigenvalues ---    0.00230   0.01233   0.01935   0.02305   0.02305
     Eigenvalues ---    0.03761   0.05030   0.13517   0.15875   0.16000
     Eigenvalues ---    0.16000   0.16215   0.24410   0.25078   0.32894
     Eigenvalues ---    0.49770   0.52503   0.53991   0.54063   0.55434
     Eigenvalues ---    0.98389
 RFO step:  Lambda=-3.56985928D-04 EMin= 2.29999701D-03
 Quartic linear search produced a step of  0.00107.
 Iteration  1 RMS(Cart)=  0.02013711 RMS(Int)=  0.00007915
 Iteration  2 RMS(Cart)=  0.00010901 RMS(Int)=  0.00005508
 Iteration  3 RMS(Cart)=  0.00000001 RMS(Int)=  0.00005508
 Variable       Old X    -DE/DX   Delta X   Delta X   Delta X     New X
                                 (Linear)    (Quad)   (Total)
    R1        2.30752  -0.00038   0.00001   0.00055   0.00056   2.30808
    R2        2.56128  -0.00173   0.00000  -0.00296  -0.00296   2.55832
    R3        2.07734   0.00070  -0.00002   0.00078   0.00076   2.07810
    R4        1.91627  -0.00183   0.00006   0.00022   0.00028   1.91656
    R5        1.89904   0.00093   0.00004   0.00449   0.00453   1.90357
    R6        1.81965  -0.00027  -0.00001  -0.00098  -0.00099   1.81866
    R7        1.81963  -0.00027  -0.00001  -0.00099  -0.00100   1.81864
    R8        3.58876   0.00310   0.00012   0.06195   0.06206   3.65083
    A1        2.19974  -0.00373   0.00006  -0.01337  -0.01332   2.18642
    A2        2.13528   0.00129  -0.00002   0.00349   0.00347   2.13875
    A3        1.94816   0.00245  -0.00003   0.00989   0.00985   1.95802
    A4        2.10724  -0.00082   0.00001  -0.00422  -0.00421   2.10304
    A5        2.06426   0.00062  -0.00003   0.00179   0.00176   2.06602
    A6        2.11169   0.00020   0.00002   0.00243   0.00245   2.11413
    A7        1.82686  -0.00048  -0.00000   0.00304   0.00288   1.82974
    A8        2.00558   0.00051   0.00001   0.01111   0.01097   2.01656
    A9        2.01362   0.00108   0.00001   0.01220   0.01210   2.02571
   A10        2.82736   0.00213   0.00001   0.00921   0.00922   2.83658
    D1        3.14153   0.00000  -0.00000   0.00002   0.00002   3.14156
    D2        0.00002   0.00000   0.00000   0.00011   0.00011   0.00014
    D3       -0.00004  -0.00000  -0.00000  -0.00009  -0.00009  -0.00013
    D4       -3.14155  -0.00000   0.00000   0.00000   0.00000  -3.14155
    D5        0.00583  -0.00000  -0.00000  -0.00023  -0.00023   0.00560
    D6       -3.13585  -0.00000  -0.00000  -0.00032  -0.00032  -3.13617
    D7        2.22189   0.00103   0.00003   0.02534   0.02542   2.24731
    D8        2.07193  -0.00035  -0.00001  -0.01432  -0.01442   2.05751
    D9       -2.08267   0.00033   0.00001   0.00963   0.00973  -2.07294
         Item               Value     Threshold  Converged?
 Maximum Force            0.003734     0.000450     NO 
 RMS     Force            0.001330     0.000300     NO 
 Maximum Displacement     0.050137     0.001800     NO 
 RMS     Displacement     0.020159     0.001200     NO 
 Predicted change in Energy=-1.798782D-04
 GradGradGradGradGradGradGradGradGradGradGradGradGradGradGradGradGradGrad

                          Input orientation:                          
 ---------------------------------------------------------------------
 Center     Atomic      Atomic             Coordinates (Angstroms)
 Number     Number       Type             X           Y           Z
 ---------------------------------------------------------------------
      1          6           0        1.080125   -0.286028    0.000050
      2          8           0        2.298653   -0.202560    0.001437
      3          7           0        0.224638    0.763222   -0.001080
      4          8           0       -2.511757   -0.242242   -0.000925
      5          1           0        0.553336   -1.251324   -0.000324
      6          1           0       -3.064833   -0.056415    0.764433
      7          1           0       -3.073252   -0.059614   -0.760891
      8          1           0       -0.777899    0.609876   -0.002239
      9          1           0        0.609061    1.694310   -0.000892
 ---------------------------------------------------------------------
                    Distance matrix (angstroms):
                    1          2          3          4          5
     1  C    0.000000
     2  O    1.221384   0.000000
     3  N    1.353804   2.287855   0.000000
     4  O    3.592149   4.810574   2.915272   0.000000
     5  H    1.099683   2.036183   2.041186   3.226925   0.000000
     6  H    4.221099   5.419456   3.475404   0.962391   3.886362
     7  H    4.228574   5.427610   3.482880   0.962382   3.892400
     8  H    2.062741   3.182018   1.014197   1.931934   2.288287
     9  H    2.035594   2.540244   1.007326   3.672838   2.946161
                    6          7          8          9
     6  H    0.000000
     7  H    1.525350   0.000000
     8  H    2.502358   2.508469   0.000000
     9  H    4.141046   4.148889   1.760584   0.000000
 Stoichiometry    CH5NO2
 Framework group  C1[X(CH5NO2)]
 Deg. of freedom    21
 Full point group                 C1      NOp   1
 Largest Abelian subgroup         C1      NOp   1
 Largest concise Abelian subgroup C1      NOp   1
                         Standard orientation:                         
 ---------------------------------------------------------------------
 Center     Atomic      Atomic             Coordinates (Angstroms)
 Number     Number       Type             X           Y           Z
 ---------------------------------------------------------------------
      1          6           0        1.060623   -0.322264   -0.000461
      2          8           0        2.279653   -0.246468    0.000571
      3          7           0        0.211758    0.732351   -0.000508
      4          8           0       -2.530912   -0.255868   -0.000173
      5          1           0        0.527769   -1.284224   -0.001384
      6          1           0       -3.082549   -0.067142    0.765514
      7          1           0       -3.091503   -0.069135   -0.759808
      8          1           0       -0.791725    0.585320   -0.001438
      9          1           0        0.602035    1.661000    0.000251
 ---------------------------------------------------------------------
 Rotational constants (GHZ):          30.1999544           2.2885222           2.1485231
 Standard basis: Aug-CC-pVTZ (5D, 7F)
 There are   345 symmetry adapted cartesian basis functions of A   symmetry.
 There are   299 symmetry adapted basis functions of A   symmetry.
   299 basis functions,   423 primitive gaussians,   345 cartesian basis functions
    17 alpha electrons       17 beta electrons
       nuclear repulsion energy       115.3047476770 Hartrees.
 NAtoms=    9 NActive=    9 NUniq=    9 SFac= 1.00D+00 NAtFMM=   60 NAOKFM=F Big=F
 Integral buffers will be    131072 words long.
 Raffenetti 1 integral format.
 Two-electron integral symmetry is turned on.
 One-electron integrals computed using PRISM.
 NBasis=   299 RedAO= T EigKep=  5.08D-05  NBF=   299
 NBsUse=   299 1.00D-06 EigRej= -1.00D+00 NBFU=   299
 Initial guess from the checkpoint file:  "/scr/Gau-98132.chk"
 B after Tr=     0.000000    0.000000    0.000000
         Rot=    0.999999   -0.000230   -0.000013    0.001048 Ang=  -0.12 deg.
 ExpMin= 2.53D-02 ExpMax= 1.53D+04 ExpMxC= 5.22D+02 IAcc=3 IRadAn=         5 AccDes= 0.00D+00
 Harris functional with IExCor=  205 and IRadAn=       5 diagonalized for initial guess.
 HarFok:  IExCor=  205 AccDes= 0.00D+00 IRadAn=         5 IDoV= 1 UseB2=F ITyADJ=14
 ICtDFT=  3500011 ScaDFX=  1.000000  1.000000  1.000000  1.000000
 FoFCou: FMM=F IPFlag=           0 FMFlag=      100000 FMFlg1=           0
         NFxFlg=           0 DoJE=T BraDBF=F KetDBF=T FulRan=T
         wScrn=  0.000000 ICntrl=       500 IOpCl=  0 I1Cent=   200000004 NGrid=           0
         NMat0=    1 NMatS0=      1 NMatT0=    0 NMatD0=    1 NMtDS0=    0 NMtDT0=    0
 Petite list used in FoFCou.
 Keep R1 ints in memory in canonical form, NReq=1026496050.
 Requested convergence on RMS density matrix=1.00D-08 within 128 cycles.
 Requested convergence on MAX density matrix=1.00D-06.
 Requested convergence on             energy=1.00D-06.
 No special actions if energy rises.
 SCF Done:  E(RHF) =  -245.069272201     A.U. after    9 cycles
            NFock=  9  Conv=0.40D-08     -V/T= 2.0017
 ExpMin= 2.53D-02 ExpMax= 1.53D+04 ExpMxC= 5.22D+02 IAcc=3 IRadAn=         5 AccDes= 0.00D+00
 HarFok:  IExCor=  205 AccDes= 0.00D+00 IRadAn=         5 IDoV=-2 UseB2=F ITyADJ=14
 ICtDFT= 12500011 ScaDFX=  1.000000  1.000000  1.000000  1.000000
 Range of M.O.s used for correlation:     5   299
 NBasis=   299 NAE=    17 NBE=    17 NFC=     4 NFV=     0
 NROrb=    295 NOA=    13 NOB=    13 NVA=   282 NVB=   282

 **** Warning!!: The largest alpha MO coefficient is  0.28672065D+02

 Disk-based method using ON**2 memory for 13 occupieds at a time.
 Estimated scratch disk usage=   989331551 words.
 Actual    scratch disk usage=   906258527 words.
 JobTyp=1 Pass  1:  I=   5 to  17 NPSUse= 40 ParTrn=T ParDer=T DoDerP=T.
 (rs|ai) integrals will be sorted in core.
 Spin components of T(2) and E(2):
     alpha-alpha T2 =       0.3050338049D-01 E2=     -0.1102852330D+00
     alpha-beta  T2 =       0.1719201690D+00 E2=     -0.6680031378D+00
     beta-beta   T2 =       0.3050338049D-01 E2=     -0.1102852330D+00
 ANorm=    0.1110372429D+01
 E2 =    -0.8885736038D+00 EUMP2 =    -0.24595784580503D+03
          IDoAtm=111111111
          Differentiating once with respect to electric field.
                with respect to dipole field.
          Differentiating once with respect to nuclear coordinates.
 Keep R1 ints in memory in canonical form, NReq=1026497903.
          There are     1 degrees of freedom in the 1st order CPHF.  IDoFFX=0 NUNeed=     1.
 LinEq1:  Iter=  0 NonCon=     1 RMS=3.47D-03 Max=9.27D-02 NDo=     1
 AX will form     1 AO Fock derivatives at one time.
 LinEq1:  Iter=  1 NonCon=     1 RMS=9.35D-04 Max=1.62D-02 NDo=     1
 LinEq1:  Iter=  2 NonCon=     1 RMS=3.75D-04 Max=6.40D-03 NDo=     1
 LinEq1:  Iter=  3 NonCon=     1 RMS=1.54D-04 Max=2.63D-03 NDo=     1
 LinEq1:  Iter=  4 NonCon=     1 RMS=3.77D-05 Max=4.83D-04 NDo=     1
 LinEq1:  Iter=  5 NonCon=     1 RMS=6.67D-06 Max=1.01D-04 NDo=     1
 LinEq1:  Iter=  6 NonCon=     1 RMS=1.96D-06 Max=2.85D-05 NDo=     1
 LinEq1:  Iter=  7 NonCon=     1 RMS=7.65D-07 Max=9.67D-06 NDo=     1
 LinEq1:  Iter=  8 NonCon=     1 RMS=1.98D-07 Max=3.57D-06 NDo=     1
 LinEq1:  Iter=  9 NonCon=     1 RMS=5.53D-08 Max=1.41D-06 NDo=     1
 LinEq1:  Iter= 10 NonCon=     1 RMS=2.09D-08 Max=2.43D-07 NDo=     1
 LinEq1:  Iter= 11 NonCon=     1 RMS=6.93D-09 Max=8.50D-08 NDo=     1
 LinEq1:  Iter= 12 NonCon=     1 RMS=1.28D-09 Max=1.51D-08 NDo=     1
 LinEq1:  Iter= 13 NonCon=     1 RMS=2.03D-10 Max=1.92D-09 NDo=     1
 LinEq1:  Iter= 14 NonCon=     0 RMS=3.40D-11 Max=3.16D-10 NDo=     1
 Linear equations converged to 1.000D-10 1.000D-09 after    14 iterations.
 End of Minotr F.D. properties file   721 does not exist.
 End of Minotr F.D. properties file   722 does not exist.
 End of Minotr F.D. properties file   788 does not exist.
 Calling FoFJK, ICntrl=  10002127 FMM=F ISym2X=0 I1Cent= 0 IOpClX= 0 NMat=1 NMatS=1 NMatT=0.
 ***** Axes restored to original set *****
 -------------------------------------------------------------------
 Center     Atomic                   Forces (Hartrees/Bohr)
 Number     Number              X              Y              Z
 -------------------------------------------------------------------
      1        6          -0.000232938   -0.000086226    0.000009289
      2        8          -0.000026493    0.000174092   -0.000003643
      3        7          -0.001916130    0.001638709    0.000007895
      4        8          -0.001034216    0.001213848    0.000022264
      5        1           0.000058904   -0.000160199   -0.000004050
      6        1          -0.000658614   -0.000651294   -0.000240174
      7        1          -0.000629583   -0.000630863    0.000238275
      8        1           0.005150897   -0.000170338   -0.000026491
      9        1          -0.000711828   -0.001327729   -0.000003366
 -------------------------------------------------------------------
 Cartesian Forces:  Max     0.005150897 RMS     0.001211370

 GradGradGradGradGradGradGradGradGradGradGradGradGradGradGradGradGradGrad
 Berny optimization.
 Using GEDIIS/GDIIS optimizer.
 FormGI is forming the generalized inverse of G from B-inverse, IUseBI=4.
 Internal  Forces:  Max     0.002759872 RMS     0.000868843
 Search for a local minimum.
 Step number   3 out of a maximum of   37
 All quantities printed in internal units (Hartrees-Bohrs-Radians)
 Mixed Optimization -- En-DIIS/RFO-DIIS
 Update second derivatives using D2CorX and points    1    2    3
 DE= -2.73D-04 DEPred=-1.80D-04 R= 1.52D+00
 TightC=F SS=  1.41D+00  RLast= 7.42D-02 DXNew= 7.8506D-01 2.2261D-01
 Trust test= 1.52D+00 RLast= 7.42D-02 DXMaxT set to 4.67D-01
 ITU=  1  1  0
 Use linear search instead of GDIIS.
     Eigenvalues ---    0.00230   0.01233   0.01645   0.01935   0.02305
     Eigenvalues ---    0.02305   0.04103   0.13494   0.15623   0.16000
     Eigenvalues ---    0.16100   0.16377   0.23821   0.28097   0.33112
     Eigenvalues ---    0.50752   0.53868   0.54063   0.54680   0.60863
     Eigenvalues ---    0.98433
 RFO step:  Lambda=-2.55437379D-04 EMin= 2.29957120D-03
 Quartic linear search produced a step of  1.22527.
 Iteration  1 RMS(Cart)=  0.04694215 RMS(Int)=  0.00052705
 Iteration  2 RMS(Cart)=  0.00062536 RMS(Int)=  0.00042039
 Iteration  3 RMS(Cart)=  0.00000032 RMS(Int)=  0.00042039
 Variable       Old X    -DE/DX   Delta X   Delta X   Delta X     New X
                                 (Linear)    (Quad)   (Total)
    R1        2.30808  -0.00001   0.00069   0.00107   0.00176   2.30985
    R2        2.55832  -0.00007  -0.00363   0.00163  -0.00200   2.55632
    R3        2.07810   0.00011   0.00093  -0.00168  -0.00075   2.07735
    R4        1.91656  -0.00276   0.00035  -0.00664  -0.00629   1.91026
    R5        1.90357  -0.00150   0.00555  -0.00510   0.00046   1.90403
    R6        1.81866   0.00006  -0.00122   0.00005  -0.00116   1.81749
    R7        1.81864   0.00006  -0.00122   0.00005  -0.00117   1.81747
    R8        3.65083   0.00211   0.07605   0.06326   0.13930   3.79013
    A1        2.18642  -0.00036  -0.01632   0.00875  -0.00757   2.17885
    A2        2.13875   0.00005   0.00425  -0.00393   0.00032   2.13906
    A3        1.95802   0.00031   0.01207  -0.00482   0.00725   1.96527
    A4        2.10304   0.00020  -0.00516   0.00634   0.00119   2.10422
    A5        2.06602   0.00004   0.00216  -0.00341  -0.00125   2.06477
    A6        2.11413  -0.00024   0.00300  -0.00293   0.00006   2.11420
    A7        1.82974  -0.00071   0.00352  -0.00092   0.00130   1.83103
    A8        2.01656   0.00055   0.01345   0.01659   0.02895   2.04551
    A9        2.02571   0.00103   0.01482   0.01758   0.03147   2.05718
   A10        2.83658   0.00172   0.01130   0.01156   0.02286   2.85944
    D1        3.14156  -0.00000   0.00003  -0.00048  -0.00045   3.14111
    D2        0.00014  -0.00000   0.00014  -0.00024  -0.00010   0.00004
    D3       -0.00013   0.00000  -0.00011   0.00028   0.00017   0.00005
    D4       -3.14155   0.00001   0.00000   0.00052   0.00052  -3.14102
    D5        0.00560   0.00000  -0.00028   0.00007  -0.00021   0.00539
    D6       -3.13617  -0.00000  -0.00039  -0.00017  -0.00057  -3.13674
    D7        2.24731   0.00089   0.03114   0.03421   0.06561   2.31292
    D8        2.05751  -0.00021  -0.01766  -0.01920  -0.03755   2.01996
    D9       -2.07294   0.00020   0.01192   0.01013   0.02274  -2.05020
         Item               Value     Threshold  Converged?
 Maximum Force            0.002760     0.000450     NO 
 RMS     Force            0.000869     0.000300     NO 
 Maximum Displacement     0.122097     0.001800     NO 
 RMS     Displacement     0.047082     0.001200     NO 
 Predicted change in Energy=-2.254210D-04
 GradGradGradGradGradGradGradGradGradGradGradGradGradGradGradGradGradGrad

                          Input orientation:                          
 ---------------------------------------------------------------------
 Center     Atomic      Atomic             Coordinates (Angstroms)
 Number     Number       Type             X           Y           Z
 ---------------------------------------------------------------------
      1          6           0        1.107683   -0.285373    0.001025
      2          8           0        2.326486   -0.192750    0.002704
      3          7           0        0.252986    0.763153   -0.001769
      4          8           0       -2.567318   -0.229279   -0.002865
      5          1           0        0.587987   -1.254056    0.001124
      6          1           0       -3.124205   -0.071392    0.765226
      7          1           0       -3.137864   -0.066623   -0.759837
      8          1           0       -0.746456    0.611610   -0.003454
      9          1           0        0.638773    1.693938   -0.002584
 ---------------------------------------------------------------------
                    Distance matrix (angstroms):
                    1          2          3          4          5
     1  C    0.000000
     2  O    1.222318   0.000000
     3  N    1.352746   2.283237   0.000000
     4  O    3.675431   4.893943   2.989822   0.000000
     5  H    1.099287   2.036848   2.044839   3.317549   0.000000
     6  H    4.305655   5.505106   3.562326   0.961777   3.970254
     7  H    4.318730   5.518740   3.572262   0.961762   3.983845
     8  H    2.059716   3.176476   1.010867   2.005651   2.293789
     9  H    2.034100   2.531402   1.007569   3.738688   2.948435
                    6          7          8          9
     6  H    0.000000
     7  H    1.525131   0.000000
     8  H    2.590570   2.598258   0.000000
     9  H    4.226811   4.235091   1.757924   0.000000
 Stoichiometry    CH5NO2
 Framework group  C1[X(CH5NO2)]
 Deg. of freedom    21
 Full point group                 C1      NOp   1
 Largest Abelian subgroup         C1      NOp   1
 Largest concise Abelian subgroup C1      NOp   1
                         Standard orientation:                         
 ---------------------------------------------------------------------
 Center     Atomic      Atomic             Coordinates (Angstroms)
 Number     Number       Type             X           Y           Z
 ---------------------------------------------------------------------
      1          6           0        1.084380   -0.327956   -0.000548
      2          8           0        2.303853   -0.244609    0.000277
      3          7           0        0.237681    0.727042    0.000077
      4          8           0       -2.590090   -0.243908   -0.001015
      5          1           0        0.557331   -1.292657   -0.002440
      6          1           0       -3.145089   -0.083743    0.767970
      7          1           0       -3.160043   -0.074995   -0.757062
      8          1           0       -0.762885    0.583109   -0.001099
      9          1           0        0.630537    1.654866    0.001276
 ---------------------------------------------------------------------
 Rotational constants (GHZ):          30.5131170           2.2062521           2.0773098
 Standard basis: Aug-CC-pVTZ (5D, 7F)
 There are   345 symmetry adapted cartesian basis functions of A   symmetry.
 There are   299 symmetry adapted basis functions of A   symmetry.
   299 basis functions,   423 primitive gaussians,   345 cartesian basis functions
    17 alpha electrons       17 beta electrons
       nuclear repulsion energy       114.5490959717 Hartrees.
 NAtoms=    9 NActive=    9 NUniq=    9 SFac= 1.00D+00 NAtFMM=   60 NAOKFM=F Big=F
 Integral buffers will be    131072 words long.
 Raffenetti 1 integral format.
 Two-electron integral symmetry is turned on.
 One-electron integrals computed using PRISM.
 NBasis=   299 RedAO= T EigKep=  5.14D-05  NBF=   299
 NBsUse=   299 1.00D-06 EigRej= -1.00D+00 NBFU=   299
 Initial guess from the checkpoint file:  "/scr/Gau-98132.chk"
 B after Tr=     0.000000   -0.000000   -0.000000
         Rot=    0.999999   -0.000736   -0.000034    0.001452 Ang=  -0.19 deg.
 ExpMin= 2.53D-02 ExpMax= 1.53D+04 ExpMxC= 5.22D+02 IAcc=3 IRadAn=         5 AccDes= 0.00D+00
 Harris functional with IExCor=  205 and IRadAn=       5 diagonalized for initial guess.
 HarFok:  IExCor=  205 AccDes= 0.00D+00 IRadAn=         5 IDoV= 1 UseB2=F ITyADJ=14
 ICtDFT=  3500011 ScaDFX=  1.000000  1.000000  1.000000  1.000000
 FoFCou: FMM=F IPFlag=           0 FMFlag=      100000 FMFlg1=           0
         NFxFlg=           0 DoJE=T BraDBF=F KetDBF=T FulRan=T
         wScrn=  0.000000 ICntrl=       500 IOpCl=  0 I1Cent=   200000004 NGrid=           0
         NMat0=    1 NMatS0=      1 NMatT0=    0 NMatD0=    1 NMtDS0=    0 NMtDT0=    0
 Petite list used in FoFCou.
 Keep R1 ints in memory in canonical form, NReq=1026496050.
 Requested convergence on RMS density matrix=1.00D-08 within 128 cycles.
 Requested convergence on MAX density matrix=1.00D-06.
 Requested convergence on             energy=1.00D-06.
 No special actions if energy rises.
 SCF Done:  E(RHF) =  -245.070146453     A.U. after    9 cycles
            NFock=  9  Conv=0.60D-08     -V/T= 2.0017
 ExpMin= 2.53D-02 ExpMax= 1.53D+04 ExpMxC= 5.22D+02 IAcc=3 IRadAn=         5 AccDes= 0.00D+00
 HarFok:  IExCor=  205 AccDes= 0.00D+00 IRadAn=         5 IDoV=-2 UseB2=F ITyADJ=14
 ICtDFT= 12500011 ScaDFX=  1.000000  1.000000  1.000000  1.000000
 Range of M.O.s used for correlation:     5   299
 NBasis=   299 NAE=    17 NBE=    17 NFC=     4 NFV=     0
 NROrb=    295 NOA=    13 NOB=    13 NVA=   282 NVB=   282

 **** Warning!!: The largest alpha MO coefficient is  0.28370796D+02

 Disk-based method using ON**2 memory for 13 occupieds at a time.
 Estimated scratch disk usage=   983059688 words.
 Actual    scratch disk usage=   900690152 words.
 JobTyp=1 Pass  1:  I=   5 to  17 NPSUse= 40 ParTrn=T ParDer=T DoDerP=T.
 (rs|ai) integrals will be sorted in core.
 Spin components of T(2) and E(2):
     alpha-alpha T2 =       0.3045922531D-01 E2=     -0.1101501157D+00
     alpha-beta  T2 =       0.1718340703D+00 E2=     -0.6677036715D+00
     beta-beta   T2 =       0.3045922531D-01 E2=     -0.1101501157D+00
 ANorm=    0.1110293889D+01
 E2 =    -0.8880039029D+00 EUMP2 =    -0.24595815035568D+03
          IDoAtm=111111111
          Differentiating once with respect to electric field.
                with respect to dipole field.
          Differentiating once with respect to nuclear coordinates.
 Keep R1 ints in memory in canonical form, NReq=1026497903.
          There are     1 degrees of freedom in the 1st order CPHF.  IDoFFX=0 NUNeed=     1.
 LinEq1:  Iter=  0 NonCon=     1 RMS=3.47D-03 Max=9.27D-02 NDo=     1
 AX will form     1 AO Fock derivatives at one time.
 LinEq1:  Iter=  1 NonCon=     1 RMS=9.36D-04 Max=1.61D-02 NDo=     1
 LinEq1:  Iter=  2 NonCon=     1 RMS=3.75D-04 Max=6.41D-03 NDo=     1
 LinEq1:  Iter=  3 NonCon=     1 RMS=1.54D-04 Max=2.59D-03 NDo=     1
 LinEq1:  Iter=  4 NonCon=     1 RMS=3.77D-05 Max=4.82D-04 NDo=     1
 LinEq1:  Iter=  5 NonCon=     1 RMS=6.69D-06 Max=9.52D-05 NDo=     1
 LinEq1:  Iter=  6 NonCon=     1 RMS=2.00D-06 Max=3.00D-05 NDo=     1
 LinEq1:  Iter=  7 NonCon=     1 RMS=7.90D-07 Max=9.90D-06 NDo=     1
 LinEq1:  Iter=  8 NonCon=     1 RMS=2.12D-07 Max=4.31D-06 NDo=     1
 LinEq1:  Iter=  9 NonCon=     1 RMS=5.89D-08 Max=1.50D-06 NDo=     1
 LinEq1:  Iter= 10 NonCon=     1 RMS=2.15D-08 Max=2.10D-07 NDo=     1
 LinEq1:  Iter= 11 NonCon=     1 RMS=7.06D-09 Max=7.85D-08 NDo=     1
 LinEq1:  Iter= 12 NonCon=     1 RMS=1.28D-09 Max=1.50D-08 NDo=     1
 LinEq1:  Iter= 13 NonCon=     1 RMS=2.00D-10 Max=1.87D-09 NDo=     1
 LinEq1:  Iter= 14 NonCon=     0 RMS=3.34D-11 Max=3.05D-10 NDo=     1
 Linear equations converged to 1.000D-10 1.000D-09 after    14 iterations.
 End of Minotr F.D. properties file   721 does not exist.
 End of Minotr F.D. properties file   722 does not exist.
 End of Minotr F.D. properties file   788 does not exist.
 Calling FoFJK, ICntrl=  10002127 FMM=F ISym2X=0 I1Cent= 0 IOpClX= 0 NMat=1 NMatS=1 NMatT=0.
 ***** Axes restored to original set *****
 -------------------------------------------------------------------
 Center     Atomic                   Forces (Hartrees/Bohr)
 Number     Number              X              Y              Z
 -------------------------------------------------------------------
      1        6           0.002657428    0.000547004   -0.000070513
      2        8          -0.001054694   -0.000745830    0.000026531
      3        7          -0.001725371    0.001478271    0.000030221
      4        8           0.001028496    0.001182106    0.000029176
      5        1          -0.000269131    0.000024194    0.000022454
      6        1          -0.000829139   -0.000391471   -0.000007196
      7        1          -0.000802058   -0.000377150    0.000002707
      8        1           0.002099720   -0.000159319   -0.000034667
      9        1          -0.001105252   -0.001557806    0.000001287
 -------------------------------------------------------------------
 Cartesian Forces:  Max     0.002657428 RMS     0.000989541

 GradGradGradGradGradGradGradGradGradGradGradGradGradGradGradGradGradGrad
 Berny optimization.
 Using GEDIIS/GDIIS optimizer.
 FormGI is forming the generalized inverse of G from B-inverse, IUseBI=4.
 Internal  Forces:  Max     0.001862281 RMS     0.000730168
 Search for a local minimum.
 Step number   4 out of a maximum of   37
 All quantities printed in internal units (Hartrees-Bohrs-Radians)
 Mixed Optimization -- En-DIIS/RFO-DIIS
 Swapping is turned off.
 Update second derivatives using D2CorX and points    1    2    3    4
 DE= -3.05D-04 DEPred=-2.25D-04 R= 1.35D+00
 TightC=F SS=  1.41D+00  RLast= 1.68D-01 DXNew= 7.8506D-01 5.0338D-01
 Trust test= 1.35D+00 RLast= 1.68D-01 DXMaxT set to 5.03D-01
 ITU=  1  1  1  0
     Eigenvalues ---    0.00230   0.01013   0.01233   0.01934   0.02305
     Eigenvalues ---    0.02306   0.03869   0.13690   0.15559   0.16010
     Eigenvalues ---    0.16214   0.16441   0.23588   0.29594   0.33246
     Eigenvalues ---    0.50829   0.53747   0.54063   0.54420   0.63079
     Eigenvalues ---    0.99236
 En-DIIS/RFO-DIIS/Sim-DIIS IScMMF=       -3 using points:     4    3
 RFO step:  Lambda=-1.24158179D-04.
 DidBck=F Rises=F RFO-DIIS coefs:    1.56594   -0.56594
 Iteration  1 RMS(Cart)=  0.02632847 RMS(Int)=  0.00039541
 Iteration  2 RMS(Cart)=  0.00022597 RMS(Int)=  0.00037508
 Iteration  3 RMS(Cart)=  0.00000004 RMS(Int)=  0.00037508
 Variable       Old X    -DE/DX   Delta X   Delta X   Delta X     New X
                                 (Linear)    (Quad)   (Total)
    R1        2.30985  -0.00111   0.00100  -0.00164  -0.00064   2.30921
    R2        2.55632   0.00098  -0.00113   0.00196   0.00083   2.55714
    R3        2.07735   0.00011  -0.00042   0.00061   0.00019   2.07754
    R4        1.91026  -0.00152  -0.00356  -0.00057  -0.00413   1.90613
    R5        1.90403  -0.00186   0.00026  -0.00237  -0.00211   1.90192
    R6        1.81749   0.00041  -0.00066   0.00086   0.00020   1.81770
    R7        1.81747   0.00041  -0.00066   0.00086   0.00020   1.81766
    R8        3.79013   0.00037   0.07884  -0.00850   0.07034   3.86047
    A1        2.17885   0.00119  -0.00428   0.00537   0.00108   2.17994
    A2        2.13906  -0.00034   0.00018  -0.00052  -0.00034   2.13872
    A3        1.96527  -0.00086   0.00411  -0.00484  -0.00074   1.96453
    A4        2.10422   0.00048   0.00067   0.00211   0.00278   2.10701
    A5        2.06477   0.00017  -0.00071   0.00202   0.00131   2.06607
    A6        2.11420  -0.00064   0.00004  -0.00413  -0.00409   2.11011
    A7        1.83103  -0.00075   0.00073  -0.00158  -0.00202   1.82901
    A8        2.04551   0.00049   0.01638   0.00501   0.02045   2.06596
    A9        2.05718   0.00079   0.01781   0.00515   0.02210   2.07929
   A10        2.85944   0.00107   0.01294   0.00237   0.01531   2.87474
    D1        3.14111   0.00003  -0.00025   0.00171   0.00145  -3.14062
    D2        0.00004   0.00003  -0.00005   0.00167   0.00161   0.00165
    D3        0.00005  -0.00002   0.00010  -0.00147  -0.00137  -0.00132
    D4       -3.14102  -0.00002   0.00030  -0.00151  -0.00121   3.14095
    D5        0.00539   0.00001  -0.00012   0.00056   0.00045   0.00584
    D6       -3.13674   0.00001  -0.00032   0.00061   0.00029  -3.13645
    D7        2.31292   0.00064   0.03713   0.00991   0.04718   2.36010
    D8        2.01996  -0.00009  -0.02125  -0.00283  -0.02471   1.99525
    D9       -2.05020   0.00009   0.01287   0.00532   0.01881  -2.03139
         Item               Value     Threshold  Converged?
 Maximum Force            0.001862     0.000450     NO 
 RMS     Force            0.000730     0.000300     NO 
 Maximum Displacement     0.068409     0.001800     NO 
 RMS     Displacement     0.026361     0.001200     NO 
 Predicted change in Energy=-6.320693D-05
 GradGradGradGradGradGradGradGradGradGradGradGradGradGradGradGradGradGrad

                          Input orientation:                          
 ---------------------------------------------------------------------
 Center     Atomic      Atomic             Coordinates (Angstroms)
 Number     Number       Type             X           Y           Z
 ---------------------------------------------------------------------
      1          6           0        1.126017   -0.284450    0.000541
      2          8           0        2.344308   -0.189618    0.003787
      3          7           0        0.267990    0.761917   -0.002218
      4          8           0       -2.596706   -0.217685   -0.003623
      5          1           0        0.608380   -1.254348    0.001889
      6          1           0       -3.158000   -0.079134    0.765123
      7          1           0       -3.174064   -0.071316   -0.758884
      8          1           0       -0.729270    0.610569   -0.003999
      9          1           0        0.649419    1.693292   -0.003049
 ---------------------------------------------------------------------
                    Distance matrix (angstroms):
                    1          2          3          4          5
     1  C    0.000000
     2  O    1.221980   0.000000
     3  N    1.353183   2.283977   0.000000
     4  O    3.723324   4.941099   3.027558   0.000000
     5  H    1.099387   2.036443   2.044800   3.368572   0.000000
     6  H    4.356552   5.555829   3.610206   0.961883   4.018616
     7  H    4.371825   5.572082   3.621403   0.961866   4.035496
     8  H    2.059896   3.176042   1.008680   2.042872   2.295051
     9  H    2.034360   2.533386   1.006453   3.766850   2.947929
                    6          7          8          9
     6  H    0.000000
     7  H    1.524112   0.000000
     8  H    2.639313   2.647988   0.000000
     9  H    4.269429   4.278335   1.753017   0.000000
 Stoichiometry    CH5NO2
 Framework group  C1[X(CH5NO2)]
 Deg. of freedom    21
 Full point group                 C1      NOp   1
 Largest Abelian subgroup         C1      NOp   1
 Largest concise Abelian subgroup C1      NOp   1
                         Standard orientation:                         
 ---------------------------------------------------------------------
 Center     Atomic      Atomic             Coordinates (Angstroms)
 Number     Number       Type             X           Y           Z
 ---------------------------------------------------------------------
      1          6           0        1.099966   -0.329328   -0.001481
      2          8           0        2.318885   -0.242919    0.000695
      3          7           0        0.249183    0.722941    0.000187
      4          8           0       -2.622210   -0.236852   -0.001199
      5          1           0        0.575644   -1.295628   -0.002745
      6          1           0       -3.181678   -0.096972    0.768637
      7          1           0       -3.199383   -0.084003   -0.755317
      8          1           0       -0.749099    0.578488   -0.000962
      9          1           0        0.637035    1.651658    0.001995
 ---------------------------------------------------------------------
 Rotational constants (GHZ):          30.7833869           2.1613241           2.0386014
 Standard basis: Aug-CC-pVTZ (5D, 7F)
 There are   345 symmetry adapted cartesian basis functions of A   symmetry.
 There are   299 symmetry adapted basis functions of A   symmetry.
   299 basis functions,   423 primitive gaussians,   345 cartesian basis functions
    17 alpha electrons       17 beta electrons
       nuclear repulsion energy       114.1381827870 Hartrees.
 NAtoms=    9 NActive=    9 NUniq=    9 SFac= 1.00D+00 NAtFMM=   60 NAOKFM=F Big=F
 Integral buffers will be    131072 words long.
 Raffenetti 1 integral format.
 Two-electron integral symmetry is turned on.
 One-electron integrals computed using PRISM.
 NBasis=   299 RedAO= T EigKep=  5.16D-05  NBF=   299
 NBsUse=   299 1.00D-06 EigRej= -1.00D+00 NBFU=   299
 Initial guess from the checkpoint file:  "/scr/Gau-98132.chk"
 B after Tr=    -0.000000    0.000000    0.000000
         Rot=    1.000000   -0.000304   -0.000014    0.000453 Ang=  -0.06 deg.
 ExpMin= 2.53D-02 ExpMax= 1.53D+04 ExpMxC= 5.22D+02 IAcc=3 IRadAn=         5 AccDes= 0.00D+00
 Harris functional with IExCor=  205 and IRadAn=       5 diagonalized for initial guess.
 HarFok:  IExCor=  205 AccDes= 0.00D+00 IRadAn=         5 IDoV= 1 UseB2=F ITyADJ=14
 ICtDFT=  3500011 ScaDFX=  1.000000  1.000000  1.000000  1.000000
 FoFCou: FMM=F IPFlag=           0 FMFlag=      100000 FMFlg1=           0
         NFxFlg=           0 DoJE=T BraDBF=F KetDBF=T FulRan=T
         wScrn=  0.000000 ICntrl=       500 IOpCl=  0 I1Cent=   200000004 NGrid=           0
         NMat0=    1 NMatS0=      1 NMatT0=    0 NMatD0=    1 NMtDS0=    0 NMtDT0=    0
 Petite list used in FoFCou.
 Keep R1 ints in memory in canonical form, NReq=1026496050.
 Requested convergence on RMS density matrix=1.00D-08 within 128 cycles.
 Requested convergence on MAX density matrix=1.00D-06.
 Requested convergence on             energy=1.00D-06.
 No special actions if energy rises.
 SCF Done:  E(RHF) =  -245.070532605     A.U. after    9 cycles
            NFock=  9  Conv=0.39D-08     -V/T= 2.0017
 ExpMin= 2.53D-02 ExpMax= 1.53D+04 ExpMxC= 5.22D+02 IAcc=3 IRadAn=         5 AccDes= 0.00D+00
 HarFok:  IExCor=  205 AccDes= 0.00D+00 IRadAn=         5 IDoV=-2 UseB2=F ITyADJ=14
 ICtDFT= 12500011 ScaDFX=  1.000000  1.000000  1.000000  1.000000
 Range of M.O.s used for correlation:     5   299
 NBasis=   299 NAE=    17 NBE=    17 NFC=     4 NFV=     0
 NROrb=    295 NOA=    13 NOB=    13 NVA=   282 NVB=   282

 **** Warning!!: The largest alpha MO coefficient is  0.28276684D+02

 Disk-based method using ON**2 memory for 13 occupieds at a time.
 Estimated scratch disk usage=   982254657 words.
 Actual    scratch disk usage=   899810881 words.
 JobTyp=1 Pass  1:  I=   5 to  17 NPSUse= 40 ParTrn=T ParDer=T DoDerP=T.
 (rs|ai) integrals will be sorted in core.
 Spin components of T(2) and E(2):
     alpha-alpha T2 =       0.3043377031D-01 E2=     -0.1100793956D+00
     alpha-beta  T2 =       0.1717726156D+00 E2=     -0.6675451400D+00
     beta-beta   T2 =       0.3043377031D-01 E2=     -0.1100793956D+00
 ANorm=    0.1110243287D+01
 E2 =    -0.8877039313D+00 EUMP2 =    -0.24595823653638D+03
          IDoAtm=111111111
          Differentiating once with respect to electric field.
                with respect to dipole field.
          Differentiating once with respect to nuclear coordinates.
 Keep R1 ints in memory in canonical form, NReq=1026497903.
          There are     1 degrees of freedom in the 1st order CPHF.  IDoFFX=0 NUNeed=     1.
 LinEq1:  Iter=  0 NonCon=     1 RMS=3.46D-03 Max=9.26D-02 NDo=     1
 AX will form     1 AO Fock derivatives at one time.
 LinEq1:  Iter=  1 NonCon=     1 RMS=9.36D-04 Max=1.61D-02 NDo=     1
 LinEq1:  Iter=  2 NonCon=     1 RMS=3.75D-04 Max=6.40D-03 NDo=     1
 LinEq1:  Iter=  3 NonCon=     1 RMS=1.54D-04 Max=2.60D-03 NDo=     1
 LinEq1:  Iter=  4 NonCon=     1 RMS=3.76D-05 Max=4.80D-04 NDo=     1
 LinEq1:  Iter=  5 NonCon=     1 RMS=6.67D-06 Max=9.51D-05 NDo=     1
 LinEq1:  Iter=  6 NonCon=     1 RMS=2.01D-06 Max=3.08D-05 NDo=     1
 LinEq1:  Iter=  7 NonCon=     1 RMS=7.91D-07 Max=9.90D-06 NDo=     1
 LinEq1:  Iter=  8 NonCon=     1 RMS=2.10D-07 Max=4.21D-06 NDo=     1
 LinEq1:  Iter=  9 NonCon=     1 RMS=5.88D-08 Max=1.50D-06 NDo=     1
 LinEq1:  Iter= 10 NonCon=     1 RMS=2.16D-08 Max=2.13D-07 NDo=     1
 LinEq1:  Iter= 11 NonCon=     1 RMS=7.05D-09 Max=7.80D-08 NDo=     1
 LinEq1:  Iter= 12 NonCon=     1 RMS=1.27D-09 Max=1.49D-08 NDo=     1
 LinEq1:  Iter= 13 NonCon=     1 RMS=2.00D-10 Max=1.84D-09 NDo=     1
 LinEq1:  Iter= 14 NonCon=     0 RMS=3.63D-11 Max=6.02D-10 NDo=     1
 Linear equations converged to 1.000D-10 1.000D-09 after    14 iterations.
 End of Minotr F.D. properties file   721 does not exist.
 End of Minotr F.D. properties file   722 does not exist.
 End of Minotr F.D. properties file   788 does not exist.
 Calling FoFJK, ICntrl=  10002127 FMM=F ISym2X=0 I1Cent= 0 IOpClX= 0 NMat=1 NMatS=1 NMatT=0.
 ***** Axes restored to original set *****
 -------------------------------------------------------------------
 Center     Atomic                   Forces (Hartrees/Bohr)
 Number     Number              X              Y              Z
 -------------------------------------------------------------------
      1        6           0.001998476    0.000307692    0.000292751
      2        8          -0.000933688   -0.000476109   -0.000114208
      3        7          -0.000502293    0.000855806   -0.000047141
      4        8           0.001163598    0.001284454    0.000038750
      5        1          -0.000246770    0.000048089   -0.000098967
      6        1          -0.000555303   -0.000364547   -0.000030849
      7        1          -0.000525853   -0.000350797    0.000019500
      8        1           0.000227172   -0.000632686   -0.000060946
      9        1          -0.000625339   -0.000671902    0.000001110
 -------------------------------------------------------------------
 Cartesian Forces:  Max     0.001998476 RMS     0.000652382

 GradGradGradGradGradGradGradGradGradGradGradGradGradGradGradGradGradGrad
 Berny optimization.
 Using GEDIIS/GDIIS optimizer.
 FormGI is forming the generalized inverse of G from B-inverse, IUseBI=4.
 Internal  Forces:  Max     0.000968120 RMS     0.000447598
 Search for a local minimum.
 Step number   5 out of a maximum of   37
 All quantities printed in internal units (Hartrees-Bohrs-Radians)
 Mixed Optimization -- En-DIIS/RFO-DIIS
 Swapping is turned off.
 Update second derivatives using D2CorX and points    1    2    3    4    5
 DE= -8.62D-05 DEPred=-6.32D-05 R= 1.36D+00
 TightC=F SS=  1.41D+00  RLast= 9.67D-02 DXNew= 8.4658D-01 2.8996D-01
 Trust test= 1.36D+00 RLast= 9.67D-02 DXMaxT set to 5.03D-01
 ITU=  1  1  1  1  0
     Eigenvalues ---    0.00230   0.00644   0.01234   0.01936   0.02305
     Eigenvalues ---    0.02377   0.04095   0.13450   0.15371   0.16001
     Eigenvalues ---    0.16058   0.16386   0.23199   0.29997   0.33386
     Eigenvalues ---    0.51062   0.53004   0.54043   0.54063   0.57706
     Eigenvalues ---    0.98316
[...]
 -0.00003501,0.00007710,0.00014919,-0.00003636,-0.00009012,-0.00149507,
 0.00255612,-0.00215571,0.00005763,0.00023961,0.00068584,0.00000119,-0.
 00000586,0.00218584,-0.00003677,0.00012884,0.00001193,0.00000298,-0.00
 218198,0.00212499,-0.00002055,0.00003318,-0.00004425,0.00000546,0.0000
 3768,-0.00003724,-0.00000505,-0.00086491,-0.00226404,-0.00010752,0.000
 01325,0.00206778,0.00009743,0.00004137,0.00006348,-0.00002163,-0.00010
 146,-0.00150081,-0.00000423,0.00000269,-0.00012474,-0.00000305,-0.0000
 0218,-0.00157082,0.00001917,-0.00001093,0.00000600,-0.00000871,0.00001
 082,0.00001766,0.00005640,0.00002508,0.00054980,-0.00033491,0.00368744
 ,-0.00001505,0.00009044,0.00093687,0.00002693,0.00204034,-0.00327452,0
 .00001046,0.00000269,-0.00000032,-0.00000129,-0.00328507,-0.00284719,-
 0.00000475,-0.00000655,-0.00000655,-0.00000363,-0.00000434,-0.00000564
 ,0.00000539,0.00012002,0.00005738,-0.00002786,0.00137737,0.00047679,-0
 .00054371,-0.00002621,-0.00097812,-0.00066439,0.00000799,-0.00340621,0
 .00096287,-0.00009230,0.00001625,0.00002402,0.00000155,0.00275467,0.00
 140590,0.00001761,0.00000973,0.00000790,-0.00000305,0.00001015,0.00000
 755,0.00000123,-0.00033582,-0.00050739,0.00002137,0.00145252,-0.000692
 75,0.00010232,-0.00008363,-0.00431509,-0.00005784,0.00000366,0.0007671
 3,-0.00004255,0.00004086,0.00282502,-0.00000115,0.00000068,-0.00002994
 ,-0.00001445,-0.00000320,0.00262337,0.00001807,0.00000163,-0.00000038,
 -0.00001589,-0.00000181,0.00000084,0.00000169,-0.00002998,0.00049163,0
 .00000979,0.00007180,-0.00236258,-0.01302983,-0.00287256,-0.01593485,0
 .00148758,0.00001129,-0.00487685,0.00438468,-0.00242941,-0.00119920,-0
 .00198926,0.00255271,0.00628174,-0.00025129,-0.00085855,-0.00358862,-0
 .00092502,0.00005771,0.00138697,0.00091047,0.00018260,-0.00167052,0.00
 329669,-0.01290283,-0.00025733,-0.00616980,0.00168510,0.00006259,3.305
 14891,-0.02143876,0.00735840,0.00039976,0.00275793,-0.00029408,-0.0003
 1411,1.44602830,0.71327840,-0.00026258,-0.00016921,-0.00621236,0.00009
 454,0.00023740,0.00079517,0.00304740,-0.00026211,-1.06088024,0.0000346
 2,-0.00715019,0.00000657,-0.00349314,0.00258344,-0.00000233,-0.0034816
 7,0.00277276,0.00000013,0.00631516,-0.00016351,-0.00181346,-0.00000420
 ,-0.00102499,0.00062604,0.00000202,-0.00080233,0.00120948,0.00000056,0
 .00087709,-0.00731617,0.00000787,0.00000200,0.00066755,-0.00000096,-0.
 00000537,-0.00035155,0.00000188,0.00000492,0.00099025,0.00027474,0.000
 16529,0.01460231,0.00204370,0.00048026,0.00000490,-0.00010450,-0.00019
 350,-0.00006857,-0.00090159,0.00162412,-0.00001582,0.00004695,-0.00000
 896,-0.00000333,-0.00169922,-0.00218998,0.00185549,-0.00021352,0.00027
 606,-0.00041686,0.00006382,0.00093832,-0.00243728,0.00005004,0.0004239
 3,0.00009374,-0.00000012,0.00127472,-0.00121791,-0.00028627,0.00015595
 ,0.00204150,0.00015611,-0.00020939,-0.00043075,0.00002484,-0.00004627,
 0.00044775,-0.00000037,0.00000236,0.00002884,0.00009033,0.00010485,-0.
 00064564,-0.00018082,-0.00113075,-0.00012465,-0.00046959,0.00043534,0.
 00005461,-0.00038396,0.00037620,-0.00023296,-0.00302299,-0.00144879,-0
 .00302147,0.00001150,0.00012086,0.00000241,-0.00134243,-0.00013935,-0.
 00020450,0.00000960,-0.00005722,0.00008355,0.00001042,0.00000416,0.000
 14319,-0.00011967,-0.00117497,0.00294588,0.00004398,0.00003418,-0.0000
 1246,-0.00001538,0.00014569,-0.00209153,0.00015786,-0.00048931,-0.0000
 6576,-0.00041508,0.00018104,0.00002642,-0.00132856,0.00007417,-0.00014
 058,-0.00294792,-0.00023618,-0.00342275,0.00001115,0.00007148,0.000005
 66,0.00040034,-0.00040432,0.00183771,-0.00018710,-0.00112601,0.0001281
 2,-0.00046618,0.00043345,-0.00005759,-0.00038188,0.00037382,0.00023240
 ,-0.00317935,-0.00155487,0.00273893,0.00001262,0.00012101,-0.00000657,
 0.00045344,0.00012689,-0.00118387,-0.00117401,-0.00014017,-0.00019517,
 -0.00000439,-0.00005387,0.00008013,-0.00001384,0.00001177,0.00013777,0
 .00011934,-0.00121711,0.00285121,-0.00019145,0.00003518,-0.00001381,0.
 00001412,0.00010310,0.00031014,-0.00027451,0.00023224,-0.00199450,-0.0
 0016341,0.00050188,-0.00005615,0.00042109,-0.00018422,0.00002498,0.001
 33415,-0.00008113,-0.00015289,0.00269699,0.00009423,-0.00366685,-0.000
 00807,-0.00007236,0.00000488,0.00124018,0.00027478,0.00060932,-0.00017
 771,0.00054005,0.00206213,0.00632758,0.01200554,-0.00001646,0.00673003
 ,-0.00510782,-0.00000492,-3.30996290,-0.81503140,-0.00315577,0.0087598
 4,0.00482064,0.00000008,0.00075997,-0.00144442,0.00002285,0.00521791,0
 .00112887,0.00547909,0.00520340,0.00109568,-0.00551849,3.25757019,0.02
 468133,0.00279111,0.00007288,0.00289579,-0.00366077,0.00000615,-0.7840
 4761,0.52006386,-0.00058068,0.00279434,0.00145759,-0.00002036,-0.00329
 745,0.00161005,-0.00002088,0.00130381,-0.00116462,0.00125938,0.0012982
 7,-0.00116719,-0.00125366,0.78775784,-0.52750074,-0.00011310,0.0000022
 0,0.00328998,0.00008813,0.00004937,0.00127460,-0.00315853,-0.00066882,
 0.74833277,-0.00002577,-0.00002444,-0.00885949,-0.00000067,-0.00000206
 ,-0.00162992,0.00164546,0.00017577,0.00113570,-0.00163937,-0.00016436,
 0.00115791,0.00319656,0.00059714,-0.75399293,-0.00268943,0.01512588,-0
 .00002952,0.00157776,-0.00153017,0.00003077,0.01283615,-0.61746300,0.0
 0029267,-0.00197945,-0.00069426,0.00000226,-0.00016948,0.00047951,-0.0
 0000332,-0.00028307,-0.00006825,-0.00017302,-0.00028093,-0.00006680,0.
 00017529,0.01939398,-0.03338625,0.00000728,-0.02840553,-0.00028968,-0.
 00013875,-0.00002012,-0.00150573,0.00088888,0.00000523,-0.65091488,-1.
 23945971,0.00072433,0.00009069,-0.00005432,0.00000111,0.00005143,0.000
 53902,0.00001464,0.00009454,-0.00000965,-0.00018176,0.00009521,-0.0000
 0859,0.00018044,0.01477511,0.00757068,0.00003518,0.63760331,1.23067242
 ,0.00009707,-0.00007252,0.00382511,-0.00005509,-0.00000016,-0.00105534
 ,0.00027356,0.00089360,0.31682013,-0.00000203,0.00000038,0.00001167,-0
 .00000992,-0.00000212,0.00017771,0.00003609,0.00002481,0.00001428,-0.0
 0003433,-0.00002496,0.00001666,-0.00000293,-0.00005997,0.00929138,-0.0
 0030242,-0.00075906,-0.32910160,-0.01640079,0.01283544,-0.03125766,0.0
 0144934,0.00004341,0.00644668,0.00352871,-0.00019282,-0.00118565,-0.00
 046798,0.00260421,0.00514389,-0.00025014,-0.00176284,-0.00317584,-0.00
 091471,0.00005621,-0.00033559,0.00090159,0.00018189,-0.00043665,0.0047
 2079,-0.04033557,-0.00023049,-0.00447179,0.00443151,0.00005949,1.32287
 877,-0.02021774,0.01323675,0.00039200,0.00249577,-0.00110990,-0.000308
 24,1.73340428,2.90279713,-0.00025083,-0.00018417,-0.01122063,0.0000933
 5,0.00023673,0.00265212,0.00102693,-0.00212212,-1.19170955,0.00129453,
 -0.00257960,0.00000187,-0.00132344,0.00064561,0.00000107,-0.00049612,-
 0.00120115,-0.00000163,0.00349204,0.00034811,-0.00058387,-0.00000569,-
 0.00040654,0.00016387,0.00000343,-0.00021422,-0.00044072,-0.00000064,0
 .00116395,-0.00373181,0.00000742,-0.00000413,-0.00004060,-0.00000422,-
 0.00000222,-0.00002797,-0.00000774,0.00000621,0.00041876,0.00027306,0.
 00014534,0.00906844,0.00204081,0.00194400,0.00000395,-0.00016068,-0.00
 034815,-0.00006832,0.00154645,-0.00076115,-0.00001148,-0.00008617,-0.0
 0011494,-0.00000316,-0.00187096,-0.00374566,0.00143176,-0.00021423,0.0
 0029839,-0.00001586,0.00006345,0.00094010,-0.00229259,0.00004906,0.000
 23489,0.00007242,0.00000025,0.00108375,-0.00080827,-0.00028152,0.00015
 375,0.00163645,0.00015409,-0.00020767,-0.00025715,0.00002755,-0.000049
 63,-0.00209983,-0.00000026,0.00000200,0.00001686,0.00009027,0.00010432
 ,-0.00076491,0.00016646,-0.00036128,0.00003037,-0.00019626,0.00009279,
 -0.00000576,0.00006437,-0.00039334,-0.00010356,-0.00176480,-0.00083460
 ,-0.00020396,-0.00003521,0.00007398,-0.00000066,-0.00018439,-0.0000265
 2,-0.00005315,0.00002686,-0.00003253,0.00001659,-0.00000295,-0.0000374
 0,-0.00006314,-0.00009502,-0.00078892,0.00167955,0.00060935,0.00002396
 ,-0.00000374,-0.00001048,0.00033761,-0.00124906,0.00018012,-0.00021243
 ,0.00000812,-0.00015309,0.00004817,0.00000164,-0.00054183,-0.00016931,
 -0.00011414,-0.00005922,0.00039557,-0.00271513,-0.00001888,0.00004518,
 -0.00000063,-0.00099246,-0.00070752,0.00209850,0.00016132,-0.00035561,
 -0.00002575,-0.00019331,0.00009058,0.00000324,0.00006349,-0.00039657,0
 .00010297,-0.00194404,-0.00095553,-0.00007794,-0.00003389,0.00007423,-
 0.00000370,0.00021614,0.00005724,-0.00048074,-0.00000064,-0.00002739,-
 0.00004511,-0.00002126,-0.00003065,0.00001394,-0.00000065,-0.00003550,
 -0.00006708,0.00009562,-0.00084965,0.00157308,-0.00074788,0.00002506,-
 0.00000492,0.00000937,0.00003097,0.00011684,-0.00008594,0.00043283,-0.
 00114486,-0.00018737,0.00022227,0.00001793,0.00015806,-0.00005004,-0.0
 0000057,0.00054731,0.00016646,-0.00012634,-0.00020061,-0.00053103,-0.0
 0293955,0.00002209,-0.00004585,-0.00000147,0.00053780,0.00008632,0.000
 22159,0.00121069,0.00083937,0.00231135,0.00602005,0.00633019,-0.000008
 16,0.00157882,-0.00323091,-0.00000952,-1.61503365,-0.29906569,-0.00165
 615,0.00397192,0.00183055,0.00001394,-0.00046183,-0.00074073,0.0000197
 8,0.00230396,0.00055724,0.00221439,0.00230062,0.00054379,-0.00223992,1
 .59893791,0.00678946,0.00060530,0.00005685,0.00100542,-0.00059082,0.00
 000267,-0.30250269,0.31202274,-0.00026338,0.00152959,0.00085847,-0.000
 00763,-0.00059099,0.00068450,-0.00001672,0.00066071,-0.00054173,0.0005
 7181,0.00065992,-0.00053863,-0.00056996,0.28714964,-0.31617264,-0.0000
 9737,0.00000706,0.00011763,0.00009053,0.00004216,0.00076591,-0.0016140
 1,-0.00032356,0.37632015,-0.00000999,-0.00000975,-0.00419206,-0.000004
 52,-0.00000137,-0.00031865,0.00082699,0.00007459,0.00049449,-0.0008192
 2,-0.00006917,0.00050952,0.00166511,0.00026111,-0.36898015,-0.00153187
 ,0.02271518,-0.00003548,0.00170592,-0.00252279,0.00003292,0.29072769,-
 1.41386439,0.00080039,-0.00314395,-0.00081679,0.00000261,-0.00093852,0
 .00178110,-0.00000553,-0.00057026,-0.00009067,-0.00014830,-0.00056970,
 -0.00008948,0.00015195,0.00038220,0.00529900,-0.00003752,-0.28606150,0
 .00144010,0.01152204,-0.00002780,-0.00137419,-0.00044586,0.00000419,-1
 .39565050,-3.22408315,0.00228390,0.00184527,0.00040899,0.00000071,-0.0
 0126156,0.00093674,0.00001506,0.00039317,0.00009784,0.00011446,0.00039
 291,0.00009675,-0.00011754,0.00662593,0.00367280,0.00001894,1.38758882
 ,3.20779385,0.00009492,-0.00008198,0.00336999,-0.00005466,0.00000111,-
 0.00236177,0.00073279,0.00240820,0.82587945,-0.00000428,0.00000076,0.0
 0041123,-0.00000993,-0.00000079,0.00178934,-0.00008877,0.00001886,0.00
 000556,0.00009044,-0.00001946,0.00000755,0.00000053,-0.00003476,-0.004
 71683,-0.00076105,-0.00229193,-0.82438452,0.00074771,0.00153548,0.0004
 5623,0.00147974,0.00001313,-0.00008854,-0.00060874,-0.00091230,-0.0011
 9454,0.00038369,-0.00039849,-0.00031307,-0.00025022,0.00042080,0.00028
 439,-0.00092082,0.00005943,-0.00033930,0.00090594,0.00018248,0.0004677
 8,0.00061040,-0.00003062,-0.00026752,0.00007426,-0.00019926,0.00006668
 ,0.00177471,-0.00070545,-0.00010965,0.00042277,0.00006414,-0.00000855,
 -0.00031542,0.00147220,0.00051889,-0.00027270,-0.00015270,0.00080851,0
 .00009776,0.00023398,-0.00008966,0.00024774,-0.00000428,-0.00372621,0.
 00001679,0.00030292,-0.00000065,0.00016453,-0.00006267,0.00000225,0.00
 037463,0.00000581,-0.00000372,1.13203984,0.00006872,-0.00020270,-0.000
 00572,0.00000736,0.00007930,0.00000366,0.00010737,-0.00014401,-0.00000
 215,1.13058816,-0.84004514,0.00000725,-0.00000746,0.00008515,-0.000006
 69,-0.00000132,-0.00003238,-0.00000360,0.00000763,0.00009983,0.0009402
 6,0.01043700,3.69394655,-0.00044226,-0.00004579,0.00000555,0.00023511,
 -0.00003963,-0.00006883,0.00002351,0.00021010,-0.00001412,-0.00003470,
 -0.00002416,-0.00000254,0.00020621,-0.00045388,0.00014147,-0.00021354,
 0.00039105,0.00004632,0.00006404,0.00015677,-0.00039053,0.00004809,-0.
 00001489,0.00003378,0.00000035,-0.00018639,0.00021895,-0.00028484,0.00
 015389,-0.00023047,0.00015472,-0.00020888,0.00000416,0.00002588,-0.000
 04849,0.00005633,0.00000027,0.00000227,-0.00000408,0.00009188,0.000103
 43,0.00016464,-0.00007262,0.00017944,-0.00000805,0.00009550,-0.0000793
 8,-0.00000420,0.00017569,-0.00007032,0.00005857,-0.56034609,-0.5590251
 6,1.77477003,0.00000731,-0.00000531,0.00001060,0.52873050,-0.00000929,
 0.00021088,0.00001139,0.00001975,-0.00007942,-0.00000160,0.00006693,-0
 .00015229,0.00005816,-0.55939022,0.42456285,0.80266209,0.00002102,-0.0
 0004538,-0.00000873,0.56090594,-0.45897785,-0.00068770,0.00056293,-0.0
 0007021,0.00058321,-0.00007272,0.00003136,0.00046515,-0.00026536,-0.00
 025132,1.69551051,0.76609181,-1.85701483,-0.00004479,0.00005291,0.0000
 0258,-1.73432700,-0.78395737,1.89748543,-0.00007499,0.00018265,0.00001
 002,0.00009629,-0.00008106,0.00000275,0.00017272,-0.00007488,-0.000057
 89,-0.57218594,-0.57139027,-1.77572030,0.00000836,-0.00000495,-0.00001
 456,0.03133520,-0.00167573,0.04011600,0.54056399,-0.00000538,0.0002145
 5,-0.00000647,0.00001812,-0.00008144,-0.00000163,0.00006406,-0.0001559
 9,-0.00005693,-0.57138233,0.41559749,-0.81310017,0.00002225,-0.0000464
 6,0.00000748,-0.00186422,0.03421166,0.01815886,0.57307693,-0.45002004,
 0.00068140,-0.00055437,-0.00005803,-0.00057851,0.00007155,0.00002807,-
 0.00046092,0.00025894,-0.00026566,-1.69644322,-0.77652889,-1.83607961,
 0.00004748,-0.00005335,0.00000159,-0.04030456,-0.01857269,-0.04120009,
 1.73545577,0.79480611,1.87655137,-0.00027405,-0.00113913,-0.00000994,-
 0.00042698,0.00047302,-0.00001166,-0.00371217,-0.00086300,-0.00006305,
 -0.00015670,-0.00027139,0.00001683,0.00001169,0.00010965,0.00001877,0.
 00004755,0.00005254,-0.00172762,0.00005584,0.00006108,0.00171315,0.005
 01439,0.00000806,-0.00015649,0.00005262,-0.00002727,0.00006509,0.00000
 127,-0.00109165,0.00124107,-0.00003439,0.00004233,0.00014303,0.0000005
 4,-0.00002149,0.00007070,-0.00001589,-0.00005955,0.00024517,-0.0003824
 6,-0.00005251,0.00025507,0.00038573,0.00134861,-0.00184871,-0.00010210
 ,0.00000803,-0.00008568,0.00009518,0.00004274,-0.00004074,-0.00002891,
 -0.00009869,0.00240753,-0.00000418,0.00000116,-0.00102597,-0.00000497,
 0.00000031,-0.00001954,-0.00019968,-0.00019981,0.00104359,0.00020970,0
 .00020161,0.00104682,0.00006245,0.00002389,-0.00309020,0.00009779,-0.0
 0007271,-0.00001462,-0.00001365,-0.00003334,0.00002789,0.00050628,-0.0
 0003858,0.00000740,0.00012763,-0.00006064,-0.00000125,-0.00001525,0.00
 000797,-0.00000272,0.00002696,0.00000907,0.00011223,0.00002855,0.00000
 950,-0.00011056,-0.00055958,-0.00014650,-0.00002749,-0.00019874,-0.000
 03973,-0.00024123,-0.00002397,0.00001836,0.00000739,0.00000777,-0.0005
 4583,-0.00079896,-0.00008978,-0.00008912,-0.00002461,0.00000132,0.0000
 6405,-0.00002879,0.00001493,0.00001857,0.00002438,-0.00018861,0.000019
 82,0.00002515,0.00018698,0.00022864,-0.00001495,0.00002077,0.00032520,
 0.00105165,0.00009978,-0.00008286,-0.00002146,-0.00005708,0.00000237,-
 0.00002930,-0.00004450,0.00004291,0.00096064,-0.00000153,0.00000085,0.
 00002530,-0.00000967,-0.00000224,0.00002481,0.00000428,0.00000855,-0.0
 0002651,-0.00000148,-0.00000886,-0.00002445,0.00000107,-0.00003131,-0.
 00023581,0.00000913,0.00007059,-0.00067320,0.00130798,0.00119158,-0.00
 010581,0.00148429,0.00001288,0.00035048,-0.00106146,-0.00035546,-0.001
 19861,0.00114492,-0.00025383,-0.00009921,-0.00025070,0.00006418,-0.000
 00241,-0.00092288,0.00006010,-0.00010534,0.00090838,0.00018238,0.00005
 284,0.00003612,-0.00104801,-0.00026825,-0.00035098,0.00026784,0.000066
 24,-0.00016148,-0.00060632,0.00032216,0.00042336,-0.00006724,0.0000608
 8,-0.00031593,0.00086304,-0.00094296,-0.00027382,-0.00015396,0.0000102
 4,0.00009771,0.00023465,0.00012570,0.00024417,-0.00000211,-0.00100407,
 0.00022097,-0.00028058,-0.00000055,-0.00014884,0.00007638,0.00000225,0
 .00031789,0.00010385,-0.00000283,1.29397187,-0.00017596,-0.00062705,-0
 .00000446,0.00014403,0.00023477,0.00000338,-0.00027996,0.00058887,-0.0
 0000155,1.27489085,-0.93090177,0.00000972,-0.00000936,0.00027927,-0.00
 000873,-0.00000115,-0.00007261,-0.00000540,0.00000940,0.00073659,0.001
 33279,0.01076974,3.61408169,-0.00031975,0.00003516,0.00000544,0.000267
 04,-0.00002277,-0.00006878,-0.00001685,0.00002112,-0.00001384,-0.00007
 006,-0.00001323,-0.00000213,0.00008335,-0.00023419,0.00030050,-0.00021
 395,0.00023266,0.00000454,0.00006407,0.00013956,-0.00036031,0.00004809
 ,0.00004265,0.00019406,0.00000011,-0.00014566,0.00004412,-0.00028669,0
 .00015415,-0.00013213,0.00015618,-0.00020879,-0.00003377,0.00002651,-0
 .00004922,-0.00000857,0.00000056,0.00000154,-0.00006332,0.00009183,0.0
 0010383,0.00012734,0.00006835,0.00001270,0.00005562,-0.00003849,-0.000
 02347,-0.00000877,-0.00027986,-0.00002577,0.00027385,-0.64047252,-0.63
 048564,1.85639949,0.00002527,-0.00001046,-0.00004471,0.63559479,0.0000
 9251,0.00021561,0.00001798,-0.00008388,-0.00009416,-0.00000205,0.00005
 162,-0.00015843,0.00018451,-0.63086908,0.47056764,0.83932805,0.0000128
 7,-0.00007951,-0.00001714,0.62674277,-0.46844733,-0.00020341,0.0001511
 3,-0.00013555,0.00015857,-0.00001373,0.00003389,-0.00010124,-0.0000600
 2,-0.00031603,1.85958211,0.84084377,-1.81646757,-0.00001822,0.00003520
 ,0.00003064,-1.85756890,-0.83985944,1.81086772,0.00006282,0.00001951,-
 0.00005180,-0.00003515,-0.00002606,0.00000636,-0.00027941,-0.00003289,
 -0.00027417,-0.65354522,-0.64395529,-1.85774224,0.00002661,-0.00001037
 ,0.00004001,0.00433180,0.00377687,-0.00147430,0.64866284,0.00009337,0.
 00022291,-0.00001402,-0.00008307,-0.00009694,-0.00000107,0.00005278,-0
 .00016396,-0.00018388,-0.64429264,0.46128532,-0.85009761,0.00001380,-0
 .00008051,0.00001656,0.00375385,-0.00244892,-0.00078089,0.64018320,-0.
 45917297,0.00019520,-0.00014071,-0.00012264,-0.00015201,0.00001232,0.0
 0003065,0.00010759,0.00005209,-0.00032775,-1.86090413,-0.85161178,-1.7
 9528811,0.00002053,-0.00003548,0.00002822,0.00152037,0.00081073,0.0046
 1674,1.85885344,0.85059485,1.78968880,-0.00022936,0.00035557,-0.000010
 65,0.00019677,-0.00005949,-0.00001100,0.00072345,-0.00015619,-0.000058
 02,-0.00014044,-0.00023303,0.00001826,0.00000231,-0.00001938,0.0000186
 9,0.00076154,0.00030151,-0.00042675,0.00076510,0.00030322,0.00040893,-
 0.00218853,0.00004132,0.00005622,0.00005297,0.00015051,-0.00006585,0.0
 0000147,0.00010396,-0.00005119,-0.00003445,0.00024980,-0.00120086,-0.0
 0000065,0.00002618,0.00002502,-0.00001593,0.00004025,0.00038442,-0.000
 19842,0.00004815,0.00039383,0.00020210,-0.00044975,0.00062692,-0.00010
 221,0.00000888,-0.00008964,0.00009545,0.00004249,0.00003016,-0.0000248
 1,-0.00009890,0.00041843,-0.00000855,-0.00000127,-0.00330153,-0.000004
 95,0.00000040,-0.00001032,-0.00058228,-0.00047086,0.00142094,0.0005955
 1,0.00047429,0.00142339,0.00005897,0.00002399,0.00023224,-0.00008560,0
 .00006948,-0.00001549,0.00002615,-0.00002277,0.00002820,0.00001113,-0.
 00009961,0.00000696,-0.00013368,0.00010824,-0.00000176,0.00000204,0.00
 000521,-0.00000237,0.00000912,-0.00002518,0.00005214,0.00001061,-0.000
 02451,-0.00004991,0.00010917,-0.00021037,-0.00002712,0.00005102,-0.000
 14842,-0.00028526,-0.00002405,-0.00000172,0.00005838,0.00000766,-0.000
 15083,0.00070500,-0.00009129,0.00007877,-0.00014098,0.00000146,0.00007
 248,-0.00004797,0.00001500,-0.00000422,0.00006067,-0.00011759,-0.00000
 312,0.00006123,0.00011589,-0.00004244,-0.00016855,0.00002097,0.0001995
 0,-0.00024251,0.00009981,-0.00008309,-0.00005472,-0.00005694,0.0000025
 3,-0.00006156,-0.00004482,0.00004133,0.00036545,-0.00000165,0.00000063
 ,0.00009558,-0.00000988,-0.00000227,0.00006193,-0.00004465,0.00000822,
 -0.00005081,0.00004720,-0.00000823,-0.00004929,0.00000157,-0.00003108,
 -0.00012366,0.00000937,0.00007196,-0.00018291\\@
 The archive entry for this job was punched.


 WERE I TO AWAIT PERFECTION, MY BOOK WOULD NEVER BE FINISHED.
                                    -- HISTORY OF CHINESE WRITING

                                       TAI T'UNG, 13TH CENTURY
 Job cpu time:      24 days  8 hours  7 minutes 11.3 seconds.
 Elapsed time:       0 days 14 hours 53 minutes 11.5 seconds.
 File lengths (MBytes):  RWF=  20849 Int=      0 D2E=      0 Chk=     54 Scr=      1
 Normal termination of Gaussian 16 at Sun Mar 30 23:31:48 2025.
