 Entering Gaussian System, Link 0=g16
 Input=hconh2t_nh3_mp2_avdz_opt_anharm.gjf
 Output=hconh2t_nh3_mp2_avdz_opt_anharm.log
 Initial command:
 /sw/contrib/chem-src/g16/c01/g16/l1.exe "/scr/Gau-26882.inp" -scrdir="/scr/"
 Entering Link 1 = /sw/contrib/chem-src/g16/c01/g16/l1.exe PID=     26883.
  
 Copyright (c) 1988-2019, Gaussian, Inc.  All Rights Reserved.
  
 This is part of the Gaussian(R) 16 program.  It is based on
 the Gaussian(R) 09 system (copyright 2009, Gaussian, Inc.),
 the Gaussian(R) 03 system (copyright 2003, Gaussian, Inc.),
 the Gaussian(R) 98 system (copyright 1998, Gaussian, Inc.),
 the Gaussian(R) 94 system (copyright 1995, Gaussian, Inc.),
 the Gaussian 92(TM) system (copyright 1992, Gaussian, Inc.),
 the Gaussian 90(TM) system (copyright 1990, Gaussian, Inc.),
 the Gaussian 88(TM) system (copyright 1988, Gaussian, Inc.),
 the Gaussian 86(TM) system (copyright 1986, Carnegie Mellon
 University), and the Gaussian 82(TM) system (copyright 1983,
 Carnegie Mellon University). Gaussian is a federally registered
 trademark of Gaussian, Inc.
  
 This software contains proprietary and confidential information,
 including trade secrets, belonging to Gaussian, Inc.
  
 This software is provided under written license and may be
 used, copied, transmitted, or stored only in accord with that
 written license.
  
 The following legend is applicable only to US Government
 contracts under FAR:
  
                    RESTRICTED RIGHTS LEGEND
  
 Use, reproduction and disclosure by the US Government is
 subject to restrictions as set forth in subparagraphs (a)
 and (c) of the Commercial Computer Software - Restricted
 Rights clause in FAR 52.227-19.
  
 Gaussian, Inc.
 340 Quinnipiac St., Bldg. 40, Wallingford CT 06492
  
  
 ---------------------------------------------------------------
 Warning -- This program may not be used in any manner that
 competes with the business of Gaussian, Inc. or will provide
 assistance to any competitor of Gaussian, Inc.  The licensee
 of this program is prohibited from giving any competitor of
 Gaussian, Inc. access to this program.  By using this program,
 the user acknowledges that Gaussian, Inc. is engaged in the
 business of creating and licensing software in the field of
 computational chemistry and represents and warrants to the
 licensee that it is not a competitor of Gaussian, Inc. and that
 it will not use this program in any manner prohibited above.
 ---------------------------------------------------------------
  

 Cite this work as:
 Gaussian 16, Revision C.01,
 M. J. Frisch, G. W. Trucks, H. B. Schlegel, G. E. Scuseria, 
 M. A. Robb, J. R. Cheeseman, G. Scalmani, V. Barone, 
 G. A. Petersson, H. Nakatsuji, X. Li, M. Caricato, A. V. Marenich, 
 J. Bloino, B. G. Janesko, R. Gomperts, B. Mennucci, H. P. Hratchian, 
 J. V. Ortiz, A. F. Izmaylov, J. L. Sonnenberg, D. Williams-Young, 
 F. Ding, F. Lipparini, F. Egidi, J. Goings, B. Peng, A. Petrone, 
 T. Henderson, D. Ranasinghe, V. G. Zakrzewski, J. Gao, N. Rega, 
 G. Zheng, W. Liang, M. Hada, M. Ehara, K. Toyota, R. Fukuda, 
 J. Hasegawa, M. Ishida, T. Nakajima, Y. Honda, O. Kitao, H. Nakai, 
 T. Vreven, K. Throssell, J. A. Montgomery, Jr., J. E. Peralta, 
 F. Ogliaro, M. J. Bearpark, J. J. Heyd, E. N. Brothers, K. N. Kudin, 
 V. N. Staroverov, T. A. Keith, R. Kobayashi, J. Normand, 
 K. Raghavachari, A. P. Rendell, J. C. Burant, S. S. Iyengar, 
 J. Tomasi, M. Cossi, J. M. Millam, M. Klene, C. Adamo, R. Cammi, 
 J. W. Ochterski, R. L. Martin, K. Morokuma, O. Farkas, 
 J. B. Foresman, and D. J. Fox, Gaussian, Inc., Wallingford CT, 2019.
 
 ******************************************
 Gaussian 16:  EM64L-G16RevC.01  3-Jul-2019
                 7-Apr-2025 
 ******************************************
 %nprocshared=40
 Will use up to   40 processors via shared memory.
 %mem=50gb
 ------------------------------------------------------
 # MP2/aug-cc-pVDZ opt=(tight) freq=(vibrot,anharmonic)
 ------------------------------------------------------
 1/7=10,18=20,19=15,38=1,80=1/1,3;
 2/9=110,12=2,17=6,18=5,40=1/2;
 3/5=16,7=10,11=9,25=1,30=1,71=1/1,2,3;
 4//1;
 5/5=2,38=5/2;
 8/6=4,10=1/1;
 9/15=2,16=-3/6;
 10/5=1/2;
 6/7=2,8=2,9=2,10=2/1;
 7/12=2/1,2,3,16;
 1/7=10,18=20,19=15,80=1/3(2);
 2/9=110/2;
 99//99;
 2/9=110/2;
 3/5=16,7=10,11=9,25=1,30=1,71=1/1,2,3;
 4/5=5,16=3,69=1/1;
 5/5=2,38=5/2;
 8/6=4,10=1/1;
 9/15=2,16=-3/6;
 10/5=1/2;
 7/12=2/1,2,3,16;
 1/7=10,18=20,19=15,80=1/3(-8);
 2/9=110/2;
 6/7=2,8=2,9=2,10=2/1;
 99/9=10/99;
 ----
 blah
 ----
 Symbolic Z-matrix:
 Charge =  0 Multiplicity = 1
 C                    -1.18443  -0.34181   0.00036 
 O                    -2.40359  -0.1587   -0.00046 
 N                    -0.23931   0.6377    0.00031 
 N                     2.74143  -0.14501   0.00011 
 H                     3.39493   0.63359   0.08926 
 H                     2.99856  -0.63212  -0.85895 
 H                     2.95919  -0.78424   0.76519 
 H                    -0.73882  -1.36019   0.00113 
 H                    -0.55136   1.6012    0.00018 
 H                     0.7579    0.41343   0.00172 
 
 Add virtual bond connecting atoms H10        and N4         Dist= 3.89D+00.

 GradGradGradGradGradGradGradGradGradGradGradGradGradGradGradGradGradGrad
 Berny optimization.
 Initialization pass.
                           ----------------------------
                           !    Initial Parameters    !
                           ! (Angstroms and Degrees)  !
 --------------------------                            --------------------------
 ! Name  Definition              Value          Derivative Info.                !
 --------------------------------------------------------------------------------
 ! R1    R(1,2)                  1.2328         estimate D2E/DX2                !
 ! R2    R(1,3)                  1.3611         estimate D2E/DX2                !
 ! R3    R(1,8)                  1.1116         estimate D2E/DX2                !
 ! R4    R(3,9)                  1.0128         estimate D2E/DX2                !
 ! R5    R(3,10)                 1.0221         estimate D2E/DX2                !
 ! R6    R(4,5)                  1.0204         estimate D2E/DX2                !
 ! R7    R(4,6)                  1.0205         estimate D2E/DX2                !
 ! R8    R(4,7)                  1.0205         estimate D2E/DX2                !
 ! R9    R(4,10)                 2.0606         estimate D2E/DX2                !
 ! A1    A(2,1,3)              125.4345         estimate D2E/DX2                !
 ! A2    A(2,1,8)              122.1743         estimate D2E/DX2                !
 ! A3    A(3,1,8)              112.3912         estimate D2E/DX2                !
 ! A4    A(1,3,9)              118.0782         estimate D2E/DX2                !
 ! A5    A(1,3,10)             121.3016         estimate D2E/DX2                !
 ! A6    A(9,3,10)             120.6201         estimate D2E/DX2                !
 ! A7    A(5,4,6)              106.0445         estimate D2E/DX2                !
 ! A8    A(5,4,7)              106.0094         estimate D2E/DX2                !
 ! A9    A(5,4,10)             114.1806         estimate D2E/DX2                !
 ! A10   A(6,4,7)              106.1627         estimate D2E/DX2                !
 ! A11   A(6,4,10)             111.8738         estimate D2E/DX2                !
 ! A12   A(7,4,10)             111.9985         estimate D2E/DX2                !
 ! A13   L(3,10,4,8,-1)        176.9504         estimate D2E/DX2                !
 ! A14   L(3,10,4,8,-2)        179.8633         estimate D2E/DX2                !
 ! D1    D(2,1,3,9)              0.0415         estimate D2E/DX2                !
 ! D2    D(2,1,3,10)           179.9552         estimate D2E/DX2                !
 ! D3    D(8,1,3,9)           -179.9655         estimate D2E/DX2                !
 ! D4    D(8,1,3,10)            -0.0518         estimate D2E/DX2                !
 ! D5    D(1,3,4,5)           -174.4576         estimate D2E/DX2                !
 ! D6    D(1,3,4,6)             64.7135         estimate D2E/DX2                !
 ! D7    D(1,3,4,7)            -53.6543         estimate D2E/DX2                !
 ! D8    D(9,3,4,5)              5.553          estimate D2E/DX2                !
 ! D9    D(9,3,4,6)           -115.2759         estimate D2E/DX2                !
 ! D10   D(9,3,4,7)            126.3563         estimate D2E/DX2                !
 --------------------------------------------------------------------------------
 Trust Radius=3.00D-01 FncErr=1.00D-07 GrdErr=1.00D-07 EigMax=2.50D+02 EigMin=1.00D-04
 Number of steps in this run=     43 maximum allowed number of steps=    100.
 GradGradGradGradGradGradGradGradGradGradGradGradGradGradGradGradGradGrad

                          Input orientation:                          
 ---------------------------------------------------------------------
 Center     Atomic      Atomic             Coordinates (Angstroms)
 Number     Number       Type             X           Y           Z
 ---------------------------------------------------------------------
      1          6           0       -1.184426   -0.341814    0.000364
      2          8           0       -2.403586   -0.158701   -0.000460
      3          7           0       -0.239306    0.637699    0.000312
      4          7           0        2.741426   -0.145012    0.000111
      5          1           0        3.394928    0.633585    0.089256
      6          1           0        2.998564   -0.632115   -0.858945
      7          1           0        2.959191   -0.784238    0.765193
      8          1           0       -0.738821   -1.360188    0.001126
      9          1           0       -0.551355    1.601200    0.000184
     10          1           0        0.757901    0.413434    0.001715
 ---------------------------------------------------------------------
                    Distance matrix (angstroms):
                    1          2          3          4          5
     1  C    0.000000
     2  O    1.232835   0.000000
     3  N    1.361138   2.306157   0.000000
     4  N    3.930782   5.145030   3.081785   0.000000
     5  H    4.682925   5.853079   3.635325   1.020404   0.000000
     6  H    4.280198   5.490386   3.582534   1.020474   1.630394
     7  H    4.236775   5.453155   3.582922   1.020481   1.630024
     8  H    1.111598   2.053050   2.059385   3.686295   4.590292
     9  H    2.043547   2.554997   1.012773   3.727152   4.064156
    10  H    2.083995   3.212840   1.022115   2.060640   2.647648
                    6          7          8          9         10
     6  H    0.000000
     7  H    1.631722   0.000000
     8  H    3.903570   3.819792   0.000000
     9  H    4.281089   4.312712   2.967316   0.000000
    10  H    2.618106   2.619732   2.320757   1.767750   0.000000
 Stoichiometry    CH6N2O
 Framework group  C1[X(CH6N2O)]
 Deg. of freedom    24
 Full point group                 C1      NOp   1
 Largest Abelian subgroup         C1      NOp   1
 Largest concise Abelian subgroup C1      NOp   1
                         Standard orientation:                         
 ---------------------------------------------------------------------
 Center     Atomic      Atomic             Coordinates (Angstroms)
 Number     Number       Type             X           Y           Z
 ---------------------------------------------------------------------
      1          6           0        1.184426   -0.341814   -0.000364
      2          8           0        2.403586   -0.158701    0.000460
      3          7           0        0.239306    0.637699   -0.000312
      4          7           0       -2.741426   -0.145012   -0.000111
      5          1           0       -3.394928    0.633585   -0.089256
      6          1           0       -2.998564   -0.632115    0.858945
      7          1           0       -2.959191   -0.784238   -0.765193
      8          1           0        0.738821   -1.360188   -0.001126
      9          1           0        0.551355    1.601200   -0.000184
     10          1           0       -0.757901    0.413434   -0.001715
 ---------------------------------------------------------------------
 Rotational constants (GHZ):          33.3108043           2.0515159           1.9525337
 Standard basis: Aug-CC-pVDZ (5D, 7F)
 There are   154 symmetry adapted cartesian basis functions of A   symmetry.
 There are   146 symmetry adapted basis functions of A   symmetry.
   146 basis functions,   238 primitive gaussians,   154 cartesian basis functions
    17 alpha electrons       17 beta electrons
       nuclear repulsion energy       114.9221619367 Hartrees.
 NAtoms=   10 NActive=   10 NUniq=   10 SFac= 1.00D+00 NAtFMM=   60 NAOKFM=F Big=F
 Integral buffers will be    131072 words long.
 Raffenetti 1 integral format.
 Two-electron integral symmetry is turned on.
 One-electron integrals computed using PRISM.
 NBasis=   146 RedAO= T EigKep=  3.19D-04  NBF=   146
 NBsUse=   146 1.00D-06 EigRej= -1.00D+00 NBFU=   146
 ExpMin= 2.97D-02 ExpMax= 1.17D+04 ExpMxC= 4.01D+02 IAcc=3 IRadAn=         5 AccDes= 0.00D+00
 Harris functional with IExCor=  205 and IRadAn=       5 diagonalized for initial guess.
 HarFok:  IExCor=  205 AccDes= 0.00D+00 IRadAn=         5 IDoV= 1 UseB2=F ITyADJ=14
 ICtDFT=  3500011 ScaDFX=  1.000000  1.000000  1.000000  1.000000
 FoFCou: FMM=F IPFlag=           0 FMFlag=      100000 FMFlg1=           0
         NFxFlg=           0 DoJE=T BraDBF=F KetDBF=T FulRan=T
         wScrn=  0.000000 ICntrl=       500 IOpCl=  0 I1Cent=   200000004 NGrid=           0
         NMat0=    1 NMatS0=      1 NMatT0=    0 NMatD0=    1 NMtDS0=    0 NMtDT0=    0
 Petite list used in FoFCou.
 Keep R1 ints in memory in canonical form, NReq=66242056.
 Requested convergence on RMS density matrix=1.00D-08 within 128 cycles.
 Requested convergence on MAX density matrix=1.00D-06.
 Requested convergence on             energy=1.00D-06.
 No special actions if energy rises.
 SCF Done:  E(RHF) =  -225.174017671     A.U. after   13 cycles
            NFock= 13  Conv=0.47D-08     -V/T= 2.0025
 ExpMin= 2.97D-02 ExpMax= 1.17D+04 ExpMxC= 4.01D+02 IAcc=3 IRadAn=         5 AccDes= 0.00D+00
 HarFok:  IExCor=  205 AccDes= 0.00D+00 IRadAn=         5 IDoV=-2 UseB2=F ITyADJ=14
 ICtDFT= 12500011 ScaDFX=  1.000000  1.000000  1.000000  1.000000
 Range of M.O.s used for correlation:     5   146
 NBasis=   146 NAE=    17 NBE=    17 NFC=     4 NFV=     0
 NROrb=    142 NOA=    13 NOB=    13 NVA=   129 NVB=   129

 **** Warning!!: The largest alpha MO coefficient is  0.13727721D+02

 Fully direct method using O(ONN) memory.
 JobTyp=1 Pass  1:  I=   5 to  17 NPSUse= 40 ParTrn=T ParDer=T DoDerP=T.
 Spin components of T(2) and E(2):
     alpha-alpha T2 =       0.2909718075D-01 E2=     -0.9101316509D-01
     alpha-beta  T2 =       0.1648851707D+00 E2=     -0.5347531117D+00
     beta-beta   T2 =       0.2909718075D-01 E2=     -0.9101316509D-01
 ANorm=    0.1105929262D+01
 E2 =    -0.7167794419D+00 EUMP2 =    -0.22589079711243D+03
          IDoAtm=1111111111
          Differentiating once with respect to electric field.
                with respect to dipole field.
          Differentiating once with respect to nuclear coordinates.
 Keep R1 ints in memory in canonical form, NReq=66249728.
          There are     1 degrees of freedom in the 1st order CPHF.  IDoFFX=0 NUNeed=     1.
 LinEq1:  Iter=  0 NonCon=     1 RMS=5.29D-03 Max=9.16D-02 NDo=     1
 AX will form     1 AO Fock derivatives at one time.
 LinEq1:  Iter=  1 NonCon=     1 RMS=1.54D-03 Max=1.65D-02 NDo=     1
 LinEq1:  Iter=  2 NonCon=     1 RMS=5.85D-04 Max=7.13D-03 NDo=     1
 LinEq1:  Iter=  3 NonCon=     1 RMS=1.95D-04 Max=2.59D-03 NDo=     1
 LinEq1:  Iter=  4 NonCon=     1 RMS=5.33D-05 Max=4.34D-04 NDo=     1
 LinEq1:  Iter=  5 NonCon=     1 RMS=1.51D-05 Max=2.16D-04 NDo=     1
 LinEq1:  Iter=  6 NonCon=     1 RMS=4.42D-06 Max=4.44D-05 NDo=     1
 LinEq1:  Iter=  7 NonCon=     1 RMS=9.95D-07 Max=9.16D-06 NDo=     1
 LinEq1:  Iter=  8 NonCon=     1 RMS=2.30D-07 Max=2.95D-06 NDo=     1
 LinEq1:  Iter=  9 NonCon=     1 RMS=7.82D-08 Max=1.05D-06 NDo=     1
 LinEq1:  Iter= 10 NonCon=     1 RMS=2.83D-08 Max=3.03D-07 NDo=     1
 LinEq1:  Iter= 11 NonCon=     1 RMS=7.51D-09 Max=5.72D-08 NDo=     1
 LinEq1:  Iter= 12 NonCon=     1 RMS=1.25D-09 Max=9.94D-09 NDo=     1
 LinEq1:  Iter= 13 NonCon=     1 RMS=1.82D-10 Max=1.42D-09 NDo=     1
 LinEq1:  Iter= 14 NonCon=     0 RMS=3.14D-11 Max=2.98D-10 NDo=     1
 Linear equations converged to 1.000D-10 1.000D-09 after    14 iterations.
 End of Minotr F.D. properties file   721 does not exist.
 End of Minotr F.D. properties file   722 does not exist.
 End of Minotr F.D. properties file   788 does not exist.

 **********************************************************************

            Population analysis using the SCF Density.

 **********************************************************************

 Orbital symmetries:
       Occupied  (A) (A) (A) (A) (A) (A) (A) (A) (A) (A) (A) (A)
                 (A) (A) (A) (A) (A)
       Virtual   (A) (A) (A) (A) (A) (A) (A) (A) (A) (A) (A) (A)
                 (A) (A) (A) (A) (A) (A) (A) (A) (A) (A) (A) (A)
                 (A) (A) (A) (A) (A) (A) (A) (A) (A) (A) (A) (A)
                 (A) (A) (A) (A) (A) (A) (A) (A) (A) (A) (A) (A)
                 (A) (A) (A) (A) (A) (A) (A) (A) (A) (A) (A) (A)
                 (A) (A) (A) (A) (A) (A) (A) (A) (A) (A) (A) (A)
                 (A) (A) (A) (A) (A) (A) (A) (A) (A) (A) (A) (A)
                 (A) (A) (A) (A) (A) (A) (A) (A) (A) (A) (A) (A)
                 (A) (A) (A) (A) (A) (A) (A) (A) (A) (A) (A) (A)
                 (A) (A) (A) (A) (A) (A) (A) (A) (A) (A) (A) (A)
                 (A) (A) (A) (A) (A) (A) (A) (A) (A)
 The electronic state is 1-A.
 Alpha  occ. eigenvalues --  -20.52148 -15.58938 -15.57754 -11.35102  -1.35950
 Alpha  occ. eigenvalues --   -1.19572  -1.17730  -0.82908  -0.72537  -0.65994
 Alpha  occ. eigenvalues --   -0.65986  -0.65064  -0.58669  -0.54568  -0.47176
 Alpha  occ. eigenvalues --   -0.41577  -0.39617
 Alpha virt. eigenvalues --    0.02019   0.04160   0.04852   0.05357   0.06752
 Alpha virt. eigenvalues --    0.08785   0.11221   0.12567   0.14299   0.15722
 Alpha virt. eigenvalues --    0.16555   0.17459   0.18881   0.19159   0.19506
 Alpha virt. eigenvalues --    0.20727   0.22143   0.25559   0.26880   0.27080
 Alpha virt. eigenvalues --    0.27662   0.28703   0.29249   0.33288   0.33340
 Alpha virt. eigenvalues --    0.34366   0.35548   0.38595   0.39867   0.42623
 Alpha virt. eigenvalues --    0.43091   0.44885   0.46157   0.47062   0.49258
 Alpha virt. eigenvalues --    0.50501   0.51968   0.52406   0.54433   0.55119
 Alpha virt. eigenvalues --    0.56652   0.59778   0.59881   0.60679   0.62996
 Alpha virt. eigenvalues --    0.65039   0.66652   0.67545   0.68077   0.68570
 Alpha virt. eigenvalues --    0.69228   0.73642   0.74592   0.77386   0.79532
 Alpha virt. eigenvalues --    0.85389   0.88000   0.89951   0.92409   0.93530
 Alpha virt. eigenvalues --    0.94283   0.97399   0.98230   1.01204   1.06731
 Alpha virt. eigenvalues --    1.08535   1.11746   1.19888   1.20130   1.23922
 Alpha virt. eigenvalues --    1.26277   1.28390   1.28552   1.35225   1.40658
 Alpha virt. eigenvalues --    1.44614   1.51632   1.51814   1.54393   1.62856
 Alpha virt. eigenvalues --    1.72940   1.75090   1.75372   1.81423   1.81942
 Alpha virt. eigenvalues --    1.91030   1.91312   1.91564   1.96140   2.01390
 Alpha virt. eigenvalues --    2.03076   2.06279   2.07592   2.09366   2.11320
 Alpha virt. eigenvalues --    2.14943   2.29562   2.31591   2.31931   2.32715
 Alpha virt. eigenvalues --    2.35613   2.36614   2.37720   2.40157   2.42654
 Alpha virt. eigenvalues --    2.43525   2.48225   2.51343   2.64555   2.76500
 Alpha virt. eigenvalues --    2.79923   2.84125   2.84310   2.88537   2.89085
 Alpha virt. eigenvalues --    2.91503   2.99576   3.09453   3.18892   3.31119
 Alpha virt. eigenvalues --    3.50901   3.51672   3.54436   3.65931   3.74917
 Alpha virt. eigenvalues --    3.80885   3.80954   4.05447   4.14243
          Condensed to atoms (all electrons):
               1          2          3          4          5          6
     1  C    4.181035   0.389129   0.344610   0.015052   0.002829  -0.001985
     2  O    0.389129   8.469715  -0.084490  -0.000503  -0.000190   0.000040
     3  N    0.344610  -0.084490   6.212490  -0.049222  -0.002572   0.000861
     4  N    0.015052  -0.000503  -0.049222   6.103376   0.406312   0.400986
     5  H    0.002829  -0.000190  -0.002572   0.406312   0.723268  -0.083664
     6  H   -0.001985   0.000040   0.000861   0.400986  -0.083664   0.710153
     7  H   -0.002092  -0.000012   0.000969   0.400570  -0.086748  -0.077907
     8  H    0.265187  -0.075175  -0.034312   0.000830   0.000001  -0.000248
     9  H   -0.077154   0.003506   0.416277   0.008122   0.000546  -0.000531
    10  H   -0.103645   0.003343   0.378990  -0.074380  -0.007251  -0.000980
               7          8          9         10
     1  C   -0.002092   0.265187  -0.077154  -0.103645
     2  O   -0.000012  -0.075175   0.003506   0.003343
     3  N    0.000969  -0.034312   0.416277   0.378990
     4  N    0.400570   0.000830   0.008122  -0.074380
     5  H   -0.086748   0.000001   0.000546  -0.007251
     6  H   -0.077907  -0.000248  -0.000531  -0.000980
     7  H    0.715641  -0.000421  -0.000660  -0.000854
     8  H   -0.000421   0.925170   0.018308   0.016448
     9  H   -0.000660   0.018308   0.899673  -0.217515
    10  H   -0.000854   0.016448  -0.217515   0.878670
 Mulliken charges:
               1
     1  C    0.987034
     2  O   -0.705364
     3  N   -0.183601
     4  N   -0.211141
     5  H    0.047469
     6  H    0.053275
     7  H    0.051514
     8  H   -0.115789
     9  H   -0.050573
    10  H    0.127177
 Sum of Mulliken charges =  -0.00000
 Mulliken charges with hydrogens summed into heavy atoms:
               1
     1  C    0.871245
     2  O   -0.705364
     3  N   -0.106998
     4  N   -0.058883
 Electronic spatial extent (au):  <R**2>=            589.7216
 Charge=             -0.0000 electrons
 Dipole moment (field-independent basis, Debye):
    X=             -6.9331    Y=             -0.0804    Z=              0.0028  Tot=              6.9335
 Quadrupole moment (field-independent basis, Debye-Ang):
   XX=            -28.2957   YY=            -21.0832   ZZ=            -25.4001
   XY=              1.6132   XZ=             -0.0108   YZ=              0.0020
 Traceless Quadrupole moment (field-independent basis, Debye-Ang):
   XX=             -3.3694   YY=              3.8432   ZZ=             -0.4738
   XY=              1.6132   XZ=             -0.0108   YZ=              0.0020
 Octapole moment (field-independent basis, Debye-Ang**2):
  XXX=            -74.0506  YYY=              4.3575  ZZZ=              0.3038  XYY=             -3.5032
  XXY=              2.1109  XXZ=             -0.0449  XZZ=             -5.1656  YZZ=             -2.1513
  YYZ=             -0.2640  XYZ=              0.0688
 Hexadecapole moment (field-independent basis, Debye-Ang**3):
 XXXX=           -617.6193 YYYY=            -51.1117 ZZZZ=            -28.7849 XXXY=              2.4819
 XXXZ=              0.3646 YYYX=              4.4232 YYYZ=              0.2341 ZZZX=             -0.9516
 ZZZY=             -0.0871 XXYY=           -103.7304 XXZZ=            -98.2068 YYZZ=            -15.5196
 XXYZ=             -0.4459 YYXZ=              0.8032 ZZXY=              4.3422
 N-N= 1.149221619367D+02 E-N=-7.593870525759D+02  KE= 2.246205341699D+02
 Calling FoFJK, ICntrl=  10002127 FMM=F ISym2X=0 I1Cent= 0 IOpClX= 0 NMat=1 NMatS=1 NMatT=0.
 ***** Axes restored to original set *****
 -------------------------------------------------------------------
 Center     Atomic                   Forces (Hartrees/Bohr)
 Number     Number              X              Y              Z
 -------------------------------------------------------------------
      1        6           0.000000516    0.000000098   -0.000000014
      2        8          -0.000000949    0.000000141    0.000000020
      3        7           0.000001153   -0.000000377   -0.000000186
      4        7          -0.000000147   -0.000000392    0.000000186
      5        1           0.000000134    0.000000031    0.000000065
      6        1          -0.000000014   -0.000000043    0.000000067
      7        1           0.000000038    0.000000391   -0.000000299
      8        1           0.000000122   -0.000000321   -0.000000021
      9        1          -0.000000287    0.000000269    0.000000123
     10        1          -0.000000565    0.000000204    0.000000060
 -------------------------------------------------------------------
 Cartesian Forces:  Max     0.000001153 RMS     0.000000358

 GradGradGradGradGradGradGradGradGradGradGradGradGradGradGradGradGradGrad
 Berny optimization.
 FormGI is forming the generalized inverse of G from B-inverse, IUseBI=4.
 Internal  Forces:  Max     0.000000959 RMS     0.000000245
 Search for a local minimum.
 Step number   1 out of a maximum of   43
 All quantities printed in internal units (Hartrees-Bohrs-Radians)
 Mixed Optimization -- En-DIIS/RFO-DIIS
 Second derivative matrix not updated -- first step.
 ITU=  0
     Eigenvalues ---    0.00230   0.00230   0.00230   0.01260   0.02206
     Eigenvalues ---    0.02206   0.03902   0.06523   0.06982   0.16000
     Eigenvalues ---    0.16000   0.16000   0.16000   0.16000   0.16000
     Eigenvalues ---    0.22000   0.32431   0.44002   0.44261   0.44263
     Eigenvalues ---    0.44274   0.45511   0.52718   0.89915
 RFO step:  Lambda= 0.00000000D+00 EMin= 2.30000000D-03
 Linear search not attempted -- first point.
 Iteration  1 RMS(Cart)=  0.00001069 RMS(Int)=  0.00000000
 Iteration  2 RMS(Cart)=  0.00000000 RMS(Int)=  0.00000000
 Variable       Old X    -DE/DX   Delta X   Delta X   Delta X     New X
                                 (Linear)    (Quad)   (Total)
    R1        2.32972   0.00000   0.00000   0.00000   0.00000   2.32972
    R2        2.57218   0.00000   0.00000   0.00000   0.00000   2.57218
    R3        2.10062   0.00000   0.00000   0.00000   0.00000   2.10062
    R4        1.91386   0.00000   0.00000   0.00000   0.00000   1.91386
    R5        1.93152  -0.00000   0.00000  -0.00000  -0.00000   1.93152
    R6        1.92828   0.00000   0.00000   0.00000   0.00000   1.92828
    R7        1.92842  -0.00000   0.00000  -0.00000  -0.00000   1.92842
    R8        1.92843  -0.00000   0.00000  -0.00000  -0.00000   1.92843
    R9        3.89404   0.00000   0.00000   0.00000   0.00000   3.89404
    A1        2.18924  -0.00000   0.00000  -0.00000  -0.00000   2.18924
    A2        2.13234  -0.00000   0.00000  -0.00000  -0.00000   2.13234
    A3        1.96160   0.00000   0.00000   0.00000   0.00000   1.96160
    A4        2.06085  -0.00000   0.00000  -0.00000  -0.00000   2.06085
    A5        2.11711   0.00000   0.00000   0.00000   0.00000   2.11711
    A6        2.10522   0.00000   0.00000   0.00000   0.00000   2.10522
    A7        1.85083  -0.00000   0.00000   0.00000   0.00000   1.85083
    A8        1.85021  -0.00000   0.00000  -0.00000  -0.00000   1.85021
    A9        1.99283   0.00000   0.00000   0.00000   0.00000   1.99283
   A10        1.85289  -0.00000   0.00000  -0.00000  -0.00000   1.85289
   A11        1.95257   0.00000   0.00000   0.00000   0.00000   1.95257
   A12        1.95474   0.00000   0.00000   0.00000   0.00000   1.95474
   A13        3.08837  -0.00000   0.00000  -0.00001  -0.00001   3.08836
   A14        3.13921  -0.00000   0.00000   0.00000   0.00000   3.13921
    D1        0.00072   0.00000   0.00000   0.00000   0.00000   0.00073
    D2        3.14081  -0.00000   0.00000  -0.00000  -0.00000   3.14081
    D3       -3.14099   0.00000   0.00000   0.00000   0.00000  -3.14099
    D4       -0.00090  -0.00000   0.00000  -0.00000  -0.00000  -0.00091
    D5       -3.04486   0.00000   0.00000  -0.00002  -0.00002  -3.04488
    D6        1.12946  -0.00000   0.00000  -0.00002  -0.00002   1.12945
    D7       -0.93644  -0.00000   0.00000  -0.00002  -0.00002  -0.93646
    D8        0.09692  -0.00000   0.00000  -0.00002  -0.00002   0.09690
    D9       -2.01194  -0.00000   0.00000  -0.00002  -0.00002  -2.01197
   D10        2.20533  -0.00000   0.00000  -0.00002  -0.00002   2.20531
         Item               Value     Threshold  Converged?
 Maximum Force            0.000001     0.000015     YES
 RMS     Force            0.000000     0.000010     YES
 Maximum Displacement     0.000025     0.000060     YES
 RMS     Displacement     0.000011     0.000040     YES
 Predicted change in Energy=-5.096903D-12
 Optimization completed.
    -- Stationary point found.
                           ----------------------------
                           !   Optimized Parameters   !
                           ! (Angstroms and Degrees)  !
 --------------------------                            --------------------------
 ! Name  Definition              Value          Derivative Info.                !
 --------------------------------------------------------------------------------
 ! R1    R(1,2)                  1.2328         -DE/DX =    0.0                 !
 ! R2    R(1,3)                  1.3611         -DE/DX =    0.0                 !
 ! R3    R(1,8)                  1.1116         -DE/DX =    0.0                 !
 ! R4    R(3,9)                  1.0128         -DE/DX =    0.0                 !
 ! R5    R(3,10)                 1.0221         -DE/DX =    0.0                 !
 ! R6    R(4,5)                  1.0204         -DE/DX =    0.0                 !
 ! R7    R(4,6)                  1.0205         -DE/DX =    0.0                 !
 ! R8    R(4,7)                  1.0205         -DE/DX =    0.0                 !
 ! R9    R(4,10)                 2.0606         -DE/DX =    0.0                 !
 ! A1    A(2,1,3)              125.4345         -DE/DX =    0.0                 !
 ! A2    A(2,1,8)              122.1743         -DE/DX =    0.0                 !
 ! A3    A(3,1,8)              112.3912         -DE/DX =    0.0                 !
 ! A4    A(1,3,9)              118.0782         -DE/DX =    0.0                 !
 ! A5    A(1,3,10)             121.3016         -DE/DX =    0.0                 !
 ! A6    A(9,3,10)             120.6201         -DE/DX =    0.0                 !
 ! A7    A(5,4,6)              106.0445         -DE/DX =    0.0                 !
 ! A8    A(5,4,7)              106.0094         -DE/DX =    0.0                 !
 ! A9    A(5,4,10)             114.1806         -DE/DX =    0.0                 !
 ! A10   A(6,4,7)              106.1627         -DE/DX =    0.0                 !
 ! A11   A(6,4,10)             111.8738         -DE/DX =    0.0                 !
 ! A12   A(7,4,10)             111.9985         -DE/DX =    0.0                 !
 ! A13   L(3,10,4,8,-1)        176.9504         -DE/DX =    0.0                 !
 ! A14   L(3,10,4,8,-2)        179.8633         -DE/DX =    0.0                 !
 ! D1    D(2,1,3,9)              0.0415         -DE/DX =    0.0                 !
 ! D2    D(2,1,3,10)           179.9552         -DE/DX =    0.0                 !
 ! D3    D(8,1,3,9)           -179.9655         -DE/DX =    0.0                 !
 ! D4    D(8,1,3,10)            -0.0518         -DE/DX =    0.0                 !
 ! D5    D(1,3,4,5)           -174.4576         -DE/DX =    0.0                 !
 ! D6    D(1,3,4,6)             64.7135         -DE/DX =    0.0                 !
 ! D7    D(1,3,4,7)            -53.6543         -DE/DX =    0.0                 !
 ! D8    D(9,3,4,5)              5.553          -DE/DX =    0.0                 !
 ! D9    D(9,3,4,6)           -115.2759         -DE/DX =    0.0                 !
 ! D10   D(9,3,4,7)            126.3563         -DE/DX =    0.0                 !
 --------------------------------------------------------------------------------
 GradGradGradGradGradGradGradGradGradGradGradGradGradGradGradGradGradGrad

                          Input orientation:                          
 ---------------------------------------------------------------------
 Center     Atomic      Atomic             Coordinates (Angstroms)
 Number     Number       Type             X           Y           Z
 ---------------------------------------------------------------------
      1          6           0       -1.184426   -0.341814    0.000364
      2          8           0       -2.403586   -0.158701   -0.000460
      3          7           0       -0.239306    0.637699    0.000312
      4          7           0        2.741426   -0.145012    0.000111
      5          1           0        3.394928    0.633585    0.089256
      6          1           0        2.998564   -0.632115   -0.858945
      7          1           0        2.959191   -0.784238    0.765193
      8          1           0       -0.738821   -1.360188    0.001126
      9          1           0       -0.551355    1.601200    0.000184
     10          1           0        0.757901    0.413434    0.001715
 ---------------------------------------------------------------------
                    Distance matrix (angstroms):
                    1          2          3          4          5
     1  C    0.000000
     2  O    1.232835   0.000000
     3  N    1.361138   2.306157   0.000000
     4  N    3.930782   5.145030   3.081785   0.000000
     5  H    4.682925   5.853079   3.635325   1.020404   0.000000
     6  H    4.280198   5.490386   3.582534   1.020474   1.630394
     7  H    4.236775   5.453155   3.582922   1.020481   1.630024
     8  H    1.111598   2.053050   2.059385   3.686295   4.590292
     9  H    2.043547   2.554997   1.012773   3.727152   4.064156
    10  H    2.083995   3.212840   1.022115   2.060640   2.647648
                    6          7          8          9         10
     6  H    0.000000
     7  H    1.631722   0.000000
     8  H    3.903570   3.819792   0.000000
     9  H    4.281089   4.312712   2.967316   0.000000
    10  H    2.618106   2.619732   2.320757   1.767750   0.000000
 Stoichiometry    CH6N2O
 Framework group  C1[X(CH6N2O)]
 Deg. of freedom    24
 Full point group                 C1      NOp   1
 Largest Abelian subgroup         C1      NOp   1
 Largest concise Abelian subgroup C1      NOp   1
                         Standard orientation:                         
 ---------------------------------------------------------------------
 Center     Atomic      Atomic             Coordinates (Angstroms)
 Number     Number       Type             X           Y           Z
 ---------------------------------------------------------------------
      1          6           0        1.184426   -0.341814   -0.000364
      2          8           0        2.403586   -0.158701    0.000460
      3          7           0        0.239306    0.637699   -0.000312
      4          7           0       -2.741426   -0.145012   -0.000111
      5          1           0       -3.394928    0.633585   -0.089256
      6          1           0       -2.998564   -0.632115    0.858945
      7          1           0       -2.959191   -0.784238   -0.765193
      8          1           0        0.738821   -1.360188   -0.001126
      9          1           0        0.551355    1.601200   -0.000184
     10          1           0       -0.757901    0.413434   -0.001715
 ---------------------------------------------------------------------
 Rotational constants (GHZ):          33.3108043           2.0515159           1.9525337
 Unable to Open any file for archive entry.
 1\1\GINC-N3295\FOpt\RMP2-FC\Aug-CC-pVDZ\C1H6N2O1\GDS001\07-Apr-2025\0\
 \# MP2/aug-cc-pVDZ opt=(tight) freq=(vibrot,anharmonic)\\blah\\0,1\C,-
 1.184426,-0.341814,0.000364\O,-2.403586,-0.158701,-0.00046\N,-0.239306
 ,0.637699,0.000312\N,2.741426,-0.145012,0.000111\H,3.394928,0.633585,0
 .089256\H,2.998564,-0.632115,-0.858945\H,2.959191,-0.784238,0.765193\H
 ,-0.738821,-1.360188,0.001126\H,-0.551355,1.6012,0.000184\H,0.757901,0
 .413434,0.001715\\Version=EM64L-G16RevC.01\State=1-A\HF=-225.1740177\M
 P2=-225.8907971\RMSD=4.691e-09\RMSF=3.577e-07\Dipole=2.5356803,0.04721
 37,-0.0011767\PG=C01 [X(C1H6N2O1)]\\@
 The archive entry for this job was punched.


 You don't have to suffer to be a poet.
 Adolescence is enough suffering for anyone.
                             -- John Ciardi
 Job cpu time:       0 days  0 hours  5 minutes 32.0 seconds.
 Elapsed time:       0 days  0 hours  0 minutes 10.7 seconds.
 File lengths (MBytes):  RWF=     11 Int=      0 D2E=      0 Chk=      3 Scr=      1
 Normal termination of Gaussian 16 at Mon Apr  7 13:09:52 2025.
 Link1:  Proceeding to internal job step number  2.
 ----------------------------------------------------------------------
 #N Geom=AllCheck Guess=TCheck SCRF=Check GenChk RMP2(FC)/Aug-CC-pVDZ F
 req
 ----------------------------------------------------------------------
 1/7=10,10=4,29=7,30=1,38=21,40=1,80=1/1,6,3;
 2/12=2,40=1/2;
 3/5=16,7=10,11=1,14=-4,25=1,30=1,70=2,71=2,116=1,140=1/1,2,3;
 4/5=101,69=2/1;
 5/5=2,38=6,98=1/2;
 8/6=3,8=1,10=1,19=11,30=-1/1;
 9/15=3,16=-3/6;
 11/6=1,8=1,15=11,17=12,24=-1,27=1,28=-2,29=300,32=6,42=3/1,2,10;
 10/6=2,21=1,60=-2/2;
 8/6=4,8=1,10=1,19=11,30=-1/11,4;
 10/5=1,20=4,60=-2/2;
 11/12=2,14=11,16=1,17=2,28=-2,42=3,76=2/2,10,12;
 6/7=2,8=2,9=2,10=2,22=-1/1;
 7/10=1,12=2,25=1,44=2,70=1,71=2/1,2,3,16;
 1/7=10,38=20,80=1/6(3);
 7/8=1,25=202,44=-1,70=1,71=1,92=10/16,17;
 1/7=10,10=4,30=1,38=20,80=1/3;
 99//99;
 3/5=16,7=10,11=1,14=-2,25=1,30=1,70=5,71=2,116=1,140=1/1,2,3;
 4/5=5,16=3,69=2/1;
 5/5=2,38=5,98=1/2;
 8/6=3,8=1,10=1,19=11,30=-1/1;
 9/15=3,16=-3/6;
 11/6=1,8=1,15=11,17=12,24=-1,27=1,28=-2,29=300,32=6,42=3/1,2,10;
 10/6=2,21=1,60=-2/2;
 8/6=4,8=1,10=1,19=11,30=-1/11,4;
 10/5=1,20=4,60=-2/2;
 11/12=2,14=11,16=1,17=2,28=-2,42=3,76=2/2,10,12;
 6/7=2,8=2,9=2,10=2,22=-1/1;
 7/7=1,10=1,12=2,25=1,44=2,70=1,71=1/1,2,3,16;
 1/7=10,38=20,80=1/6(-12);
 7/8=1,25=202,44=-1,70=1,71=1,92=10/16,17;
 1/7=10,10=4,30=1,38=20,80=1/3;
 99//99;
 Structure from the checkpoint file:  "/scr/Gau-26883.chk"
 ----
 blah
 ----
 Charge =  0 Multiplicity = 1
 Redundant internal coordinates found in file.  (old form).
 C,0,-1.184426,-0.341814,0.000364
 O,0,-2.403586,-0.158701,-0.00046
 N,0,-0.239306,0.637699,0.000312
 N,0,2.741426,-0.145012,0.000111
 H,0,3.394928,0.633585,0.089256
 H,0,2.998564,-0.632115,-0.858945
 H,0,2.959191,-0.784238,0.765193
 H,0,-0.738821,-1.360188,0.001126
 H,0,-0.551355,1.6012,0.000184
 H,0,0.757901,0.413434,0.001715
 Recover connectivity data from disk.
 Numerical evaluation of third derivatives.
 Nuclear step= 0.010000 Angstroms, electric field step= 0.000333 atomic units, NStep=1.

 GradGradGradGradGradGradGradGradGradGradGradGradGradGradGradGradGradGrad
 Berny optimization.
 Initialization pass.
                           ----------------------------
                           !    Initial Parameters    !
                           ! (Angstroms and Degrees)  !
 --------------------------                            --------------------------
 ! Name  Definition              Value          Derivative Info.                !
 --------------------------------------------------------------------------------
 ! R1    R(1,2)                  1.2328         calculate D2E/DX2 analytically  !
 ! R2    R(1,3)                  1.3611         calculate D2E/DX2 analytically  !
 ! R3    R(1,8)                  1.1116         calculate D2E/DX2 analytically  !
 ! R4    R(3,9)                  1.0128         calculate D2E/DX2 analytically  !
 ! R5    R(3,10)                 1.0221         calculate D2E/DX2 analytically  !
 ! R6    R(4,5)                  1.0204         calculate D2E/DX2 analytically  !
 ! R7    R(4,6)                  1.0205         calculate D2E/DX2 analytically  !
 ! R8    R(4,7)                  1.0205         calculate D2E/DX2 analytically  !
 ! R9    R(4,10)                 2.0606         calculate D2E/DX2 analytically  !
 ! A1    A(2,1,3)              125.4345         calculate D2E/DX2 analytically  !
 ! A2    A(2,1,8)              122.1743         calculate D2E/DX2 analytically  !
 ! A3    A(3,1,8)              112.3912         calculate D2E/DX2 analytically  !
 ! A4    A(1,3,9)              118.0782         calculate D2E/DX2 analytically  !
 ! A5    A(1,3,10)             121.3016         calculate D2E/DX2 analytically  !
 ! A6    A(9,3,10)             120.6201         calculate D2E/DX2 analytically  !
 ! A7    A(5,4,6)              106.0445         calculate D2E/DX2 analytically  !
 ! A8    A(5,4,7)              106.0094         calculate D2E/DX2 analytically  !
 ! A9    A(5,4,10)             114.1806         calculate D2E/DX2 analytically  !
 ! A10   A(6,4,7)              106.1627         calculate D2E/DX2 analytically  !
 ! A11   A(6,4,10)             111.8738         calculate D2E/DX2 analytically  !
 ! A12   A(7,4,10)             111.9985         calculate D2E/DX2 analytically  !
 ! A13   L(3,10,4,8,-1)        176.9504         calculate D2E/DX2 analytically  !
 ! A14   L(3,10,4,8,-2)        179.8633         calculate D2E/DX2 analytically  !
 ! D1    D(2,1,3,9)              0.0415         calculate D2E/DX2 analytically  !
 ! D2    D(2,1,3,10)           179.9552         calculate D2E/DX2 analytically  !
 ! D3    D(8,1,3,9)           -179.9655         calculate D2E/DX2 analytically  !
 ! D4    D(8,1,3,10)            -0.0518         calculate D2E/DX2 analytically  !
 ! D5    D(1,3,4,5)           -174.4576         calculate D2E/DX2 analytically  !
 ! D6    D(1,3,4,6)             64.7135         calculate D2E/DX2 analytically  !
 ! D7    D(1,3,4,7)            -53.6543         calculate D2E/DX2 analytically  !
 ! D8    D(9,3,4,5)              5.553          calculate D2E/DX2 analytically  !
 ! D9    D(9,3,4,6)           -115.2759         calculate D2E/DX2 analytically  !
 ! D10   D(9,3,4,7)            126.3563         calculate D2E/DX2 analytically  !
 --------------------------------------------------------------------------------
 Trust Radius=3.00D-01 FncErr=1.00D-07 GrdErr=1.00D-07 EigMax=2.50D+02 EigMin=1.00D-04
 Number of steps in this run=      2 maximum allowed number of steps=      2.
 GradGradGradGradGradGradGradGradGradGradGradGradGradGradGradGradGradGrad

                          Input orientation:                          
 ---------------------------------------------------------------------
 Center     Atomic      Atomic             Coordinates (Angstroms)
 Number     Number       Type             X           Y           Z
 ---------------------------------------------------------------------
      1          6           0       -1.184426   -0.341814    0.000364
      2          8           0       -2.403586   -0.158701   -0.000460
      3          7           0       -0.239306    0.637699    0.000312
      4          7           0        2.741426   -0.145012    0.000111
      5          1           0        3.394928    0.633585    0.089256
      6          1           0        2.998564   -0.632115   -0.858945
      7          1           0        2.959191   -0.784238    0.765193
      8          1           0       -0.738821   -1.360188    0.001126
      9          1           0       -0.551355    1.601200    0.000184
     10          1           0        0.757901    0.413434    0.001715
 ---------------------------------------------------------------------
                    Distance matrix (angstroms):
                    1          2          3          4          5
     1  C    0.000000
     2  O    1.232835   0.000000
     3  N    1.361138   2.306157   0.000000
     4  N    3.930782   5.145030   3.081785   0.000000
     5  H    4.682925   5.853079   3.635325   1.020404   0.000000
     6  H    4.280198   5.490386   3.582534   1.020474   1.630394
     7  H    4.236775   5.453155   3.582922   1.020481   1.630024
     8  H    1.111598   2.053050   2.059385   3.686295   4.590292
     9  H    2.043547   2.554997   1.012773   3.727152   4.064156
    10  H    2.083995   3.212840   1.022115   2.060640   2.647648
                    6          7          8          9         10
     6  H    0.000000
     7  H    1.631722   0.000000
     8  H    3.903570   3.819792   0.000000
     9  H    4.281089   4.312712   2.967316   0.000000
    10  H    2.618106   2.619732   2.320757   1.767750   0.000000
 Stoichiometry    CH6N2O
 Framework group  C1[X(CH6N2O)]
 Deg. of freedom    24
 Full point group                 C1      NOp   1
 Largest Abelian subgroup         C1      NOp   1
 Largest concise Abelian subgroup C1      NOp   1
                         Standard orientation:                         
 ---------------------------------------------------------------------
 Center     Atomic      Atomic             Coordinates (Angstroms)
 Number     Number       Type             X           Y           Z
 ---------------------------------------------------------------------
      1          6           0        1.184426   -0.341814   -0.000364
      2          8           0        2.403586   -0.158701    0.000460
      3          7           0        0.239306    0.637699   -0.000312
      4          7           0       -2.741426   -0.145012   -0.000111
      5          1           0       -3.394928    0.633585   -0.089256
      6          1           0       -2.998564   -0.632115    0.858945
      7          1           0       -2.959191   -0.784238   -0.765193
      8          1           0        0.738821   -1.360188   -0.001126
      9          1           0        0.551355    1.601200   -0.000184
     10          1           0       -0.757901    0.413434   -0.001715
 ---------------------------------------------------------------------
 Rotational constants (GHZ):          33.3108043           2.0515159           1.9525337
 Standard basis: Aug-CC-pVDZ (5D, 7F)
 There are   154 symmetry adapted cartesian basis functions of A   symmetry.
 There are   146 symmetry adapted basis functions of A   symmetry.
   146 basis functions,   238 primitive gaussians,   154 cartesian basis functions
    17 alpha electrons       17 beta electrons
       nuclear repulsion energy       114.9221619367 Hartrees.
 NAtoms=   10 NActive=   10 NUniq=   10 SFac= 1.00D+00 NAtFMM=   60 NAOKFM=F Big=F
 Integral buffers will be    131072 words long.
 Raffenetti 1 integral format.
 Two-electron integral symmetry is turned on.
 One-electron integrals computed using PRISM.
 NBasis=   146 RedAO= T EigKep=  3.19D-04  NBF=   146
 NBsUse=   146 1.00D-06 EigRej= -1.00D+00 NBFU=   146
 Initial guess from the checkpoint file:  "/scr/Gau-26883.chk"
 B after Tr=    -0.000000    0.000000    0.000000
         Rot=    1.000000   -0.000000    0.000000    0.000000 Ang=   0.00 deg.
 Keep R1 ints in memory in canonical form, NReq=66242056.
 Requested convergence on RMS density matrix=1.00D-08 within 128 cycles.
 Requested convergence on MAX density matrix=1.00D-06.
 Requested convergence on             energy=1.00D-06.
 No special actions if energy rises.
 SCF Done:  E(RHF) =  -225.174017671     A.U. after    1 cycles
            NFock=  1  Conv=0.62D-09     -V/T= 2.0025
 ExpMin= 2.97D-02 ExpMax= 1.17D+04 ExpMxC= 4.01D+02 IAcc=3 IRadAn=         5 AccDes= 0.00D+00
 HarFok:  IExCor=  205 AccDes= 0.00D+00 IRadAn=         5 IDoV=-2 UseB2=F ITyADJ=14
 ICtDFT= 12500011 ScaDFX=  1.000000  1.000000  1.000000  1.000000
 Range of M.O.s used for correlation:     5   146
 NBasis=   146 NAE=    17 NBE=    17 NFC=     4 NFV=     0
 NROrb=    142 NOA=    13 NOB=    13 NVA=   129 NVB=   129

 **** Warning!!: The largest alpha MO coefficient is  0.13727721D+02

 Disk-based method using ON**2 memory for 13 occupieds at a time.
 Permanent disk used for amplitudes=     5932065 words.
 Estimated scratch disk usage=    90410946 words.
 Actual    scratch disk usage=    82623426 words.
 JobTyp=1 Pass  1:  I=   5 to  17 NPSUse= 40 ParTrn=T ParDer=T DoDerP=T.
 (rs|ai) integrals will be sorted in core.
 Spin components of T(2) and E(2):
     alpha-alpha T2 =       0.2909718076D-01 E2=     -0.9101316511D-01
     alpha-beta  T2 =       0.1648851709D+00 E2=     -0.5347531118D+00
     beta-beta   T2 =       0.2909718076D-01 E2=     -0.9101316511D-01
 ANorm=    0.1105929262D+01
 E2 =    -0.7167794420D+00 EUMP2 =    -0.22589079711250D+03
 G2DrvN: will do    11 centers at a time, making    1 passes.
 Calling FoFCou, ICntrl=  3107 FMM=F I1Cent=   0 AccDes= 0.00D+00.
 End of G2Drv F.D. properties file   721 does not exist.
 End of G2Drv F.D. properties file   722 does not exist.
 End of G2Drv F.D. properties file   788 does not exist.
          IDoAtm=1111111111
          Differentiating once with respect to electric field.
                with respect to dipole field.
          Differentiating once with respect to nuclear coordinates.
 Keep R1 ints in memory in canonical form, NReq=66243534.
          There are    33 degrees of freedom in the 1st order CPHF.  IDoFFX=6 NUNeed=    33.
     30 vectors produced by pass  0 Test12= 6.65D-15 3.03D-09 XBig12= 1.17D+01 1.14D+00.
 AX will form    30 AO Fock derivatives at one time.
     30 vectors produced by pass  1 Test12= 6.65D-15 3.03D-09 XBig12= 1.15D+00 2.16D-01.
     30 vectors produced by pass  2 Test12= 6.65D-15 3.03D-09 XBig12= 4.44D-02 5.57D-02.
     30 vectors produced by pass  3 Test12= 6.65D-15 3.03D-09 XBig12= 5.68D-04 3.87D-03.
     30 vectors produced by pass  4 Test12= 6.65D-15 3.03D-09 XBig12= 5.84D-06 3.08D-04.
     30 vectors produced by pass  5 Test12= 6.65D-15 3.03D-09 XBig12= 4.73D-08 4.38D-05.
     26 vectors produced by pass  6 Test12= 6.65D-15 3.03D-09 XBig12= 2.65D-10 2.40D-06.
      7 vectors produced by pass  7 Test12= 6.65D-15 3.03D-09 XBig12= 1.01D-12 1.26D-07.
      3 vectors produced by pass  8 Test12= 6.65D-15 3.03D-09 XBig12= 5.13D-15 8.55D-09.
 InvSVY:  IOpt=1 It=  1 EMax= 1.78D-15
 Solved reduced A of dimension   216 with    33 vectors.
 End of Minotr F.D. properties file   721 does not exist.
 End of Minotr F.D. properties file   722 does not exist.
 End of Minotr F.D. properties file   788 does not exist.
 MDV=  6710886400.
 Form MO integral derivatives with frozen-active canonical formalism.
 Discarding MO integrals.
 Reordered first order wavefunction length =      9618498
 In DefCFB: NBatch=  1 ICI= 17 ICA=129 LFMax= 65
            Large arrays: LIAPS=   197229648 LIARS=    59101350 words.
 Semi-Direct transformation.
 ModeAB=           4 MOrb=            17 LenV=    6710195007
 LASXX=     24345037 LTotXX=    24345037 LenRXX=    49184434
 LTotAB=    24839397 MaxLAS=    29414182 LenRXY=           0
 NonZer=    73529471 LenScr=   111068672 LnRSAI=    29414182
 LnScr1=    44870656 LExtra=           0 Total=    234537944
 MaxDsk=          -1 SrtSym=           T ITran=            4
 JobTyp=0 Pass  1:  I=   1 to  17.
 (rs|ai) integrals will be sorted in core.
 SymMOI:  orbitals are not symmetric.
 Spin components of T(2) and E(2):
     alpha-alpha T2 =       0.2909718076D-01 E2=     -0.9101316511D-01
     alpha-beta  T2 =       0.1648851709D+00 E2=     -0.5347531118D+00
     beta-beta   T2 =       0.2909718076D-01 E2=     -0.9101316511D-01
 ANorm=    0.1564020161D+01
 E2 =    -0.7167794420D+00 EUMP2 =    -0.22589079711250D+03
          IDoAtm=1111111111
          Differentiating once with respect to electric field.
                with respect to dipole field.
          Differentiating once with respect to nuclear coordinates.
          There are     1 degrees of freedom in the 1st order CPHF.  IDoFFX=0 NUNeed=     1.
 LinEq1:  Iter=  0 NonCon=     1 RMS=5.29D-03 Max=9.16D-02 NDo=     1
 LinEq1:  Iter=  1 NonCon=     1 RMS=1.54D-03 Max=1.65D-02 NDo=     1
 LinEq1:  Iter=  2 NonCon=     1 RMS=5.85D-04 Max=7.13D-03 NDo=     1
 LinEq1:  Iter=  3 NonCon=     1 RMS=1.95D-04 Max=2.59D-03 NDo=     1
 LinEq1:  Iter=  4 NonCon=     1 RMS=5.33D-05 Max=4.34D-04 NDo=     1
 LinEq1:  Iter=  5 NonCon=     1 RMS=1.51D-05 Max=2.16D-04 NDo=     1
 LinEq1:  Iter=  6 NonCon=     1 RMS=4.42D-06 Max=4.44D-05 NDo=     1
 LinEq1:  Iter=  7 NonCon=     1 RMS=9.95D-07 Max=9.16D-06 NDo=     1
 LinEq1:  Iter=  8 NonCon=     1 RMS=2.30D-07 Max=2.95D-06 NDo=     1
 LinEq1:  Iter=  9 NonCon=     1 RMS=7.82D-08 Max=1.05D-06 NDo=     1
 LinEq1:  Iter= 10 NonCon=     1 RMS=2.83D-08 Max=3.03D-07 NDo=     1
 LinEq1:  Iter= 11 NonCon=     1 RMS=7.51D-09 Max=5.72D-08 NDo=     1
 LinEq1:  Iter= 12 NonCon=     1 RMS=1.25D-09 Max=9.94D-09 NDo=     1
 LinEq1:  Iter= 13 NonCon=     1 RMS=1.82D-10 Max=1.42D-09 NDo=     1
 LinEq1:  Iter= 14 NonCon=     0 RMS=3.14D-11 Max=2.98D-10 NDo=     1
 Linear equations converged to 1.000D-10 1.000D-09 after    14 iterations.
 End of Minotr F.D. properties file   721 does not exist.
 End of Minotr F.D. properties file   722 does not exist.
 End of Minotr F.D. properties file   788 does not exist.
 Symmetrizing basis deriv contribution to polar:
 IMax=3 JMax=2 DiffMx= 0.00D+00
 G2DrvN: will do    11 centers at a time, making    1 passes.
 Calling FoFCou, ICntrl=  3107 FMM=F I1Cent=   0 AccDes= 0.00D+00.
 End of G2Drv F.D. properties file   721 does not exist.
 End of G2Drv F.D. properties file   722 does not exist.
 End of G2Drv F.D. properties file   788 does not exist.
 R2 and R3 integrals will be kept in memory, NReq=   144318020.
 DD1Dir will call FoFMem   1 times, MxPair=       306
 NAB=   153 NAA=     0 NBB=     0.
 Discarding MO integrals.

 **********************************************************************

            Population analysis using the MP2 Density.

 **********************************************************************

 Orbital symmetries:
       Occupied  (A) (A) (A) (A) (A) (A) (A) (A) (A) (A) (A) (A)
                 (A) (A) (A) (A) (A)
       Virtual   (A) (A) (A) (A) (A) (A) (A) (A) (A) (A) (A) (A)
                 (A) (A) (A) (A) (A) (A) (A) (A) (A) (A) (A) (A)
                 (A) (A) (A) (A) (A) (A) (A) (A) (A) (A) (A) (A)
                 (A) (A) (A) (A) (A) (A) (A) (A) (A) (A) (A) (A)
                 (A) (A) (A) (A) (A) (A) (A) (A) (A) (A) (A) (A)
                 (A) (A) (A) (A) (A) (A) (A) (A) (A) (A) (A) (A)
                 (A) (A) (A) (A) (A) (A) (A) (A) (A) (A) (A) (A)
                 (A) (A) (A) (A) (A) (A) (A) (A) (A) (A) (A) (A)
                 (A) (A) (A) (A) (A) (A) (A) (A) (A) (A) (A) (A)
                 (A) (A) (A) (A) (A) (A) (A) (A) (A) (A) (A) (A)
                 (A) (A) (A) (A) (A) (A) (A) (A) (A)
 The electronic state is 1-A.
 Alpha  occ. eigenvalues --  -20.52148 -15.58938 -15.57754 -11.35102  -1.35950
 Alpha  occ. eigenvalues --   -1.19572  -1.17730  -0.82908  -0.72537  -0.65994
 Alpha  occ. eigenvalues --   -0.65986  -0.65064  -0.58669  -0.54568  -0.47176
 Alpha  occ. eigenvalues --   -0.41577  -0.39617
 Alpha virt. eigenvalues --    0.02019   0.04160   0.04852   0.05357   0.06752
 Alpha virt. eigenvalues --    0.08785   0.11221   0.12567   0.14299   0.15722
 Alpha virt. eigenvalues --    0.16555   0.17459   0.18881   0.19159   0.19506
 Alpha virt. eigenvalues --    0.20727   0.22143   0.25559   0.26880   0.27080
 Alpha virt. eigenvalues --    0.27662   0.28703   0.29249   0.33288   0.33340
 Alpha virt. eigenvalues --    0.34366   0.35548   0.38595   0.39867   0.42623
 Alpha virt. eigenvalues --    0.43091   0.44885   0.46157   0.47062   0.49258
 Alpha virt. eigenvalues --    0.50501   0.51968   0.52406   0.54433   0.55119
 Alpha virt. eigenvalues --    0.56652   0.59778   0.59881   0.60679   0.62996
 Alpha virt. eigenvalues --    0.65039   0.66652   0.67545   0.68077   0.68570
 Alpha virt. eigenvalues --    0.69228   0.73642   0.74592   0.77386   0.79532
 Alpha virt. eigenvalues --    0.85389   0.88000   0.89951   0.92409   0.93530
 Alpha virt. eigenvalues --    0.94283   0.97399   0.98230   1.01204   1.06731
 Alpha virt. eigenvalues --    1.08535   1.11746   1.19888   1.20130   1.23922
 Alpha virt. eigenvalues --    1.26277   1.28390   1.28552   1.35225   1.40658
 Alpha virt. eigenvalues --    1.44614   1.51632   1.51814   1.54393   1.62856
 Alpha virt. eigenvalues --    1.72940   1.75090   1.75372   1.81423   1.81942
 Alpha virt. eigenvalues --    1.91030   1.91312   1.91564   1.96140   2.01390
 Alpha virt. eigenvalues --    2.03076   2.06279   2.07592   2.09366   2.11320
 Alpha virt. eigenvalues --    2.14943   2.29562   2.31591   2.31931   2.32715
 Alpha virt. eigenvalues --    2.35613   2.36614   2.37720   2.40157   2.42654
 Alpha virt. eigenvalues --    2.43525   2.48225   2.51343   2.64555   2.76500
 Alpha virt. eigenvalues --    2.79923   2.84125   2.84310   2.88537   2.89085
 Alpha virt. eigenvalues --    2.91503   2.99576   3.09453   3.18892   3.31119
 Alpha virt. eigenvalues --    3.50901   3.51672   3.54436   3.65931   3.74917
 Alpha virt. eigenvalues --    3.80885   3.80954   4.05447   4.14243
          Condensed to atoms (all electrons):
               1          2          3          4          5          6
     1  C    4.809443   0.316902   0.234683   0.015518   0.002410  -0.001039
     2  O    0.316902   8.356328  -0.082519  -0.001094  -0.000187  -0.000004
     3  N    0.234683  -0.082519   6.265402  -0.054617  -0.002552   0.000467
     4  N    0.015518  -0.001094  -0.054617   6.097699   0.371360   0.367229
     5  H    0.002410  -0.000187  -0.002552   0.371360   0.821320  -0.102380
     6  H   -0.001039  -0.000004   0.000467   0.367229  -0.102380   0.805377
     7  H   -0.001143  -0.000080   0.000722   0.367006  -0.105166  -0.093908
     8  H    0.117746  -0.066251  -0.030013  -0.000877  -0.000206  -0.000203
     9  H   -0.108413   0.009487   0.358055   0.009113   0.000386  -0.000552
    10  H   -0.148765  -0.001533   0.309810  -0.054178  -0.007890  -0.004817
               7          8          9         10
     1  C   -0.001143   0.117746  -0.108413  -0.148765
     2  O   -0.000080  -0.066251   0.009487  -0.001533
     3  N    0.000722  -0.030013   0.358055   0.309810
     4  N    0.367006  -0.000877   0.009113  -0.054178
     5  H   -0.105166  -0.000206   0.000386  -0.007890
     6  H   -0.093908  -0.000203  -0.000552  -0.004817
     7  H    0.809900  -0.000528  -0.000703  -0.004436
     8  H   -0.000528   1.120815   0.022828   0.015605
     9  H   -0.000703   0.022828   1.023444  -0.244720
    10  H   -0.004436   0.015605  -0.244720   1.089168
 Mulliken charges:
               1
     1  C    0.762658
     2  O   -0.531048
     3  N    0.000562
     4  N   -0.117158
     5  H    0.022906
     6  H    0.029831
     7  H    0.028336
     8  H   -0.178917
     9  H   -0.068924
    10  H    0.051755
 Sum of Mulliken charges =   0.00000
 Mulliken charges with hydrogens summed into heavy atoms:
               1
     1  C    0.583741
     2  O   -0.531048
     3  N   -0.016608
     4  N   -0.036085
 APT charges:
               1
     1  C    1.024977
     2  O   -0.768275
     3  N   -0.776973
     4  N   -0.455852
     5  H    0.147218
     6  H    0.150949
     7  H    0.151065
     8  H   -0.035984
     9  H    0.191770
    10  H    0.371104
 Sum of APT charges =   0.00000
 APT charges with hydrogens summed into heavy atoms:
               1
     1  C    0.988993
     2  O   -0.768275
     3  N   -0.214098
     4  N   -0.006620
 Electronic spatial extent (au):  <R**2>=            590.5436
 Charge=             -0.0000 electrons
 Dipole moment (field-independent basis, Debye):
    X=             -6.4451    Y=              0.1200    Z=              0.0030  Tot=              6.4462
 Quadrupole moment (field-independent basis, Debye-Ang):
   XX=            -27.7746   YY=            -22.0852   ZZ=            -26.0248
   XY=              1.5518   XZ=             -0.0088   YZ=              0.0022
 Traceless Quadrupole moment (field-independent basis, Debye-Ang):
   XX=             -2.4797   YY=              3.2097   ZZ=             -0.7299
   XY=              1.5518   XZ=             -0.0088   YZ=              0.0022
 Octapole moment (field-independent basis, Debye-Ang**2):
  XXX=            -66.5677  YYY=              4.5541  ZZZ=              0.2983  XYY=             -3.5238
  XXY=              2.2282  XXZ=             -0.0488  XZZ=             -4.7590  YZZ=             -2.0220
  YYZ=             -0.2589  XYZ=              0.0652
 Hexadecapole moment (field-independent basis, Debye-Ang**3):
 XXXX=           -635.6770 YYYY=            -56.2715 ZZZZ=            -31.1550 XXXY=             -0.0418
 XXXZ=              0.3806 YYYX=              4.1077 YYYZ=              0.2263 ZZZX=             -0.9251
 ZZZY=             -0.0838 XXYY=           -108.2441 XXZZ=           -100.9588 YYZZ=            -16.6789
 XXYZ=             -0.4302 YYXZ=              0.7859 ZZXY=              4.2073
 N-N= 1.149221619367D+02 E-N=-7.592421278997D+02  KE= 2.252031004573D+02
  Exact polarizability:      56.769      -1.254      40.351       0.002      -0.002      32.339
 Approx polarizability:      38.091      -0.469      32.315       0.008       0.003      28.433
 Calling FoFJK, ICntrl=  10100127 FMM=F ISym2X=0 I1Cent= 0 IOpClX= 0 NMat=1 NMatS=1 NMatT=0.
 Full mass-weighted force constant matrix:
 Low frequencies ---   -0.4645   -0.3055   -0.2091   -0.0011   -0.0003    0.0001
 Low frequencies ---    3.4300   59.1822   75.2789
 Diagonal vibrational polarizability:
       29.7802197      27.3157467     202.2154205
 Harmonic frequencies (cm**-1), IR intensities (KM/Mole), Raman scattering
 activities (A**4/AMU), depolarization ratios for plane and unpolarized
 incident light, reduced masses (AMU), force constants (mDyne/A),
 and normal coordinates:
                      1                      2                      3
                      A                      A                      A
 Frequencies --      3.4147                59.1822                75.2789
 Red. masses --      1.1114                 3.2461                 2.5863
 Frc consts  --      0.0000                 0.0067                 0.0086
 IR Inten    --      0.0766                 1.7551                 0.8717
  Atom  AN      X      Y      Z        X      Y      Z        X      Y      Z
     1   6    -0.00   0.00   0.05    -0.14   0.07   0.00    -0.00   0.00  -0.20
     2   8    -0.00  -0.00   0.02    -0.11  -0.18  -0.00    -0.00  -0.00   0.22
     3   7     0.00   0.00  -0.07     0.04   0.24   0.00     0.00   0.00  -0.16
     4   7     0.00  -0.00   0.01     0.17  -0.10  -0.00     0.00  -0.00   0.08
     5   1    -0.02   0.05   0.57    -0.10  -0.33  -0.01    -0.02  -0.01   0.20
     6   1     0.15  -0.48  -0.21     0.34  -0.18   0.00     0.22   0.05   0.17
     7   1    -0.13   0.43  -0.31     0.40  -0.19   0.01    -0.19  -0.04   0.17
     8   1    -0.00   0.00   0.17    -0.35   0.15  -0.00    -0.00   0.00  -0.69
     9   1     0.00   0.00  -0.19     0.20   0.19   0.00     0.00   0.00   0.41
    10   1     0.00   0.00  -0.04     0.01   0.38   0.00     0.00   0.00  -0.21
                      4                      5                      6
                      A                      A                      A
 Frequencies --    162.2078               205.7743               252.6040
 Red. masses --      4.3798                 1.1721                 1.2028
 Frc consts  --      0.0679                 0.0292                 0.0452
 IR Inten    --      7.1417                 4.8115                47.0398
  Atom  AN      X      Y      Z        X      Y      Z        X      Y      Z
     1   6    -0.10  -0.05   0.00     0.00  -0.00   0.01    -0.01   0.03   0.00
     2   8    -0.12   0.10   0.00    -0.00   0.00  -0.02    -0.01  -0.03  -0.00
     3   7    -0.20  -0.16  -0.00    -0.00  -0.00   0.07     0.01   0.06   0.00
     4   7     0.38   0.09   0.00    -0.00   0.00  -0.08     0.02  -0.10  -0.00
     5   1     0.55   0.23   0.00    -0.07  -0.02   0.24     0.64   0.42   0.00
     6   1     0.28   0.14   0.00     0.63   0.18   0.21    -0.36   0.11   0.00
     7   1     0.25   0.14  -0.00    -0.56  -0.16   0.21    -0.49   0.08  -0.00
     8   1     0.03  -0.11   0.00     0.00  -0.00   0.04    -0.06   0.05   0.00
     9   1    -0.28  -0.14  -0.00    -0.00  -0.00  -0.15     0.02   0.05  -0.00
    10   1    -0.19  -0.25   0.00     0.00  -0.00  -0.24     0.03   0.01  -0.00
                      7                      8                      9
                      A                      A                      A
 Frequencies --    518.1584               583.9389               812.6600
 Red. masses --      1.3236                 2.6552                 1.0637
 Frc consts  --      0.2094                 0.5334                 0.4139
 IR Inten    --    211.4342                13.9028                15.6392
  Atom  AN      X      Y      Z        X      Y      Z        X      Y      Z
     1   6    -0.00  -0.00   0.10    -0.08  -0.20  -0.00     0.00  -0.00  -0.05
     2   8    -0.00   0.00  -0.05    -0.14   0.17   0.00    -0.00   0.00   0.03
     3   7     0.00  -0.00  -0.11     0.17  -0.02   0.00     0.00  -0.00  -0.00
     4   7     0.00   0.00  -0.04    -0.00  -0.01   0.00     0.00   0.00  -0.03
     5   1    -0.02  -0.01   0.06     0.05   0.03   0.00    -0.01  -0.00   0.04
     6   1     0.17   0.06   0.05    -0.04   0.01   0.00     0.10   0.04   0.03
     7   1    -0.15  -0.05   0.05    -0.04   0.00  -0.00    -0.09  -0.04   0.03
     8   1    -0.00  -0.00   0.18     0.02  -0.23  -0.00    -0.00   0.00  -0.10
     9   1    -0.00  -0.00   0.84     0.75  -0.20  -0.00    -0.00   0.00  -0.38
    10   1    -0.00   0.00   0.42     0.08   0.44  -0.00    -0.00  -0.00   0.90
                     10                     11                     12
                      A                      A                      A
 Frequencies --   1034.7824              1094.5301              1118.0053
 Red. masses --      1.5231                 1.6632                 1.1864
 Frc consts  --      0.9609                 1.1739                 0.8737
 IR Inten    --      5.6015                 7.1190               144.1670
  Atom  AN      X      Y      Z        X      Y      Z        X      Y      Z
     1   6     0.00   0.00  -0.20    -0.02   0.03  -0.00    -0.00   0.00   0.00
     2   8     0.00  -0.00   0.05    -0.11   0.02  -0.00    -0.01   0.00   0.00
     3   7    -0.00   0.00   0.03     0.18  -0.03   0.00     0.02  -0.00  -0.00
     4   7    -0.00  -0.00  -0.00     0.01   0.01  -0.00    -0.11  -0.03   0.00
     5   1    -0.00   0.00   0.00    -0.09  -0.07   0.00     0.44   0.36  -0.02
     6   1     0.00   0.00   0.00    -0.06  -0.02  -0.03     0.54   0.07   0.19
     7   1    -0.00  -0.00   0.00    -0.06  -0.01   0.03     0.54   0.04  -0.18
     8   1    -0.00  -0.00   0.96    -0.31   0.14   0.00    -0.03   0.01  -0.00
     9   1    -0.00  -0.00   0.19    -0.52   0.18   0.00    -0.05   0.02  -0.00
    10   1    -0.00   0.00   0.01     0.34  -0.63  -0.00     0.03  -0.07   0.00
                     13                     14                     15
                      A                      A                      A
 Frequencies --   1290.6381              1403.1796              1642.3952
 Red. masses --      2.6709                 1.2236                 1.1113
 Frc consts  --      2.6213                 1.4194                 1.7663
 IR Inten    --    102.4737                 9.6291                32.6582
  Atom  AN      X      Y      Z        X      Y      Z        X      Y      Z
     1   6    -0.06   0.30   0.00     0.00   0.07   0.00     0.03   0.02   0.00
     2   8    -0.03  -0.04  -0.00    -0.09  -0.05  -0.00    -0.03  -0.01  -0.00
     3   7     0.04  -0.21  -0.00     0.03   0.02   0.00     0.03  -0.04   0.00
     4   7    -0.00  -0.00  -0.00    -0.00   0.00  -0.00     0.02  -0.06   0.00
     5   1     0.00   0.00   0.00    -0.00   0.00   0.00    -0.17  -0.18   0.08
     6   1    -0.00  -0.00  -0.00    -0.00  -0.00  -0.00    -0.07   0.54   0.30
     7   1    -0.01  -0.00   0.00     0.00  -0.00   0.00     0.00   0.42  -0.38
     8   1    -0.17   0.35   0.00     0.93  -0.31   0.00     0.01   0.04  -0.00
     9   1     0.72  -0.43   0.00    -0.01   0.03   0.00    -0.26   0.05   0.00
    10   1     0.00  -0.01   0.00     0.06  -0.12   0.00    -0.06   0.39  -0.00
                     16                     17                     18
                      A                      A                      A
 Frequencies --   1648.0083              1659.2744              1755.3838
 Red. masses --      1.0627                 1.1853                 5.9817
 Frc consts  --      1.7005                 1.9227                10.8597
 IR Inten    --     16.7716                 4.9455               473.2310
  Atom  AN      X      Y      Z        X      Y      Z        X      Y      Z
     1   6     0.00  -0.00   0.00     0.05   0.03   0.00     0.55  -0.03   0.00
     2   8     0.00   0.00  -0.00    -0.04  -0.01  -0.00    -0.30  -0.04  -0.00
     3   7     0.00   0.00   0.00     0.04  -0.07   0.00    -0.13   0.07  -0.00
     4   7    -0.00  -0.00  -0.06    -0.01   0.03   0.00     0.00   0.00  -0.00
     5   1     0.00   0.09   0.75     0.13   0.12  -0.05    -0.01  -0.01   0.00
     6   1    -0.33   0.26   0.01     0.03  -0.33  -0.18    -0.00   0.01   0.00
     7   1     0.33  -0.35   0.16    -0.02  -0.25   0.23     0.00   0.01  -0.01
     8   1    -0.00  -0.00  -0.00     0.00   0.06   0.00    -0.35   0.32  -0.00
     9   1    -0.00   0.00   0.00    -0.45   0.08  -0.00     0.52  -0.12   0.00
    10   1    -0.00   0.00  -0.02    -0.12   0.68  -0.00    -0.08  -0.26   0.00
                     19                     20                     21
                      A                      A                      A
 Frequencies --   3016.8112              3442.1918              3475.4777
 Red. masses --      1.0855                 1.0597                 1.0287
 Frc consts  --      5.8208                 7.3981                 7.3212
 IR Inten    --     89.7735               546.9736                14.3511
  Atom  AN      X      Y      Z        X      Y      Z        X      Y      Z
     1   6    -0.03  -0.08  -0.00     0.00  -0.00  -0.00     0.00  -0.00  -0.00
     2   8     0.00   0.00   0.00     0.00  -0.00   0.00     0.00  -0.00   0.00
     3   7    -0.00   0.00  -0.00    -0.06   0.01  -0.00    -0.01   0.00  -0.00
     4   7     0.00   0.00  -0.00    -0.01  -0.00   0.00     0.04   0.01  -0.00
     5   1    -0.00  -0.00   0.00     0.05  -0.06   0.01    -0.33   0.46  -0.05
     6   1     0.00  -0.00  -0.00     0.02   0.04  -0.07    -0.10  -0.27   0.49
     7   1     0.00  -0.00   0.00     0.02   0.05   0.06    -0.08  -0.36  -0.44
     8   1     0.37   0.92   0.00    -0.01  -0.01   0.00    -0.00  -0.00  -0.00
     9   1    -0.00  -0.01   0.00    -0.10  -0.34  -0.00    -0.02  -0.05  -0.00
    10   1     0.01  -0.01  -0.00     0.90   0.20   0.00     0.12   0.03   0.00
                     22                     23                     24
                      A                      A                      A
 Frequencies --   3624.5146              3625.1296              3689.0356
 Red. masses --      1.0884                 1.0886                 1.0954
 Frc consts  --      8.4245                 8.4289                 8.7829
 IR Inten    --     11.2660                11.7729               116.2704
  Atom  AN      X      Y      Z        X      Y      Z        X      Y      Z
     1   6    -0.00  -0.00  -0.00     0.00   0.00   0.00    -0.00  -0.00  -0.00
     2   8     0.00   0.00  -0.00    -0.00  -0.00  -0.00     0.00  -0.00   0.00
     3   7     0.00   0.00   0.00     0.00  -0.00   0.00    -0.04  -0.07  -0.00
     4   7     0.02  -0.07  -0.01    -0.00   0.01  -0.08     0.00   0.00  -0.00
     5   1    -0.51   0.62  -0.07     0.09  -0.11  -0.01    -0.00   0.00  -0.00
     6   1     0.07   0.11  -0.24    -0.18  -0.37   0.64     0.00  -0.00   0.00
     7   1     0.11   0.31   0.40     0.12   0.40   0.46     0.00  -0.00  -0.00
     8   1     0.00   0.00   0.00    -0.00  -0.00   0.00     0.00   0.01   0.00
     9   1     0.00  -0.00  -0.00    -0.00  -0.00   0.00     0.29   0.89   0.00
    10   1     0.00  -0.00  -0.00    -0.00   0.00  -0.00     0.33   0.07   0.00

 -------------------
 - Thermochemistry -
 -------------------
 Temperature   298.150 Kelvin.  Pressure   1.00000 Atm.
 Atom     1 has atomic number  6 and mass  12.00000
 Atom     2 has atomic number  8 and mass  15.99491
 Atom     3 has atomic number  7 and mass  14.00307
 Atom     4 has atomic number  7 and mass  14.00307
 Atom     5 has atomic number  1 and mass   1.00783
 Atom     6 has atomic number  1 and mass   1.00783
 Atom     7 has atomic number  1 and mass   1.00783
 Atom     8 has atomic number  1 and mass   1.00783
 Atom     9 has atomic number  1 and mass   1.00783
 Atom    10 has atomic number  1 and mass   1.00783
 Molecular mass:    62.04801 amu.
 Principal axes and moments of inertia in atomic units:
                           1         2         3
     Eigenvalues --    54.17885 879.71107 924.30732
           X            0.99998   0.00706  -0.00003
           Y           -0.00706   0.99998   0.00008
           Z            0.00003  -0.00008   1.00000
 This molecule is an asymmetric top.
 Rotational symmetry number  1.
 Rotational temperatures (Kelvin)      1.59867     0.09846     0.09371
 Rotational constants (GHZ):          33.31080     2.05152     1.95253
 Zero-point vibrational energy     216479.7 (Joules/Mol)
                                   51.73989 (Kcal/Mol)
 Warning -- explicit consideration of   8 degrees of freedom as
           vibrations may cause significant error
 Vibrational temperatures:      4.91    85.15   108.31   233.38   296.06
          (Kelvin)            363.44   745.51   840.16  1169.24  1488.82
                             1574.78  1608.56  1856.94  2018.86  2363.04
                             2371.12  2387.33  2525.61  4340.52  4952.55
                             5000.44  5214.87  5215.75  5307.70
 
 Zero-point correction=                           0.082453 (Hartree/Particle)
 Thermal correction to Energy=                    0.090042
 Thermal correction to Enthalpy=                  0.090986
 Thermal correction to Gibbs Free Energy=         0.048174
 Sum of electronic and zero-point Energies=           -225.808344
 Sum of electronic and thermal Energies=              -225.800755
 Sum of electronic and thermal Enthalpies=            -225.799811
 Sum of electronic and thermal Free Energies=         -225.842623
 
                     E (Thermal)             CV                S
                      KCal/Mol        Cal/Mol-Kelvin    Cal/Mol-Kelvin
 Total                   56.502             21.582             90.106
 Electronic               0.000              0.000              0.000
 Translational            0.889              2.981             38.295
 Rotational               0.889              2.981             25.291
 Vibrational             54.725             15.621             26.519
 Vibration     1          0.592              1.987             10.146
 Vibration     2          0.597              1.974              4.484
 Vibration     3          0.599              1.965              4.010
 Vibration     4          0.622              1.889              2.524
 Vibration     5          0.640              1.832              2.081
 Vibration     6          0.664              1.758              1.712
 Vibration     7          0.873              1.210              0.614
 Vibration     8          0.941              1.066              0.478
                       Q            Log10(Q)             Ln(Q)
 Total Bot       0.694375D-22        -22.158406        -51.021616
 Total V=0       0.585054D+16         15.767196         36.305310
 Vib (Bot)       0.481071D-34        -34.317791        -79.019633
 Vib (Bot)    1  0.606855D+02          1.783085          4.105704
 Vib (Bot)    2  0.348960D+01          0.542775          1.249786
 Vib (Bot)    3  0.273768D+01          0.437383          1.007111
 Vib (Bot)    4  0.124548D+01          0.095338          0.219524
 Vib (Bot)    5  0.966833D+00         -0.014649         -0.033730
 Vib (Bot)    6  0.771681D+00         -0.112562         -0.259184
 Vib (Bot)    7  0.312040D+00         -0.505790         -1.164625
 Vib (Bot)    8  0.259925D+00         -0.585152         -1.347362
 Vib (V=0)       0.405332D+04          3.607811          8.307292
 Vib (V=0)    1  0.611875D+02          1.786663          4.113943
 Vib (V=0)    2  0.402523D+01          0.604791          1.392583
 Vib (V=0)    3  0.328296D+01          0.516266          1.188747
 Vib (V=0)    4  0.184210D+01          0.265313          0.610906
 Vib (V=0)    5  0.158847D+01          0.200979          0.462771
 Vib (V=0)    6  0.141951D+01          0.152137          0.350309
 Vib (V=0)    7  0.108938D+01          0.037179          0.085609
 Vib (V=0)    8  0.106353D+01          0.026748          0.061589
 Electronic      0.100000D+01          0.000000          0.000000
 Translational   0.192108D+08          7.283546         16.770984
 Rotational      0.751344D+05          4.875839         11.227034

     ==================================================
      Anharmonic Data: Displacement Vectors Definition
     ==================================================

 Framework definition based on atomic masses: C1  

 **********************************************************************

                  Harmonic vibro-rotational analysis

 **********************************************************************


     ==================================================
               Analysis of the Rotor Symmetry
     ==================================================

 Framework Group : C1  
 Rotor Type      : Asymmetric Top
 Asymm. param.   : Kappa = -0.993687
 Inertia moments : X=    15.17162 , Y=   246.34419 , Z=   258.83241
 Representation  : IIIr Representation, Ix < Iy < Iz

 Axes Definition for the Symmetric-Top Representation
 ----------------------------------------------------
 Axis Z automatically chosen to be collinear with X from Eckart orient.
 NOTE: In Vibro-rotational analysis, this will be referred to as the
       spectroscopic orientation.

     ==================================================
        Vibro-Rotational Analysis Based on Symmetry
     ==================================================

 Input/Output information
 ------------------------
 Normal modes will be PRINTED in DESCENDING order (imag. freq. first)
   and sorted by irreducible representation
 The connection between this new numbering (A) and the one used before
   (H) is reported in the present equivalency table:
 ----+------+------+------+------+------+------+------+------+------+
 (H) |     1|     2|     3|     4|     5|     6|     7|     8|     9|
 (A) |    24|    23|    22|    21|    20|    19|    18|    17|    16|
 ----+------+------+------+------+------+------+------+------+------+
 ----+------+------+------+------+------+------+------+------+------+
 (H) |    10|    11|    12|    13|    14|    15|    16|    17|    18|
 (A) |    15|    14|    13|    12|    11|    10|     9|     8|     7|
 ----+------+------+------+------+------+------+------+------+------+
 ----+------+------+------+------+------+------+
 (H) |    19|    20|    21|    22|    23|    24|
 (A) |     6|     5|     4|     3|     2|     1|
 ----+------+------+------+------+------+------+

 Normal modes will be READ in ASCENDING order (imag. freq. first)

     ==================================================
                   Coriolis Couplings
     ==================================================

 Coriolis Couplings along the X axis
 -----------------------------------
                1             2             3             4             5 
      1   0.000000D+00
      2   0.000000D+00  0.000000D+00
      3   0.000000D+00 -0.304470D-01  0.000000D+00
      4   0.000000D+00 -0.181942D-02  0.000000D+00  0.000000D+00
      5   0.000000D+00  0.000000D+00  0.000000D+00  0.000000D+00  0.000000D+00
      6   0.000000D+00  0.000000D+00  0.000000D+00  0.000000D+00  0.000000D+00
      7   0.000000D+00 -0.610786D-02  0.000000D+00  0.000000D+00  0.000000D+00
[...]
 0.00005420,0.00002663,-0.00000052,-0.00001001,0.00000537,-0.00000116,0
 .00000998,-0.00005556,0.00001082,0.00000224,0.00000137,-0.00000371,-0.
 00000194,-0.00000873,-0.00002966,-0.00000653,-0.00001153,0.00002272,-0
 .00001952,0.00005613,-0.00000147,0.00000150,-0.00003340,0.,0.00000017,
 0.00001234,0.00000013,0.00000235,0.00007593,-0.00001361,0.00000479,0.0
 0009288,0.00000351,-0.00000803,0.00000314,0.00002272,-0.00002590,-0.00
 004475,-0.00000844,0.00003441,-0.00003163,-0.00000315,-0.00000144,0.00
 002687,0.00001683,-0.00005391,0.00000025,0.00001303,0.00000213,-0.0000
 0040,0.00017812,0.00520530,-0.00000457,0.00013682,0.00004910,-0.000013
 25,-0.00004754,-0.00008825,-0.00000663,0.00003479,0.00005062,0.0000903
 4,0.00004085,0.00006376,-0.00007094,-0.00001170,-0.00000362,0.00000199
 ,-0.00013027,-0.00008738,-0.00001396,0.00000024,0.00000723,-0.00000895
 ,-0.00000007,0.00617059,-0.01235616,0.00000461,0.00002633,-0.00004379,
 0.00000175,-0.00006371,-0.00006938,-0.00000642,0.00001457,0.00004872,0
 .00009662,0.00002380,0.00007079,-0.00009114,-0.00000116,0.00002984,-0.
 00000031,-0.00593978,0.01226325,-0.00000035,-0.00000006,0.00004940,-0.
 00000018,0.00000016,0.00000573,-0.00000400,0.00000178,0.00312103,-0.00
 000502,-0.00001675,0.00021636,0.00000159,-0.00000128,-0.00004014,0.000
 01592,-0.00001993,-0.00008602,-0.00001053,0.00004071,-0.00007076,-0.00
 000265,-0.00000044,-0.00000862,0.00000486,-0.00000271,-0.00313977,0.00
 023443,0.00078436,-0.00000223,-0.00034057,-0.00019481,-0.00000013,-0.0
 7671253,0.02184483,-0.00012934,-0.00040031,-0.00040177,0.00000755,0.00
 004079,0.00131161,0.00011711,-0.00019702,-0.00032927,-0.00080440,-0.00
 018437,-0.00045431,0.00067715,0.00004851,-0.00005636,-0.00000169,-0.00
 023093,-0.00015049,0.00000036,0.07774200,-0.00050125,-0.00007377,-0.00
 000859,0.00009460,-0.00001684,0.00000025,0.02184593,0.01014363,0.00003
 543,-0.00039835,-0.00121377,0.00001856,-0.00049284,0.00068604,0.000030
 00,0.00040924,0.00014036,0.00072305,0.00057680,0.00032981,-0.00077897,
 0.00010502,0.00006738,-0.00000753,0.00071465,0.00007965,-0.00000148,-0
 .02235380,-0.01014247,0.00000860,-0.00000202,0.00001877,-0.00000224,-0
 .00000411,0.00000837,-0.00012695,0.00004075,0.01673725,0.00001183,-0.0
 0006848,-0.00235668,-0.00003736,0.00019020,0.00000484,0.00064195,0.000
 34154,0.00111321,-0.00063373,-0.00048528,0.00090267,0.00000391,0.00000
 070,-0.00009277,-0.00000163,-0.00000256,-0.00004721,0.00013563,-0.0000
 1073,-0.01628845,0.00004403,0.00014287,0.00000829,-0.00001312,-0.00000
 389,0.00005388,-0.00000018,-0.00014333,-0.00000436,0.00004009,-0.00003
 470,0.00005085,0.00000401,0.00002749,-0.00009158,0.00000781,0.00000161
 ,0.00008338,-0.00000742,-0.00000176,-0.00009053,-0.00019433,-0.0000288
 7,0.00000773,0.00003869,0.00002536,0.00000650,0.00042129,-0.00006038,-
 0.00011635,0.00000636,0.00006266,0.00005484,-0.00000248,-0.00014181,0.
 00055625,-0.00002827,-0.00003554,-0.00008250,0.00002546,0.00000756,0.0
 0002077,0.00001887,0.00002323,0.00079800,0.00021177,0.00018359,0.00000
 158,-0.00022444,-0.00001628,0.00001392,0.00030814,0.00002582,-0.000115
 12,0.80627653,-0.00034178,-0.00110046,0.00008670,0.00025631,0.00017612
 ,-0.00000345,-0.00020640,0.00151441,0.00001740,1.70700449,1.91833202,-
 0.00022337,-0.00012322,-0.00005120,0.00014034,0.00000663,-0.00002671,-
 0.00018377,0.00006631,0.00060233,0.44184997,-0.34309405,0.30817746,0.0
 0008888,0.00031809,-0.00000035,-0.00005308,-0.00011773,-0.00000288,-0.
 00051232,-0.00023645,0.00000944,-1.02822773,-2.00591548,-0.24365746,1.
 01717685,0.00013023,0.00068097,-0.00005067,-0.00008190,-0.00012461,-0.
 00000151,0.00054998,-0.00094053,-0.00011553,-1.98423351,-1.57868178,-0
 .27539291,1.97680329,1.56489446,0.00007640,0.00017804,0.00007303,-0.00
 005822,-0.00003642,0.00002008,-0.00002028,-0.00019861,0.00021924,-0.24
 097017,-0.27528310,0.65972224,0.23978376,0.27838460,-0.64592637,-0.000
 12245,-0.00019312,-0.00000594,0.00011486,0.00004739,-0.00001129,0.0001
 7270,0.00003744,0.00000556,0.02986776,0.05510012,0.11980747,0.00750992
 ,0.00301244,-0.00056111,-0.04561858,0.00009052,0.00020763,-0.00001354,
 -0.00011582,-0.00003782,-0.00000175,-0.00019294,-0.00024457,0.00008112
 ,0.04510733,-0.00730782,-0.16498427,0.01503278,0.00625545,-0.00699765,
 -0.05922620,-0.00728395,-0.00006171,0.00004010,0.00000483,0.00004888,-
 0.00003562,0.00000061,-0.00009432,-0.00003917,-0.00018100,0.09746499,-
 0.15696302,-0.26955610,0.00874997,-0.00021039,-0.00788343,-0.11507063,
 0.16723341,0.28503240,-0.00007383,-0.00021766,-0.00000084,0.00005598,0
 .00005696,0.00000326,-0.00009639,0.00008023,0.00007886,0.19236350,0.24
 579629,-0.31738930,0.00332931,0.00265581,0.00145314,0.00828404,-0.0010
 5455,0.00917347,-0.20384995,0.00007808,0.00015699,0.00000641,-0.000094
 56,-0.00002703,0.00000426,-0.00025524,-0.00024292,0.00003610,0.2326041
 9,-0.33128539,0.78320314,0.01385153,0.00684096,0.00384110,0.00106537,0
 .00832263,-0.01025598,-0.24752901,0.31587898,0.00021893,-0.00007808,0.
 00000553,-0.00015824,0.00006403,0.00001633,0.00023046,0.00016568,-0.00
 031665,-0.29845440,0.77532238,-0.69691796,-0.00487726,-0.00297018,-0.0
 0600648,-0.00423177,0.00485354,-0.00784492,0.30693229,-0.77666234,0.71
 017142,0.00008161,-0.00002195,0.00000891,-0.00002513,0.00000563,-0.000
 00169,0.00003288,0.00004223,-0.00000364,-0.00000691,0.00001809,-0.0000
 0106,0.00003104,-0.00004361,-0.00000788,0.00000878,0.00002524,-0.00003
 350,0.00000175,0.00002814,0.00003600,-0.00010811,-0.00005978,0.0000499
 0,0.00000561,0.00006538,-0.00001718,0.00000057,0.00002749,-0.00001297,
 -0.00000044,-0.00000952,0.00011148,-0.00002529,-0.00008921,-0.00010061
 ,-0.00003256,0.00002825,-0.00000617,-0.00005444,0.00005235,-0.00001089
 ,0.00011312,-0.00002356,-0.00004664,-0.00000414,0.00002208,0.00003403,
 0.00000645,-0.00000462,-0.00002234,-0.00000093,-0.00000080,0.00001478,
 0.00001006,0.00000724,0.00002547,-0.00000198,-0.00001560,0.00000069,0.
 00000929,0.00000033,-0.00000132,-0.00000802,0.00002058,-0.00001095,-0.
 00001045,-0.00001265,0.00001559,-0.00003802,-0.00000863,0.00000318,0.0
 0001481,-0.00000017,-0.00000108,0.00000233,0.00002140,0.00002590,-0.00
 003212,-0.00015781,0.00002075,0.00004606,0.00009315,0.00002032,0.00002
 271,0.00001685,0.00002724,-0.00000091,0.00001805,-0.00006422,-0.000009
 51,0.00000299,0.00000137,-0.00004709,-0.00001295,-0.00003111,0.0000027
 1,-0.00000370,0.00000392,0.00000034,0.00005219,-0.00009948,-0.00000133
 ,-0.00005019,-0.00006121,0.00005020,0.00001063,0.00001295,-0.00000331,
 0.00000609,-0.00000160,0.00002547,0.00000985,0.00000989,-0.00007791,-0
 .00000325,-0.00000132,-0.00000094,-0.00003267,0.00010032,-0.00000571,-
 0.00001248,0.00000322,0.00000162,0.00000502,-0.00001078,0.00001020,-0.
 00001794,0.00001648,-0.00003885,-0.00005661,0.00009620,-0.00000410,0.0
 0000499,-0.00004384,0.00002934,0.00000861,-0.00000756,0.00000147,0.000
 02788,-0.00005324,-0.00000298,0.00000237,0.00001768,-0.00000079,-0.000
 00599,0.00000933,0.00000251,-0.00003099,0.00000322,0.00003840,0.000006
 05,-0.00000712,-0.00017299,0.00016883,-0.00001706,-0.00053649,-0.00155
 383,-0.00036357,0.00061107,0.00111413,0.00028405,-0.00023974,0.0003167
 9,-0.00020439,-0.00001350,0.00023344,0.00036822,-0.00000641,0.00000561
 ,-0.00000164,0.00004173,0.00002399,0.00000980,0.00027542,0.00006790,0.
 00009329,-0.00004370,0.00002747,0.00001250,0.00000417,0.00017024,-0.00
 046866,-0.00001256,-0.00061594,-0.00169736,0.00029345,0.00034253,0.001
 16274,0.00014791,0.00012222,0.00009622,0.00025963,0.00014973,0.0003567
 7,-0.00073024,-0.00002696,0.00003440,-0.00001561,0.00004684,0.00006763
 ,0.00004414,-0.00028403,0.00034247,0.00003318,0.00001138,-0.00012422,0
 .00000550,-0.00000883,0.00000920,0.00002555,-0.00000258,-0.00109146,0.
 00023802,-0.00003349,-0.00207174,0.00000087,0.00036720,-0.00017518,0.0
 0002909,-0.00017981,0.00043649,-0.00024433,-0.00022115,0.00095690,0.00
 001629,0.00000370,-0.00007364,-0.00003267,0.00001078,-0.00002751,-0.00
 007150,0.00005280,0.00216117,0.00021829,-0.00033620,0.00031761,0.00001
 797,0.00001768,0.00005157,-0.00025258,0.00031429,0.00001277,0.00028682
 ,0.00005327,-0.00005813,0.00000075,-0.00011824,-0.00003584,-0.00000266
 ,-0.00000155,0.00007343,-0.00000246,-0.00000075,-0.00008211,0.00011729
 ,0.00003371,-0.00001728,-0.00006093,0.00003867,0.00000062,0.00035070,0
 .00019087,0.00007431,-0.00001531,-0.00011385,0.00000966,0.00000653,-0.
 00018050,0.00015063,0.00001509,0.00001963,-0.00001323,-0.00002495,-0.0
 0001014,0.00001225,-0.00003585,-0.00004408,0.00011810,0.00055393,0.000
 44002,0.00003997,-0.00038008,-0.00005795,-0.00001107,0.00057282,-0.000
 01255,0.00007684,-0.64888879,0.00030942,0.00005672,-0.00000322,-0.0002
 3940,0.00005575,0.00001747,0.00037146,0.00019996,-0.00001470,-0.784885
 94,0.89307332,0.00020955,0.00015240,-0.00007510,-0.00015080,-0.0000121
 5,-0.00003849,0.00013998,-0.00008236,0.00124340,-0.42624088,0.34162735
 ,2.78775060,-0.00019142,-0.00019438,-0.00001300,0.00016367,0.00004445,
 0.00000129,0.00025553,-0.00003604,-0.00002996,-0.03108801,-0.05643821,
 0.00693340,0.02938588,0.00003649,0.00017709,-0.00000024,-0.00002715,-0
 .00005130,0.00000207,-0.00011333,-0.00012221,-0.00000544,-0.03017748,-
 0.05407374,0.00727080,0.06195459,0.06115160,-0.00006234,-0.00009712,0.
 00004857,0.00004993,0.00001920,-0.00001766,0.00007237,0.00010741,-0.00
 015957,0.00873214,0.00604647,0.00583346,-0.00539281,-0.00970121,-0.026
 44366,-0.00008481,-0.00014802,-0.00001799,0.00002976,0.00002592,0.0000
 2041,-0.00052929,0.00012577,-0.00020648,0.38171904,0.48132784,0.827061
 35,-0.00117416,-0.01535163,-0.01096321,-0.37748586,-0.00020461,-0.0002
 6509,-0.00004060,0.00015824,0.00003990,0.00000372,0.00002447,0.0000534
 4,-0.00038946,0.47125057,-0.24409453,-1.49007338,-0.00397327,-0.003235
 18,-0.00005261,-0.46525964,0.25082666,-0.00019478,0.00004096,-0.000003
 95,0.00011972,-0.00003155,0.00002977,-0.00049391,-0.00012699,-0.000578
 07,0.80784262,-1.48577621,-1.90753956,0.00128744,0.00642802,0.01108656
 ,-0.80987354,1.48117869,1.88532388,-0.00014861,-0.00015535,-0.00000858
 ,0.00009516,0.00002105,-0.00001305,-0.00027989,0.00006048,0.00017757,0
 .29771173,0.35922245,-0.40832665,0.00290431,-0.01661500,0.00773846,-0.
 00268659,-0.00151958,0.00166588,-0.29760484,-0.00024553,-0.00012644,0.
 00003232,0.00016899,0.00000097,-0.00001861,-0.00005712,-0.00006910,0.0
 0037011,0.34445572,-0.59328943,1.14143606,-0.00148437,-0.00391054,0.00
 374147,-0.00100048,-0.00408129,-0.00252042,-0.34141938,0.60066016,0.00
 003085,-0.00011985,-0.00000860,0.00000718,0.00002567,0.00001987,0.0003
 5404,0.00010127,-0.00031338,-0.39020117,1.13817587,-0.88377949,-0.0028
 4660,-0.00398571,0.00938449,-0.00661634,0.00830976,0.00990128,0.399201
 62,-1.14212641,0.86388837,-0.00015758,0.00014489,-0.00000508,0.0000742
 7,-0.00003211,-0.00000159,-0.00003546,-0.00002088,0.00000621,-0.000013
 55,-0.00001453,0.00003834,-0.00000531,0.00001092,-0.00000134,0.0000023
 6,-0.00001135,-0.00004384,0.00000128,-0.00000375,0.00001302,0.00012204
 ,0.00007535,-0.00020325,-0.00001372,-0.00008376,0.00004986,0.00000011,
 0.00000079,0.00003283,-0.00000044,0.00000604,0.00005580,0.00002305,-0.
 00001630,-0.00004322,0.00001124,0.00003471,0.00001449,-0.00007906,0.00
 001486,-0.00002673,0.00004356,-0.00005964,0.00009599,0.00000318,-0.000
 02862,-0.00010280,-0.00000555,0.00000798,0.00000361,0.00000230,0.00000
 312,-0.00000274,-0.00003483,-0.00000197,0.00007113,0.00000800,0.000002
 76,-0.00000213,0.00001260,-0.00001270,-0.00005090,0.00001179,0.0000057
 4,-0.00001683,0.00000654,0.00002013,0.00010215,-0.00003820,-0.00000680
 ,-0.00000195,0.00001620,0.00000330,0.00000072,-0.00003378,0.00008277,-
 0.00003236,-0.00013822,-0.00003051,-0.00004541,0.00008400,0.00001434,-
 0.00000689,0.00002494,0.00003209,0.00002911,0.00003980,0.00004943,0.00
 002030,-0.00000860,0.00000852,-0.00000080,0.00002971,0.00002969,-0.000
 05323,-0.00000497,-0.00001599,0.00002567,-0.00000167,0.00002797,0.0000
 1714,0.00003270,-0.00010807,-0.00007891,-0.00005126,0.00002956,-0.0000
 0357,0.00000832,0.00002976,0.00004282,0.00009947,0.00004243,0.00006365
 ,-0.00004683,-0.00001657,0.00000178,0.00000335,-0.00002888,0.00001310,
 0.00000524,0.00001041,0.00000075,-0.00000178,-0.00000448,-0.00001293,-
 0.00001565,0.00004074,0.00010404,0.00002489,0.00000892,0.00033415,0.00
 001374,0.00000316,-0.00004562,-0.00008264,-0.00000656,-0.00015239,0.00
 005433,0.00001305,-0.00010182,0.,-0.00000256,-0.00001255,0.00001463,-0
 .00001621,-0.00005092,-0.00001632,-0.00009215,-0.00000683,0.00002771,0
 .00002164,0.00000779,-0.00035699,-0.00009608,0.00005390,-0.00004887,0.
 00037741,0.00038112,-0.00033448,0.00026826,-0.00016631,0.00018461,-0.0
 0049691,-0.00033870,-0.00003236,-0.00046351,0.00003709,0.00002055,0.00
 001942,-0.00000324,0.00002415,0.00001011,-0.00001275,0.00053200,0.0000
 9125,0.00008041,0.00002731,-0.00004313,-0.00003656,-0.00000731,-0.0001
 4612,-0.00034664,0.00004182,-0.00091035,-0.00190495,-0.00029051,0.0001
 1397,0.00011106,-0.00008317,0.00021577,0.00069878,0.00078708,0.0003480
 4,0.00077874,-0.00037732,0.00000302,0.00002244,0.00000023,-0.00012426,
 -0.00002844,-0.00004648,0.00045181,0.00062516,-0.00002210,0.00000606,0
 .00002934,-0.00000406,0.00000549,0.00001227,-0.00000662,0.00000967,-0.
 00041079,-0.00022851,-0.00007997,-0.00380011,0.00003852,-0.00001422,0.
 00031556,0.00066583,0.00108313,0.00198338,-0.00050136,-0.00093331,0.00
 102611,-0.00001228,-0.00000230,0.00001105,0.00002266,-0.00002289,-0.00
 006270,0.00004792,-0.00005166,0.00089589,-0.01758062,-0.00947721,-0.02
 838062,-0.00002436,0.00002552,0.00485210,0.00566767,-0.00072725,0.0000
 0328,-0.00151238,-0.00281878,0.00559771,-0.00000314,0.00222555,-0.0036
 1941,0.00000470,-0.00000512,-0.00045323,-0.00000356,0.00000243,-0.0002
 6891,0.00800164,0.04340846,0.00000390,-0.00640314,-0.00496751,-0.00000
 330,0.18053265,0.01345132,0.01323437,-0.00003680,-0.00378267,-0.002528
 98,-0.00000361,-1.78995903,4.05115230,-0.00000431,-0.00001738,-0.01168
 052,0.00000556,0.00000349,0.00400931,0.00138537,-0.00071775,-1.1658493
 2,0.00113293,0.00085842,-0.00000024,-0.00051473,-0.00004330,-0.0000005
 1,-0.00015022,0.00275798,0.00000928,0.00084719,-0.00028953,0.00007414,
 0.00000228,0.00014641,0.00001502,0.00000052,0.00073119,-0.00059196,-0.
 00001209,0.00027705,0.00320081,0.00000061,0.00000447,-0.00031840,0.000
 00050,-0.00000291,0.00006175,0.00000163,0.00001099,0.00056579,-0.00000
 740,0.00004298,0.00261800,0.00012090,0.00019859,-0.00000969,-0.0000499
 3,0.00000772,0.00000258,-0.00006508,0.00014871,0.00001733,-0.00092970,
 0.00116203,0.00007653,0.00050725,-0.00017485,-0.00015887,0.00000472,0.
 00008589,0.00000109,-0.00000140,0.00029487,-0.00015939,-0.00000339,0.0
 0024615,-0.00110380,-0.00011286,-0.00024290,0.00057633,-0.00001418,-0.
 00001261,0.00000342,0.00000608,0.00000056,0.00000151,0.00001704,-0.000
 00341,-0.00006658,-0.00000364,-0.00009826,0.00015598,-0.00001221,0.000
 06776,-0.00013504,0.00021324,0.00002943,0.00004897,-0.00009431,0.00001
 075,-0.00002189,-0.00015728,0.00026504,-0.00000107,-0.00123394,-0.0001
 4952,-0.00096333,0.00014065,0.00014319,0.00008815,0.00068477,0.0000045
 5,0.00002700,-0.00003778,-0.00000571,0.00000183,0.00000240,0.00006357,
 0.00000520,0.00006967,0.00031257,0.00008411,0.00007197,-0.00008470,0.0
 0001105,-0.00005928,-0.00016177,0.00001700,0.00012679,0.00005568,0.000
 03545,-0.00005599,-0.00000864,-0.00000465,-0.00032682,-0.00000479,-0.0
 0010380,-0.00017406,-0.00023050,-0.00033432,-0.00010968,0.00004097,0.0
 0004019,0.00019448,0.00010610,0.00013503,0.00021516,0.00001364,-0.0000
 3300,-0.00009953,0.00001324,0.00002053,-0.00013199,0.00031626,-0.00003
 310,-0.00128480,-0.00035814,0.00088886,0.00013576,0.00016137,-0.000050
 38,0.00004813,-0.00006838,-0.00014887,0.00071892,0.00002066,0.00005261
 ,0.00002158,-0.00001336,0.00000219,-0.00000095,-0.00000610,-0.00002548
 ,-0.00001557,0.00027172,0.00004601,0.00000830,-0.00009719,0.00000816,0
 .00004832,-0.00009317,0.00008761,0.00002457,-0.00011840,0.00007834,-0.
 00012048,-0.00003613,0.00002700,0.00004973,0.00001103,-0.00000347,0.00
 034538,0.00002762,-0.00009551,0.00019469,0.00029483,-0.00025061,0.0001
 0015,-0.00004253,0.00004130,0.00013672,-0.00001065,0.00002485,-0.00020
 873,-0.00011733,0.00008410,0.00354029,-0.00178844,0.00001197,-0.000628
 69,0.00020943,-0.00000102,0.00106905,0.00096210,-0.00000997,-0.0000589
 9,0.00008429,0.00000044,0.00002398,0.00000707,0.00000152,-0.00003955,-
 0.00002025,-0.00000063,-0.00005233,-0.00002533,-0.00000825,-0.00245905
 ,0.00376933,0.00115404,0.00000809,-0.00029282,0.00006066,-0.00000104,-
 0.00028231,-0.00236226,-0.00001081,-0.00020093,0.00000522,-0.00000340,
 -0.00003136,0.00002523,0.00000298,-0.00002726,0.00000661,-0.00001828,-
 0.00002395,0.00000424,0.00001857,-0.00117359,-0.00123212,0.00001384,-0
 .00001050,0.00214890,-0.00000072,-0.00000310,-0.00036032,-0.00000941,0
 .00003196,-0.00284000,-0.00000065,-0.00000583,0.00003117,-0.00000069,0
 .00000026,-0.00000454,0.00002340,0.00002181,-0.00000876,-0.00002992,-0
 .00001610,-0.00000363,-0.00000287,-0.00000244,-0.00090007,-0.00260382,
 -0.02925928,-0.00000422,0.00246178,0.00344122,0.00000391,0.44820745,1.
 64451386,-0.00024242,-0.00274825,0.00031877,0.00000293,-0.00015414,0.0
 0007744,0.00001539,-0.00028025,-0.00001433,0.00004844,-0.00030909,0.00
 001487,-0.00007175,-0.00091267,-0.00244772,0.00000813,-0.43672613,-0.0
 0160320,0.00840840,-0.00000563,0.00210036,0.00056729,0.00000606,1.6227
 8907,-4.17844269,0.00057940,-0.00244398,0.00023749,-0.00000396,-0.0003
 8305,0.00024323,0.00000726,-0.00012943,-0.00003159,-0.00000321,-0.0001
 2108,-0.00003205,-0.00002190,0.00138471,0.00185872,-0.00000573,-1.6199
 3472,4.15990846,0.00000294,0.00002021,0.00473421,-0.00000337,-0.000004
 29,-0.00289762,-0.00022295,0.00058014,1.02570838,0.00000350,0.00001982
 ,0.00014818,0.00000573,-0.00000525,0.00003021,0.00001744,0.00000195,0.
 00002727,-0.00002483,0.00000733,0.00003413,-0.00000652,0.00000016,0.00
 195483,0.00024515,-0.00059525,-1.02694776,0.00129260,-0.00325637,0.000
 00340,0.00117326,0.00192168,-0.00000144,-0.63090308,0.13132643,-0.0011
 2668,0.00494052,-0.00192255,-0.00000077,0.00027031,-0.00059822,-0.0000
 4777,0.00071851,-0.00002555,0.00044634,0.00075975,0.00004629,-0.000417
 47,-0.00048205,0.00071061,-0.00000111,-0.00693489,-0.00165868,-0.00001
 709,0.62916505,-0.00288229,-0.00000879,0.00002115,0.00026361,-0.000097
 41,0.00000071,0.12792777,0.11971891,0.00012443,-0.00203569,-0.00196704
 ,-0.00001558,-0.00067784,0.00055697,0.00004668,0.00011272,-0.00020883,
 0.00003809,0.00018545,-0.00022163,-0.00012350,0.00036001,0.00047967,-0
 .00001033,0.00328989,0.00728274,-0.00002483,-0.12654364,-0.12553459,0.
 00001445,-0.00002415,0.00065107,-0.00000153,0.00000458,-0.00008436,-0.
 00119085,0.00011566,0.15035226,-0.00002099,-0.00001374,-0.00267754,-0.
 00007004,0.00005173,-0.00006646,0.00047713,-0.00016620,0.00018873,-0.0
 0038056,0.00003984,0.00014183,0.00001532,0.00000617,-0.00001758,-0.000
 00555,0.00004295,-0.00279182,0.00116262,-0.00005683,-0.14569615\\@
 The archive entry for this job was punched.


 LORD, MAN... WERE YE BUT WHYLES WHERE I AM, 
 THE GENTILES YE WAD NE'ER ENVY 'EM.        
 IT'S TRUE, THEY NEEDNA STARVE OR SWEAT,     
 THRO' WINTER'S CAULD OR SIMMER'S HEAT...  
 THEY'VE NAE SAIR WARK TO CRAZE THEIR BANES, 
 AND FILL AULD AGE WITH GRIPS AN' GRANES...  
                                             
 BUT HUMAN BODIES ARE SIC FOOLS              
 FOR A' THEIR COLLEGES AND SCHOOLS,           
 THAT WHEN NAE REAL ILLS PERPLEX THEM,       
 THEY MAK ENOW THEMSELVES TO VEX THEM,       
 AN' AYE THE LESS THEY HAE TO STURT THEM,    
 IN LIKE PROPORTION LESS WILL HURT THEM....  
                                             
                (ROBERT BURNS 'THE TWA DOGS')
 Job cpu time:       1 days 18 hours  8 minutes 57.4 seconds.
 Elapsed time:       0 days  1 hours  4 minutes 28.0 seconds.
 File lengths (MBytes):  RWF=   2186 Int=      0 D2E=      0 Chk=     43 Scr=      1
 Normal termination of Gaussian 16 at Mon Apr  7 14:14:29 2025.
