 Entering Gaussian System, Link 0=g16
 Input=hconmeht_nh3_mp2_avdz_opt_anharm.gjf
 Output=hconmeht_nh3_mp2_avdz_opt_anharm.log
 Initial command:
 /sw/contrib/chem-src/g16/c01/g16/l1.exe "/scr/Gau-32837.inp" -scrdir="/scr/"
 Entering Link 1 = /sw/contrib/chem-src/g16/c01/g16/l1.exe PID=     32838.
  
 Copyright (c) 1988-2019, Gaussian, Inc.  All Rights Reserved.
  
 This is part of the Gaussian(R) 16 program.  It is based on
 the Gaussian(R) 09 system (copyright 2009, Gaussian, Inc.),
 the Gaussian(R) 03 system (copyright 2003, Gaussian, Inc.),
 the Gaussian(R) 98 system (copyright 1998, Gaussian, Inc.),
 the Gaussian(R) 94 system (copyright 1995, Gaussian, Inc.),
 the Gaussian 92(TM) system (copyright 1992, Gaussian, Inc.),
 the Gaussian 90(TM) system (copyright 1990, Gaussian, Inc.),
 the Gaussian 88(TM) system (copyright 1988, Gaussian, Inc.),
 the Gaussian 86(TM) system (copyright 1986, Carnegie Mellon
 University), and the Gaussian 82(TM) system (copyright 1983,
 Carnegie Mellon University). Gaussian is a federally registered
 trademark of Gaussian, Inc.
  
 This software contains proprietary and confidential information,
 including trade secrets, belonging to Gaussian, Inc.
  
 This software is provided under written license and may be
 used, copied, transmitted, or stored only in accord with that
 written license.
  
 The following legend is applicable only to US Government
 contracts under FAR:
  
                    RESTRICTED RIGHTS LEGEND
  
 Use, reproduction and disclosure by the US Government is
 subject to restrictions as set forth in subparagraphs (a)
 and (c) of the Commercial Computer Software - Restricted
 Rights clause in FAR 52.227-19.
  
 Gaussian, Inc.
 340 Quinnipiac St., Bldg. 40, Wallingford CT 06492
  
  
 ---------------------------------------------------------------
 Warning -- This program may not be used in any manner that
 competes with the business of Gaussian, Inc. or will provide
 assistance to any competitor of Gaussian, Inc.  The licensee
 of this program is prohibited from giving any competitor of
 Gaussian, Inc. access to this program.  By using this program,
 the user acknowledges that Gaussian, Inc. is engaged in the
 business of creating and licensing software in the field of
 computational chemistry and represents and warrants to the
 licensee that it is not a competitor of Gaussian, Inc. and that
 it will not use this program in any manner prohibited above.
 ---------------------------------------------------------------
  

 Cite this work as:
 Gaussian 16, Revision C.01,
 M. J. Frisch, G. W. Trucks, H. B. Schlegel, G. E. Scuseria, 
 M. A. Robb, J. R. Cheeseman, G. Scalmani, V. Barone, 
 G. A. Petersson, H. Nakatsuji, X. Li, M. Caricato, A. V. Marenich, 
 J. Bloino, B. G. Janesko, R. Gomperts, B. Mennucci, H. P. Hratchian, 
 J. V. Ortiz, A. F. Izmaylov, J. L. Sonnenberg, D. Williams-Young, 
 F. Ding, F. Lipparini, F. Egidi, J. Goings, B. Peng, A. Petrone, 
 T. Henderson, D. Ranasinghe, V. G. Zakrzewski, J. Gao, N. Rega, 
 G. Zheng, W. Liang, M. Hada, M. Ehara, K. Toyota, R. Fukuda, 
 J. Hasegawa, M. Ishida, T. Nakajima, Y. Honda, O. Kitao, H. Nakai, 
 T. Vreven, K. Throssell, J. A. Montgomery, Jr., J. E. Peralta, 
 F. Ogliaro, M. J. Bearpark, J. J. Heyd, E. N. Brothers, K. N. Kudin, 
 V. N. Staroverov, T. A. Keith, R. Kobayashi, J. Normand, 
 K. Raghavachari, A. P. Rendell, J. C. Burant, S. S. Iyengar, 
 J. Tomasi, M. Cossi, J. M. Millam, M. Klene, C. Adamo, R. Cammi, 
 J. W. Ochterski, R. L. Martin, K. Morokuma, O. Farkas, 
 J. B. Foresman, and D. J. Fox, Gaussian, Inc., Wallingford CT, 2019.
 
 ******************************************
 Gaussian 16:  EM64L-G16RevC.01  3-Jul-2019
                 3-Apr-2025 
 ******************************************
 %nprocshared=40
 Will use up to   40 processors via shared memory.
 %mem=50gb
 ----------------------------------------------
 # MP2/aug-cc-pVDZ opt freq=(vibrot,anharmonic)
 ----------------------------------------------
 1/18=20,19=15,38=1,80=1/1,3;
 2/9=110,12=2,17=6,18=5,40=1/2;
 3/5=16,7=10,11=9,25=1,30=1,71=1/1,2,3;
 4//1;
 5/5=2,38=5/2;
 8/6=4,10=1/1;
 9/15=2,16=-3/6;
 10/5=1/2;
 6/7=2,8=2,9=2,10=2/1;
 7/12=2/1,2,3,16;
 1/18=20,19=15,80=1/3(2);
 2/9=110/2;
 99//99;
 2/9=110/2;
 3/5=16,7=10,11=9,25=1,30=1,71=1/1,2,3;
 4/5=5,16=3,69=1/1;
 5/5=2,38=5/2;
 8/6=4,10=1/1;
 9/15=2,16=-3/6;
 10/5=1/2;
 7/12=2/1,2,3,16;
 1/18=20,19=15,80=1/3(-8);
 2/9=110/2;
 6/7=2,8=2,9=2,10=2/1;
 99/9=10/99;
 ----
 blah
 ----
 Symbolic Z-matrix:
 Charge =  0 Multiplicity = 1
 C                     0.95481  -0.85955  -0.00041 
 O                     2.19114  -0.84064   0.00035 
 N                     0.13944   0.22946  -0.00034 
 N                    -2.90033  -0.3043   -0.00023 
 H                    -3.4931    0.52539  -0.03818 
 H                    -3.1841   -0.81632   0.83563 
 H                    -3.17412  -0.88348  -0.79454 
 H                     0.37862  -1.80988  -0.00122 
 C                     0.66388   1.58726   0.00031 
 H                    -0.87099   0.06985  -0.0013 
 H                     1.52861   1.8647    0.61666 
 H                    -0.1602    2.28992   0.19962 
 H                     0.94302   1.65578  -1.06269 
 
 Add virtual bond connecting atoms H10        and N4         Dist= 3.90D+00.

 GradGradGradGradGradGradGradGradGradGradGradGradGradGradGradGradGradGrad
 Berny optimization.
 Initialization pass.
                           ----------------------------
                           !    Initial Parameters    !
                           ! (Angstroms and Degrees)  !
 --------------------------                            --------------------------
 ! Name  Definition              Value          Derivative Info.                !
 --------------------------------------------------------------------------------
 ! R1    R(1,2)                  1.2365         estimate D2E/DX2                !
 ! R2    R(1,3)                  1.3604         estimate D2E/DX2                !
 ! R3    R(1,8)                  1.1114         estimate D2E/DX2                !
 ! R4    R(3,9)                  1.4556         estimate D2E/DX2                !
 ! R5    R(3,10)                 1.023          estimate D2E/DX2                !
 ! R6    R(4,5)                  1.0204         estimate D2E/DX2                !
 ! R7    R(4,6)                  1.0205         estimate D2E/DX2                !
 ! R8    R(4,7)                  1.0205         estimate D2E/DX2                !
 ! R9    R(4,10)                 2.0635         estimate D2E/DX2                !
 ! R10   R(9,11)                 1.0976         estimate D2E/DX2                !
 ! R11   R(9,12)                 1.1012         estimate D2E/DX2                !
 ! R12   R(9,13)                 1.1012         estimate D2E/DX2                !
 ! A1    A(2,1,3)              125.9472         estimate D2E/DX2                !
 ! A2    A(2,1,8)              122.1045         estimate D2E/DX2                !
 ! A3    A(3,1,8)              111.9483         estimate D2E/DX2                !
 ! A4    A(1,3,9)              122.058          estimate D2E/DX2                !
 ! A5    A(1,3,10)             117.8467         estimate D2E/DX2                !
 ! A6    A(9,3,10)             120.0953         estimate D2E/DX2                !
 ! A7    A(5,4,6)              106.0745         estimate D2E/DX2                !
 ! A8    A(5,4,7)              106.0621         estimate D2E/DX2                !
 ! A9    A(5,4,10)             115.0783         estimate D2E/DX2                !
 ! A10   A(6,4,7)              106.1517         estimate D2E/DX2                !
 ! A11   A(6,4,10)             111.3997         estimate D2E/DX2                !
 ! A12   A(7,4,10)             111.4914         estimate D2E/DX2                !
 ! A13   A(3,9,11)             121.3273         estimate D2E/DX2                !
 ! A14   A(3,9,12)             109.0076         estimate D2E/DX2                !
 ! A15   A(3,9,13)              98.566          estimate D2E/DX2                !
 ! A16   A(11,9,12)            109.0672         estimate D2E/DX2                !
 ! A17   A(11,9,13)            109.0653         estimate D2E/DX2                !
 ! A18   A(12,9,13)            108.949          estimate D2E/DX2                !
 ! A19   L(3,10,4,8,-1)        178.5304         estimate D2E/DX2                !
 ! A20   L(3,10,4,8,-2)        179.909          estimate D2E/DX2                !
 ! D1    D(2,1,3,9)              0.0167         estimate D2E/DX2                !
 ! D2    D(2,1,3,10)           179.9832         estimate D2E/DX2                !
 ! D3    D(8,1,3,9)           -179.9846         estimate D2E/DX2                !
 ! D4    D(8,1,3,10)            -0.0181         estimate D2E/DX2                !
 ! D5    D(1,3,4,5)           -177.6343         estimate D2E/DX2                !
 ! D6    D(1,3,4,6)             61.4282         estimate D2E/DX2                !
 ! D7    D(1,3,4,7)            -56.631          estimate D2E/DX2                !
 ! D8    D(9,3,4,5)              2.3949         estimate D2E/DX2                !
 ! D9    D(9,3,4,6)           -118.5427         estimate D2E/DX2                !
 ! D10   D(9,3,4,7)            123.3982         estimate D2E/DX2                !
 ! D11   D(1,3,9,11)           -41.069          estimate D2E/DX2                !
 ! D12   D(1,3,9,12)          -168.9595         estimate D2E/DX2                !
 ! D13   D(1,3,9,13)            77.5114         estimate D2E/DX2                !
 ! D14   D(10,3,9,11)          138.9652         estimate D2E/DX2                !
 ! D15   D(10,3,9,12)           11.0747         estimate D2E/DX2                !
 ! D16   D(10,3,9,13)         -102.4544         estimate D2E/DX2                !
 --------------------------------------------------------------------------------
 Trust Radius=3.00D-01 FncErr=1.00D-07 GrdErr=1.00D-07 EigMax=2.50D+02 EigMin=1.00D-04
 Number of steps in this run=     58 maximum allowed number of steps=    100.
 GradGradGradGradGradGradGradGradGradGradGradGradGradGradGradGradGradGrad

                          Input orientation:                          
 ---------------------------------------------------------------------
 Center     Atomic      Atomic             Coordinates (Angstroms)
 Number     Number       Type             X           Y           Z
 ---------------------------------------------------------------------
      1          6           0        0.954808   -0.859545   -0.000409
      2          8           0        2.191138   -0.840640    0.000345
      3          7           0        0.139439    0.229458   -0.000343
      4          7           0       -2.900325   -0.304298   -0.000230
      5          1           0       -3.493104    0.525390   -0.038177
      6          1           0       -3.184101   -0.816315    0.835630
      7          1           0       -3.174120   -0.883482   -0.794542
      8          1           0        0.378619   -1.809882   -0.001219
      9          6           0        0.663879    1.587257    0.000308
     10          1           0       -0.870994    0.069845   -0.001298
     11          1           0        1.528613    1.864697    0.616655
     12          1           0       -0.160198    2.289919    0.199619
     13          1           0        0.943020    1.655778   -1.062688
 ---------------------------------------------------------------------
                    Distance matrix (angstroms):
                    1          2          3          4          5
     1  C    0.000000
     2  O    1.236475   0.000000
     3  N    1.360424   2.313996   0.000000
     4  N    3.894913   5.119635   3.086270   0.000000
     5  H    4.658690   5.846206   3.644774   1.020397   0.000000
     6  H    4.222724   5.439806   3.583073   1.020467   1.630703
     7  H    4.204672   5.423991   3.584559   1.020465   1.630570
     8  H    1.111366   2.055397   2.053318   3.608082   4.521626
     9  C    2.464037   2.868310   1.455560   4.035038   4.290635
    10  H    2.048736   3.194626   1.022962   2.063533   2.661643
    11  H    2.851581   2.852652   2.232599   4.969968   5.238339
    12  H    3.346995   3.920318   2.091714   3.778651   3.778674
    13  H    2.730463   2.986627   1.951591   4.443199   4.691119
                    6          7          8          9         10
     6  H    0.000000
     7  H    1.631586   0.000000
     8  H    3.792158   3.756266   0.000000
     9  C    4.613228   4.633203   3.409095   0.000000
    10  H    2.614611   2.615809   2.257190   2.158327   0.000000
    11  H    5.426366   5.626692   3.899588   1.097553   3.059653
    12  H    4.381460   4.488046   4.139931   1.101164   2.339728
    13  H    5.171845   4.844645   3.668251   1.101170   2.632941
                   11         12         13
    11  H    0.000000
    12  H    1.790759   0.000000
    13  H    1.790743   1.792385   0.000000
 Stoichiometry    C2H8N2O
 Framework group  C1[X(C2H8N2O)]
 Deg. of freedom    33
 Full point group                 C1      NOp   1
 Largest Abelian subgroup         C1      NOp   1
 Largest concise Abelian subgroup C1      NOp   1
                         Standard orientation:                         
 ---------------------------------------------------------------------
 Center     Atomic      Atomic             Coordinates (Angstroms)
 Number     Number       Type             X           Y           Z
 ---------------------------------------------------------------------
      1          6           0       -0.958185   -0.859220   -0.002900
      2          8           0       -2.194501   -0.839473   -0.004505
      3          7           0       -0.142070    0.229218   -0.006501
      4          7           0        2.897327   -0.306612   -0.002710
      5          1           0        3.490651    0.522806    0.032526
      6          1           0        3.181277   -0.821928   -0.836481
      7          1           0        3.170225   -0.883025    0.793923
      8          1           0       -0.382649   -1.809941    0.001807
      9          6           0       -0.665578    1.587363   -0.012531
     10          1           0        0.868253    0.068919   -0.004314
     11          1           0       -1.529734    1.863100   -0.630451
     12          1           0        0.159106    2.288716   -0.213933
     13          1           0       -0.945340    1.660027    1.050027
 ---------------------------------------------------------------------
 Rotational constants (GHZ):           7.0604850           2.0190270           1.5988800
 Standard basis: Aug-CC-pVDZ (5D, 7F)
 There are   197 symmetry adapted cartesian basis functions of A   symmetry.
 There are   187 symmetry adapted basis functions of A   symmetry.
   187 basis functions,   303 primitive gaussians,   197 cartesian basis functions
    21 alpha electrons       21 beta electrons
       nuclear repulsion energy       174.7980115240 Hartrees.
 NAtoms=   13 NActive=   13 NUniq=   13 SFac= 1.00D+00 NAtFMM=   60 NAOKFM=F Big=F
 Integral buffers will be    131072 words long.
 Raffenetti 1 integral format.
 Two-electron integral symmetry is turned on.
 One-electron integrals computed using PRISM.
 NBasis=   187 RedAO= T EigKep=  1.83D-04  NBF=   187
 NBsUse=   187 1.00D-06 EigRej= -1.00D+00 NBFU=   187
 ExpMin= 2.97D-02 ExpMax= 1.17D+04 ExpMxC= 4.01D+02 IAcc=3 IRadAn=         5 AccDes= 0.00D+00
 Harris functional with IExCor=  205 and IRadAn=       5 diagonalized for initial guess.
 HarFok:  IExCor=  205 AccDes= 0.00D+00 IRadAn=         5 IDoV= 1 UseB2=F ITyADJ=14
 ICtDFT=  3500011 ScaDFX=  1.000000  1.000000  1.000000  1.000000
 FoFCou: FMM=F IPFlag=           0 FMFlag=      100000 FMFlg1=           0
         NFxFlg=           0 DoJE=T BraDBF=F KetDBF=T FulRan=T
         wScrn=  0.000000 ICntrl=       500 IOpCl=  0 I1Cent=   200000004 NGrid=           0
         NMat0=    1 NMatS0=      1 NMatT0=    0 NMatD0=    1 NMtDS0=    0 NMtDT0=    0
 Petite list used in FoFCou.
 Requested convergence on RMS density matrix=1.00D-08 within 128 cycles.
 Requested convergence on MAX density matrix=1.00D-06.
 Requested convergence on             energy=1.00D-06.
 No special actions if energy rises.
 SCF Done:  E(RHF) =  -264.193864549     A.U. after   13 cycles
            NFock= 13  Conv=0.71D-08     -V/T= 2.0024
 ExpMin= 2.97D-02 ExpMax= 1.17D+04 ExpMxC= 4.01D+02 IAcc=3 IRadAn=         5 AccDes= 0.00D+00
 HarFok:  IExCor=  205 AccDes= 0.00D+00 IRadAn=         5 IDoV=-2 UseB2=F ITyADJ=14
 ICtDFT= 12500011 ScaDFX=  1.000000  1.000000  1.000000  1.000000
 Range of M.O.s used for correlation:     6   187
 NBasis=   187 NAE=    21 NBE=    21 NFC=     5 NFV=     0
 NROrb=    182 NOA=    16 NOB=    16 NVA=   166 NVB=   166

 **** Warning!!: The largest alpha MO coefficient is  0.17335269D+02

 Fully direct method using O(ONN) memory.
 JobTyp=1 Pass  1:  I=   6 to  21 NPSUse= 40 ParTrn=T ParDer=T DoDerP=T.
 Spin components of T(2) and E(2):
     alpha-alpha T2 =       0.3531579627D-01 E2=     -0.1082341609D+00
     alpha-beta  T2 =       0.2039954866D+00 E2=     -0.6496794164D+00
     beta-beta   T2 =       0.3531579627D-01 E2=     -0.1082341609D+00
 ANorm=    0.1128993835D+01
 E2 =    -0.8661477383D+00 EUMP2 =    -0.26506001228741D+03
          IDoAtm=1111111111111
          Differentiating once with respect to electric field.
                with respect to dipole field.
          Differentiating once with respect to nuclear coordinates.
 Keep R1 ints in memory in canonical form, NReq=163446414.
          There are     1 degrees of freedom in the 1st order CPHF.  IDoFFX=0 NUNeed=     1.
 LinEq1:  Iter=  0 NonCon=     1 RMS=4.51D-03 Max=9.63D-02 NDo=     1
 AX will form     1 AO Fock derivatives at one time.
 LinEq1:  Iter=  1 NonCon=     1 RMS=1.27D-03 Max=1.89D-02 NDo=     1
 LinEq1:  Iter=  2 NonCon=     1 RMS=4.99D-04 Max=7.38D-03 NDo=     1
 LinEq1:  Iter=  3 NonCon=     1 RMS=1.81D-04 Max=3.43D-03 NDo=     1
 LinEq1:  Iter=  4 NonCon=     1 RMS=5.22D-05 Max=5.10D-04 NDo=     1
 LinEq1:  Iter=  5 NonCon=     1 RMS=1.84D-05 Max=2.56D-04 NDo=     1
 LinEq1:  Iter=  6 NonCon=     1 RMS=5.05D-06 Max=5.99D-05 NDo=     1
 LinEq1:  Iter=  7 NonCon=     1 RMS=1.35D-06 Max=1.49D-05 NDo=     1
 LinEq1:  Iter=  8 NonCon=     1 RMS=3.53D-07 Max=3.65D-06 NDo=     1
 LinEq1:  Iter=  9 NonCon=     1 RMS=1.08D-07 Max=1.12D-06 NDo=     1
 LinEq1:  Iter= 10 NonCon=     1 RMS=3.96D-08 Max=3.51D-07 NDo=     1
 LinEq1:  Iter= 11 NonCon=     1 RMS=8.91D-09 Max=7.02D-08 NDo=     1
 LinEq1:  Iter= 12 NonCon=     1 RMS=1.71D-09 Max=2.55D-08 NDo=     1
 LinEq1:  Iter= 13 NonCon=     1 RMS=4.11D-10 Max=9.36D-09 NDo=     1
 LinEq1:  Iter= 14 NonCon=     1 RMS=1.22D-10 Max=1.87D-09 NDo=     1
 LinEq1:  Iter= 15 NonCon=     0 RMS=3.90D-11 Max=4.73D-10 NDo=     1
 Linear equations converged to 1.000D-10 1.000D-09 after    15 iterations.
 End of Minotr F.D. properties file   721 does not exist.
 End of Minotr F.D. properties file   722 does not exist.
 End of Minotr F.D. properties file   788 does not exist.

 **********************************************************************

            Population analysis using the SCF Density.

 **********************************************************************

 Orbital symmetries:
       Occupied  (A) (A) (A) (A) (A) (A) (A) (A) (A) (A) (A) (A)
                 (A) (A) (A) (A) (A) (A) (A) (A) (A)
       Virtual   (A) (A) (A) (A) (A) (A) (A) (A) (A) (A) (A) (A)
                 (A) (A) (A) (A) (A) (A) (A) (A) (A) (A) (A) (A)
                 (A) (A) (A) (A) (A) (A) (A) (A) (A) (A) (A) (A)
                 (A) (A) (A) (A) (A) (A) (A) (A) (A) (A) (A) (A)
                 (A) (A) (A) (A) (A) (A) (A) (A) (A) (A) (A) (A)
                 (A) (A) (A) (A) (A) (A) (A) (A) (A) (A) (A) (A)
                 (A) (A) (A) (A) (A) (A) (A) (A) (A) (A) (A) (A)
                 (A) (A) (A) (A) (A) (A) (A) (A) (A) (A) (A) (A)
                 (A) (A) (A) (A) (A) (A) (A) (A) (A) (A) (A) (A)
                 (A) (A) (A) (A) (A) (A) (A) (A) (A) (A) (A) (A)
                 (A) (A) (A) (A) (A) (A) (A) (A) (A) (A) (A) (A)
                 (A) (A) (A) (A) (A) (A) (A) (A) (A) (A) (A) (A)
                 (A) (A) (A) (A) (A) (A) (A) (A) (A) (A) (A) (A)
                 (A) (A) (A) (A) (A) (A) (A) (A) (A) (A)
 The electronic state is 1-A.
 Alpha  occ. eigenvalues --  -20.51644 -15.58896 -15.57671 -11.34246 -11.26215
 Alpha  occ. eigenvalues --   -1.35405  -1.21413  -1.17735  -0.94965  -0.78651
 Alpha  occ. eigenvalues --   -0.71992  -0.65956  -0.65948  -0.62737  -0.60544
 Alpha  occ. eigenvalues --   -0.57072  -0.54204  -0.50637  -0.46854  -0.41053
 Alpha  occ. eigenvalues --   -0.36981
 Alpha virt. eigenvalues --    0.01968   0.04110   0.04712   0.05039   0.06665
 Alpha virt. eigenvalues --    0.07037   0.07649   0.08539   0.11815   0.12188
 Alpha virt. eigenvalues --    0.14172   0.15459   0.15892   0.16917   0.17023
 Alpha virt. eigenvalues --    0.18403   0.18864   0.19904   0.20151   0.20587
 Alpha virt. eigenvalues --    0.22206   0.24102   0.25709   0.26584   0.27201
 Alpha virt. eigenvalues --    0.27416   0.29049   0.29102   0.30439   0.32869
 Alpha virt. eigenvalues --    0.33732   0.34915   0.36404   0.37091   0.39093
 Alpha virt. eigenvalues --    0.40057   0.41638   0.41802   0.43745   0.44710
 Alpha virt. eigenvalues --    0.44901   0.45786   0.48132   0.49400   0.50277
 Alpha virt. eigenvalues --    0.52054   0.52210   0.52865   0.53552   0.54745
 Alpha virt. eigenvalues --    0.55319   0.56166   0.57184   0.59308   0.60331
 Alpha virt. eigenvalues --    0.61292   0.61832   0.63686   0.64045   0.64998
 Alpha virt. eigenvalues --    0.65879   0.66538   0.67878   0.68876   0.68959
 Alpha virt. eigenvalues --    0.71428   0.72827   0.73737   0.75220   0.76732
 Alpha virt. eigenvalues --    0.78285   0.81118   0.84215   0.84761   0.86310
 Alpha virt. eigenvalues --    0.88952   0.91878   0.93730   0.96211   0.97017
 Alpha virt. eigenvalues --    1.00286   1.03763   1.04641   1.06095   1.10619
 Alpha virt. eigenvalues --    1.12327   1.14962   1.15854   1.18165   1.19282
 Alpha virt. eigenvalues --    1.22695   1.23241   1.28569   1.29043   1.31570
 Alpha virt. eigenvalues --    1.35053   1.36697   1.43570   1.44853   1.49205
 Alpha virt. eigenvalues --    1.55379   1.56196   1.61525   1.65473   1.71997
 Alpha virt. eigenvalues --    1.73790   1.75316   1.78471   1.81669   1.82599
 Alpha virt. eigenvalues --    1.83179   1.90017   1.91420   1.93109   1.94004
 Alpha virt. eigenvalues --    1.96136   1.98157   2.02179   2.06147   2.08055
 Alpha virt. eigenvalues --    2.09984   2.12072   2.12505   2.15758   2.19943
 Alpha virt. eigenvalues --    2.20931   2.26533   2.30432   2.32860   2.35402
 Alpha virt. eigenvalues --    2.35997   2.37062   2.38335   2.39344   2.42209
 Alpha virt. eigenvalues --    2.44303   2.45006   2.47274   2.54114   2.58010
 Alpha virt. eigenvalues --    2.59606   2.65391   2.71153   2.78069   2.83536
 Alpha virt. eigenvalues --    2.85065   2.86160   2.88468   2.88927   2.94755
 Alpha virt. eigenvalues --    2.97534   3.01254   3.09184   3.11245   3.14786
 Alpha virt. eigenvalues --    3.19322   3.33764   3.40595   3.51316   3.54652
 Alpha virt. eigenvalues --    3.65467   3.77143   3.82224   3.85007   4.04554
 Alpha virt. eigenvalues --    4.15888
          Condensed to atoms (all electrons):
               1          2          3          4          5          6
     1  C    4.342851   0.348597   0.331630   0.015200   0.001589  -0.000514
     2  O    0.348597   8.528997  -0.064619   0.000123  -0.000115  -0.000023
     3  N    0.331630  -0.064619   6.787819  -0.066491  -0.005767  -0.001877
     4  N    0.015200   0.000123  -0.066491   6.131689   0.404578   0.406081
     5  H    0.001589  -0.000115  -0.005767   0.404578   0.722085  -0.085223
     6  H   -0.000514  -0.000023  -0.001877   0.406081  -0.085223   0.713775
     7  H   -0.000278   0.000026  -0.001353   0.405879  -0.088493  -0.078593
     8  H    0.282479  -0.098869  -0.046021   0.006744  -0.000198   0.000007
     9  C   -0.035311   0.018859   0.201897   0.014976   0.000359   0.000029
    10  H   -0.180229  -0.009520   0.314467  -0.082869  -0.005845  -0.002087
    11  H    0.044701  -0.000880  -0.081504   0.000025   0.000312   0.000207
    12  H   -0.048755   0.005050  -0.079204   0.001537  -0.000020  -0.000275
    13  H    0.027361   0.006201  -0.018431   0.002252   0.000282  -0.000136
               7          8          9         10         11         12
     1  C   -0.000278   0.282479  -0.035311  -0.180229   0.044701  -0.048755
     2  O    0.000026  -0.098869   0.018859  -0.009520  -0.000880   0.005050
     3  N   -0.001353  -0.046021   0.201897   0.314467  -0.081504  -0.079204
     4  N    0.405879   0.006744   0.014976  -0.082869   0.000025   0.001537
     5  H   -0.088493  -0.000198   0.000359  -0.005845   0.000312  -0.000020
     6  H   -0.078593   0.000007   0.000029  -0.002087   0.000207  -0.000275
     7  H    0.716409  -0.000161  -0.000218  -0.004812  -0.000009   0.000153
     8  H   -0.000161   0.978512  -0.012102   0.029164   0.003942  -0.004638
     9  C   -0.000218  -0.012102   4.136945  -0.140337   0.353355   0.429928
    10  H   -0.004812   0.029164  -0.140337   1.080860  -0.009673   0.039008
    11  H   -0.000009   0.003942   0.353355  -0.009673   1.055718  -0.209044
    12  H    0.000153  -0.004638   0.429928   0.039008  -0.209044   1.138678
    13  H    0.000045   0.003020   0.377703  -0.017801  -0.058730  -0.117427
              13
     1  C    0.027361
     2  O    0.006201
     3  N   -0.018431
     4  N    0.002252
     5  H    0.000282
     6  H   -0.000136
     7  H    0.000045
     8  H    0.003020
     9  C    0.377703
    10  H   -0.017801
    11  H   -0.058730
    12  H   -0.117427
    13  H    0.827035
 Mulliken charges:
               1
     1  C    0.870680
     2  O   -0.733829
     3  N   -0.270548
     4  N   -0.239725
     5  H    0.056458
     6  H    0.048628
     7  H    0.051408
     8  H   -0.141879
     9  C    0.653915
    10  H   -0.010326
    11  H   -0.098418
    12  H   -0.154992
    13  H   -0.031373
 Sum of Mulliken charges =   0.00000
 Mulliken charges with hydrogens summed into heavy atoms:
               1
     1  C    0.728801
     2  O   -0.733829
     3  N   -0.280874
     4  N   -0.083231
     9  C    0.369133
 Electronic spatial extent (au):  <R**2>=            739.0991
 Charge=              0.0000 electrons
 Dipole moment (field-independent basis, Debye):
    X=              6.8633    Y=              0.9005    Z=             -0.0273  Tot=              6.9222
 Quadrupole moment (field-independent basis, Debye-Ang):
   XX=            -32.0506   YY=            -29.0291   ZZ=            -31.5916
   XY=             -5.6778   XZ=              0.1620   YZ=             -0.4040
 Traceless Quadrupole moment (field-independent basis, Debye-Ang):
   XX=             -1.1602   YY=              1.8613   ZZ=             -0.7011
   XY=             -5.6778   XZ=              0.1620   YZ=             -0.4040
 Octapole moment (field-independent basis, Debye-Ang**2):
  XXX=             71.6888  YYY=             -2.2562  ZZZ=              0.4895  XYY=              8.8130
  XXY=              8.4510  XXZ=             -0.7602  XZZ=              5.2856  YZZ=             -2.4171
  YYZ=             -1.1935  XYZ=              0.5954
 Hexadecapole moment (field-independent basis, Debye-Ang**3):
 XXXX=           -594.5283 YYYY=           -225.9221 ZZZZ=            -41.4003 XXXY=            -30.8193
 XXXZ=              1.6650 YYYX=             -6.4246 YYYZ=             -3.6554 ZZZX=             -0.7504
 ZZZY=              0.6088 XXYY=           -139.6673 XXZZ=           -102.1193 YYZZ=            -45.2213
 XXYZ=             -1.6670 YYXZ=              1.7576 ZZXY=             -5.7678
 N-N= 1.747980115240D+02 E-N=-9.697392260733D+02  KE= 2.635718366940D+02
 Calling FoFJK, ICntrl=  10002127 FMM=F ISym2X=0 I1Cent= 0 IOpClX= 0 NMat=1 NMatS=1 NMatT=0.
 ***** Axes restored to original set *****
 -------------------------------------------------------------------
 Center     Atomic                   Forces (Hartrees/Bohr)
 Number     Number              X              Y              Z
 -------------------------------------------------------------------
      1        6          -0.003356882    0.000538220    0.000350331
      2        8           0.000498857    0.002842080    0.000047571
      3        7           0.003526100   -0.011789007    0.025374629
      4        7           0.000283785    0.000209363   -0.000046273
      5        1          -0.000083120   -0.000065936   -0.000022182
      6        1           0.000086091    0.000018233    0.000035182
      7        1          -0.000006618    0.000016488   -0.000041510
      8        1          -0.000262638   -0.000386187   -0.001056083
      9        6          -0.009525727    0.003016246   -0.032924353
     10        1          -0.000260327    0.000789365    0.001801085
     11        1          -0.000880626   -0.014903738    0.006058175
     12        1           0.000855887   -0.002045753    0.000029911
     13        1           0.009125217    0.021760626    0.000393518
 -------------------------------------------------------------------
 Cartesian Forces:  Max     0.032924353 RMS     0.008512479

 GradGradGradGradGradGradGradGradGradGradGradGradGradGradGradGradGradGrad
 Berny optimization.
 FormGI is forming the generalized inverse of G from B-inverse, IUseBI=4.
 Internal  Forces:  Max     0.040389719 RMS     0.008097834
 Search for a local minimum.
 Step number   1 out of a maximum of   58
 All quantities printed in internal units (Hartrees-Bohrs-Radians)
 Mixed Optimization -- RFO/linear search
 Second derivative matrix not updated -- first step.
 ITU=  0
     Eigenvalues ---    0.00230   0.00230   0.00230   0.00957   0.01137
     Eigenvalues ---    0.02215   0.02215   0.03884   0.06220   0.06457
     Eigenvalues ---    0.07035   0.08480   0.16000   0.16000   0.16000
     Eigenvalues ---    0.16000   0.16000   0.16000   0.16000   0.16000
     Eigenvalues ---    0.22000   0.22000   0.32456   0.33553   0.33554
     Eigenvalues ---    0.33954   0.37526   0.43869   0.44264   0.44264
     Eigenvalues ---    0.44275   0.52862   0.88441
 RFO step:  Lambda=-1.94215772D-02 EMin= 2.30000000D-03
 Linear search not attempted -- first point.
 Maximum step size (   0.300) exceeded in Quadratic search.
    -- Step size scaled by   0.938
 Iteration  1 RMS(Cart)=  0.07384480 RMS(Int)=  0.00932516
 Iteration  2 RMS(Cart)=  0.01122812 RMS(Int)=  0.00342494
 Iteration  3 RMS(Cart)=  0.00024008 RMS(Int)=  0.00342010
 Iteration  4 RMS(Cart)=  0.00000136 RMS(Int)=  0.00342010
 Iteration  5 RMS(Cart)=  0.00000001 RMS(Int)=  0.00342010
 Variable       Old X    -DE/DX   Delta X   Delta X   Delta X     New X
                                 (Linear)    (Quad)   (Total)
    R1        2.33660   0.00054   0.00000   0.00056   0.00056   2.33716
    R2        2.57083  -0.00427   0.00000  -0.00730  -0.00730   2.56353
    R3        2.10018   0.00047   0.00000   0.00127   0.00127   2.10145
    R4        2.75061   0.00714   0.00000   0.01696   0.01696   2.76757
    R5        1.93312  -0.00017   0.00000  -0.00035  -0.00035   1.93277
    R6        1.92827  -0.00000   0.00000  -0.00001  -0.00001   1.92826
    R7        1.92840  -0.00000   0.00000  -0.00001  -0.00001   1.92839
    R8        1.92840   0.00002   0.00000   0.00005   0.00005   1.92845
    R9        3.89951  -0.00031   0.00000  -0.00496  -0.00496   3.89456
   R10        2.07407  -0.00106   0.00000  -0.00277  -0.00277   2.07131
   R11        2.08090  -0.00194   0.00000  -0.00513  -0.00513   2.07577
   R12        2.08091   0.00329   0.00000   0.00869   0.00869   2.08960
    A1        2.19819  -0.00440   0.00000  -0.01723  -0.01730   2.18089
    A2        2.13113   0.00222   0.00000   0.00875   0.00868   2.13980
    A3        1.95387   0.00217   0.00000   0.00848   0.00841   1.96227
    A4        2.13031  -0.00249   0.00000  -0.00974  -0.00974   2.12057
    A5        2.05681   0.00228   0.00000   0.01027   0.01027   2.06708
    A6        2.09606   0.00021   0.00000  -0.00053  -0.00053   2.09553
    A7        1.85135   0.00000   0.00000   0.00004   0.00005   1.85140
    A8        1.85113  -0.00005   0.00000  -0.00014  -0.00014   1.85099
    A9        2.00850   0.00018   0.00000   0.00101   0.00101   2.00951
   A10        1.85270   0.00005   0.00000   0.00006   0.00005   1.85275
   A11        1.94429  -0.00015   0.00000  -0.00088  -0.00088   1.94341
   A12        1.94589  -0.00002   0.00000  -0.00011  -0.00011   1.94578
   A13        2.11756  -0.03109   0.00000  -0.17605  -0.17624   1.94132
   A14        1.90254   0.00132   0.00000  -0.01061  -0.01957   1.88297
   A15        1.72030   0.04039   0.00000   0.23847   0.24080   1.96110
   A16        1.90358   0.00844   0.00000   0.00642  -0.00500   1.89858
   A17        1.90355  -0.00782   0.00000  -0.01652  -0.00710   1.89645
   A18        1.90152  -0.00865   0.00000  -0.01396  -0.01992   1.88160
   A19        3.11594   0.00022   0.00000   0.00931   0.00931   3.12525
   A20        3.14000   0.00007   0.00000   0.00328   0.00331   3.14332
    D1        0.00029   0.00005   0.00000   0.00124   0.00126   0.00155
    D2        3.14130   0.00004   0.00000   0.00071   0.00070  -3.14118
    D3       -3.14132   0.00104   0.00000   0.02348   0.02348  -3.11784
    D4       -0.00032   0.00102   0.00000   0.02294   0.02293   0.02262
    D5       -3.10030   0.00004   0.00000   0.00187   0.00185  -3.09845
    D6        1.07212   0.00004   0.00000   0.00215   0.00214   1.07426
    D7       -0.98840   0.00004   0.00000   0.00065   0.00064  -0.98776
    D8        0.04180  -0.00004   0.00000  -0.00111  -0.00110   0.04070
    D9       -2.06896  -0.00004   0.00000  -0.00083  -0.00081  -2.06977
   D10        2.15370  -0.00003   0.00000  -0.00233  -0.00232   2.15139
   D11       -0.71679  -0.00732   0.00000  -0.09914  -0.09085  -0.80764
   D12       -2.94890   0.00708   0.00000   0.06259   0.06033  -2.88857
   D13        1.35283  -0.00162   0.00000  -0.02391  -0.02996   1.32287
   D14        2.42540  -0.00731   0.00000  -0.09860  -0.09029   2.33511
   D15        0.19329   0.00709   0.00000   0.06313   0.06089   0.25418
   D16       -1.78817  -0.00160   0.00000  -0.02337  -0.02940  -1.81757
         Item               Value     Threshold  Converged?
 Maximum Force            0.040390     0.000450     NO 
 RMS     Force            0.008098     0.000300     NO 
 Maximum Displacement     0.359742     0.001800     NO 
 RMS     Displacement     0.080087     0.001200     NO 
 Predicted change in Energy=-1.056948D-02
 GradGradGradGradGradGradGradGradGradGradGradGradGradGradGradGradGradGrad

                          Input orientation:                          
 ---------------------------------------------------------------------
 Center     Atomic      Atomic             Coordinates (Angstroms)
 Number     Number       Type             X           Y           Z
 ---------------------------------------------------------------------
      1          6           0        0.957433   -0.863747    0.011964
      2          8           0        2.193001   -0.809827    0.003506
      3          7           0        0.132253    0.212493   -0.020282
      4          7           0       -2.907620   -0.303978    0.011098
      5          1           0       -3.494398    0.528292   -0.053835
      6          1           0       -3.192044   -0.784336    0.865324
      7          1           0       -3.188700   -0.908431   -0.761582
      8          1           0        0.399759   -1.825758    0.024889
      9          6           0        0.657876    1.578492   -0.071569
     10          1           0       -0.877826    0.052231   -0.009041
     11          1           0        1.464324    1.721055    0.656941
     12          1           0       -0.163947    2.265551    0.171642
     13          1           0        1.036563    1.846145   -1.075402
 ---------------------------------------------------------------------
                    Distance matrix (angstroms):
                    1          2          3          4          5
     1  C    0.000000
     2  O    1.236773   0.000000
     3  N    1.356560   2.300519   0.000000
     4  N    3.905378   5.125648   3.083594   0.000000
     5  H    4.664858   5.842975   3.640529   1.020392   0.000000
     6  H    4.237062   5.453631   3.581748   1.020462   1.630725
     7  H    4.217912   5.436707   3.582558   1.020492   1.630501
     8  H    1.112040   2.061138   2.056227   3.640708   4.551067
     9  C    2.461959   2.840126   1.464535   4.032777   4.283061
    10  H    2.051251   3.189558   1.022776   2.060910   2.659904
    11  H    2.711851   2.713543   2.123394   4.861251   5.149447
    12  H    3.327986   3.878327   2.083174   3.762445   3.763086
    13  H    2.920982   3.091210   2.144731   4.621697   4.828037
                    6          7          8          9         10
     6  H    0.000000
     7  H    1.631635   0.000000
     8  H    3.833007   3.786431   0.000000
     9  C    4.613308   4.632176   3.415384   0.000000
    10  H    2.611506   2.613298   2.271611   2.166049   0.000000
    11  H    5.291707   5.529650   3.756684   1.096088   2.951978
    12  H    4.353433   4.482655   4.132567   1.098450   2.332607
    13  H    5.344807   5.053614   3.885747   1.105767   2.831985
                   11         12         13
    11  H    0.000000
    12  H    1.784168   0.000000
    13  H    1.788754   1.781079   0.000000
 Stoichiometry    C2H8N2O
 Framework group  C1[X(C2H8N2O)]
 Deg. of freedom    33
 Full point group                 C1      NOp   1
 Largest Abelian subgroup         C1      NOp   1
 Largest concise Abelian subgroup C1      NOp   1
                         Standard orientation:                         
 ---------------------------------------------------------------------
 Center     Atomic      Atomic             Coordinates (Angstroms)
 Number     Number       Type             X           Y           Z
 ---------------------------------------------------------------------
      1          6           0       -0.959713   -0.868617   -0.000913
      2          8           0       -2.195459   -0.818259   -0.000476
      3          7           0       -0.137852    0.210641   -0.001298
      4          7           0        2.903636   -0.297203    0.000163
      5          1           0        3.487644    0.538608    0.039582
      6          1           0        3.193814   -0.805544   -0.835736
      7          1           0        3.182533   -0.874070    0.794420
      8          1           0       -0.399175   -1.828781    0.021794
      9          6           0       -0.667713    1.575964    0.000706
     10          1           0        0.872735    0.053211   -0.002014
     11          1           0       -1.470847    1.691096   -0.736268
     12          1           0        0.153331    2.256861   -0.261704
     13          1           0       -1.052294    1.876539    0.992913
 ---------------------------------------------------------------------
 Rotational constants (GHZ):           7.1491651           2.0119735           1.5994306
 Standard basis: Aug-CC-pVDZ (5D, 7F)
 There are   197 symmetry adapted cartesian basis functions of A   symmetry.
 There are   187 symmetry adapted basis functions of A   symmetry.
   187 basis functions,   303 primitive gaussians,   197 cartesian basis functions
    21 alpha electrons       21 beta electrons
       nuclear repulsion energy       174.7967074502 Hartrees.
 NAtoms=   13 NActive=   13 NUniq=   13 SFac= 1.00D+00 NAtFMM=   60 NAOKFM=F Big=F
 Integral buffers will be    131072 words long.
 Raffenetti 1 integral format.
 Two-electron integral symmetry is turned on.
 One-electron integrals computed using PRISM.
 NBasis=   187 RedAO= T EigKep=  1.84D-04  NBF=   187
 NBsUse=   187 1.00D-06 EigRej= -1.00D+00 NBFU=   187
 Initial guess from the checkpoint file:  "/scr/Gau-32838.chk"
 B after Tr=    -0.000000   -0.000000   -0.000000
         Rot=    0.999971    0.007516    0.001028   -0.000556 Ang=   0.87 deg.
 ExpMin= 2.97D-02 ExpMax= 1.17D+04 ExpMxC= 4.01D+02 IAcc=3 IRadAn=         5 AccDes= 0.00D+00
 Harris functional with IExCor=  205 and IRadAn=       5 diagonalized for initial guess.
 HarFok:  IExCor=  205 AccDes= 0.00D+00 IRadAn=         5 IDoV= 1 UseB2=F ITyADJ=14
 ICtDFT=  3500011 ScaDFX=  1.000000  1.000000  1.000000  1.000000
 FoFCou: FMM=F IPFlag=           0 FMFlag=      100000 FMFlg1=           0
         NFxFlg=           0 DoJE=T BraDBF=F KetDBF=T FulRan=T
         wScrn=  0.000000 ICntrl=       500 IOpCl=  0 I1Cent=   200000004 NGrid=           0
         NMat0=    1 NMatS0=      1 NMatT0=    0 NMatD0=    1 NMtDS0=    0 NMtDT0=    0
 Petite list used in FoFCou.
 Requested convergence on RMS density matrix=1.00D-08 within 128 cycles.
 Requested convergence on MAX density matrix=1.00D-06.
 Requested convergence on             energy=1.00D-06.
 No special actions if energy rises.
 SCF Done:  E(RHF) =  -264.203507147     A.U. after   12 cycles
            NFock= 12  Conv=0.56D-08     -V/T= 2.0025
 ExpMin= 2.97D-02 ExpMax= 1.17D+04 ExpMxC= 4.01D+02 IAcc=3 IRadAn=         5 AccDes= 0.00D+00
 HarFok:  IExCor=  205 AccDes= 0.00D+00 IRadAn=         5 IDoV=-2 UseB2=F ITyADJ=14
 ICtDFT= 12500011 ScaDFX=  1.000000  1.000000  1.000000  1.000000
 Range of M.O.s used for correlation:     6   187
 NBasis=   187 NAE=    21 NBE=    21 NFC=     5 NFV=     0
 NROrb=    182 NOA=    16 NOB=    16 NVA=   166 NVB=   166

 **** Warning!!: The largest alpha MO coefficient is  0.20442998D+02

 Fully direct method using O(ONN) memory.
 JobTyp=1 Pass  1:  I=   6 to  21 NPSUse= 40 ParTrn=T ParDer=T DoDerP=T.
 Spin components of T(2) and E(2):
     alpha-alpha T2 =       0.3524400968D-01 E2=     -0.1080718072D+00
     alpha-beta  T2 =       0.2036253677D+00 E2=     -0.6491048814D+00
     beta-beta   T2 =       0.3524400968D-01 E2=     -0.1080718072D+00
 ANorm=    0.1128766312D+01
 E2 =    -0.8652484958D+00 EUMP2 =    -0.26506875564238D+03
          IDoAtm=1111111111111
          Differentiating once with respect to electric field.
                with respect to dipole field.
          Differentiating once with respect to nuclear coordinates.
 Keep R1 ints in memory in canonical form, NReq=163446388.
          There are     1 degrees of freedom in the 1st order CPHF.  IDoFFX=0 NUNeed=     1.
 LinEq1:  Iter=  0 NonCon=     1 RMS=4.49D-03 Max=8.03D-02 NDo=     1
 AX will form     1 AO Fock derivatives at one time.
 LinEq1:  Iter=  1 NonCon=     1 RMS=1.26D-03 Max=1.59D-02 NDo=     1
 LinEq1:  Iter=  2 NonCon=     1 RMS=4.95D-04 Max=6.63D-03 NDo=     1
 LinEq1:  Iter=  3 NonCon=     1 RMS=1.78D-04 Max=2.63D-03 NDo=     1
 LinEq1:  Iter=  4 NonCon=     1 RMS=5.10D-05 Max=4.66D-04 NDo=     1
 LinEq1:  Iter=  5 NonCon=     1 RMS=1.77D-05 Max=2.69D-04 NDo=     1
 LinEq1:  Iter=  6 NonCon=     1 RMS=4.79D-06 Max=3.75D-05 NDo=     1
 LinEq1:  Iter=  7 NonCon=     1 RMS=1.28D-06 Max=1.40D-05 NDo=     1
 LinEq1:  Iter=  8 NonCon=     1 RMS=3.39D-07 Max=5.92D-06 NDo=     1
 LinEq1:  Iter=  9 NonCon=     1 RMS=1.08D-07 Max=1.37D-06 NDo=     1
 LinEq1:  Iter= 10 NonCon=     1 RMS=4.10D-08 Max=4.04D-07 NDo=     1
 LinEq1:  Iter= 11 NonCon=     1 RMS=9.73D-09 Max=8.04D-08 NDo=     1
 LinEq1:  Iter= 12 NonCon=     1 RMS=2.06D-09 Max=2.07D-08 NDo=     1
 LinEq1:  Iter= 13 NonCon=     1 RMS=4.65D-10 Max=4.78D-09 NDo=     1
 LinEq1:  Iter= 14 NonCon=     1 RMS=1.14D-10 Max=1.03D-09 NDo=     1
 LinEq1:  Iter= 15 NonCon=     0 RMS=3.65D-11 Max=2.85D-10 NDo=     1
 Linear equations converged to 1.000D-10 1.000D-09 after    15 iterations.
 End of Minotr F.D. properties file   721 does not exist.
 End of Minotr F.D. properties file   722 does not exist.
 End of Minotr F.D. properties file   788 does not exist.
 Calling FoFJK, ICntrl=  10002127 FMM=F ISym2X=0 I1Cent= 0 IOpClX= 0 NMat=1 NMatS=1 NMatT=0.
 ***** Axes restored to original set *****
 -------------------------------------------------------------------
 Center     Atomic                   Forces (Hartrees/Bohr)
 Number     Number              X              Y              Z
 -------------------------------------------------------------------
      1        6           0.001180574    0.000514375   -0.002946699
      2        8           0.000274038   -0.000334042    0.000563318
      3        7           0.001791919    0.005404492    0.000731669
      4        7           0.000130662    0.000115328    0.000069507
      5        1          -0.000055865   -0.000050725   -0.000003669
      6        1          -0.000017751    0.000014637    0.000027159
      7        1           0.000034916    0.000032954   -0.000024806
      8        1           0.000423568    0.000077130    0.001403725
      9        6          -0.005527577   -0.000927344   -0.003088123
     10        1          -0.000120301    0.000370001   -0.000585424
     11        1           0.001948739   -0.002250574    0.001020960
     12        1          -0.000567475    0.000286161    0.000666186
     13        1           0.000504552   -0.003252394    0.002166197
 -------------------------------------------------------------------
 Cartesian Forces:  Max     0.005527577 RMS     0.001707627

 GradGradGradGradGradGradGradGradGradGradGradGradGradGradGradGradGradGrad
 Berny optimization.
 Using GEDIIS/GDIIS optimizer.
 FormGI is forming the generalized inverse of G from B-inverse, IUseBI=4.
 Internal  Forces:  Max     0.007064591 RMS     0.001523900
 Search for a local minimum.
 Step number   2 out of a maximum of   58
 All quantities printed in internal units (Hartrees-Bohrs-Radians)
 Mixed Optimization -- RFO/linear search
 Update second derivatives using D2CorX and points    1    2
 DE= -8.74D-03 DEPred=-1.06D-02 R= 8.27D-01
 TightC=F SS=  1.41D+00  RLast= 3.43D-01 DXNew= 5.0454D-01 1.0294D+00
 Trust test= 8.27D-01 RLast= 3.43D-01 DXMaxT set to 5.05D-01
 ITU=  1  0
 Use linear search instead of GDIIS.
     Eigenvalues ---    0.00230   0.00230   0.00230   0.00960   0.01137
     Eigenvalues ---    0.02215   0.02231   0.03884   0.06462   0.07029
     Eigenvalues ---    0.07186   0.07879   0.15085   0.16000   0.16000
     Eigenvalues ---    0.16000   0.16000   0.16000   0.16000   0.18651
     Eigenvalues ---    0.21945   0.22199   0.32457   0.33553   0.33687
     Eigenvalues ---    0.34023   0.38673   0.43869   0.44264   0.44264
     Eigenvalues ---    0.44275   0.52918   0.88440
 RFO step:  Lambda=-7.21225449D-04 EMin= 2.29978708D-03
 Quartic linear search produced a step of -0.02309.
 Iteration  1 RMS(Cart)=  0.05425878 RMS(Int)=  0.00115736
 Iteration  2 RMS(Cart)=  0.00207387 RMS(Int)=  0.00040157
 Iteration  3 RMS(Cart)=  0.00000135 RMS(Int)=  0.00040157
 Iteration  4 RMS(Cart)=  0.00000000 RMS(Int)=  0.00040157
 Variable       Old X    -DE/DX   Delta X   Delta X   Delta X     New X
                                 (Linear)    (Quad)   (Total)
    R1        2.33716   0.00026  -0.00001   0.00032   0.00030   2.33747
    R2        2.56353   0.00091   0.00017   0.00125   0.00142   2.56494
    R3        2.10145  -0.00026  -0.00003  -0.00071  -0.00074   2.10071
    R4        2.76757  -0.00706  -0.00039  -0.01738  -0.01777   2.74980
    R5        1.93277  -0.00005   0.00001  -0.00014  -0.00014   1.93262
    R6        1.92826  -0.00001   0.00000  -0.00002  -0.00002   1.92824
    R7        1.92839   0.00002   0.00000   0.00005   0.00005   1.92844
    R8        1.92845  -0.00001  -0.00000  -0.00002  -0.00002   1.92843
    R9        3.89456  -0.00011   0.00011  -0.00304  -0.00293   3.89163
   R10        2.07131   0.00182   0.00006   0.00507   0.00514   2.07644
   R11        2.07577   0.00075   0.00012   0.00187   0.00199   2.07776
   R12        2.08960  -0.00258  -0.00020  -0.00699  -0.00719   2.08241
    A1        2.18089   0.00033   0.00040   0.00073   0.00017   2.18106
    A2        2.13980  -0.00052  -0.00020  -0.00185  -0.00301   2.13679
    A3        1.96227   0.00023  -0.00019   0.00271   0.00155   1.96383
    A4        2.12057  -0.00238   0.00022  -0.01117  -0.01097   2.10961
    A5        2.06708   0.00178  -0.00024   0.00952   0.00927   2.07636
    A6        2.09553   0.00060   0.00001   0.00164   0.00167   2.09719
    A7        1.85140  -0.00003  -0.00000   0.00007  -0.00011   1.85129
    A8        1.85099  -0.00003   0.00000  -0.00031   0.00002   1.85101
    A9        2.00951   0.00011  -0.00002   0.00081   0.00088   2.01038
   A10        1.85275   0.00002  -0.00000  -0.00001  -0.00019   1.85256
   A11        1.94341   0.00001   0.00002   0.00007  -0.00010   1.94331
   A12        1.94578  -0.00009   0.00000  -0.00066  -0.00055   1.94522
   A13        1.94132  -0.00325   0.00407  -0.03557  -0.03173   1.90959
   A14        1.88297   0.00144   0.00045   0.01440   0.01507   1.89804
   A15        1.96110  -0.00271  -0.00556  -0.00400  -0.00990   1.95120
   A16        1.89858   0.00149   0.00012   0.01254   0.01301   1.91159
   A17        1.89645   0.00123   0.00016  -0.00504  -0.00562   1.89082
   A18        1.88160   0.00209   0.00046   0.02023   0.02077   1.90237
   A19        3.12525   0.00022  -0.00021   0.06984   0.06955   3.19480
   A20        3.14332  -0.00016  -0.00008  -0.03631  -0.03739   3.10593
    D1        0.00155   0.00058  -0.00003   0.02656   0.02625   0.02780
    D2       -3.14118   0.00049  -0.00002   0.01933   0.01955  -3.12164
    D3       -3.11784  -0.00132  -0.00054  -0.05314  -0.05390   3.11144
    D4        0.02262  -0.00141  -0.00053  -0.06038  -0.06061  -0.03799
    D5       -3.09845  -0.00001  -0.00004  -0.01459  -0.01398  -3.11243
    D6        1.07426  -0.00000  -0.00005   0.00053   0.00094   1.07521
    D7       -0.98776  -0.00002  -0.00001  -0.01409  -0.01383  -1.00159
    D8        0.04070   0.00001   0.00003   0.00405   0.00380   0.04450
    D9       -2.06977   0.00002   0.00002   0.01916   0.01872  -2.05105
   D10        2.15139  -0.00000   0.00005   0.00455   0.00395   2.15533
   D11       -0.80764   0.00102   0.00210  -0.00352  -0.00159  -0.80923
   D12       -2.88857   0.00020  -0.00139  -0.00697  -0.00797  -2.89654
   D13        1.32287  -0.00170   0.00069  -0.03884  -0.03754   1.28533
   D14        2.33511   0.00111   0.00208   0.00383   0.00519   2.34030
   D15        0.25418   0.00029  -0.00141   0.00038  -0.00119   0.25299
   D16       -1.81757  -0.00161   0.00068  -0.03149  -0.03076  -1.84833
         Item               Value     Threshold  Converged?
 Maximum Force            0.007065     0.000450     NO 
 RMS     Force            0.001524     0.000300     NO 
 Maximum Displacement     0.156100     0.001800     NO 
 RMS     Displacement     0.054785     0.001200     NO 
 Predicted change in Energy=-3.691987D-04
 GradGradGradGradGradGradGradGradGradGradGradGradGradGradGradGradGradGrad

                          Input orientation:                          
 ---------------------------------------------------------------------
 Center     Atomic      Atomic             Coordinates (Angstroms)
 Number     Number       Type             X           Y           Z
 ---------------------------------------------------------------------
      1          6           0        1.000626   -0.858868   -0.010984
      2          8           0        2.233063   -0.756892    0.015550
      3          7           0        0.134114    0.185488   -0.038645
      4          7           0       -2.911422   -0.276172    0.012463
      5          1           0       -3.464869    0.579522   -0.039136
      6          1           0       -3.200705   -0.748456    0.869583
      7          1           0       -3.230070   -0.865244   -0.757497
      8          1           0        0.482364   -1.840724    0.044924
      9          6           0        0.618778    1.557086   -0.073676
     10          1           0       -0.870756   -0.004629   -0.041557
     11          1           0        1.414117    1.682570    0.674030
     12          1           0       -0.216090    2.233024    0.160878
     13          1           0        1.027523    1.821477   -1.062284
 ---------------------------------------------------------------------
                    Distance matrix (angstroms):
                    1          2          3          4          5
     1  C    0.000000
     2  O    1.236933   0.000000
     3  N    1.357309   2.301436   0.000000
     4  N    3.955276   5.166898   3.080752   0.000000
     5  H    4.691525   5.852814   3.620489   1.020381   0.000000
     6  H    4.294039   5.500480   3.580244   1.020486   1.630668
     7  H    4.296058   5.518620   3.597015   1.020481   1.630497
     8  H    1.111649   2.059249   2.057619   3.737199   4.630907
     9  C    2.446747   2.822831   1.455132   3.978764   4.199167
    10  H    2.057361   3.194191   1.022701   2.059361   2.659071
    11  H    2.664418   2.656171   2.094652   4.794229   5.052705
    12  H    3.327120   3.867695   2.086829   3.685499   3.650841
    13  H    2.879271   3.043524   2.126611   4.590261   4.771884
                    6          7          8          9         10
     6  H    0.000000
     7  H    1.631530   0.000000
     8  H    3.929136   3.921428   0.000000
     9  C    4.560013   4.598796   3.402615   0.000000
    10  H    2.610003   2.611434   2.282468   2.158402   0.000000
    11  H    5.219647   5.487176   3.698316   1.098806   2.929053
    12  H    4.277782   4.418908   4.134816   1.099505   2.340226
    13  H    5.311740   5.043655   3.864560   1.101962   2.824891
                   11         12         13
    11  H    0.000000
    12  H    1.795522   0.000000
    13  H    1.784247   1.792225   0.000000
 Stoichiometry    C2H8N2O
 Framework group  C1[X(C2H8N2O)]
 Deg. of freedom    33
 Full point group                 C1      NOp   1
 Largest Abelian subgroup         C1      NOp   1
 Largest concise Abelian subgroup C1      NOp   1
                         Standard orientation:                         
 ---------------------------------------------------------------------
 Center     Atomic      Atomic             Coordinates (Angstroms)
 Number     Number       Type             X           Y           Z
 ---------------------------------------------------------------------
      1          6           0       -1.007131   -0.857343    0.019882
      2          8           0       -2.238370   -0.744479   -0.016396
      3          7           0       -0.130530    0.178915    0.014566
      4          7           0        2.910523   -0.313674   -0.004906
      5          1           0        3.472112    0.537930    0.018877
      6          1           0        3.199106   -0.819052   -0.843180
      7          1           0        3.219804   -0.877912    0.787156
      8          1           0       -0.498293   -1.845530    0.001618
      9          6           0       -0.601843    1.555507   -0.001772
     10          1           0        0.872398   -0.020674    0.029253
     11          1           0       -1.392447    1.661874   -0.757422
     12          1           0        0.240704    2.214537   -0.256145
     13          1           0       -1.012532    1.858986    0.974729
 ---------------------------------------------------------------------
 Rotational constants (GHZ):           7.4757403           1.9834538           1.5968384
 Standard basis: Aug-CC-pVDZ (5D, 7F)
 There are   197 symmetry adapted cartesian basis functions of A   symmetry.
 There are   187 symmetry adapted basis functions of A   symmetry.
   187 basis functions,   303 primitive gaussians,   197 cartesian basis functions
    21 alpha electrons       21 beta electrons
       nuclear repulsion energy       175.0791709933 Hartrees.
 NAtoms=   13 NActive=   13 NUniq=   13 SFac= 1.00D+00 NAtFMM=   60 NAOKFM=F Big=F
 Integral buffers will be    131072 words long.
 Raffenetti 1 integral format.
 Two-electron integral symmetry is turned on.
 One-electron integrals computed using PRISM.
 NBasis=   187 RedAO= T EigKep=  1.81D-04  NBF=   187
 NBsUse=   187 1.00D-06 EigRej= -1.00D+00 NBFU=   187
 Initial guess from the checkpoint file:  "/scr/Gau-32838.chk"
 B after Tr=     0.000000    0.000000   -0.000000
         Rot=    0.999959    0.000387    0.000126    0.009010 Ang=   1.03 deg.
 ExpMin= 2.97D-02 ExpMax= 1.17D+04 ExpMxC= 4.01D+02 IAcc=3 IRadAn=         5 AccDes= 0.00D+00
 Harris functional with IExCor=  205 and IRadAn=       5 diagonalized for initial guess.
 HarFok:  IExCor=  205 AccDes= 0.00D+00 IRadAn=         5 IDoV= 1 UseB2=F ITyADJ=14
 ICtDFT=  3500011 ScaDFX=  1.000000  1.000000  1.000000  1.000000
 FoFCou: FMM=F IPFlag=           0 FMFlag=      100000 FMFlg1=           0
         NFxFlg=           0 DoJE=T BraDBF=F KetDBF=T FulRan=T
         wScrn=  0.000000 ICntrl=       500 IOpCl=  0 I1Cent=   200000004 NGrid=           0
         NMat0=    1 NMatS0=      1 NMatT0=    0 NMatD0=    1 NMtDS0=    0 NMtDT0=    0
 Petite list used in FoFCou.
 Requested convergence on RMS density matrix=1.00D-08 within 128 cycles.
 Requested convergence on MAX density matrix=1.00D-06.
 Requested convergence on             energy=1.00D-06.
 No special actions if energy rises.
 SCF Done:  E(RHF) =  -264.203610943     A.U. after   12 cycles
            NFock= 12  Conv=0.37D-08     -V/T= 2.0024
 ExpMin= 2.97D-02 ExpMax= 1.17D+04 ExpMxC= 4.01D+02 IAcc=3 IRadAn=         5 AccDes= 0.00D+00
 HarFok:  IExCor=  205 AccDes= 0.00D+00 IRadAn=         5 IDoV=-2 UseB2=F ITyADJ=14
 ICtDFT= 12500011 ScaDFX=  1.000000  1.000000  1.000000  1.000000
 Range of M.O.s used for correlation:     6   187
 NBasis=   187 NAE=    21 NBE=    21 NFC=     5 NFV=     0
 NROrb=    182 NOA=    16 NOB=    16 NVA=   166 NVB=   166

 **** Warning!!: The largest alpha MO coefficient is  0.21904310D+02

 Fully direct method using O(ONN) memory.
 JobTyp=1 Pass  1:  I=   6 to  21 NPSUse= 40 ParTrn=T ParDer=T DoDerP=T.
 Spin components of T(2) and E(2):
     alpha-alpha T2 =       0.3523897172D-01 E2=     -0.1081250235D+00
     alpha-beta  T2 =       0.2034771094D+00 E2=     -0.6490607145D+00
     beta-beta   T2 =       0.3523897172D-01 E2=     -0.1081250235D+00
 ANorm=    0.1128696174D+01
 E2 =    -0.8653107615D+00 EUMP2 =    -0.26506892170423D+03
          IDoAtm=1111111111111
          Differentiating once with respect to electric field.
                with respect to dipole field.
          Differentiating once with respect to nuclear coordinates.
 Keep R1 ints in memory in canonical form, NReq=163446788.
          There are     1 degrees of freedom in the 1st order CPHF.  IDoFFX=0 NUNeed=     1.
 LinEq1:  Iter=  0 NonCon=     1 RMS=4.49D-03 Max=8.41D-02 NDo=     1
 AX will form     1 AO Fock derivatives at one time.
 LinEq1:  Iter=  1 NonCon=     1 RMS=1.26D-03 Max=1.66D-02 NDo=     1
 LinEq1:  Iter=  2 NonCon=     1 RMS=4.96D-04 Max=6.82D-03 NDo=     1
 LinEq1:  Iter=  3 NonCon=     1 RMS=1.78D-04 Max=2.82D-03 NDo=     1
 LinEq1:  Iter=  4 NonCon=     1 RMS=5.11D-05 Max=4.73D-04 NDo=     1
 LinEq1:  Iter=  5 NonCon=     1 RMS=1.78D-05 Max=2.81D-04 NDo=     1
 LinEq1:  Iter=  6 NonCon=     1 RMS=4.73D-06 Max=4.06D-05 NDo=     1
 LinEq1:  Iter=  7 NonCon=     1 RMS=1.23D-06 Max=1.19D-05 NDo=     1
 LinEq1:  Iter=  8 NonCon=     1 RMS=3.01D-07 Max=3.14D-06 NDo=     1
 LinEq1:  Iter=  9 NonCon=     1 RMS=9.72D-08 Max=1.01D-06 NDo=     1
 LinEq1:  Iter= 10 NonCon=     1 RMS=3.73D-08 Max=3.30D-07 NDo=     1
 LinEq1:  Iter= 11 NonCon=     1 RMS=8.88D-09 Max=9.32D-08 NDo=     1
 LinEq1:  Iter= 12 NonCon=     1 RMS=1.77D-09 Max=3.00D-08 NDo=     1
 LinEq1:  Iter= 13 NonCon=     1 RMS=4.36D-10 Max=7.23D-09 NDo=     1
 LinEq1:  Iter= 14 NonCon=     1 RMS=1.46D-10 Max=1.69D-09 NDo=     1
 LinEq1:  Iter= 15 NonCon=     0 RMS=4.49D-11 Max=4.23D-10 NDo=     1
 Linear equations converged to 1.000D-10 1.000D-09 after    15 iterations.
 End of Minotr F.D. properties file   721 does not exist.
 End of Minotr F.D. properties file   722 does not exist.
 End of Minotr F.D. properties file   788 does not exist.
 Calling FoFJK, ICntrl=  10002127 FMM=F ISym2X=0 I1Cent= 0 IOpClX= 0 NMat=1 NMatS=1 NMatT=0.
 ***** Axes restored to original set *****
 -------------------------------------------------------------------
 Center     Atomic                   Forces (Hartrees/Bohr)
 Number     Number              X              Y              Z
 -------------------------------------------------------------------
      1        6          -0.000383461   -0.000078175    0.006487179
      2        8           0.000335443    0.000215237   -0.002711512
      3        7          -0.001126767   -0.000555193   -0.001874049
      4        7           0.000123218   -0.000093876   -0.000088433
      5        1          -0.000019164   -0.000030933   -0.000019068
      6        1           0.000022701    0.000026866    0.000019315
      7        1          -0.000062321    0.000030991   -0.000020472
      8        1           0.000159729   -0.000128947   -0.002066096
      9        6          -0.000390822    0.000486206    0.000532020
     10        1          -0.000063557    0.000213530   -0.000365309
     11        1           0.000692699    0.000926172   -0.000014933
     12        1           0.000360888   -0.000580885   -0.000036577
     13        1           0.000351412   -0.000430993    0.000157934
 -------------------------------------------------------------------
 Cartesian Forces:  Max     0.006487179 RMS     0.001262733

 GradGradGradGradGradGradGradGradGradGradGradGradGradGradGradGradGradGrad
 Berny optimization.
 Using GEDIIS/GDIIS optimizer.
 FormGI is forming the generalized inverse of G from B-inverse, IUseBI=4.
 Internal  Forces:  Max     0.002675752 RMS     0.000764642
 Search for a local minimum.
 Step number   3 out of a maximum of   58
 All quantities printed in internal units (Hartrees-Bohrs-Radians)
 Mixed Optimization -- En-DIIS/RFO-DIIS
 Update second derivatives using D2CorX and points    1    2    3
 DE= -1.66D-04 DEPred=-3.69D-04 R= 4.50D-01
 Trust test= 4.50D-01 RLast= 1.40D-01 DXMaxT set to 5.05D-01
 ITU=  0  1  0
 Use linear search instead of GDIIS.
     Eigenvalues ---    0.00230   0.00230   0.00239   0.00939   0.01127
     Eigenvalues ---    0.02068   0.03863   0.03980   0.06532   0.06956
     Eigenvalues ---    0.07180   0.07952   0.15193   0.15963   0.15999
     Eigenvalues ---    0.16000   0.16000   0.16000   0.16471   0.18621
     Eigenvalues ---    0.21486   0.22145   0.32453   0.33325   0.33690
     Eigenvalues ---    0.33825   0.37792   0.43867   0.44264   0.44264
     Eigenvalues ---    0.44275   0.52883   0.88433
 RFO step:  Lambda=-3.24382575D-04 EMin= 2.29930171D-03
 Quartic linear search produced a step of -0.35244.
 Iteration  1 RMS(Cart)=  0.02493281 RMS(Int)=  0.00069092
 Iteration  2 RMS(Cart)=  0.00071401 RMS(Int)=  0.00023703
 Iteration  3 RMS(Cart)=  0.00000024 RMS(Int)=  0.00023703
 Variable       Old X    -DE/DX   Delta X   Delta X   Delta X     New X
                                 (Linear)    (Quad)   (Total)
    R1        2.33747   0.00029  -0.00011   0.00046   0.00035   2.33782
    R2        2.56494   0.00010  -0.00050   0.00118   0.00068   2.56562
    R3        2.10071  -0.00006   0.00026  -0.00071  -0.00045   2.10026
    R4        2.74980   0.00070   0.00626  -0.01292  -0.00666   2.74314
    R5        1.93262  -0.00003   0.00005  -0.00015  -0.00010   1.93252
    R6        1.92824  -0.00001   0.00001  -0.00004  -0.00003   1.92821
    R7        1.92844  -0.00000  -0.00002   0.00003   0.00002   1.92846
    R8        1.92843   0.00002   0.00001   0.00001   0.00002   1.92844
    R9        3.89163  -0.00006   0.00103  -0.00337  -0.00234   3.88929
   R10        2.07644   0.00060  -0.00181   0.00520   0.00339   2.07983
   R11        2.07776  -0.00064  -0.00070   0.00035  -0.00035   2.07741
   R12        2.08241  -0.00011   0.00253  -0.00590  -0.00336   2.07904
    A1        2.18106  -0.00039  -0.00006  -0.00025  -0.00125   2.17982
    A2        2.13679   0.00011   0.00106  -0.00086  -0.00074   2.13605
    A3        1.96383   0.00053  -0.00055   0.00445   0.00296   1.96679
    A4        2.10961  -0.00075   0.00386  -0.01105  -0.00720   2.10240
    A5        2.07636   0.00039  -0.00327   0.00868   0.00539   2.08175
    A6        2.09719   0.00035  -0.00059   0.00229   0.00169   2.09888
    A7        1.85129  -0.00002   0.00004  -0.00031  -0.00023   1.85106
    A8        1.85101  -0.00007  -0.00001  -0.00035  -0.00043   1.85059
    A9        2.01038   0.00001  -0.00031   0.00063   0.00031   2.01069
   A10        1.85256   0.00004   0.00007   0.00024   0.00034   1.85290
   A11        1.94331  -0.00004   0.00004  -0.00021  -0.00014   1.94318
   A12        1.94522   0.00008   0.00019  -0.00004   0.00013   1.94536
   A13        1.90959   0.00153   0.01118  -0.02143  -0.01021   1.89938
   A14        1.89804  -0.00040  -0.00531   0.01043   0.00511   1.90315
   A15        1.95120  -0.00066   0.00349  -0.00813  -0.00459   1.94661
   A16        1.91159  -0.00028  -0.00458   0.00968   0.00507   1.91667
   A17        1.89082  -0.00062   0.00198  -0.00765  -0.00556   1.88526
   A18        1.90237   0.00043  -0.00732   0.01755   0.01024   1.91261
   A19        3.19480  -0.00026  -0.02451   0.00206  -0.02244   3.17236
   A20        3.10593   0.00011   0.01318   0.00381   0.01709   3.12302
    D1        0.02780  -0.00252  -0.00925  -0.04745  -0.05666  -0.02886
    D2       -3.12164  -0.00268  -0.00689  -0.06063  -0.06753   3.09402
    D3        3.11144   0.00208   0.01900   0.01658   0.03559  -3.13615
    D4       -0.03799   0.00193   0.02136   0.00340   0.02472  -0.01327
    D5       -3.11243   0.00008   0.00493   0.00842   0.01327  -3.09916
    D6        1.07521   0.00009  -0.00033   0.00810   0.00773   1.08293
    D7       -1.00159   0.00009   0.00488   0.00752   0.01239  -0.98920
    D8        0.04450  -0.00009  -0.00134  -0.00678  -0.00811   0.03638
    D9       -2.05105  -0.00008  -0.00660  -0.00710  -0.01365  -2.06470
   D10        2.15533  -0.00008  -0.00139  -0.00768  -0.00899   2.14635
   D11       -0.80923   0.00003   0.00056  -0.00951  -0.00892  -0.81815
   D12       -2.89654  -0.00029   0.00281  -0.01485  -0.01208  -2.90862
   D13        1.28533  -0.00014   0.01323  -0.03854  -0.02537   1.25996
   D14        2.34030   0.00019  -0.00183   0.00380   0.00204   2.34234
   D15        0.25299  -0.00013   0.00042  -0.00154  -0.00111   0.25188
   D16       -1.84833   0.00001   0.01084  -0.02523  -0.01440  -1.86273
         Item               Value     Threshold  Converged?
 Maximum Force            0.002676     0.000450     NO 
 RMS     Force            0.000765     0.000300     NO 
 Maximum Displacement     0.094242     0.001800     NO 
 RMS     Displacement     0.024979     0.001200     NO 
 Predicted change in Energy=-2.354606D-04
 GradGradGradGradGradGradGradGradGradGradGradGradGradGradGradGradGradGrad

                          Input orientation:                          
 ---------------------------------------------------------------------
 Center     Atomic      Atomic             Coordinates (Angstroms)
 Number     Number       Type             X           Y           Z
 ---------------------------------------------------------------------
      1          6           0        0.990661   -0.849843    0.010055
      2          8           0        2.223176   -0.752877   -0.034320
      3          7           0        0.127642    0.197853   -0.018191
      4          7           0       -2.914653   -0.283974    0.011177
      5          1           0       -3.480012    0.563119   -0.051652
      6          1           0       -3.207571   -0.755995    0.867217
      7          1           0       -3.215305   -0.881264   -0.759701
      8          1           0        0.471607   -1.832033    0.043561
      9          6           0        0.625763    1.560325   -0.070311
     10          1           0       -0.878849    0.016792   -0.019042
     11          1           0        1.423672    1.675674    0.678928
     12          1           0       -0.198525    2.252387    0.153517
     13          1           0        1.049070    1.798018   -1.057587
 ---------------------------------------------------------------------
                    Distance matrix (angstroms):
                    1          2          3          4          5
     1  C    0.000000
     2  O    1.237120   0.000000
     3  N    1.357670   2.301176   0.000000
     4  N    3.946097   5.159382   3.080353   0.000000
     5  H    4.689049   5.853076   3.626252   1.020365   0.000000
     6  H    4.285870   5.505070   3.580142   1.020495   1.630523
     7  H    4.275939   5.488144   3.590212   1.020489   1.630228
     8  H    1.111412   2.058795   2.059749   3.723478   4.621808
     9  C    2.438959   2.811393   1.451610   3.992822   4.225182
    10  H    2.060818   3.196120   1.022647   2.058123   2.658117
    11  H    2.648231   2.654391   2.085575   4.806992   5.081106
    12  H    3.325444   3.864134   2.087337   3.718971   3.696469
    13  H    2.855598   2.988756   2.118938   4.603048   4.800986
                    6          7          8          9         10
     6  H    0.000000
     7  H    1.631752   0.000000
     8  H    3.920793   3.891338   0.000000
     9  C    4.575888   4.603305   3.397768   0.000000
    10  H    2.608755   2.610384   2.290372   2.156149   0.000000
    11  H    5.234203   5.488869   3.689733   1.100601   2.922439
    12  H    4.314405   4.444625   4.140490   1.099318   2.343182
    13  H    5.324176   5.045015   3.837090   1.100182   2.822802
                   11         12         13
    11  H    0.000000
    12  H    1.800049   0.000000
    13  H    1.780668   1.797141   0.000000
 Stoichiometry    C2H8N2O
 Framework group  C1[X(C2H8N2O)]
 Deg. of freedom    33
 Full point group                 C1      NOp   1
 Largest Abelian subgroup         C1      NOp   1
 Largest concise Abelian subgroup C1      NOp   1
                         Standard orientation:                         
 ---------------------------------------------------------------------
 Center     Atomic      Atomic             Coordinates (Angstroms)
 Number     Number       Type             X           Y           Z
 ---------------------------------------------------------------------
      1          6           0       -0.994740   -0.858472   -0.015120
      2          8           0       -2.227282   -0.756388    0.014597
      3          7           0       -0.128431    0.186864   -0.008073
      4          7           0        2.912329   -0.305240    0.005536
      5          1           0        3.479972    0.541492    0.049927
      6          1           0        3.211797   -0.802148   -0.833995
      7          1           0        3.203536   -0.881494    0.795806
      8          1           0       -0.478772   -1.842857   -0.015921
      9          6           0       -0.622339    1.551836    0.000819
     10          1           0        0.877376    0.002710    0.007601
     11          1           0       -1.412642    1.648530   -0.759045
     12          1           0        0.206429    2.234692   -0.234449
     13          1           0       -1.054250    1.818626    0.976870
 ---------------------------------------------------------------------
 Rotational constants (GHZ):           7.4764851           1.9872650           1.5992505
 Standard basis: Aug-CC-pVDZ (5D, 7F)
 There are   197 symmetry adapted cartesian basis functions of A   symmetry.
 There are   187 symmetry adapted basis functions of A   symmetry.
   187 basis functions,   303 primitive gaussians,   197 cartesian basis functions
    21 alpha electrons       21 beta electrons
       nuclear repulsion energy       175.2208730492 Hartrees.
 NAtoms=   13 NActive=   13 NUniq=   13 SFac= 1.00D+00 NAtFMM=   60 NAOKFM=F Big=F
 Integral buffers will be    131072 words long.
 Raffenetti 1 integral format.
 Two-electron integral symmetry is turned on.
 One-electron integrals computed using PRISM.
 NBasis=   187 RedAO= T EigKep=  1.81D-04  NBF=   187
 NBsUse=   187 1.00D-06 EigRej= -1.00D+00 NBFU=   187
 Initial guess from the checkpoint file:  "/scr/Gau-32838.chk"
 B after Tr=    -0.000000   -0.000000    0.000000
         Rot=    0.999995   -0.001161    0.000272   -0.002904 Ang=  -0.36 deg.
 ExpMin= 2.97D-02 ExpMax= 1.17D+04 ExpMxC= 4.01D+02 IAcc=3 IRadAn=         5 AccDes= 0.00D+00
 Harris functional with IExCor=  205 and IRadAn=       5 diagonalized for initial guess.
 HarFok:  IExCor=  205 AccDes= 0.00D+00 IRadAn=         5 IDoV= 1 UseB2=F ITyADJ=14
 ICtDFT=  3500011 ScaDFX=  1.000000  1.000000  1.000000  1.000000
 FoFCou: FMM=F IPFlag=           0 FMFlag=      100000 FMFlg1=           0
         NFxFlg=           0 DoJE=T BraDBF=F KetDBF=T FulRan=T
         wScrn=  0.000000 ICntrl=       500 IOpCl=  0 I1Cent=   200000004 NGrid=           0
         NMat0=    1 NMatS0=      1 NMatT0=    0 NMatD0=    1 NMtDS0=    0 NMtDT0=    0
 Petite list used in FoFCou.
 Requested convergence on RMS density matrix=1.00D-08 within 128 cycles.
 Requested convergence on MAX density matrix=1.00D-06.
 Requested convergence on             energy=1.00D-06.
 No special actions if energy rises.
 SCF Done:  E(RHF) =  -264.203615433     A.U. after   12 cycles
            NFock= 12  Conv=0.35D-08     -V/T= 2.0024
 ExpMin= 2.97D-02 ExpMax= 1.17D+04 ExpMxC= 4.01D+02 IAcc=3 IRadAn=         5 AccDes= 0.00D+00
 HarFok:  IExCor=  205 AccDes= 0.00D+00 IRadAn=         5 IDoV=-2 UseB2=F ITyADJ=14
 ICtDFT= 12500011 ScaDFX=  1.000000  1.000000  1.000000  1.000000
 Range of M.O.s used for correlation:     6   187
 NBasis=   187 NAE=    21 NBE=    21 NFC=     5 NFV=     0
 NROrb=    182 NOA=    16 NOB=    16 NVA=   166 NVB=   166

 **** Warning!!: The largest alpha MO coefficient is  0.23315712D+02

 Fully direct method using O(ONN) memory.
 JobTyp=1 Pass  1:  I=   6 to  21 NPSUse= 40 ParTrn=T ParDer=T DoDerP=T.
 Spin components of T(2) and E(2):
     alpha-alpha T2 =       0.3523633388D-01 E2=     -0.1081443503D+00
     alpha-beta  T2 =       0.2034180962D+00 E2=     -0.6490446662D+00
     beta-beta   T2 =       0.3523633388D-01 E2=     -0.1081443503D+00
 ANorm=    0.1128667694D+01
 E2 =    -0.8653333668D+00 EUMP2 =    -0.26506894879970D+03
          IDoAtm=1111111111111
          Differentiating once with respect to electric field.
                with respect to dipole field.
          Differentiating once with respect to nuclear coordinates.
 Keep R1 ints in memory in canonical form, NReq=163446670.
          There are     1 degrees of freedom in the 1st order CPHF.  IDoFFX=0 NUNeed=     1.
 LinEq1:  Iter=  0 NonCon=     1 RMS=4.49D-03 Max=8.45D-02 NDo=     1
 AX will form     1 AO Fock derivatives at one time.
 LinEq1:  Iter=  1 NonCon=     1 RMS=1.26D-03 Max=1.70D-02 NDo=     1
 LinEq1:  Iter=  2 NonCon=     1 RMS=4.97D-04 Max=6.81D-03 NDo=     1
 LinEq1:  Iter=  3 NonCon=     1 RMS=1.79D-04 Max=2.85D-03 NDo=     1
 LinEq1:  Iter=  4 NonCon=     1 RMS=5.13D-05 Max=4.71D-04 NDo=     1
 LinEq1:  Iter=  5 NonCon=     1 RMS=1.79D-05 Max=2.77D-04 NDo=     1
 LinEq1:  Iter=  6 NonCon=     1 RMS=4.92D-06 Max=3.72D-05 NDo=     1
 LinEq1:  Iter=  7 NonCon=     1 RMS=1.36D-06 Max=1.94D-05 NDo=     1
 LinEq1:  Iter=  8 NonCon=     1 RMS=3.74D-07 Max=6.81D-06 NDo=     1
 LinEq1:  Iter=  9 NonCon=     1 RMS=1.12D-07 Max=1.38D-06 NDo=     1
 LinEq1:  Iter= 10 NonCon=     1 RMS=4.19D-08 Max=4.05D-07 NDo=     1
 LinEq1:  Iter= 11 NonCon=     1 RMS=1.02D-08 Max=9.34D-08 NDo=     1
 LinEq1:  Iter= 12 NonCon=     1 RMS=2.28D-09 Max=2.51D-08 NDo=     1
 LinEq1:  Iter= 13 NonCon=     1 RMS=5.44D-10 Max=5.77D-09 NDo=     1
 LinEq1:  Iter= 14 NonCon=     1 RMS=1.68D-10 Max=1.45D-09 NDo=     1
 LinEq1:  Iter= 15 NonCon=     0 RMS=4.75D-11 Max=3.64D-10 NDo=     1
 Linear equations converged to 1.000D-10 1.000D-09 after    15 iterations.
 End of Minotr F.D. properties file   721 does not exist.
 End of Minotr F.D. properties file   722 does not exist.
 End of Minotr F.D. properties file   788 does not exist.
 Calling FoFJK, ICntrl=  10002127 FMM=F ISym2X=0 I1Cent= 0 IOpClX= 0 NMat=1 NMatS=1 NMatT=0.
 ***** Axes restored to original set *****
 -------------------------------------------------------------------
 Center     Atomic                   Forces (Hartrees/Bohr)
 Number     Number              X              Y              Z
 -------------------------------------------------------------------
      1        6          -0.001142851   -0.000768053   -0.005186847
      2        8           0.000230540    0.000550495    0.002011231
      3        7          -0.001878330   -0.002547086    0.000950149
      4        7           0.000087040    0.000011211   -0.000045800
      5        1          -0.000032853    0.000004470   -0.000007529
      6        1           0.000019831    0.000000747   -0.000006918
      7        1          -0.000017352   -0.000005398   -0.000000554
      8        1           0.000005501    0.000073254    0.001461562
      9        6           0.002091155    0.001022828    0.002330137
     10        1           0.000021571   -0.000542511    0.000369246
     11        1          -0.000227108    0.002117108   -0.000644301
     12        1           0.000571241   -0.000540019   -0.000235756
     13        1           0.000271615    0.000622954   -0.000994620
 -------------------------------------------------------------------
 Cartesian Forces:  Max     0.005186847 RMS     0.001287272

 GradGradGradGradGradGradGradGradGradGradGradGradGradGradGradGradGradGrad
 Berny optimization.
 Using GEDIIS/GDIIS optimizer.
 FormGI is forming the generalized inverse of G from B-inverse, IUseBI=4.
 Internal  Forces:  Max     0.003937491 RMS     0.000986716
 Search for a local minimum.
 Step number   4 out of a maximum of   58
 All quantities printed in internal units (Hartrees-Bohrs-Radians)
 Mixed Optimization -- En-DIIS/RFO-DIIS
 Swapping is turned off.
 Update second derivatives using D2CorX and points    1    2    3    4
 DE= -2.71D-05 DEPred=-2.35D-04 R= 1.15D-01
 Trust test= 1.15D-01 RLast= 1.13D-01 DXMaxT set to 5.05D-01
 ITU=  0  0  1  0
     Eigenvalues ---    0.00229   0.00230   0.00240   0.00901   0.01108
     Eigenvalues ---    0.02133   0.03875   0.06462   0.06512   0.06979
     Eigenvalues ---    0.07860   0.08172   0.15493   0.15959   0.16000
     Eigenvalues ---    0.16000   0.16000   0.16020   0.17696   0.18221
     Eigenvalues ---    0.20893   0.22357   0.32446   0.33259   0.33782
     Eigenvalues ---    0.33865   0.42051   0.43868   0.44264   0.44264
     Eigenvalues ---    0.44275   0.52995   0.88421
 En-DIIS/RFO-DIIS/Sim-DIIS IScMMF=       -3 using points:     4    3
 RFO step:  Lambda=-2.70163919D-04.
 DidBck=T Rises=F RFO-DIIS coefs:    0.71122    0.28878
 Iteration  1 RMS(Cart)=  0.01819209 RMS(Int)=  0.00014433
 Iteration  2 RMS(Cart)=  0.00024145 RMS(Int)=  0.00004377
 Iteration  3 RMS(Cart)=  0.00000002 RMS(Int)=  0.00004377
 Variable       Old X    -DE/DX   Delta X   Delta X   Delta X     New X
                                 (Linear)    (Quad)   (Total)
    R1        2.33782   0.00020  -0.00010   0.00008  -0.00002   2.33780
    R2        2.56562  -0.00050  -0.00020  -0.00038  -0.00058   2.56505
    R3        2.10026  -0.00002   0.00013   0.00002   0.00015   2.10041
    R4        2.74314   0.00394   0.00192   0.00591   0.00783   2.75098
    R5        1.93252   0.00002   0.00003   0.00003   0.00006   1.93258
    R6        1.92821   0.00002   0.00001   0.00002   0.00002   1.92823
    R7        1.92846  -0.00001  -0.00000  -0.00002  -0.00002   1.92844
    R8        1.92844   0.00001  -0.00000   0.00001   0.00001   1.92845
    R9        3.88929  -0.00006   0.00068  -0.00037   0.00031   3.88960
   R10        2.07983  -0.00038  -0.00098  -0.00072  -0.00170   2.07813
   R11        2.07741  -0.00082   0.00010  -0.00132  -0.00121   2.07619
   R12        2.07904   0.00113   0.00097   0.00190   0.00287   2.08191
[...]
 00485,0.00000560,0.00000087,0.00002826,-0.00000522,0.00000719,-0.00000
 958,-0.00001509,-0.00000393,0.00000005,-0.00000012,0.00000595,-0.00004
 231,0.00013388,0.00008021,0.00022152,-0.00006852,0.00006788,0.00000458
 ,0.00000509,0.00000802,0.00000404,-0.00000604,0.00000174,-0.00005083,-
 0.00007675,0.00000294,-0.00001239,0.00000407,-0.00000948,0.00000247,-0
 .00000830,-0.00001827,0.00005354,0.00003084,0.00001325,-0.00000125,0.0
 0001805,0.00000135,-0.00001045,-0.00000112,-0.00000790,0.00000857,-0.0
 0002248,-0.00000260,0.00000445,0.00000498,-0.00000031,0.00000020,0.000
 00305,-0.00003197,-0.00001807,-0.00004452,0.00005228,0.00001338,-0.000
 04173,-0.00000401,-0.00000735,0.00002639,0.00001299,0.00000510,-0.0000
 2451,-0.00000827,-0.00003820,0.00005529,0.00004279,-0.00016624,-0.0000
 0721,0.00008306,-0.00008243,0.00014405,-0.00003588,0.00014687,-0.00005
 389,0.00007772,0.00005891,0.00003607,0.00001388,-0.00003256,-0.0000627
 8,-0.00002768,0.00002706,0.00003350,0.00002105,-0.00001340,-0.00004378
 ,-0.00016650,0.00005388,-0.00001656,0.00005765,-0.00005217,-0.00000557
 ,0.00048395,0.00004075,-0.00008045,0.00004068,-0.00006782,0.00003822,-
 0.00001900,0.00017205,0.00034429,-0.00006859,0.00007151,-0.00004264,0.
 00004039,-0.00000776,-0.00000013,0.00006422,-0.00005512,0.00079145,0.0
 0022837,-0.00032936,-0.00002153,-0.00022087,0.00002778,0.00001973,0.00
 034641,0.00020595,-0.00015664,0.48586897,0.00021915,-0.00090757,-0.000
 04314,-0.00015381,0.00026504,-0.00000141,0.00028956,0.00133671,0.00008
 038,-1.50283373,2.22707532,-0.00022133,0.00011094,0.00000965,0.0001745
 9,-0.00000270,-0.00005730,-0.00024645,-0.00002271,0.00069519,0.5087643
 4,0.53293103,0.32020053,-0.00001309,-0.00021479,0.00000093,-0.00004957
 ,0.00012535,-0.00000104,-0.00047522,0.00004655,0.00006324,-0.62914401,
 1.88495734,-0.12203956,0.62156823,-0.00010242,0.00061285,0.00003753,0.
 00005871,-0.00019081,0.00000778,-0.00054328,-0.00076063,0.00002550,1.8
 6335800,-1.95250494,0.16769313,-1.85735787,1.93577736,0.00005824,-0.00
 013712,0.00010339,-0.00006206,0.00003877,0.00002945,-0.00000062,0.0001
 5217,0.00007814,-0.11971877,0.16644512,0.66930274,0.11902658,-0.172929
 46,-0.65591231,-0.00011175,0.00022171,-0.00001341,0.00013007,-0.000053
 17,-0.00001140,0.00020643,-0.00005481,0.00004181,0.01551376,-0.0400581
 5,0.09302838,0.00657229,-0.00272352,-0.00054797,-0.03021600,-0.0000280
 8,0.00015925,0.00000548,0.00008158,-0.00004683,0.00000155,0.00010804,-
 0.00020598,-0.00007746,-0.02908732,-0.00220521,0.11294574,-0.01499152,
 0.00747879,0.00879051,0.04339247,-0.01333929,-0.00005803,-0.00001709,-
 0.00000569,0.00003948,0.00003267,0.00000397,-0.00006690,0.00001250,-0.
 00014261,0.07015641,0.10791795,-0.20030453,0.00796337,0.00050471,-0.00
 796411,-0.08806751,-0.11899738,0.21570586,-0.00003267,0.00022795,0.000
 02777,0.00004275,-0.00006679,-0.00000080,-0.00014930,-0.00007874,0.000
 03656,0.12774032,-0.34385982,-0.47898231,0.00109138,-0.00158348,0.0009
 6846,0.00820831,0.00076397,0.01025668,-0.13688339,-0.00002302,0.000095
 09,-0.00001723,0.00007450,-0.00003123,-0.00000923,0.00020576,-0.000222
 32,-0.00003699,-0.33159974,-0.27085284,-0.81335746,-0.01263158,0.00836
 113,-0.00222119,-0.00059780,0.00802966,0.01076281,0.34471034,0.2542094
 1,0.00023577,0.00001085,-0.00003150,-0.00017984,-0.00006625,0.00002177
 ,0.00023615,-0.00013561,-0.00033827,-0.45931132,-0.80715139,-0.7877550
 9,-0.00492949,0.00480102,-0.00551528,-0.00446668,-0.00284360,-0.007629
 92,0.46792137,0.80468890,0.80026248,0.00009788,0.00002314,-0.00000774,
 -0.00003031,0.00000289,0.00001543,-0.00000088,-0.00001400,0.00000488,-
 0.00001292,0.00004688,-0.00002058,0.00002122,-0.00002139,0.00000719,0.
 00000143,0.00000349,-0.00000420,-0.00001140,0.00000023,0.00001039,-0.0
 0006163,0.00004234,0.00004366,0.00000717,-0.00005848,-0.00000792,-0.00
 000056,-0.00001810,-0.00002212,0.00000706,0.00003218,0.00004166,0.0000
 4813,0.00005380,-0.00004545,0.00001898,-0.00001764,-0.00000586,0.00004
 850,-0.00005058,-0.00000314,-0.00011600,0.00002316,-0.00005478,-0.0000
 1773,0.00000907,0.00003538,0.00001186,-0.00000007,-0.00002005,0.000015
 05,0.,0.00002530,0.00001692,-0.00001080,0.00003813,-0.00000445,0.00001
 655,0.00001159,0.00000298,-0.00000287,0.00000482,-0.00001080,-0.000011
 10,-0.00001104,-0.00001044,-0.00000883,0.00003489,-0.00004115,0.000003
 00,-0.00000454,-0.00000650,0.00000604,0.00000463,-0.00001001,-0.000082
 56,-0.00000894,0.00002487,0.00031659,0.00002307,0.00001896,-0.00018278
 ,0.00003428,0.00000362,-0.00005510,-0.00000056,0.00000136,-0.00005889,
 -0.00005022,0.00000233,0.00000325,-0.00000014,-0.00007396,0.00003489,-
 0.00002655,-0.00000668,-0.00003070,-0.00000189,0.00000556,-0.00011508,
 0.00000735,-0.00001376,0.00037202,-0.00022520,-0.00013517,-0.00019428,
 0.00006457,-0.00001034,-0.00010687,0.00001739,-0.00004054,-0.00004813,
 0.00003815,0.00018969,0.00000275,0.00000148,0.00000299,0.00005883,0.00
 017036,-0.00000067,0.00000591,-0.00001059,0.00000348,-0.00000431,-0.00
 000192,0.00000973,0.00002259,-0.00006084,-0.00001529,0.00002259,0.0000
 3436,-0.00000496,0.00000060,0.00000535,0.00001491,-0.00002535,-0.00001
 270,-0.00000234,0.00001428,-0.00001275,-0.00000257,-0.00000116,0.00002
 626,-0.00001166,-0.00002320,-0.00004653,0.00004912,0.00002970,0.000004
 81,0.00002575,-0.00001186,-0.00001009,-0.00027950,-0.00017443,-0.00003
 373,-0.00034036,0.00115934,-0.00048032,0.00041022,-0.00084616,0.000239
 01,-0.00031106,-0.00023197,-0.00020245,-0.00000462,-0.00014701,0.00052
 938,-0.00000067,-0.00000861,-0.00000535,0.00004256,-0.00003304,0.00000
 839,0.00041363,-0.00006816,0.00007696,0.00003635,-0.00003947,0.0000079
 2,0.00000149,-0.00014506,-0.00040109,0.00001195,0.00000558,-0.00232909
 ,-0.00022067,0.00002652,0.00144141,-0.00018797,-0.00001502,0.00016646,
 -0.00021433,0.00001012,0.00038745,0.00066021,-0.00005932,0.00004546,0.
 00000400,0.00000647,0.00002694,-0.00002322,0.00023178,0.00050832,0.000
 01614,0.00000368,-0.00024576,0.00000713,0.00001034,0.00003886,0.000017
 22,0.00000913,-0.00105883,0.00027491,-0.00019378,-0.00220729,-0.000070
 93,-0.00016389,-0.00011402,0.00001798,0.00020598,0.00033221,-0.0002268
 6,0.00019160,0.00101959,0.00000738,-0.00000258,-0.00014855,0.00000036,
 0.00001330,-0.00000600,-0.00004958,-0.00005782,0.00250611,-0.00000933,
 0.00000736,0.00000297,0.00000814,-0.00000239,0.00000093,0.00000177,-0.
 00000099,-0.00000689,0.00000079,-0.00002392,0.00001749,-0.00000319,-0.
 00000936,0.00000274,0.00000408,0.00001054,-0.00000644,-0.00001336,0.00
 001117,-0.00002177,-0.00000177,-0.00000052,-0.00000033,0.00000397,0.00
 000244,0.00000595,-0.00000218,0.00000672,0.00001728,0.00001213,-0.0000
 0860,0.00000372,0.00000073,0.00001234,-0.00000081,-0.00000010,0.000017
 86,-0.00001079,0.00000340,-0.00004695,0.00006765,0.00003271,0.00004188
 ,-0.00004504,0.00000071,0.00000922,-0.00001383,-0.00000020,-0.00000483
 ,0.00000854,-0.00003078,-0.00000003,-0.00000028,0.00000063,-0.00001765
 ,-0.00001431,0.00000998,0.00001712,0.00000264,-0.00000659,-0.00001500,
 -0.00000421,-0.00001096,0.00000577,0.00000187,0.00000525,-0.00000041,-
 0.00000020,0.00000004,-0.00000480,-0.00001612,-0.00001380,0.00000147,0
 .00001197,-0.00000068,0.00000828,0.00000539,0.00000546,0.00000242,0.00
 000194,0.00000619,-0.00001072,-0.00001745,-0.00000030,-0.00000130,-0.0
 0000030,0.00001757,0.00001355,0.00009059,0.00000123,-0.00000870,-0.000
 00193,0.00000321,-0.00001099,-0.00005662,0.00000577,-0.00001070,-0.000
 00027,-0.00000835,-0.00000363,-0.00000065,-0.00002249,0.00000349,0.000
 00497,0.00000856,-0.00001200,-0.00000881,0.00000875,-0.00004345,0.0000
 1156,-0.00001080,0.00001706,-0.00002474,0.00000818,0.00002923,0.000024
 07,-0.00000172,0.00000019,0.00000047,0.00001760,0.00006792,0.00000553,
 -0.00000248,0.00003260,-0.00000196,0.00000929,-0.00001047,-0.00000801,
 -0.00002879,-0.00000190,-0.00000049,0.00000475,0.00000472,-0.00000231,
 -0.00000026,0.00000999,-0.00002300,-0.00000172,-0.00006358,0.00017726,
 -0.00001310,0.00009729,-0.00015224,0.00002531,-0.00000281,-0.00003264,
 -0.00002099,-0.00001530,-0.00001066,0.00001357,-0.00000850,0.00000732,
 0.00000177,0.00002671,-0.00003606,-0.00000899,0.00000349,0.00006057,-0
 .00001348,0.00000411,0.00001075,0.00000212,-0.00005678,-0.00000593,-0.
 00000501,0.00000279,0.00000866,0.00000071,-0.00000101,-0.00000584,0.00
 000553,-0.00000352,0.00007890,-0.00000356,-0.00000356,0.00004023,-0.00
 000044,-0.00000088,-0.00003609,-0.00000162,-0.00000444,0.00001321,0.00
 000826,0.00001044,0.00000547,0.00000057,-0.00000114,0.00000205,0.00000
 252,-0.00000873,-0.00003399,-0.00000008,-0.00000271,-0.00011848,-0.000
 01378,0.00000587,-0.00000998,-0.00001323,0.00001647,0.00006999,-0.0000
 1354,0.00000748,-0.00000160,0.00000944,0.00000160,-0.00000452,0.000007
 69,0.00000455,0.00001870,-0.00001390,-0.00004742,-0.00000851,-0.000005
 97,-0.00000301,-0.00001864,0.00000962,0.00001683,0.00001490,0.00000244
 ,0.00002680,0.00000219,-0.00000153,-0.00000099,0.00000196,0.00001635,-
 0.00001076,-0.00001051,-0.00000041,0.00000724,-0.00000906,-0.00001033,
 0.00000512,-0.00000520,0.00001647,0.00000256,0.00002013,-0.00001633,0.
 00000237,-0.00000534,0.00000293,0.00000413,-0.00000268,0.00000051,0.00
 001654,-0.00000019,-0.00000697,-0.00004083,0.00006119,-0.00000987,0.00
 004132,-0.00003699,0.00001452,0.00000638,-0.00000191,0.00001138,-0.000
 00472,-0.00000924,-0.00002060,0.00000069,-0.00000002,-0.00000135,-0.00
 002389,-0.00002221,0.00001028,0.00001165,0.00000605,0.00000412,0.00000
 983,-0.00000405,0.00000331,-0.00001346,0.00000743,-0.00000959,-0.00001
 001,0.00000796,0.00001678,-0.00001095,-0.00000031,-0.00000815,0.000000
 27,0.00000167,-0.00001186,0.00000369,-0.00000952,0.00000862,0.00000553
 ,-0.00000859,-0.00000256,-0.00000085,0.00000575,-0.00000295,-0.0000005
 6,-0.00000245,-0.00000217,-0.00000413,0.00000199,0.,0.00000174,0.00000
 151,-0.00000637,0.00001332,0.00002876,-0.00000123,0.00000142,0.0000041
 0,-0.00000136,-0.00000537,-0.00000916,0.00001109,-0.00000545,-0.000014
 13,0.00000016,0.00000134,0.00000037,-0.00004186,0.00024012,0.00018298,
 0.00008541,-0.00009886,0.00009311,-0.00010063,-0.00023873,-0.00002852,
 0.00015009,-0.00001148,-0.00003426,0.00001363,0.00006016,-0.00005365,-
 0.00003079,0.00003531,0.00005830,0.00002595,-0.00001298,-0.00008002,0.
 00006667,-0.00005276,-0.00004460,-0.00007528,-0.00002466,-0.00001011,0
 .00053484,-0.00019822,0.00007985,0.00007966,0.00015470,0.00002616,-0.0
 0002803,0.00018851,0.00015504,-0.00001461,-0.00000717,-0.00008071,-0.0
 0003377,0.00000931,-0.00000531,0.00000472,0.00001038,0.00047651,0.0004
 6550,-0.00046636,0.00003523,-0.00033681,0.00009126,-0.00001281,0.00060
 860,0.00001426,0.00013866,-0.48126718,-0.00036555,0.00011153,-0.000000
 51,0.00028315,0.00004283,-0.00001042,-0.00040595,0.00035006,-0.0000361
 4,0.86361098,0.74688618,0.00020933,-0.00012006,-0.00003523,-0.00017624
 ,0.00000160,-0.00000872,0.00024122,0.00001504,0.00130915,-0.40894069,-
 0.51405024,2.76588945,-0.00017221,0.00023152,-0.00000574,0.00016637,-0
 .00004906,-0.00000165,0.00027755,-0.00001557,-0.00004096,-0.03494696,0
 .09173763,0.00943985,0.02964520,0.00001889,0.00015274,-0.00000012,-0.0
 0000053,-0.00004947,-0.00000493,0.00003725,-0.00010756,0.00002024,0.06
 563417,-0.10295182,-0.01146163,-0.09527171,0.11323021,-0.00004341,0.00
 009257,0.00003927,0.00005549,-0.00002303,-0.00001498,0.00004392,-0.000
 10571,-0.00019067,0.01040338,-0.01106911,0.01970190,-0.00796527,0.0171
 2002,-0.03974184,-0.00003601,0.00012467,-0.00005221,0.00000582,-0.0000
 2914,0.00002616,-0.00061761,-0.00006163,-0.00017431,0.34903896,-0.5289
 6088,0.91942242,-0.00010432,0.01470656,-0.00990885,-0.34623098,0.00018
 726,-0.00027399,0.00006566,-0.00015768,0.00004208,-0.00000774,0.000083
 41,-0.00000810,0.00038647,-0.51862814,-0.21940407,1.50572593,0.0036165
 5,-0.00469632,-0.00038663,0.51338711,0.22760591,-0.00018336,-0.0000352
 1,-0.00004011,0.00014061,0.00005514,0.00001655,-0.00054029,0.00017164,
 -0.00057612,0.90060335,1.50342218,-1.95647388,0.00098822,-0.00816594,0
 .01114792,-0.90219814,-1.49559186,1.93416104,-0.00010615,0.00014584,0.
 00002167,0.00008506,-0.00002744,-0.00001663,-0.00022010,-0.00004068,0.
 00011046,0.16652556,-0.42523666,-0.52058536,0.00541494,0.01516917,0.00
 760332,-0.00230980,0.00093528,0.00167681,-0.16933803,0.00021538,-0.000
 16616,-0.00005254,-0.00017408,0.00000188,0.00002096,0.00007589,-0.0000
 7143,-0.00035137,-0.41092907,-0.42303901,-0.98040926,-0.00015678,-0.00
 564182,-0.00572437,0.00107397,-0.00406472,0.00087697,0.40932871,0.4322
 3179,-0.00000648,0.00010000,-0.00000522,0.00001036,-0.00003711,0.00000
 290,0.00035860,-0.00008707,-0.00033936,-0.50184523,-0.97844972,-0.8268
 7812,-0.00248675,0.00249510,0.00873249,-0.00771585,-0.00908067,0.00995
 166,0.51150551,0.98477118,0.80766125,-0.00008621,-0.00009933,-0.000007
 83,0.00006538,0.00003163,0.00001335,-0.00002927,0.00001017,0.00000291,
 -0.00001082,-0.00000736,0.00004351,-0.00000035,-0.00001254,-0.00000833
 ,-0.00000773,0.00002409,-0.00004455,-0.00000684,0.00001820,0.00001439,
 0.00006401,-0.00005039,-0.00014577,0.00002816,0.00004469,0.00003616,-0
 .00000175,0.00000996,0.00002048,0.00000960,0.00000109,0.00006283,-0.00
 004814,0.00001207,-0.00003866,-0.00001123,-0.00003055,0.00000257,0.000
 10647,-0.00000499,-0.00002759,-0.00004488,0.00004059,0.00006465,0.0000
 0513,0.00006380,-0.00008592,-0.00000350,-0.00001225,0.00002100,0.00001
 209,-0.00001732,0.00001069,-0.00002778,0.00001609,0.00006763,0.0000063
 6,-0.00000366,-0.00000328,0.00001698,-0.00000685,-0.00004242,0.0000032
 7,0.00000239,-0.00002156,-0.00000734,-0.00004177,0.00006646,0.00000195
 ,0.00000870,0.00000100,-0.00001464,-0.00001279,0.00000147,-0.00011015,
 -0.00006337,-0.00000172,-0.00008684,0.00006360,-0.00003290,0.00005489,
 -0.00002498,-0.00001844,0.00002194,-0.00003229,0.00005660,0.00002460,-
 0.00004771,-0.00001316,-0.00000834,-0.00000797,0.00000096,-0.00001723,
 0.00003088,-0.00006070,0.00000580,-0.00003413,0.00001869,0.00000016,-0
 .00010802,0.00000540,0.00000082,0.00026912,-0.00024503,0.00015087,-0.0
 0010150,0.00004531,-0.00000270,-0.00002857,0.00008173,-0.00023699,-0.0
 0007970,0.00011700,0.00008499,0.00001258,0.00000481,0.00000509,0.00004
 119,0.00006245,0.00000270,-0.00000748,-0.00002004,0.00000352,0.0000085
 8,0.00000486,-0.00000760,-0.00001612,0.00000467,0.00001723,-0.00001535
 ,0.00012192,0.00000434,0.00000147,-0.00005683,-0.00003659,-0.00000819,
 -0.00001583,0.00001892,0.00001105,-0.00001527,0.00000007,0.00000158,-0
 .00000505,-0.00002242,0.00000559,-0.00002269,0.00004665,0.00008646,-0.
 00000835,0.00003095,-0.00003575,0.00000687,-0.00042656,0.00006111,0.00
 001657,0.00006467,-0.00068926,0.00036817,-0.00034447,-0.00023657,-0.00
 017347,0.00023394,0.00056671,-0.00045820,-0.00008835,0.00060147,0.0001
 4401,0.00001858,-0.00001838,-0.00000468,0.00005922,-0.00000082,-0.0000
 1115,0.00040414,-0.00004618,0.00011532,-0.00003576,0.00003904,-0.00002
 628,0.00000956,0.00018666,-0.00040954,-0.00004130,0.00045877,-0.001808
 94,0.00020991,-0.00003089,0.00014184,0.00012613,-0.00014954,0.00066065
 ,-0.00060791,-0.00019303,0.00065943,0.00022554,-0.00001821,0.00002032,
 -0.00000145,0.00008542,0.00000412,0.00002608,-0.00035212,0.00058465,-0
 .00002757,-0.00002699,0.00006624,0.00000724,0.00000008,0.00001212,-0.0
 0005454,-0.00002436,-0.00058953,-0.00038754,0.00017229,-0.00373997,0.0
 0006020,0.00000827,0.00038555,0.00067410,-0.00106336,0.00188203,-0.000
 37430,0.00082887,0.00092518,-0.00000674,0.00000251,-0.00000497,0.00000
 108,-0.00000307,-0.00007844,0.00011969,0.00009208,0.00112114,-0.000017
 86,0.00001318,-0.00000205,0.00001148,-0.00000070,0.00000211,0.00000861
 ,-0.00001773,-0.00000102,-0.00001611,-0.00001279,0.00002080,0.00000804
 ,-0.00000078,0.00000171,0.00001212,0.00002188,-0.00002265,-0.00000952,
 -0.00002438,0.00000110,-0.00000066,0.00000105,0.00000174,-0.00000567,-
 0.00000476,0.00004309,0.00000055,0.00000820,-0.00000902,0.00002305,-0.
 00001020,0.00001875,-0.00000382,0.00001069,-0.00000133,0.00000460,0.00
 000253,-0.00000796,-0.00001379,-0.00002105,0.00001395,-0.00000105,0.00
 001413,-0.00001757,-0.00000762,-0.00001264,0.00000832,0.00001452,0.000
 00784,-0.00000984,0.00000642,0.00000203,-0.00000094,-0.00000221,-0.000
 00766,-0.00002881,0.00001329,0.00000918,0.00000691,-0.00000839,0.00000
 367,0.00001543,-0.00001179,0.00001506,0.00000165,0.00000850,0.00000095
 ,-0.00000227,-0.00000336,-0.00002192,-0.00000112,-0.00002552,0.0000275
 6,0.00002050,0.00000595,0.00000217,-0.00000391,0.00000236,-0.00000860,
 0.00000058,0.00001156,-0.00001685,-0.00002031,-0.00000134,-0.00000135,
 0.00000023,0.00003432,0.00001372,0.00004121,0.00000003,-0.00001328,0.0
 0001276,-0.00001808,0.00000147,-0.00002974,0.00000236,0.00000378,0.000
 00453,-0.00000169,0.00000668,0.00000054,-0.00002205,-0.00002687,-0.000
 00042,-0.00003337,-0.00001891,0.00000690,-0.00001097,-0.00001213,-0.00
 000096,0.00002353,0.00002030,-0.00002221,0.00001285,0.00000697,0.00001
 275,0.00000245,0.00000088,-0.00000046,0.00006837,-0.00000149,0.0000262
 6,0.00000163,0.00000741,0.00000053,-0.00001204,0.00000328,-0.00000321,
 -0.00002018,0.00000023,0.00000231,-0.00000434,0.00000275,0.00000245,0.
 00000024,0.00000435,-0.00001401,-0.00000116,-0.00000535,-0.00003553,0.
 00000729,-0.00000104,-0.00004355,-0.00000918,-0.00001964,0.00003675,-0
 .00001597,-0.00000523,0.00001381,0.00001359,-0.00000334,0.00000221,-0.
 00000143,0.00000586,0.00000711,-0.00001883,-0.00000901,0.00004931,0.00
 001647,0.00001272,-0.00000175,0.00000153,0.00000844,-0.00002337,-0.000
 00016,-0.00000366,0.00000872,0.00000063,-0.00000107,-0.00000333,-0.000
 00666,0.00000548,-0.00000921,0.00000492,0.00002473,-0.00002649,0.00000
 271,-0.00000604,0.00000891,-0.00004124,-0.00004748,0.00002986,0.000032
 00,0.00003475,0.00001010,0.00000148,0.00000041,-0.00000354,0.00003266,
 -0.00002024,0.00000536,0.00000018,-0.00000735,-0.00000116,-0.00001287,
 -0.00000307,-0.00000118,-0.00002551,0.00001455,-0.00001841,-0.00002218
 ,0.00000291,0.00000146,0.00001394,0.00000128,-0.00000446,0.00000476,-0
 .00000467,-0.00000652,-0.00000520,0.00000199,-0.00001704,0.00001230,-0
 .00000678,0.00001091,-0.00002986,-0.00002448,0.00000381,0.00001578,0.0
 0001143,0.00002073,-0.00000020,0.00000194,-0.00000276,0.00001190,0.000
 00522,-0.00003838,-0.00000095,0.00000445,-0.00000312,-0.00000201,-0.00
 000180,0.00000058,-0.00001088,0.00000927,0.00001186,0.00001258,-0.0000
 1073,0.00001740,0.00000303,0.00000997,-0.00000530,-0.00000499,0.000002
 83,-0.00001839,0.00001411,-0.00002968,0.00001701,-0.00002027,0.0000146
 4,-0.00002332,0.00000087,0.00000026,0.00000920,0.00000695,0.00000089,-
 0.00000335,0.00000263,0.00000150,-0.00000109,-0.00000042,-0.00000801,-
 0.00001207,-0.00000165,0.00001699,0.00000221,0.00000559,0.00000044,0.0
 0000483,-0.00000047,0.00000167,0.00000426,0.00000898,-0.00000076,0.000
 00861,0.00001561,-0.00000731,-0.00000003,-0.00001026,-0.00000285,-0.00
 000109,0.00000662,0.00001834,-0.00000899,0.00003679,-0.00003136,0.0000
 5188,-0.00000727,-0.00000497,-0.00000453,-0.00001486,0.00002334,-0.000
 04129,-0.00000723,0.00000822,-0.00000375,0.00000041,0.00000038,0.00000
 074,-0.00003945,-0.00000404,0.00003612,0.00000032,0.00001776,0.0000090
 5,-0.00000487,-0.00000036,-0.00001841,0.00000127,-0.00000274,0.0000003
 9,0.00002292,-0.00001440,-0.00002008\\@
 The archive entry for this job was punched.


     ON THE SURVIVAL OF THE FITTEST -
 "STRONG REPRESENTATIVES FROM EACH PAST ERA THRIVE TODAY,
 SUCH AS PROGRAMMING IN THE THIRTY YEAR OLD LANGUAGE KNOWN
 AS FORTRAN, AND EVEN IN THE ANCIENT SCRIPT KNOWN AS DIRECT
 MACHINE CODE. SOME PEOPLE MIGHT LOOK ON SUCH RELICS AS LIVING
 FOSSILS; OTHERS WOULD POINT OUT THAT EVEN A VERY OLD SPECIES
 MIGHT STILL BE FILLING A PARTICULAR ECOLOGICAL NICHE."
     -- ALAN KAY, SCI.AM. SEPTEMBER 1984
 Job cpu time:       6 days  9 hours 17 minutes 38.7 seconds.
 Elapsed time:       0 days  3 hours 51 minutes 56.2 seconds.
 File lengths (MBytes):  RWF=   5329 Int=      0 D2E=      0 Chk=     48 Scr=      1
 Normal termination of Gaussian 16 at Fri Apr  4 02:57:58 2025.
