 Entering Gaussian System, Link 0=g16
 Input=hconh2t_nh3_mp2_avtz_opt_anharm.gjf
 Output=hconh2t_nh3_mp2_avtz_opt_anharm.log
 Initial command:
 /sw/contrib/chem-src/g16/c01/g16/l1.exe "/scr/Gau-78927.inp" -scrdir="/scr/"
 Entering Link 1 = /sw/contrib/chem-src/g16/c01/g16/l1.exe PID=     78929.
  
 Copyright (c) 1988-2019, Gaussian, Inc.  All Rights Reserved.
  
 This is part of the Gaussian(R) 16 program.  It is based on
 the Gaussian(R) 09 system (copyright 2009, Gaussian, Inc.),
 the Gaussian(R) 03 system (copyright 2003, Gaussian, Inc.),
 the Gaussian(R) 98 system (copyright 1998, Gaussian, Inc.),
 the Gaussian(R) 94 system (copyright 1995, Gaussian, Inc.),
 the Gaussian 92(TM) system (copyright 1992, Gaussian, Inc.),
 the Gaussian 90(TM) system (copyright 1990, Gaussian, Inc.),
 the Gaussian 88(TM) system (copyright 1988, Gaussian, Inc.),
 the Gaussian 86(TM) system (copyright 1986, Carnegie Mellon
 University), and the Gaussian 82(TM) system (copyright 1983,
 Carnegie Mellon University). Gaussian is a federally registered
 trademark of Gaussian, Inc.
  
 This software contains proprietary and confidential information,
 including trade secrets, belonging to Gaussian, Inc.
  
 This software is provided under written license and may be
 used, copied, transmitted, or stored only in accord with that
 written license.
  
 The following legend is applicable only to US Government
 contracts under FAR:
  
                    RESTRICTED RIGHTS LEGEND
  
 Use, reproduction and disclosure by the US Government is
 subject to restrictions as set forth in subparagraphs (a)
 and (c) of the Commercial Computer Software - Restricted
 Rights clause in FAR 52.227-19.
  
 Gaussian, Inc.
 340 Quinnipiac St., Bldg. 40, Wallingford CT 06492
  
  
 ---------------------------------------------------------------
 Warning -- This program may not be used in any manner that
 competes with the business of Gaussian, Inc. or will provide
 assistance to any competitor of Gaussian, Inc.  The licensee
 of this program is prohibited from giving any competitor of
 Gaussian, Inc. access to this program.  By using this program,
 the user acknowledges that Gaussian, Inc. is engaged in the
 business of creating and licensing software in the field of
 computational chemistry and represents and warrants to the
 licensee that it is not a competitor of Gaussian, Inc. and that
 it will not use this program in any manner prohibited above.
 ---------------------------------------------------------------
  

 Cite this work as:
 Gaussian 16, Revision C.01,
 M. J. Frisch, G. W. Trucks, H. B. Schlegel, G. E. Scuseria, 
 M. A. Robb, J. R. Cheeseman, G. Scalmani, V. Barone, 
 G. A. Petersson, H. Nakatsuji, X. Li, M. Caricato, A. V. Marenich, 
 J. Bloino, B. G. Janesko, R. Gomperts, B. Mennucci, H. P. Hratchian, 
 J. V. Ortiz, A. F. Izmaylov, J. L. Sonnenberg, D. Williams-Young, 
 F. Ding, F. Lipparini, F. Egidi, J. Goings, B. Peng, A. Petrone, 
 T. Henderson, D. Ranasinghe, V. G. Zakrzewski, J. Gao, N. Rega, 
 G. Zheng, W. Liang, M. Hada, M. Ehara, K. Toyota, R. Fukuda, 
 J. Hasegawa, M. Ishida, T. Nakajima, Y. Honda, O. Kitao, H. Nakai, 
 T. Vreven, K. Throssell, J. A. Montgomery, Jr., J. E. Peralta, 
 F. Ogliaro, M. J. Bearpark, J. J. Heyd, E. N. Brothers, K. N. Kudin, 
 V. N. Staroverov, T. A. Keith, R. Kobayashi, J. Normand, 
 K. Raghavachari, A. P. Rendell, J. C. Burant, S. S. Iyengar, 
 J. Tomasi, M. Cossi, J. M. Millam, M. Klene, C. Adamo, R. Cammi, 
 J. W. Ochterski, R. L. Martin, K. Morokuma, O. Farkas, 
 J. B. Foresman, and D. J. Fox, Gaussian, Inc., Wallingford CT, 2019.
 
 ******************************************
 Gaussian 16:  EM64L-G16RevC.01  3-Jul-2019
                30-Mar-2025 
 ******************************************
 %nprocshared=40
 Will use up to   40 processors via shared memory.
 %mem=50gb
 ----------------------------------------------
 # MP2/aug-cc-pVTZ opt freq=(vibrot,anharmonic)
 ----------------------------------------------
 1/18=20,19=15,38=1,80=1/1,3;
 2/9=110,12=2,17=6,18=5,40=1/2;
 3/5=16,6=1,7=10,11=9,25=1,30=1,71=1/1,2,3;
 4//1;
 5/5=2,38=5/2;
 8/6=4,10=1/1;
 9/15=2,16=-3/6;
 10/5=1/2;
 6/7=2,8=2,9=2,10=2/1;
 7/12=2/1,2,3,16;
 1/18=20,19=15,80=1/3(2);
 2/9=110/2;
 99//99;
 2/9=110/2;
 3/5=16,6=1,7=10,11=9,25=1,30=1,71=1/1,2,3;
 4/5=5,16=3,69=1/1;
 5/5=2,38=5/2;
 8/6=4,10=1/1;
 9/15=2,16=-3/6;
 10/5=1/2;
 7/12=2/1,2,3,16;
 1/18=20,19=15,80=1/3(-8);
 2/9=110/2;
 6/7=2,8=2,9=2,10=2/1;
 99/9=10/99;
 ----
 blah
 ----
 Symbolic Z-matrix:
 Charge =  0 Multiplicity = 1
 C                     1.05584  -0.29623   0.00005 
 O                     2.26419  -0.15861   0.00001 
 N                     0.18697   0.73212  -0.00012 
 N                    -2.46242  -0.16469  -0.00004 
 H                    -3.04066   0.67567  -0.036 
 H                    -2.75105  -0.67473   0.83523 
 H                    -2.73903  -0.73627  -0.79872 
 H                     0.56365  -1.2928    0.00039 
 H                     0.52053   1.65839  -0.00042 
 H                    -0.78199   0.55786   0.00006 
 
 Add virtual bond connecting atoms H10        and N4         Dist= 3.46D+00.

 GradGradGradGradGradGradGradGradGradGradGradGradGradGradGradGradGradGrad
 Berny optimization.
 Initialization pass.
                           ----------------------------
                           !    Initial Parameters    !
                           ! (Angstroms and Degrees)  !
 --------------------------                            --------------------------
 ! Name  Definition              Value          Derivative Info.                !
 --------------------------------------------------------------------------------
 ! R1    R(1,2)                  1.2162         estimate D2E/DX2                !
 ! R2    R(1,3)                  1.3463         estimate D2E/DX2                !
 ! R3    R(1,8)                  1.1115         estimate D2E/DX2                !
 ! R4    R(3,9)                  0.9845         estimate D2E/DX2                !
 ! R5    R(3,10)                 0.9845         estimate D2E/DX2                !
 ! R6    R(4,5)                  1.0207         estimate D2E/DX2                !
 ! R7    R(4,6)                  1.0204         estimate D2E/DX2                !
 ! R8    R(4,7)                  1.0203         estimate D2E/DX2                !
 ! R9    R(4,10)                 1.8292         estimate D2E/DX2                !
 ! A1    A(2,1,3)              123.6976         estimate D2E/DX2                !
 ! A2    A(2,1,8)              122.7819         estimate D2E/DX2                !
 ! A3    A(3,1,8)              113.5204         estimate D2E/DX2                !
 ! A4    A(1,3,9)              120.0            estimate D2E/DX2                !
 ! A5    A(1,3,10)             120.0            estimate D2E/DX2                !
 ! A6    A(9,3,10)             120.0            estimate D2E/DX2                !
 ! A7    A(5,4,6)              106.2677         estimate D2E/DX2                !
 ! A8    A(5,4,7)              106.2633         estimate D2E/DX2                !
 ! A9    A(5,4,10)             101.2575         estimate D2E/DX2                !
 ! A10   A(6,4,7)              106.5034         estimate D2E/DX2                !
 ! A11   A(6,4,10)             117.2114         estimate D2E/DX2                !
 ! A12   A(7,4,10)             118.0583         estimate D2E/DX2                !
 ! A13   L(3,10,4,8,-1)        166.9285         estimate D2E/DX2                !
 ! A14   L(3,10,4,8,-2)        180.0169         estimate D2E/DX2                !
 ! D1    D(2,1,3,9)              0.0094         estimate D2E/DX2                !
 ! D2    D(2,1,3,10)          -179.9906         estimate D2E/DX2                !
 ! D3    D(8,1,3,9)           -180.0            estimate D2E/DX2                !
 ! D4    D(8,1,3,10)             0.0            estimate D2E/DX2                !
 ! D5    D(1,3,4,5)           -177.9097         estimate D2E/DX2                !
 ! D6    D(1,3,4,6)             64.931          estimate D2E/DX2                !
 ! D7    D(1,3,4,7)            -60.463          estimate D2E/DX2                !
 ! D8    D(9,3,4,5)              2.0775         estimate D2E/DX2                !
 ! D9    D(9,3,4,6)           -115.0818         estimate D2E/DX2                !
 ! D10   D(9,3,4,7)            119.5242         estimate D2E/DX2                !
 --------------------------------------------------------------------------------
 Trust Radius=3.00D-01 FncErr=1.00D-07 GrdErr=1.00D-07 EigMax=2.50D+02 EigMin=1.00D-04
 Number of steps in this run=     43 maximum allowed number of steps=    100.
 GradGradGradGradGradGradGradGradGradGradGradGradGradGradGradGradGradGrad

                          Input orientation:                          
 ---------------------------------------------------------------------
 Center     Atomic      Atomic             Coordinates (Angstroms)
 Number     Number       Type             X           Y           Z
 ---------------------------------------------------------------------
      1          6           0        1.055844   -0.296227    0.000049
      2          8           0        2.264187   -0.158605    0.000014
      3          7           0        0.186970    0.732120   -0.000120
      4          7           0       -2.462421   -0.164692   -0.000040
      5          1           0       -3.040657    0.675666   -0.035995
      6          1           0       -2.751051   -0.674725    0.835232
      7          1           0       -2.739032   -0.736269   -0.798716
      8          1           0        0.563646   -1.292800    0.000392
      9          1           0        0.520535    1.658389   -0.000422
     10          1           0       -0.781985    0.557861    0.000059
 ---------------------------------------------------------------------
                    Distance matrix (angstroms):
                    1          2          3          4          5
     1  C    0.000000
     2  O    1.216155   0.000000
     3  N    1.346269   2.260137   0.000000
     4  N    3.520723   4.726612   2.797060   0.000000
     5  H    4.210368   5.370165   3.228320   1.020711   0.000000
     6  H    3.915768   5.110438   3.362885   1.020353   1.632931
     7  H    3.902915   5.099399   3.369779   1.020342   1.632875
     8  H    1.111493   2.044074   2.059657   3.229506   4.106968
     9  H    2.026594   2.518292   0.984500   3.495948   3.694468
    10  H    2.026594   3.129295   0.984500   1.829193   2.262029
                    6          7          8          9         10
     6  H    0.000000
     7  H    1.635151   0.000000
     8  H    3.473642   3.443252   0.000000
     9  H    4.104268   4.122673   2.951504   0.000000
    10  H    2.468603   2.478476   2.288158   1.705204   0.000000
 Stoichiometry    CH6N2O
 Framework group  C1[X(CH6N2O)]
 Deg. of freedom    24
 Full point group                 C1      NOp   1
 Largest Abelian subgroup         C1      NOp   1
 Largest concise Abelian subgroup C1      NOp   1
                         Standard orientation:                         
 ---------------------------------------------------------------------
 Center     Atomic      Atomic             Coordinates (Angstroms)
 Number     Number       Type             X           Y           Z
 ---------------------------------------------------------------------
      1          6           0        1.045509   -0.334512    0.000054
      2          8           0        2.254562   -0.203269    0.000019
      3          7           0        0.182074    0.698407   -0.000115
      4          7           0       -2.472013   -0.184410   -0.000035
      5          1           0       -3.045806    0.658988   -0.035990
      6          1           0       -2.763331   -0.692913    0.835237
      7          1           0       -2.751637   -0.754519   -0.798711
      8          1           0        0.548058   -1.328473    0.000397
      9          1           0        0.520523    1.622902   -0.000417
     10          1           0       -0.787787    0.529264    0.000063
 ---------------------------------------------------------------------
 Rotational constants (GHZ):          29.9864137           2.4460389           2.2891636
 Standard basis: Aug-CC-pVTZ (5D, 7F)
 There are   370 symmetry adapted cartesian basis functions of A   symmetry.
 There are   322 symmetry adapted basis functions of A   symmetry.
   322 basis functions,   450 primitive gaussians,   370 cartesian basis functions
    17 alpha electrons       17 beta electrons
       nuclear repulsion energy       119.2624735326 Hartrees.
 NAtoms=   10 NActive=   10 NUniq=   10 SFac= 1.00D+00 NAtFMM=   60 NAOKFM=F Big=F
 Integral buffers will be    131072 words long.
 Raffenetti 1 integral format.
 Two-electron integral symmetry is turned on.
 One-electron integrals computed using PRISM.
 NBasis=   322 RedAO= T EigKep=  4.38D-05  NBF=   322
 NBsUse=   322 1.00D-06 EigRej= -1.00D+00 NBFU=   322
 ExpMin= 2.53D-02 ExpMax= 1.53D+04 ExpMxC= 5.22D+02 IAcc=3 IRadAn=         5 AccDes= 0.00D+00
 Harris functional with IExCor=  205 and IRadAn=       5 diagonalized for initial guess.
 HarFok:  IExCor=  205 AccDes= 0.00D+00 IRadAn=         5 IDoV= 1 UseB2=F ITyADJ=14
 ICtDFT=  3500011 ScaDFX=  1.000000  1.000000  1.000000  1.000000
 FoFCou: FMM=F IPFlag=           0 FMFlag=      100000 FMFlg1=           0
         NFxFlg=           0 DoJE=T BraDBF=F KetDBF=T FulRan=T
         wScrn=  0.000000 ICntrl=       500 IOpCl=  0 I1Cent=   200000004 NGrid=           0
         NMat0=    1 NMatS0=      1 NMatT0=    0 NMatD0=    1 NMtDS0=    0 NMtDT0=    0
 Petite list used in FoFCou.
 Keep R1 ints in memory in canonical form, NReq=1377716058.
 Requested convergence on RMS density matrix=1.00D-08 within 128 cycles.
 Requested convergence on MAX density matrix=1.00D-06.
 Requested convergence on             energy=1.00D-06.
 No special actions if energy rises.
 SCF Done:  E(RHF) =  -225.226206594     A.U. after   12 cycles
            NFock= 12  Conv=0.76D-08     -V/T= 2.0011
 ExpMin= 2.53D-02 ExpMax= 1.53D+04 ExpMxC= 5.22D+02 IAcc=3 IRadAn=         5 AccDes= 0.00D+00
 HarFok:  IExCor=  205 AccDes= 0.00D+00 IRadAn=         5 IDoV=-2 UseB2=F ITyADJ=14
 ICtDFT= 12500011 ScaDFX=  1.000000  1.000000  1.000000  1.000000
 Range of M.O.s used for correlation:     5   322
 NBasis=   322 NAE=    17 NBE=    17 NFC=     4 NFV=     0
 NROrb=    318 NOA=    13 NOB=    13 NVA=   305 NVB=   305

 **** Warning!!: The largest alpha MO coefficient is  0.31560532D+02

 Disk-based method using ON**2 memory for 13 occupieds at a time.
 Estimated scratch disk usage=  1224644462 words.
 Actual    scratch disk usage=  1121615726 words.
 JobTyp=1 Pass  1:  I=   5 to  17 NPSUse= 40 ParTrn=T ParDer=T DoDerP=T.
 (rs|ai) integrals will be sorted in core.
 Spin components of T(2) and E(2):
     alpha-alpha T2 =       0.3025801487D-01 E2=     -0.1046855979D+00
     alpha-beta  T2 =       0.1747761527D+00 E2=     -0.6518239471D+00
     beta-beta   T2 =       0.3025801487D-01 E2=     -0.1046855979D+00
 ANorm=    0.1111436990D+01
 E2 =    -0.8611951429D+00 EUMP2 =    -0.22608740173679D+03
          IDoAtm=1111111111
          Differentiating once with respect to electric field.
                with respect to dipole field.
          Differentiating once with respect to nuclear coordinates.
 Keep R1 ints in memory in canonical form, NReq=1377718064.
          There are     1 degrees of freedom in the 1st order CPHF.  IDoFFX=0 NUNeed=     1.
 LinEq1:  Iter=  0 NonCon=     1 RMS=3.21D-03 Max=8.75D-02 NDo=     1
 AX will form     1 AO Fock derivatives at one time.
 LinEq1:  Iter=  1 NonCon=     1 RMS=9.21D-04 Max=1.55D-02 NDo=     1
 LinEq1:  Iter=  2 NonCon=     1 RMS=3.39D-04 Max=5.16D-03 NDo=     1
 LinEq1:  Iter=  3 NonCon=     1 RMS=1.50D-04 Max=3.28D-03 NDo=     1
 LinEq1:  Iter=  4 NonCon=     1 RMS=3.83D-05 Max=4.41D-04 NDo=     1
 LinEq1:  Iter=  5 NonCon=     1 RMS=9.74D-06 Max=1.70D-04 NDo=     1
 LinEq1:  Iter=  6 NonCon=     1 RMS=3.36D-06 Max=3.38D-05 NDo=     1
 LinEq1:  Iter=  7 NonCon=     1 RMS=7.44D-07 Max=8.41D-06 NDo=     1
 LinEq1:  Iter=  8 NonCon=     1 RMS=1.57D-07 Max=2.89D-06 NDo=     1
 LinEq1:  Iter=  9 NonCon=     1 RMS=4.25D-08 Max=6.58D-07 NDo=     1
 LinEq1:  Iter= 10 NonCon=     1 RMS=1.73D-08 Max=4.21D-07 NDo=     1
 LinEq1:  Iter= 11 NonCon=     1 RMS=5.14D-09 Max=5.55D-08 NDo=     1
 LinEq1:  Iter= 12 NonCon=     1 RMS=1.03D-09 Max=1.65D-08 NDo=     1
 LinEq1:  Iter= 13 NonCon=     1 RMS=1.79D-10 Max=1.63D-09 NDo=     1
 LinEq1:  Iter= 14 NonCon=     0 RMS=3.30D-11 Max=3.75D-10 NDo=     1
 Linear equations converged to 1.000D-10 1.000D-09 after    14 iterations.
 End of Minotr F.D. properties file   721 does not exist.
 End of Minotr F.D. properties file   722 does not exist.
 End of Minotr F.D. properties file   788 does not exist.

 **********************************************************************

            Population analysis using the SCF Density.

 **********************************************************************

 Orbital symmetries:
       Occupied  (A) (A) (A) (A) (A) (A) (A) (A) (A) (A) (A) (A)
                 (A) (A) (A) (A) (A)
       Virtual   (A) (A) (A) (A) (A) (A) (A) (A) (A) (A) (A) (A)
                 (A) (A) (A) (A) (A) (A) (A) (A) (A) (A) (A) (A)
                 (A) (A) (A) (A) (A) (A) (A) (A) (A) (A) (A) (A)
                 (A) (A) (A) (A) (A) (A) (A) (A) (A) (A) (A) (A)
                 (A) (A) (A) (A) (A) (A) (A) (A) (A) (A) (A) (A)
                 (A) (A) (A) (A) (A) (A) (A) (A) (A) (A) (A) (A)
                 (A) (A) (A) (A) (A) (A) (A) (A) (A) (A) (A) (A)
                 (A) (A) (A) (A) (A) (A) (A) (A) (A) (A) (A) (A)
                 (A) (A) (A) (A) (A) (A) (A) (A) (A) (A) (A) (A)
                 (A) (A) (A) (A) (A) (A) (A) (A) (A) (A) (A) (A)
                 (A) (A) (A) (A) (A) (A) (A) (A) (A) (A) (A) (A)
                 (A) (A) (A) (A) (A) (A) (A) (A) (A) (A) (A) (A)
                 (A) (A) (A) (A) (A) (A) (A) (A) (A) (A) (A) (A)
                 (A) (A) (A) (A) (A) (A) (A) (A) (A) (A) (A) (A)
                 (A) (A) (A) (A) (A) (A) (A) (A) (A) (A) (A) (A)
                 (A) (A) (A) (A) (A) (A) (A) (A) (A) (A) (A) (A)
                 (A) (A) (A) (A) (A) (A) (A) (A) (A) (A) (A) (A)
                 (A) (A) (A) (A) (A) (A) (A) (A) (A) (A) (A) (A)
                 (A) (A) (A) (A) (A) (A) (A) (A) (A) (A) (A) (A)
                 (A) (A) (A) (A) (A) (A) (A) (A) (A) (A) (A) (A)
                 (A) (A) (A) (A) (A) (A) (A) (A) (A) (A) (A) (A)
                 (A) (A) (A) (A) (A) (A) (A) (A) (A) (A) (A) (A)
                 (A) (A) (A) (A) (A) (A) (A) (A) (A) (A) (A) (A)
                 (A) (A) (A) (A) (A) (A) (A) (A) (A) (A) (A) (A)
                 (A) (A) (A) (A) (A) (A) (A) (A) (A) (A) (A) (A)
                 (A) (A) (A) (A) (A)
 The electronic state is 1-A.
 Alpha  occ. eigenvalues --  -20.50391 -15.58045 -15.55165 -11.33176  -1.36171
 Alpha  occ. eigenvalues --   -1.20021  -1.17794  -0.82844  -0.73469  -0.66441
 Alpha  occ. eigenvalues --   -0.66437  -0.65403  -0.58760  -0.54770  -0.47298
 Alpha  occ. eigenvalues --   -0.41165  -0.39248
 Alpha virt. eigenvalues --    0.01516   0.03367   0.03872   0.04563   0.05828
 Alpha virt. eigenvalues --    0.07212   0.09841   0.10873   0.12200   0.12814
 Alpha virt. eigenvalues --    0.13463   0.14141   0.15142   0.15821   0.16055
 Alpha virt. eigenvalues --    0.16232   0.18659   0.19658   0.20596   0.20889
 Alpha virt. eigenvalues --    0.23341   0.23785   0.24231   0.26486   0.27363
 Alpha virt. eigenvalues --    0.28296   0.29003   0.30618   0.32736   0.34241
 Alpha virt. eigenvalues --    0.35248   0.35586   0.36067   0.36147   0.36823
 Alpha virt. eigenvalues --    0.37050   0.37961   0.38465   0.38975   0.39479
 Alpha virt. eigenvalues --    0.42195   0.42237   0.43086   0.44432   0.44714
 Alpha virt. eigenvalues --    0.46415   0.47367   0.49840   0.50945   0.53200
 Alpha virt. eigenvalues --    0.53480   0.55140   0.57404   0.57761   0.59443
 Alpha virt. eigenvalues --    0.59807   0.62621   0.63645   0.65186   0.65837
 Alpha virt. eigenvalues --    0.68654   0.69488   0.71215   0.74022   0.74086
 Alpha virt. eigenvalues --    0.76884   0.79808   0.80166   0.83467   0.84637
 Alpha virt. eigenvalues --    0.86732   0.87492   0.88230   0.88959   0.89240
 Alpha virt. eigenvalues --    0.90621   0.90737   0.91305   0.92150   0.92918
 Alpha virt. eigenvalues --    0.93925   0.94141   0.96975   0.97384   0.98964
 Alpha virt. eigenvalues --    0.99467   1.01797   1.02490   1.02986   1.04663
 Alpha virt. eigenvalues --    1.05359   1.06285   1.06860   1.08016   1.09414
 Alpha virt. eigenvalues --    1.11177   1.12677   1.14359   1.14919   1.16028
 Alpha virt. eigenvalues --    1.16237   1.18698   1.19302   1.24622   1.25851
 Alpha virt. eigenvalues --    1.26974   1.27150   1.29642   1.31407   1.32156
 Alpha virt. eigenvalues --    1.33716   1.34326   1.34826   1.36521   1.37008
 Alpha virt. eigenvalues --    1.40720   1.42538   1.42924   1.45808   1.45912
 Alpha virt. eigenvalues --    1.47488   1.50757   1.52184   1.54739   1.55292
 Alpha virt. eigenvalues --    1.55808   1.57100   1.61470   1.66063   1.67587
 Alpha virt. eigenvalues --    1.70483   1.73054   1.74590   1.78195   1.79038
 Alpha virt. eigenvalues --    1.79819   1.80964   1.82365   1.83208   1.90394
 Alpha virt. eigenvalues --    1.92613   1.95004   1.96794   1.98771   2.03950
 Alpha virt. eigenvalues --    2.04234   2.06230   2.06650   2.06776   2.09026
 Alpha virt. eigenvalues --    2.10822   2.11158   2.15084   2.22425   2.23232
 Alpha virt. eigenvalues --    2.25491   2.29568   2.30693   2.32399   2.39709
 Alpha virt. eigenvalues --    2.39914   2.42232   2.42240   2.44933   2.45614
 Alpha virt. eigenvalues --    2.46141   2.47318   2.51098   2.52483   2.53862
 Alpha virt. eigenvalues --    2.54430   2.55965   2.61292   2.63867   2.64656
 Alpha virt. eigenvalues --    2.70214   2.72082   2.75756   2.80626   2.86319
 Alpha virt. eigenvalues --    2.87161   2.93029   2.95911   3.07897   3.11295
 Alpha virt. eigenvalues --    3.16983   3.20575   3.27124   3.40999   3.47661
 Alpha virt. eigenvalues --    3.52084   3.54999   3.59653   3.67056   3.68718
 Alpha virt. eigenvalues --    3.72959   3.81246   3.82055   3.86076   3.88800
 Alpha virt. eigenvalues --    3.96842   3.99267   4.04428   4.06921   4.07415
 Alpha virt. eigenvalues --    4.12627   4.15689   4.15872   4.17505   4.18159
 Alpha virt. eigenvalues --    4.19154   4.24753   4.25165   4.27998   4.29080
 Alpha virt. eigenvalues --    4.31356   4.33239   4.34450   4.39464   4.39542
 Alpha virt. eigenvalues --    4.41147   4.45718   4.49311   4.53752   4.53866
 Alpha virt. eigenvalues --    4.54345   4.58039   4.58110   4.60023   4.60593
 Alpha virt. eigenvalues --    4.62851   4.69027   4.72299   4.74332   4.74579
 Alpha virt. eigenvalues --    4.77578   4.78498   4.85390   4.86025   4.90851
 Alpha virt. eigenvalues --    4.93320   4.94235   4.95171   5.02041   5.03079
 Alpha virt. eigenvalues --    5.05733   5.07315   5.11602   5.15585   5.19756
 Alpha virt. eigenvalues --    5.22279   5.28314   5.30974   5.32350   5.33602
 Alpha virt. eigenvalues --    5.39680   5.49072   5.58589   5.58747   5.62124
 Alpha virt. eigenvalues --    5.65519   5.67469   5.73890   5.74305   5.84656
 Alpha virt. eigenvalues --    5.87118   5.87530   5.88929   5.92991   6.10734
 Alpha virt. eigenvalues --    6.21564   6.24851   6.30468   6.30800   6.34697
 Alpha virt. eigenvalues --    6.36248   6.41394   6.43084   6.54210   6.64013
 Alpha virt. eigenvalues --    6.67605   6.69199   6.72708   6.90363   6.91821
 Alpha virt. eigenvalues --    6.99437   7.06555   7.15317   7.19414   7.22602
 Alpha virt. eigenvalues --    7.32785   7.37486   7.42991   7.63597   7.67008
 Alpha virt. eigenvalues --    7.72393   7.78043   7.80204   7.85329   7.92554
 Alpha virt. eigenvalues --    8.07627  15.81660  17.49311  17.95264  19.46132
          Condensed to atoms (all electrons):
               1          2          3          4          5          6
     1  C    5.151892   0.489326   0.431133   0.004954  -0.002853   0.001654
     2  O    0.489326   8.398846  -0.133702  -0.000508  -0.000048  -0.000029
     3  N    0.431133  -0.133702   6.353742  -0.000269  -0.007772  -0.000107
     4  N    0.004954  -0.000508  -0.000269   6.117418   0.407593   0.405586
     5  H   -0.002853  -0.000048  -0.007772   0.407593   0.504961  -0.009580
     6  H    0.001654  -0.000029  -0.000107   0.405586  -0.009580   0.468589
     7  H    0.001700  -0.000063   0.000471   0.404627  -0.010121  -0.006678
     8  H    0.247347  -0.066230  -0.018873  -0.000995   0.000325  -0.000085
     9  H   -0.053513   0.018099   0.422850  -0.002687  -0.000809   0.000137
    10  H   -0.153093  -0.021028   0.301538  -0.022500   0.002151   0.004168
               7          8          9         10
     1  C    0.001700   0.247347  -0.053513  -0.153093
     2  O   -0.000063  -0.066230   0.018099  -0.021028
     3  N    0.000471  -0.018873   0.422850   0.301538
     4  N    0.404627  -0.000995  -0.002687  -0.022500
     5  H   -0.010121   0.000325  -0.000809   0.002151
     6  H   -0.006678  -0.000085   0.000137   0.004168
     7  H    0.468554  -0.000130   0.000154   0.003824
     8  H   -0.000130   0.278960   0.002829   0.006133
     9  H    0.000154   0.002829   0.578851  -0.092269
    10  H    0.003824   0.006133  -0.092269   0.572870
 Mulliken charges:
               1
     1  C   -0.118547
     2  O   -0.684663
     3  N   -0.349011
     4  N   -0.313220
     5  H    0.116153
     6  H    0.136345
     7  H    0.137661
     8  H    0.550718
     9  H    0.126358
    10  H    0.398205
 Sum of Mulliken charges =  -0.00000
 Mulliken charges with hydrogens summed into heavy atoms:
               1
     1  C    0.432172
     2  O   -0.684663
     3  N    0.175552
     4  N    0.076939
 Electronic spatial extent (au):  <R**2>=            512.3517
 Charge=              0.0000 electrons
 Dipole moment (field-independent basis, Debye):
    X=             -6.8940    Y=              0.1912    Z=              0.0010  Tot=              6.8967
 Quadrupole moment (field-independent basis, Debye-Ang):
   XX=            -28.0225   YY=            -20.9223   ZZ=            -25.0828
   XY=              1.7340   XZ=             -0.0012   YZ=             -0.0004
 Traceless Quadrupole moment (field-independent basis, Debye-Ang):
   XX=             -3.3466   YY=              3.7536   ZZ=             -0.4069
   XY=              1.7340   XZ=             -0.0012   YZ=             -0.0004
 Octapole moment (field-independent basis, Debye-Ang**2):
  XXX=            -60.6166  YYY=              4.7657  ZZZ=              0.1208  XYY=             -3.9751
  XXY=              2.8307  XXZ=             -0.0084  XZZ=             -4.8686  YZZ=             -2.1546
  YYZ=             -0.1148  XYZ=              0.0191
 Hexadecapole moment (field-independent basis, Debye-Ang**3):
 XXXX=           -532.6097 YYYY=            -54.5072 ZZZZ=            -28.1379 XXXY=              6.4674
 XXXZ=              0.0652 YYYX=              4.3990 YYYZ=              0.0976 ZZZX=             -0.3552
 ZZZY=             -0.0306 XXYY=            -88.1995 XXZZ=            -82.3360 YYZZ=            -15.9918
 XXYZ=             -0.1222 YYXZ=              0.3225 ZZXY=              4.2857
 N-N= 1.192624735326D+02 E-N=-7.686273094911D+02  KE= 2.249819352657D+02
 Calling FoFJK, ICntrl=  10002127 FMM=F ISym2X=0 I1Cent= 0 IOpClX= 0 NMat=1 NMatS=1 NMatT=0.
 ***** Axes restored to original set *****
 -------------------------------------------------------------------
 Center     Atomic                   Forces (Hartrees/Bohr)
 Number     Number              X              Y              Z
 -------------------------------------------------------------------
      1        6          -0.004181779    0.001651726    0.000022580
      2        8           0.013369307   -0.005421557   -0.000008944
      3        7           0.014186145   -0.009719772    0.000005192
      4        7          -0.015635386   -0.002869984    0.000054411
      5        1           0.001295476   -0.005527882    0.000192356
      6        1           0.001599448    0.002916226   -0.004717574
      7        1           0.001599704    0.003295866    0.004478936
      8        1           0.001804559    0.006625095   -0.000006368
      9        1           0.011796201    0.017183789   -0.000002958
     10        1          -0.025833675   -0.008133508   -0.000017632
 -------------------------------------------------------------------
 Cartesian Forces:  Max     0.025833675 RMS     0.008348575

 GradGradGradGradGradGradGradGradGradGradGradGradGradGradGradGradGradGrad
 Berny optimization.
 FormGI is forming the generalized inverse of G from B-inverse, IUseBI=4.
 Internal  Forces:  Max     0.038202586 RMS     0.008876989
 Search for a local minimum.
 Step number   1 out of a maximum of   43
 All quantities printed in internal units (Hartrees-Bohrs-Radians)
 Mixed Optimization -- RFO/linear search
 Second derivative matrix not updated -- first step.
 ITU=  0
     Eigenvalues ---    0.00230   0.00230   0.00230   0.01357   0.02402
     Eigenvalues ---    0.02403   0.05784   0.06100   0.07471   0.16000
     Eigenvalues ---    0.16000   0.16000   0.16000   0.16000   0.16000
     Eigenvalues ---    0.22000   0.32442   0.44225   0.44282   0.44284
     Eigenvalues ---    0.50513   0.50521   0.55823   0.97107
 RFO step:  Lambda=-8.88657530D-03 EMin= 2.30000000D-03
 Linear search not attempted -- first point.
 Maximum step size (   0.300) exceeded in Quadratic search.
    -- Step size scaled by   0.720
 Iteration  1 RMS(Cart)=  0.14316314 RMS(Int)=  0.01350762
 Iteration  2 RMS(Cart)=  0.03928901 RMS(Int)=  0.00075276
 Iteration  3 RMS(Cart)=  0.00133172 RMS(Int)=  0.00037664
 Iteration  4 RMS(Cart)=  0.00000010 RMS(Int)=  0.00037664
 Variable       Old X    -DE/DX   Delta X   Delta X   Delta X     New X
                                 (Linear)    (Quad)   (Total)
    R1        2.29820   0.01267   0.00000   0.00931   0.00931   2.30751
    R2        2.54408   0.00491   0.00000   0.00624   0.00624   2.55032
    R3        2.10042  -0.00674   0.00000  -0.01456  -0.01456   2.08586
    R4        1.86044   0.02016   0.00000   0.02825   0.02825   1.88868
    R5        1.86044   0.03820   0.00000   0.05357   0.05357   1.91400
    R6        1.92886  -0.00529   0.00000  -0.00845  -0.00845   1.92042
    R7        1.92819  -0.00577   0.00000  -0.00920  -0.00920   1.91898
    R8        1.92817  -0.00579   0.00000  -0.00922  -0.00922   1.91894
    R9        3.45667   0.01111   0.00000   0.11947   0.11947   3.57615
    A1        2.15893   0.01149   0.00000   0.03616   0.03616   2.19509
    A2        2.14295  -0.00436   0.00000  -0.01219  -0.01219   2.13076
    A3        1.98131  -0.00713   0.00000  -0.02397  -0.02397   1.95733
    A4        2.09440  -0.00575   0.00000  -0.02451  -0.02451   2.06988
    A5        2.09440   0.00168   0.00000   0.00717   0.00717   2.10156
    A6        2.09440   0.00407   0.00000   0.01735   0.01735   2.11174
    A7        1.85472  -0.00091   0.00000  -0.00009   0.00049   1.85521
    A8        1.85464  -0.00092   0.00000  -0.00034   0.00046   1.85511
    A9        1.76728   0.00298   0.00000   0.01676   0.01753   1.78480
   A10        1.85884  -0.00010   0.00000  -0.00591  -0.00693   1.85190
   A11        2.04572  -0.00043   0.00000  -0.00366  -0.00415   2.04157
   A12        2.06051  -0.00059   0.00000  -0.00438  -0.00478   2.05573
   A13        2.91345   0.00451   0.00000   0.26098   0.26058   3.17403
   A14        3.14189  -0.00002   0.00000  -0.00146  -0.00152   3.14036
    D1        0.00016  -0.00001   0.00000  -0.00005  -0.00007   0.00010
    D2       -3.14143  -0.00001   0.00000  -0.00037  -0.00035   3.14140
    D3       -3.14159   0.00001   0.00000   0.00023   0.00022  -3.14138
    D4        0.00000   0.00000   0.00000  -0.00009  -0.00007  -0.00007
    D5       -3.10511   0.00001   0.00000  -0.00138  -0.00129  -3.10640
    D6        1.13326  -0.00032   0.00000   0.03010   0.03067   1.16393
    D7       -1.05528   0.00030   0.00000  -0.03028  -0.03092  -1.08620
    D8        0.03626   0.00001   0.00000  -0.00059  -0.00052   0.03574
    D9       -2.00856  -0.00031   0.00000   0.03089   0.03144  -1.97711
   D10        2.08609   0.00030   0.00000  -0.02949  -0.03015   2.05594
         Item               Value     Threshold  Converged?
 Maximum Force            0.038203     0.000450     NO 
 RMS     Force            0.008877     0.000300     NO 
 Maximum Displacement     0.476608     0.001800     NO 
 RMS     Displacement     0.175138     0.001200     NO 
 Predicted change in Energy=-4.506628D-03
 GradGradGradGradGradGradGradGradGradGradGradGradGradGradGradGradGradGrad

                          Input orientation:                          
 ---------------------------------------------------------------------
 Center     Atomic      Atomic             Coordinates (Angstroms)
 Number     Number       Type             X           Y           Z
 ---------------------------------------------------------------------
      1          6           0        1.202846   -0.274350    0.000210
      2          8           0        2.399161   -0.029663    0.000840
      3          7           0        0.210564    0.640372   -0.000277
      4          7           0       -2.585864   -0.146080   -0.000181
      5          1           0       -3.052152    0.756174   -0.035645
      6          1           0       -2.936196   -0.615468    0.829366
      7          1           0       -2.933367   -0.677630   -0.792555
      8          1           0        0.815856   -1.308074   -0.000144
      9          1           0        0.453630    1.609813   -0.000207
     10          1           0       -0.758445    0.345624   -0.000954
 ---------------------------------------------------------------------
                    Distance matrix (angstroms):
                    1          2          3          4          5
     1  C    0.000000
     2  O    1.221082   0.000000
     3  N    1.349571   2.288865   0.000000
     4  N    3.790881   4.986385   2.904913   0.000000
     5  H    4.378159   5.507784   3.264962   1.016241   0.000000
     6  H    4.235036   5.430990   3.488200   1.015483   1.625759
     7  H    4.230764   5.430027   3.499877   1.015460   1.625675
     8  H    1.103787   2.034991   2.040300   3.594709   4.384503
     9  H    2.027658   2.544204   0.999448   3.510226   3.608388
    10  H    2.056947   3.179830   1.012845   1.892415   2.330417
                    6          7          8          9         10
     6  H    0.000000
     7  H    1.623114   0.000000
     8  H    3.904572   3.883561   0.000000
     9  H    4.138960   4.163168   2.940285   0.000000
    10  H    2.521057   2.530606   2.283231   1.751371   0.000000
 Stoichiometry    CH6N2O
 Framework group  C1[X(CH6N2O)]
 Deg. of freedom    24
 Full point group                 C1      NOp   1
 Largest Abelian subgroup         C1      NOp   1
 Largest concise Abelian subgroup C1      NOp   1
                         Standard orientation:                         
 ---------------------------------------------------------------------
 Center     Atomic      Atomic             Coordinates (Angstroms)
 Number     Number       Type             X           Y           Z
 ---------------------------------------------------------------------
      1          6           0        1.157345   -0.341846   -0.000227
      2          8           0        2.357289   -0.115625    0.000307
      3          7           0        0.179278    0.588060   -0.000220
      4          7           0       -2.628939   -0.155205    0.000018
      5          1           0       -3.081272    0.754142   -0.035038
      6          1           0       -2.986338   -0.619448    0.829446
      7          1           0       -2.984710   -0.681040   -0.792499
      8          1           0        0.754470   -1.369483   -0.000905
      9          1           0        0.437255    1.553639    0.000172
     10          1           0       -0.794159    0.308280   -0.000856
 ---------------------------------------------------------------------
 Rotational constants (GHZ):          36.1884761           2.1852397           2.0833549
 Standard basis: Aug-CC-pVTZ (5D, 7F)
 There are   370 symmetry adapted cartesian basis functions of A   symmetry.
 There are   322 symmetry adapted basis functions of A   symmetry.
   322 basis functions,   450 primitive gaussians,   370 cartesian basis functions
    17 alpha electrons       17 beta electrons
       nuclear repulsion energy       117.1127143355 Hartrees.
 NAtoms=   10 NActive=   10 NUniq=   10 SFac= 1.00D+00 NAtFMM=   60 NAOKFM=F Big=F
 Integral buffers will be    131072 words long.
 Raffenetti 1 integral format.
 Two-electron integral symmetry is turned on.
 One-electron integrals computed using PRISM.
 NBasis=   322 RedAO= T EigKep=  4.00D-05  NBF=   322
 NBsUse=   322 1.00D-06 EigRej= -1.00D+00 NBFU=   322
 Initial guess from the checkpoint file:  "/scr/Gau-78929.chk"
 B after Tr=     0.000000    0.000000   -0.000000
         Rot=    0.999997   -0.000104   -0.000011   -0.002331 Ang=  -0.27 deg.
 ExpMin= 2.53D-02 ExpMax= 1.53D+04 ExpMxC= 5.22D+02 IAcc=3 IRadAn=         5 AccDes= 0.00D+00
 Harris functional with IExCor=  205 and IRadAn=       5 diagonalized for initial guess.
 HarFok:  IExCor=  205 AccDes= 0.00D+00 IRadAn=         5 IDoV= 1 UseB2=F ITyADJ=14
 ICtDFT=  3500011 ScaDFX=  1.000000  1.000000  1.000000  1.000000
 FoFCou: FMM=F IPFlag=           0 FMFlag=      100000 FMFlg1=           0
         NFxFlg=           0 DoJE=T BraDBF=F KetDBF=T FulRan=T
         wScrn=  0.000000 ICntrl=       500 IOpCl=  0 I1Cent=   200000004 NGrid=           0
         NMat0=    1 NMatS0=      1 NMatT0=    0 NMatD0=    1 NMtDS0=    0 NMtDT0=    0
 Petite list used in FoFCou.
 Keep R1 ints in memory in canonical form, NReq=1377716058.
 Requested convergence on RMS density matrix=1.00D-08 within 128 cycles.
 Requested convergence on MAX density matrix=1.00D-06.
 Requested convergence on             energy=1.00D-06.
 No special actions if energy rises.
 SCF Done:  E(RHF) =  -225.229413800     A.U. after   11 cycles
            NFock= 11  Conv=0.22D-08     -V/T= 2.0016
 ExpMin= 2.53D-02 ExpMax= 1.53D+04 ExpMxC= 5.22D+02 IAcc=3 IRadAn=         5 AccDes= 0.00D+00
 HarFok:  IExCor=  205 AccDes= 0.00D+00 IRadAn=         5 IDoV=-2 UseB2=F ITyADJ=14
 ICtDFT= 12500011 ScaDFX=  1.000000  1.000000  1.000000  1.000000
 Range of M.O.s used for correlation:     5   322
 NBasis=   322 NAE=    17 NBE=    17 NFC=     4 NFV=     0
 NROrb=    318 NOA=    13 NOB=    13 NVA=   305 NVB=   305

 **** Warning!!: The largest alpha MO coefficient is  0.34346584D+02

 Disk-based method using ON**2 memory for 13 occupieds at a time.
 Estimated scratch disk usage=  1216536476 words.
 Actual    scratch disk usage=  1114188700 words.
 JobTyp=1 Pass  1:  I=   5 to  17 NPSUse= 40 ParTrn=T ParDer=T DoDerP=T.
 (rs|ai) integrals will be sorted in core.
 Spin components of T(2) and E(2):
     alpha-alpha T2 =       0.3038888961D-01 E2=     -0.1046619617D+00
     alpha-beta  T2 =       0.1756859344D+00 E2=     -0.6523854747D+00
     beta-beta   T2 =       0.3038888961D-01 E2=     -0.1046619617D+00
 ANorm=    0.1111963899D+01
 E2 =    -0.8617093982D+00 EUMP2 =    -0.22609112319818D+03
          IDoAtm=1111111111
          Differentiating once with respect to electric field.
                with respect to dipole field.
          Differentiating once with respect to nuclear coordinates.
 Keep R1 ints in memory in canonical form, NReq=1377718064.
          There are     1 degrees of freedom in the 1st order CPHF.  IDoFFX=0 NUNeed=     1.
 LinEq1:  Iter=  0 NonCon=     1 RMS=3.25D-03 Max=8.90D-02 NDo=     1
 AX will form     1 AO Fock derivatives at one time.
 LinEq1:  Iter=  1 NonCon=     1 RMS=9.40D-04 Max=1.60D-02 NDo=     1
 LinEq1:  Iter=  2 NonCon=     1 RMS=3.46D-04 Max=5.22D-03 NDo=     1
 LinEq1:  Iter=  3 NonCon=     1 RMS=1.55D-04 Max=3.17D-03 NDo=     1
 LinEq1:  Iter=  4 NonCon=     1 RMS=3.89D-05 Max=5.29D-04 NDo=     1
 LinEq1:  Iter=  5 NonCon=     1 RMS=9.89D-06 Max=1.71D-04 NDo=     1
 LinEq1:  Iter=  6 NonCon=     1 RMS=3.41D-06 Max=3.69D-05 NDo=     1
 LinEq1:  Iter=  7 NonCon=     1 RMS=7.61D-07 Max=8.94D-06 NDo=     1
 LinEq1:  Iter=  8 NonCon=     1 RMS=1.66D-07 Max=3.01D-06 NDo=     1
 LinEq1:  Iter=  9 NonCon=     1 RMS=4.75D-08 Max=6.96D-07 NDo=     1
 LinEq1:  Iter= 10 NonCon=     1 RMS=1.95D-08 Max=4.93D-07 NDo=     1
 LinEq1:  Iter= 11 NonCon=     1 RMS=5.58D-09 Max=5.89D-08 NDo=     1
 LinEq1:  Iter= 12 NonCon=     1 RMS=1.07D-09 Max=1.69D-08 NDo=     1
 LinEq1:  Iter= 13 NonCon=     1 RMS=1.79D-10 Max=1.78D-09 NDo=     1
 LinEq1:  Iter= 14 NonCon=     0 RMS=3.25D-11 Max=3.87D-10 NDo=     1
 Linear equations converged to 1.000D-10 1.000D-09 after    14 iterations.
 End of Minotr F.D. properties file   721 does not exist.
 End of Minotr F.D. properties file   722 does not exist.
 End of Minotr F.D. properties file   788 does not exist.
 Calling FoFJK, ICntrl=  10002127 FMM=F ISym2X=0 I1Cent= 0 IOpClX= 0 NMat=1 NMatS=1 NMatT=0.
 ***** Axes restored to original set *****
 -------------------------------------------------------------------
 Center     Atomic                   Forces (Hartrees/Bohr)
 Number     Number              X              Y              Z
 -------------------------------------------------------------------
      1        6          -0.001039437   -0.001472141   -0.000020377
      2        8           0.002598320    0.000262637    0.000008394
      3        7           0.003902315   -0.004623503    0.000004360
      4        7          -0.007264381   -0.000832310    0.000041062
      5        1          -0.000112189   -0.002169768    0.000064410
      6        1           0.001107761    0.001078175   -0.000903542
      7        1           0.001146146    0.001150506    0.000795840
      8        1           0.000520022    0.001387993    0.000007857
      9        1           0.002312389    0.005673572    0.000001537
     10        1          -0.003170947   -0.000455161    0.000000459
 -------------------------------------------------------------------
 Cartesian Forces:  Max     0.007264381 RMS     0.002319021

 GradGradGradGradGradGradGradGradGradGradGradGradGradGradGradGradGradGrad
 Berny optimization.
 Using GEDIIS/GDIIS optimizer.
 FormGI is forming the generalized inverse of G from B-inverse, IUseBI=4.
 Internal  Forces:  Max     0.008293773 RMS     0.002225520
 Search for a local minimum.
 Step number   2 out of a maximum of   43
 All quantities printed in internal units (Hartrees-Bohrs-Radians)
 Mixed Optimization -- RFO/linear search
 Update second derivatives using D2CorX and points    1    2
 DE= -3.72D-03 DEPred=-4.51D-03 R= 8.26D-01
 TightC=F SS=  1.41D+00  RLast= 3.06D-01 DXNew= 5.0454D-01 9.1782D-01
 Trust test= 8.26D-01 RLast= 3.06D-01 DXMaxT set to 5.05D-01
 ITU=  1  0
 Use linear search instead of GDIIS.
     Eigenvalues ---    0.00230   0.00230   0.00360   0.01357   0.02403
     Eigenvalues ---    0.02403   0.05175   0.05857   0.07612   0.15639
     Eigenvalues ---    0.16000   0.16000   0.16000   0.16000   0.16220
     Eigenvalues ---    0.23137   0.32395   0.43550   0.44259   0.44283
     Eigenvalues ---    0.47450   0.50840   0.55779   0.96953
 RFO step:  Lambda=-9.75902466D-04 EMin= 2.29999955D-03
 Quartic linear search produced a step of  0.29491.
 Iteration  1 RMS(Cart)=  0.11900832 RMS(Int)=  0.01291978
 Iteration  2 RMS(Cart)=  0.04429090 RMS(Int)=  0.00112366
 Iteration  3 RMS(Cart)=  0.00111225 RMS(Int)=  0.00094855
 Iteration  4 RMS(Cart)=  0.00000032 RMS(Int)=  0.00094855
 Variable       Old X    -DE/DX   Delta X   Delta X   Delta X     New X
                                 (Linear)    (Quad)   (Total)
    R1        2.30751   0.00260   0.00275   0.00342   0.00616   2.31368
    R2        2.55032   0.00141   0.00184   0.00324   0.00508   2.55539
    R3        2.08586  -0.00148  -0.00429  -0.00580  -0.01010   2.07576
    R4        1.88868   0.00607   0.00833   0.01541   0.02374   1.91243
    R5        1.91400   0.00829   0.01580   0.02095   0.03681   1.95081
    R6        1.92042  -0.00188  -0.00249  -0.00546  -0.00795   1.91247
    R7        1.91898  -0.00162  -0.00271  -0.00468  -0.00740   1.91159
    R8        1.91894  -0.00162  -0.00272  -0.00467  -0.00739   1.91155
    R9        3.57615   0.00515   0.03523   0.11099   0.14619   3.72234
    A1        2.19509   0.00040   0.01066   0.00193   0.01259   2.20768
    A2        2.13076  -0.00020  -0.00359  -0.00106  -0.00465   2.12611
    A3        1.95733  -0.00020  -0.00707  -0.00087  -0.00794   1.94939
    A4        2.06988  -0.00165  -0.00723  -0.01306  -0.02029   2.04959
    A5        2.10156   0.00167   0.00211   0.01349   0.01560   2.11716
    A6        2.11174  -0.00002   0.00512  -0.00043   0.00469   2.11643
    A7        1.85521  -0.00044   0.00015  -0.00241  -0.00080   1.85442
    A8        1.85511  -0.00045   0.00014  -0.00250  -0.00047   1.85463
    A9        1.78480   0.00161   0.00517   0.01414   0.02117   1.80597
   A10        1.85190   0.00101  -0.00205   0.00645   0.00166   1.85356
   A11        2.04157  -0.00080  -0.00123  -0.00703  -0.00924   2.03233
   A12        2.05573  -0.00090  -0.00141  -0.00785  -0.01002   2.04571
   A13        3.17403  -0.00053   0.07685  -0.33195  -0.25600   2.91803
   A14        3.14036   0.00001  -0.00045   0.00309   0.00248   3.14284
    D1        0.00010   0.00000  -0.00002   0.00018   0.00012   0.00022
    D2        3.14140   0.00001  -0.00010   0.00054   0.00048  -3.14130
    D3       -3.14138  -0.00001   0.00006  -0.00056  -0.00055   3.14126
    D4       -0.00007  -0.00001  -0.00002  -0.00020  -0.00019  -0.00026
    D5       -3.10640   0.00001  -0.00038   0.00167   0.00148  -3.10492
    D6        1.16393  -0.00022   0.00905  -0.05746  -0.04686   1.11708
    D7       -1.08620   0.00021  -0.00912   0.05806   0.04726  -1.03894
    D8        0.03574   0.00001  -0.00015   0.00005   0.00004   0.03578
    D9       -1.97711  -0.00022   0.00927  -0.05907  -0.04829  -2.02541
   D10        2.05594   0.00021  -0.00889   0.05644   0.04582   2.10176
         Item               Value     Threshold  Converged?
 Maximum Force            0.008294     0.000450     NO 
 RMS     Force            0.002226     0.000300     NO 
 Maximum Displacement     0.427700     0.001800     NO 
 RMS     Displacement     0.154243     0.001200     NO 
 Predicted change in Energy=-9.107701D-04
 GradGradGradGradGradGradGradGradGradGradGradGradGradGradGradGradGradGrad

                          Input orientation:                          
 ---------------------------------------------------------------------
 Center     Atomic      Atomic             Coordinates (Angstroms)
 Number     Number       Type             X           Y           Z
 ---------------------------------------------------------------------
      1          6           0        1.142479   -0.281667   -0.000055
      2          8           0        2.363375   -0.189850   -0.000488
      3          7           0        0.259034    0.742111    0.000040
      4          7           0       -2.581671   -0.175384   -0.000342
      5          1           0       -3.172998    0.645166   -0.035572
      6          1           0       -2.858571   -0.688570    0.826241
      7          1           0       -2.845894   -0.749099   -0.790447
      8          1           0        0.634995   -1.255854    0.000872
      9          1           0        0.634457    1.681913   -0.000471
     10          1           0       -0.759171    0.571953    0.000674
 ---------------------------------------------------------------------
                    Distance matrix (angstroms):
                    1          2          3          4          5
     1  C    0.000000
     2  O    1.224344   0.000000
     3  N    1.352257   2.301479   0.000000
     4  N    3.725666   4.945067   2.985197   0.000000
     5  H    4.414026   5.599099   3.433586   1.012033   0.000000
     6  H    4.105695   5.310454   3.528302   1.011569   1.618777
     7  H    4.092717   5.298422   3.534000   1.011548   1.618891
     8  H    1.098445   2.030681   2.033031   3.393281   4.256292
     9  H    2.028234   2.548069   1.012012   3.713896   3.946238
    10  H    2.084452   3.214131   1.032325   1.969776   2.415209
                    6          7          8          9         10
     6  H    0.000000
     7  H    1.617870   0.000000
     8  H    3.634288   3.605492   0.000000
     9  H    4.301614   4.318185   2.937767   0.000000
    10  H    2.584175   2.593350   2.298821   1.781631   0.000000
 Stoichiometry    CH6N2O
 Framework group  C1[X(CH6N2O)]
 Deg. of freedom    24
 Full point group                 C1      NOp   1
 Largest Abelian subgroup         C1      NOp   1
 Largest concise Abelian subgroup C1      NOp   1
                         Standard orientation:                         
 ---------------------------------------------------------------------
 Center     Atomic      Atomic             Coordinates (Angstroms)
 Number     Number       Type             X           Y           Z
 ---------------------------------------------------------------------
      1          6           0        1.106763   -0.318119    0.000094
      2          8           0        2.328298   -0.235237   -0.000339
      3          7           0        0.230831    0.712095    0.000188
      4          7           0       -2.616510   -0.184594   -0.000193
      5          1           0       -3.201819    0.640259   -0.035424
      6          1           0       -2.897157   -0.695741    0.826389
      7          1           0       -2.884923   -0.756361   -0.790299
      8          1           0        0.592165   -1.288568    0.001021
      9          1           0        0.613119    1.649124   -0.000322
     10          1           0       -0.788592    0.549390    0.000823
 ---------------------------------------------------------------------
 Rotational constants (GHZ):          29.4262563           2.2289368           2.0946451
 Standard basis: Aug-CC-pVTZ (5D, 7F)
 There are   370 symmetry adapted cartesian basis functions of A   symmetry.
 There are   322 symmetry adapted basis functions of A   symmetry.
   322 basis functions,   450 primitive gaussians,   370 cartesian basis functions
    17 alpha electrons       17 beta electrons
       nuclear repulsion energy       116.6789144607 Hartrees.
 NAtoms=   10 NActive=   10 NUniq=   10 SFac= 1.00D+00 NAtFMM=   60 NAOKFM=F Big=F
 Integral buffers will be    131072 words long.
 Raffenetti 1 integral format.
 Two-electron integral symmetry is turned on.
 One-electron integrals computed using PRISM.
 NBasis=   322 RedAO= T EigKep=  4.70D-05  NBF=   322
 NBsUse=   322 1.00D-06 EigRej= -1.00D+00 NBFU=   322
 Initial guess from the checkpoint file:  "/scr/Gau-78929.chk"
 B after Tr=     0.000000   -0.000000    0.000000
         Rot=    0.999989    0.000024   -0.000004    0.004666 Ang=   0.53 deg.
 ExpMin= 2.53D-02 ExpMax= 1.53D+04 ExpMxC= 5.22D+02 IAcc=3 IRadAn=         5 AccDes= 0.00D+00
 Harris functional with IExCor=  205 and IRadAn=       5 diagonalized for initial guess.
 HarFok:  IExCor=  205 AccDes= 0.00D+00 IRadAn=         5 IDoV= 1 UseB2=F ITyADJ=14
 ICtDFT=  3500011 ScaDFX=  1.000000  1.000000  1.000000  1.000000
 FoFCou: FMM=F IPFlag=           0 FMFlag=      100000 FMFlg1=           0
         NFxFlg=           0 DoJE=T BraDBF=F KetDBF=T FulRan=T
         wScrn=  0.000000 ICntrl=       500 IOpCl=  0 I1Cent=   200000004 NGrid=           0
         NMat0=    1 NMatS0=      1 NMatT0=    0 NMatD0=    1 NMtDS0=    0 NMtDT0=    0
 Petite list used in FoFCou.
 Keep R1 ints in memory in canonical form, NReq=1377716058.
 Requested convergence on RMS density matrix=1.00D-08 within 128 cycles.
 Requested convergence on MAX density matrix=1.00D-06.
 Requested convergence on             energy=1.00D-06.
 No special actions if energy rises.
 SCF Done:  E(RHF) =  -225.229055635     A.U. after   11 cycles
            NFock= 11  Conv=0.66D-08     -V/T= 2.0019
 ExpMin= 2.53D-02 ExpMax= 1.53D+04 ExpMxC= 5.22D+02 IAcc=3 IRadAn=         5 AccDes= 0.00D+00
 HarFok:  IExCor=  205 AccDes= 0.00D+00 IRadAn=         5 IDoV=-2 UseB2=F ITyADJ=14
 ICtDFT= 12500011 ScaDFX=  1.000000  1.000000  1.000000  1.000000
 Range of M.O.s used for correlation:     5   322
 NBasis=   322 NAE=    17 NBE=    17 NFC=     4 NFV=     0
 NROrb=    318 NOA=    13 NOB=    13 NVA=   305 NVB=   305

 **** Warning!!: The largest alpha MO coefficient is  0.35614913D+02

 Disk-based method using ON**2 memory for 13 occupieds at a time.
 Estimated scratch disk usage=  1215649360 words.
 Actual    scratch disk usage=  1113295440 words.
 JobTyp=1 Pass  1:  I=   5 to  17 NPSUse= 40 ParTrn=T ParDer=T DoDerP=T.
 (rs|ai) integrals will be sorted in core.
 Spin components of T(2) and E(2):
     alpha-alpha T2 =       0.3049626946D-01 E2=     -0.1046750660D+00
     alpha-beta  T2 =       0.1763955660D+00 E2=     -0.6528697639D+00
     beta-beta   T2 =       0.3049626946D-01 E2=     -0.1046750660D+00
 ANorm=    0.1112379479D+01
 E2 =    -0.8622198958D+00 EUMP2 =    -0.22609127553092D+03
          IDoAtm=1111111111
          Differentiating once with respect to electric field.
                with respect to dipole field.
          Differentiating once with respect to nuclear coordinates.
 Keep R1 ints in memory in canonical form, NReq=1377718064.
          There are     1 degrees of freedom in the 1st order CPHF.  IDoFFX=0 NUNeed=     1.
 LinEq1:  Iter=  0 NonCon=     1 RMS=3.28D-03 Max=9.02D-02 NDo=     1
 AX will form     1 AO Fock derivatives at one time.
 LinEq1:  Iter=  1 NonCon=     1 RMS=9.55D-04 Max=1.66D-02 NDo=     1
 LinEq1:  Iter=  2 NonCon=     1 RMS=3.53D-04 Max=5.28D-03 NDo=     1
 LinEq1:  Iter=  3 NonCon=     1 RMS=1.59D-04 Max=3.23D-03 NDo=     1
 LinEq1:  Iter=  4 NonCon=     1 RMS=3.98D-05 Max=5.09D-04 NDo=     1
 LinEq1:  Iter=  5 NonCon=     1 RMS=9.98D-06 Max=1.66D-04 NDo=     1
 LinEq1:  Iter=  6 NonCon=     1 RMS=3.44D-06 Max=3.37D-05 NDo=     1
 LinEq1:  Iter=  7 NonCon=     1 RMS=7.72D-07 Max=9.05D-06 NDo=     1
 LinEq1:  Iter=  8 NonCon=     1 RMS=1.71D-07 Max=3.18D-06 NDo=     1
 LinEq1:  Iter=  9 NonCon=     1 RMS=5.23D-08 Max=7.87D-07 NDo=     1
 LinEq1:  Iter= 10 NonCon=     1 RMS=2.12D-08 Max=5.29D-07 NDo=     1
 LinEq1:  Iter= 11 NonCon=     1 RMS=5.82D-09 Max=6.54D-08 NDo=     1
 LinEq1:  Iter= 12 NonCon=     1 RMS=1.10D-09 Max=1.71D-08 NDo=     1
 LinEq1:  Iter= 13 NonCon=     1 RMS=1.86D-10 Max=1.85D-09 NDo=     1
 LinEq1:  Iter= 14 NonCon=     0 RMS=3.37D-11 Max=4.17D-10 NDo=     1
 Linear equations converged to 1.000D-10 1.000D-09 after    14 iterations.
 End of Minotr F.D. properties file   721 does not exist.
 End of Minotr F.D. properties file   722 does not exist.
 End of Minotr F.D. properties file   788 does not exist.
 Calling FoFJK, ICntrl=  10002127 FMM=F ISym2X=0 I1Cent= 0 IOpClX= 0 NMat=1 NMatS=1 NMatT=0.
 ***** Axes restored to original set *****
 -------------------------------------------------------------------
 Center     Atomic                   Forces (Hartrees/Bohr)
 Number     Number              X              Y              Z
 -------------------------------------------------------------------
      1        6          -0.000643284   -0.002069997    0.000072178
      2        8          -0.003446566    0.002474048   -0.000026615
      3        7          -0.004489697    0.006211241    0.000004175
      4        7          -0.001747352    0.001145387    0.000080358
      5        1          -0.001739425    0.000830953   -0.000080816
      6        1           0.000478151   -0.000526188    0.001824532
      7        1           0.000567200   -0.000622136   -0.001806884
      8        1          -0.000462162   -0.001773397   -0.000022406
      9        1          -0.002552861   -0.004091524    0.000003708
     10        1           0.014035996   -0.001578387   -0.000048231
 -------------------------------------------------------------------
 Cartesian Forces:  Max     0.014035996 RMS     0.003283611

 GradGradGradGradGradGradGradGradGradGradGradGradGradGradGradGradGradGrad
 Berny optimization.
 Using GEDIIS/GDIIS optimizer.
 FormGI is forming the generalized inverse of G from B-inverse, IUseBI=4.
 Internal  Forces:  Max     0.011317002 RMS     0.002674589
 Search for a local minimum.
 Step number   3 out of a maximum of   43
 All quantities printed in internal units (Hartrees-Bohrs-Radians)
 Mixed Optimization -- RFO/linear search
 Update second derivatives using D2CorX and points    1    2    3
 DE= -1.52D-04 DEPred=-9.11D-04 R= 1.67D-01
 Trust test= 1.67D-01 RLast= 3.16D-01 DXMaxT set to 5.05D-01
 ITU=  0  1  0
 Use linear search instead of GDIIS.
     Eigenvalues ---    0.00230   0.00230   0.00675   0.01337   0.02402
     Eigenvalues ---    0.02403   0.02929   0.06297   0.07287   0.15225
     Eigenvalues ---    0.16000   0.16000   0.16000   0.16217   0.16459
     Eigenvalues ---    0.24038   0.32622   0.44242   0.44283   0.44394
     Eigenvalues ---    0.50064   0.55589   0.60430   0.97888
 RFO step:  Lambda=-9.20168540D-04 EMin= 2.29999768D-03
 Quartic linear search produced a step of -0.45547.
 Iteration  1 RMS(Cart)=  0.13893680 RMS(Int)=  0.02892047
 Iteration  2 RMS(Cart)=  0.09613955 RMS(Int)=  0.00359727
 Iteration  3 RMS(Cart)=  0.00699703 RMS(Int)=  0.00011023
 Iteration  4 RMS(Cart)=  0.00000099 RMS(Int)=  0.00011023
 Variable       Old X    -DE/DX   Delta X   Delta X   Delta X     New X
                                 (Linear)    (Quad)   (Total)
    R1        2.31368  -0.00325  -0.00281   0.00221  -0.00060   2.31308
    R2        2.55539  -0.00194  -0.00231   0.00179  -0.00052   2.55487
    R3        2.07576   0.00179   0.00460  -0.00376   0.00084   2.07660
    R4        1.91243  -0.00475  -0.01081   0.01271   0.00190   1.91432
    R5        1.95081  -0.01132  -0.01677   0.01226  -0.00451   1.94630
    R6        1.91247   0.00169   0.00362  -0.00413  -0.00051   1.91196
    R7        1.91159   0.00163   0.00337  -0.00339  -0.00003   1.91156
    R8        1.91155   0.00162   0.00337  -0.00340  -0.00003   1.91152
    R9        3.72234   0.00195  -0.06659   0.14374   0.07716   3.79950
    A1        2.20768  -0.00449  -0.00574  -0.00851  -0.01424   2.19344
    A2        2.12611   0.00182   0.00212   0.00281   0.00493   2.13104
    A3        1.94939   0.00267   0.00362   0.00569   0.00931   1.95870
    A4        2.04959   0.00186   0.00924  -0.00847   0.00077   2.05037
    A5        2.11716  -0.00208  -0.00711   0.00738   0.00027   2.11743
    A6        2.11643   0.00022  -0.00214   0.00109  -0.00105   2.11538
    A7        1.85442   0.00018   0.00036   0.00102   0.00135   1.85576
    A8        1.85463   0.00015   0.00022   0.00089   0.00142   1.85605
    A9        1.80597   0.00195  -0.00964   0.02690   0.01741   1.82338
   A10        1.85356   0.00093  -0.00076   0.00542   0.00444   1.85800
   A11        2.03233  -0.00138   0.00421  -0.01466  -0.01062   2.02171
   A12        2.04571  -0.00153   0.00456  -0.01608  -0.01155   2.03416
   A13        2.91803   0.00293   0.11660   0.23833   0.35485   3.27288
   A14        3.14284  -0.00003  -0.00113  -0.00282  -0.00409   3.13875
    D1        0.00022  -0.00002  -0.00005  -0.00011  -0.00025  -0.00003
    D2       -3.14130  -0.00003  -0.00022  -0.00035  -0.00049   3.14140
    D3        3.14126   0.00003   0.00025   0.00024   0.00042  -3.14151
    D4       -0.00026   0.00001   0.00009   0.00000   0.00018  -0.00008
    D5       -3.10492   0.00001  -0.00067  -0.00221  -0.00269  -3.10761
    D6        1.11708  -0.00012   0.02134   0.02304   0.04449   1.16157
    D7       -1.03894   0.00010  -0.02152  -0.02445  -0.04612  -1.08506
    D8        0.03578   0.00002  -0.00002  -0.00015  -0.00009   0.03570
    D9       -2.02541  -0.00012   0.02200   0.02510   0.04710  -1.97831
   D10        2.10176   0.00011  -0.02087  -0.02239  -0.04352   2.05824
         Item               Value     Threshold  Converged?
 Maximum Force            0.011317     0.000450     NO 
 RMS     Force            0.002675     0.000300     NO 
 Maximum Displacement     0.618813     0.001800     NO 
 RMS     Displacement     0.228236     0.001200     NO 
 Predicted change in Energy=-6.949295D-04
 GradGradGradGradGradGradGradGradGradGradGradGradGradGradGradGradGradGrad

                          Input orientation:                          
 ---------------------------------------------------------------------
 Center     Atomic      Atomic             Coordinates (Angstroms)
 Number     Number       Type             X           Y           Z
 ---------------------------------------------------------------------
      1          6           0        1.293312   -0.267068    0.000300
      2          8           0        2.477938    0.040997    0.001909
      3          7           0        0.253824    0.597403   -0.000585
      4          7           0       -2.691272   -0.134503   -0.000407
      5          1           0       -3.132833    0.775169   -0.034873
      6          1           0       -3.047836   -0.592482    0.828063
      7          1           0       -3.048274   -0.654354   -0.791292
      8          1           0        0.962457   -1.314965   -0.000715
      9          1           0        0.469119    1.587276    0.000171
     10          1           0       -0.720399    0.263244   -0.002119
 ---------------------------------------------------------------------
                    Distance matrix (angstroms):
                    1          2          3          4          5
     1  C    0.000000
     2  O    1.224028   0.000000
     3  N    1.351979   2.292657   0.000000
     4  N    3.986788   5.172188   3.034678   0.000000
     5  H    4.547335   5.658720   3.391492   1.011764   0.000000
     6  H    4.431326   5.622988   3.606028   1.011556   1.619368
     7  H    4.430122   5.625984   3.618835   1.011531   1.619524
     8  H    1.098888   2.033549   2.039439   3.839690   4.597959
     9  H    2.029257   2.535022   1.013016   3.598971   3.692533
    10  H    2.082371   3.206052   1.029939   2.010608   2.466369
                    6          7          8          9         10
     6  H    0.000000
     7  H    1.620536   0.000000
     8  H    4.158281   4.140939   0.000000
     9  H    4.219683   4.245394   2.943872   0.000000
    10  H    2.615040   2.623697   2.307109   1.779893   0.000000
 Stoichiometry    CH6N2O
 Framework group  C1[X(CH6N2O)]
 Deg. of freedom    24
 Full point group                 C1      NOp   1
 Largest Abelian subgroup         C1      NOp   1
 Largest concise Abelian subgroup C1      NOp   1
                         Standard orientation:                         
 ---------------------------------------------------------------------
 Center     Atomic      Atomic             Coordinates (Angstroms)
 Number     Number       Type             X           Y           Z
 ---------------------------------------------------------------------
      1          6           0        1.226953   -0.353656   -0.000499
      2          8           0        2.418027   -0.071547    0.000831
      3          7           0        0.206599    0.533318   -0.000731
      4          7           0       -2.753784   -0.134071    0.000153
      5          1           0       -3.175377    0.785043   -0.033842
      6          1           0       -3.120002   -0.584454    0.828576
      7          1           0       -3.122312   -0.645710   -0.790801
      8          1           0        0.873282   -1.394075   -0.001781
      9          1           0        0.443469    1.518251    0.000308
     10          1           0       -0.774692    0.220524   -0.002065
 ---------------------------------------------------------------------
 Rotational constants (GHZ):          39.3133179           2.0229513           1.9435330
 Standard basis: Aug-CC-pVTZ (5D, 7F)
 There are   370 symmetry adapted cartesian basis functions of A   symmetry.
 There are   322 symmetry adapted basis functions of A   symmetry.
   322 basis functions,   450 primitive gaussians,   370 cartesian basis functions
    17 alpha electrons       17 beta electrons
       nuclear repulsion energy       115.5034945408 Hartrees.
 NAtoms=   10 NActive=   10 NUniq=   10 SFac= 1.00D+00 NAtFMM=   60 NAOKFM=F Big=F
 Integral buffers will be    131072 words long.
 Raffenetti 1 integral format.
 Two-electron integral symmetry is turned on.
 One-electron integrals computed using PRISM.
 NBasis=   322 RedAO= T EigKep=  4.27D-05  NBF=   322
 NBsUse=   322 1.00D-06 EigRej= -1.00D+00 NBFU=   322
 Initial guess from the checkpoint file:  "/scr/Gau-78929.chk"
 B after Tr=    -0.000000    0.000000   -0.000000
         Rot=    0.999991    0.000068   -0.000006   -0.004316 Ang=   0.49 deg.
 ExpMin= 2.53D-02 ExpMax= 1.53D+04 ExpMxC= 5.22D+02 IAcc=3 IRadAn=         5 AccDes= 0.00D+00
 Harris functional with IExCor=  205 and IRadAn=       5 diagonalized for initial guess.
 HarFok:  IExCor=  205 AccDes= 0.00D+00 IRadAn=         5 IDoV= 1 UseB2=F ITyADJ=14
 ICtDFT=  3500011 ScaDFX=  1.000000  1.000000  1.000000  1.000000
 FoFCou: FMM=F IPFlag=           0 FMFlag=      100000 FMFlg1=           0
         NFxFlg=           0 DoJE=T BraDBF=F KetDBF=T FulRan=T
         wScrn=  0.000000 ICntrl=       500 IOpCl=  0 I1Cent=   200000004 NGrid=           0
         NMat0=    1 NMatS0=      1 NMatT0=    0 NMatD0=    1 NMtDS0=    0 NMtDT0=    0
 Petite list used in FoFCou.
 Keep R1 ints in memory in canonical form, NReq=1377716058.
 Requested convergence on RMS density matrix=1.00D-08 within 128 cycles.
 Requested convergence on MAX density matrix=1.00D-06.
 Requested convergence on             energy=1.00D-06.
 No special actions if energy rises.
 SCF Done:  E(RHF) =  -225.230040640     A.U. after   11 cycles
            NFock= 11  Conv=0.49D-08     -V/T= 2.0019
 ExpMin= 2.53D-02 ExpMax= 1.53D+04 ExpMxC= 5.22D+02 IAcc=3 IRadAn=         5 AccDes= 0.00D+00
 HarFok:  IExCor=  205 AccDes= 0.00D+00 IRadAn=         5 IDoV=-2 UseB2=F ITyADJ=14
 ICtDFT= 12500011 ScaDFX=  1.000000  1.000000  1.000000  1.000000
 Range of M.O.s used for correlation:     5   322
 NBasis=   322 NAE=    17 NBE=    17 NFC=     4 NFV=     0
 NROrb=    318 NOA=    13 NOB=    13 NVA=   305 NVB=   305

 **** Warning!!: The largest alpha MO coefficient is  0.33659156D+02

 Disk-based method using ON**2 memory for 13 occupieds at a time.
 Estimated scratch disk usage=  1201588510 words.
 Actual    scratch disk usage=  1100840222 words.
 JobTyp=1 Pass  1:  I=   5 to  17 NPSUse= 40 ParTrn=T ParDer=T DoDerP=T.
 (rs|ai) integrals will be sorted in core.
 Spin components of T(2) and E(2):
     alpha-alpha T2 =       0.3044129931D-01 E2=     -0.1045372200D+00
     alpha-beta  T2 =       0.1762942637D+00 E2=     -0.6525641690D+00
     beta-beta   T2 =       0.3044129931D-01 E2=     -0.1045372200D+00
 ANorm=    0.1112284524D+01
 E2 =    -0.8616386089D+00 EUMP2 =    -0.22609167924926D+03
          IDoAtm=1111111111
          Differentiating once with respect to electric field.
                with respect to dipole field.
          Differentiating once with respect to nuclear coordinates.
 Keep R1 ints in memory in canonical form, NReq=1377718064.
          There are     1 degrees of freedom in the 1st order CPHF.  IDoFFX=0 NUNeed=     1.
 LinEq1:  Iter=  0 NonCon=     1 RMS=3.27D-03 Max=8.93D-02 NDo=     1
 AX will form     1 AO Fock derivatives at one time.
 LinEq1:  Iter=  1 NonCon=     1 RMS=9.54D-04 Max=1.66D-02 NDo=     1
 LinEq1:  Iter=  2 NonCon=     1 RMS=3.52D-04 Max=5.18D-03 NDo=     1
 LinEq1:  Iter=  3 NonCon=     1 RMS=1.59D-04 Max=2.71D-03 NDo=     1
 LinEq1:  Iter=  4 NonCon=     1 RMS=3.96D-05 Max=5.68D-04 NDo=     1
 LinEq1:  Iter=  5 NonCon=     1 RMS=1.00D-05 Max=1.69D-04 NDo=     1
 LinEq1:  Iter=  6 NonCon=     1 RMS=3.44D-06 Max=3.98D-05 NDo=     1
 LinEq1:  Iter=  7 NonCon=     1 RMS=7.81D-07 Max=9.19D-06 NDo=     1
 LinEq1:  Iter=  8 NonCon=     1 RMS=1.74D-07 Max=3.18D-06 NDo=     1
 LinEq1:  Iter=  9 NonCon=     1 RMS=5.02D-08 Max=7.40D-07 NDo=     1
 LinEq1:  Iter= 10 NonCon=     1 RMS=2.07D-08 Max=5.22D-07 NDo=     1
 LinEq1:  Iter= 11 NonCon=     1 RMS=5.88D-09 Max=6.36D-08 NDo=     1
 LinEq1:  Iter= 12 NonCon=     1 RMS=1.09D-09 Max=1.48D-08 NDo=     1
 LinEq1:  Iter= 13 NonCon=     1 RMS=1.78D-10 Max=1.68D-09 NDo=     1
 LinEq1:  Iter= 14 NonCon=     0 RMS=3.15D-11 Max=3.60D-10 NDo=     1
 Linear equations converged to 1.000D-10 1.000D-09 after    14 iterations.
 End of Minotr F.D. properties file   721 does not exist.
 End of Minotr F.D. properties file   722 does not exist.
 End of Minotr F.D. properties file   788 does not exist.
 Calling FoFJK, ICntrl=  10002127 FMM=F ISym2X=0 I1Cent= 0 IOpClX= 0 NMat=1 NMatS=1 NMatT=0.
 ***** Axes restored to original set *****
 -------------------------------------------------------------------
 Center     Atomic                   Forces (Hartrees/Bohr)
 Number     Number              X              Y              Z
 -------------------------------------------------------------------
      1        6           0.001629235    0.001007078   -0.000019715
      2        8          -0.002563488   -0.000065992    0.000006089
      3        7          -0.005511340    0.000513474   -0.000010820
      4        7           0.000185000    0.000055437    0.000045824
      5        1          -0.000958584    0.001301452   -0.000088592
      6        1           0.000052618   -0.000721802    0.001407486
      7        1           0.000060367   -0.000798349   -0.001371766
      8        1          -0.000140621   -0.001236245    0.000004588
      9        1          -0.002608573   -0.005513829   -0.000009315
     10        1           0.009855387    0.005458776    0.000036221
 -------------------------------------------------------------------
 Cartesian Forces:  Max     0.009855387 RMS     0.002672417

 GradGradGradGradGradGradGradGradGradGradGradGradGradGradGradGradGradGrad
 Berny optimization.
 Using GEDIIS/GDIIS optimizer.
 FormGI is forming the generalized inverse of G from B-inverse, IUseBI=4.
 Internal  Forces:  Max     0.010406100 RMS     0.002265814
 Search for a local minimum.
 Step number   4 out of a maximum of   43
 All quantities printed in internal units (Hartrees-Bohrs-Radians)
 Mixed Optimization -- RFO/linear search
 Update second derivatives using D2CorX and points    1    2    3    4
 DE= -4.04D-04 DEPred=-6.95D-04 R= 5.81D-01
 TightC=F SS=  1.41D+00  RLast= 3.76D-01 DXNew= 8.4853D-01 1.1266D+00
 Trust test= 5.81D-01 RLast= 3.76D-01 DXMaxT set to 8.49D-01
 ITU=  1  0  1  0
 Use linear search instead of GDIIS.
     Eigenvalues ---    0.00230   0.00230   0.01174   0.01348   0.02402
     Eigenvalues ---    0.02403   0.02446   0.06066   0.07565   0.15200
     Eigenvalues ---    0.16000   0.16000   0.16007   0.16353   0.16529
     Eigenvalues ---    0.23859   0.32600   0.44248   0.44283   0.44485
     Eigenvalues ---    0.50566   0.55839   0.70452   0.98787
 RFO step:  Lambda=-2.73807646D-04 EMin= 2.29999891D-03
 Quartic linear search produced a step of -0.28940.
 Iteration  1 RMS(Cart)=  0.07314258 RMS(Int)=  0.00204551
 Iteration  2 RMS(Cart)=  0.00430948 RMS(Int)=  0.00002111
 Iteration  3 RMS(Cart)=  0.00000155 RMS(Int)=  0.00002110
 Iteration  4 RMS(Cart)=  0.00000000 RMS(Int)=  0.00002110
 Variable       Old X    -DE/DX   Delta X   Delta X   Delta X     New X
                                 (Linear)    (Quad)   (Total)
    R1        2.31308  -0.00250   0.00017  -0.00159  -0.00141   2.31166
    R2        2.55487  -0.00064   0.00015  -0.00103  -0.00088   2.55399
    R3        2.07660   0.00122  -0.00024   0.00236   0.00212   2.07871
    R4        1.91432  -0.00594  -0.00055  -0.00662  -0.00717   1.90715
    R5        1.94630  -0.01041   0.00130  -0.01281  -0.01151   1.93479
    R6        1.91196   0.00159   0.00015   0.00225   0.00239   1.91435
    R7        1.91156   0.00146   0.00001   0.00202   0.00203   1.91359
    R8        1.91152   0.00146   0.00001   0.00201   0.00202   1.91354
    R9        3.79950   0.00068  -0.02233   0.02371   0.00138   3.80088
    A1        2.19344  -0.00106   0.00412  -0.00506  -0.00094   2.19250
    A2        2.13104   0.00028  -0.00143   0.00148   0.00005   2.13109
    A3        1.95870   0.00078  -0.00269   0.00359   0.00089   1.95959
    A4        2.05037   0.00104  -0.00022   0.00446   0.00424   2.05461
    A5        2.11743   0.00055  -0.00008  -0.00066  -0.00074   2.11669
    A6        2.11538  -0.00159   0.00030  -0.00380  -0.00350   2.11189
    A7        1.85576  -0.00002  -0.00039   0.00132   0.00100   1.85676
    A8        1.85605  -0.00005  -0.00041   0.00090   0.00048   1.85654
    A9        1.82338   0.00052  -0.00504   0.00675   0.00174   1.82513
   A10        1.85800   0.00083  -0.00128   0.00231   0.00099   1.85899
   A11        2.02171  -0.00058   0.00307  -0.00482  -0.00174   2.01997
   A12        2.03416  -0.00063   0.00334  -0.00534  -0.00202   2.03214
   A13        3.27288  -0.00159  -0.10269  -0.01716  -0.11986   3.15302
   A14        3.13875   0.00002   0.00118   0.00035   0.00157   3.14032
    D1       -0.00003   0.00001   0.00007  -0.00003   0.00005   0.00002
    D2        3.14140   0.00001   0.00014  -0.00009   0.00003   3.14143
    D3       -3.14151  -0.00001  -0.00012   0.00013   0.00002  -3.14148
    D4       -0.00008  -0.00000  -0.00005   0.00007   0.00001  -0.00008
    D5       -3.10761   0.00003   0.00078   0.00036   0.00110  -3.10651
    D6        1.16157  -0.00034  -0.01288  -0.00644  -0.01929   1.14228
    D7       -1.08506   0.00033   0.01335   0.00634   0.01967  -1.06539
    D8        0.03570   0.00002   0.00002   0.00009   0.00009   0.03579
    D9       -1.97831  -0.00035  -0.01363  -0.00671  -0.02029  -1.99860
   D10        2.05824   0.00032   0.01259   0.00608   0.01867   2.07691
         Item               Value     Threshold  Converged?
 Maximum Force            0.010406     0.000450     NO 
 RMS     Force            0.002266     0.000300     NO 
 Maximum Displacement     0.207098     0.001800     NO 
 RMS     Displacement     0.074899     0.001200     NO 
 Predicted change in Energy=-1.967686D-04
 GradGradGradGradGradGradGradGradGradGradGradGradGradGradGradGradGradGrad

                          Input orientation:                          
 ---------------------------------------------------------------------
 Center     Atomic      Atomic             Coordinates (Angstroms)
 Number     Number       Type             X           Y           Z
 ---------------------------------------------------------------------
      1          6           0        1.249855   -0.274298    0.000232
      2          8           0        2.449436   -0.034675    0.000993
      3          7           0        0.262747    0.648855   -0.000296
      4          7           0       -2.666130   -0.147239   -0.000336
      5          1           0       -3.165705    0.733352   -0.035202
      6          1           0       -2.992299   -0.628048    0.829033
      7          1           0       -2.987911   -0.689510   -0.792649
      8          1           0        0.859125   -1.302572   -0.000188
      9          1           0        0.530112    1.622018   -0.000065
     10          1           0       -0.723194    0.372836   -0.001071
 ---------------------------------------------------------------------
                    Distance matrix (angstroms):
                    1          2          3          4          5
     1  C    0.000000
     2  O    1.223280   0.000000
     3  N    1.351515   2.291031   0.000000
     4  N    3.918046   5.116805   3.035142   0.000000
     5  H    4.529215   5.667538   3.429671   1.013031   0.000000
     6  H    4.336810   5.536264   3.593549   1.012628   1.621845
     7  H    4.331250   5.533843   3.603585   1.012601   1.621688
     8  H    1.100008   2.033876   2.040523   3.709747   4.510596
     9  H    2.028310   2.535437   1.009222   3.653249   3.801319
    10  H    2.076465   3.198695   1.023849   2.011338   2.469210
                    6          7          8          9         10
     6  H    0.000000
     7  H    1.622853   0.000000
     8  H    3.997007   3.975365   0.000000
     9  H    4.261170   4.283437   2.943039   0.000000
    10  H    2.615278   2.623760   2.304502   1.769528   0.000000
 Stoichiometry    CH6N2O
 Framework group  C1[X(CH6N2O)]
 Deg. of freedom    24
 Full point group                 C1      NOp   1
 Largest Abelian subgroup         C1      NOp   1
 Largest concise Abelian subgroup C1      NOp   1
                         Standard orientation:                         
 ---------------------------------------------------------------------
 Center     Atomic      Atomic             Coordinates (Angstroms)
 Number     Number       Type             X           Y           Z
 ---------------------------------------------------------------------
      1          6           0        1.191400   -0.344810   -0.000249
      2          8           0        2.394940   -0.125937    0.000348
      3          7           0        0.220380    0.595250   -0.000289
      4          7           0       -2.721807   -0.150151    0.000003
      5          1           0       -3.206109    0.738946   -0.034485
      6          1           0       -3.056069   -0.625521    0.829285
      7          1           0       -3.053057   -0.686531   -0.792418
      8          1           0        0.782973   -1.366184   -0.000917
      9          1           0        0.504509    1.563651    0.000197
     10          1           0       -0.770180    0.336297   -0.000954
 ---------------------------------------------------------------------
 Rotational constants (GHZ):          35.6944238           2.0717146           1.9784136
 Standard basis: Aug-CC-pVTZ (5D, 7F)
 There are   370 symmetry adapted cartesian basis functions of A   symmetry.
 There are   322 symmetry adapted basis functions of A   symmetry.
   322 basis functions,   450 primitive gaussians,   370 cartesian basis functions
    17 alpha electrons       17 beta electrons
       nuclear repulsion energy       115.7940490814 Hartrees.
 NAtoms=   10 NActive=   10 NUniq=   10 SFac= 1.00D+00 NAtFMM=   60 NAOKFM=F Big=F
 Integral buffers will be    131072 words long.
 Raffenetti 1 integral format.
 Two-electron integral symmetry is turned on.
 One-electron integrals computed using PRISM.
 NBasis=   322 RedAO= T EigKep=  4.50D-05  NBF=   322
 NBsUse=   322 1.00D-06 EigRej= -1.00D+00 NBFU=   322
 Initial guess from the checkpoint file:  "/scr/Gau-78929.chk"
 B after Tr=     0.000000    0.000000    0.000000
         Rot=    0.999999   -0.000084    0.000005    0.001539 Ang=  -0.18 deg.
 ExpMin= 2.53D-02 ExpMax= 1.53D+04 ExpMxC= 5.22D+02 IAcc=3 IRadAn=         5 AccDes= 0.00D+00
 Harris functional with IExCor=  205 and IRadAn=       5 diagonalized for initial guess.
 HarFok:  IExCor=  205 AccDes= 0.00D+00 IRadAn=         5 IDoV= 1 UseB2=F ITyADJ=14
 ICtDFT=  3500011 ScaDFX=  1.000000  1.000000  1.000000  1.000000
 FoFCou: FMM=F IPFlag=           0 FMFlag=      100000 FMFlg1=           0
         NFxFlg=           0 DoJE=T BraDBF=F KetDBF=T FulRan=T
         wScrn=  0.000000 ICntrl=       500 IOpCl=  0 I1Cent=   200000004 NGrid=           0
         NMat0=    1 NMatS0=      1 NMatT0=    0 NMatD0=    1 NMtDS0=    0 NMtDT0=    0
 Petite list used in FoFCou.
 Keep R1 ints in memory in canonical form, NReq=1377716058.
 Requested convergence on RMS density matrix=1.00D-08 within 128 cycles.
 Requested convergence on MAX density matrix=1.00D-06.
 Requested convergence on             energy=1.00D-06.
 No special actions if energy rises.
 SCF Done:  E(RHF) =  -225.230581217     A.U. after   10 cycles
[...]
 1,0.00002518,-0.00007816,-0.00005496,0.00011212,-0.00001826,-0.0000183
 0,-0.00000521,-0.00000165,-0.00001446,-0.00000280,0.00000195,0.0000220
 3,0.00001242,-0.00004177,0.00002257,0.00001218,0.00004011,-0.00003450,
 0.00013249,-0.00044388,-0.00019860,-0.00018685,0.00005500,0.00004093,-
 0.00019645,0.00036828,0.00001706,-0.00002438,-0.00001468,-0.00000038,0
 .00000651,0.00000360,-0.00000010,0.00000756,-0.00001963,0.00002139,0.0
 0000945,-0.00001795,-0.00001974,0.00016580,0.00004630,-0.00020706,0.00
 001498,0.00012652,0.00009076,-0.00014759,0.00004724,-0.00000675,-0.000
 00986,0.00000661,-0.00000223,0.00000197,0.00003757,-0.00000046,-0.0000
 0151,0.00001480,0.00000075,0.00000355,-0.00001376,-0.00000256,-0.00000
 439,-0.00001272,0.00012165,0.00014933,-0.00013260,0.00007091,-0.000046
 83,0.00000045,-0.00000810,0.00002504,0.00001600,-0.00003694,-0.0044755
 7,0.00000449,0.00009177,-0.00004557,0.00000274,-0.00002518,0.00008353,
 -0.00000319,0.00005566,-0.00003578,0.00007043,0.00005519,-0.00004186,-
 0.00007028,0.00001951,-0.00002796,-0.00000942,-0.00030290,0.00015768,0
 .00030637,-0.00002329,-0.00000399,-0.00006952,0.00001068,-0.00525382,-
 0.01102446,-0.00000807,-0.00003396,0.00000399,0.00000243,0.00007063,-0
 .00009877,0.00000404,-0.00000417,0.00005548,-0.00007801,-0.00000567,0.
 00005834,0.00007292,-0.00007177,0.00004934,-0.00000049,0.00492873,0.01
 048711,0.00004169,-0.00003914,0.00012178,-0.00003121,0.00001041,0.0000
 4161,-0.00001367,0.00002836,0.00204634,-0.00000099,-0.00000419,0.00002
 137,0.00000214,0.00000099,0.00001137,-0.00002694,0.00001087,-0.0000206
 6,0.00002760,-0.00000789,-0.00001334,-0.00000480,-0.00000853,-0.000041
 09,0.00000387,0.00001651,-0.00245317,0.00051638,-0.00070529,0.00000138
 ,-0.00038638,0.00017609,-0.00000519,-0.06500907,-0.01827827,-0.0001114
 0,-0.00050968,-0.00002654,-0.00001542,0.00007288,-0.00085941,0.0000310
 8,-0.00003462,0.00029417,-0.00062570,-0.00003141,0.00034356,0.00060848
 ,0.00002952,0.00011382,0.00001531,0.00008012,0.00021633,0.00000231,0.0
 6527215,0.00047372,0.00004348,0.00004230,-0.00019204,0.00003594,-0.000
 01427,-0.01829764,0.00855767,-0.00003662,0.00006124,-0.00011407,0.0000
 0130,0.00032807,0.00018749,-0.00000416,-0.00028656,0.00013546,-0.00030
 747,-0.00031993,0.00016246,0.00031241,-0.00012866,-0.00002637,-0.00000
 600,-0.00036374,0.00023213,-0.00000738,0.01872555,-0.00921415,-0.00004
 828,0.00001300,0.00013614,0.00004212,0.00001839,0.00001680,-0.00007688
 ,-0.00005580,0.01385630,-0.00000429,-0.00000139,-0.00014853,-0.0000152
 7,-0.00001214,0.00005817,0.00040559,0.00001956,0.00025435,-0.00038644,
 -0.00000344,0.00023807,-0.00000061,-0.00000137,-0.00003260,-0.00001508
 ,0.00000329,0.00028579,0.00009914,0.00001989,-0.01466447,-0.00117379,-
 0.00121189,-0.00037347,0.00079915,0.00021954,-0.00015106,0.00088374,0.
 00059707,-0.00065148,-0.00072120,0.00040897,0.00027189,-0.00017782,-0.
 00027072,-0.00025198,-0.00049599,-0.00005924,0.00029774,0.00048905,0.0
 0015755,-0.00036999,-0.00041602,0.00069879,-0.00013411,0.00017238,-0.0
 0015852,0.00007233,0.00151677,0.00033217,-0.00011117,0.00013720,0.0001
 2087,0.00002544,-0.00013574,-0.00037493,0.00057213,-0.00009748,-0.0001
 4142,-0.00052997,0.00006610,0.00013876,0.00000010,0.00011126,0.0000241
 9,0.00203882,0.00013570,-0.00000206,-0.00000574,-0.00024714,0.00001984
 ,0.00000480,0.00024625,0.00006250,-0.00002123,0.82406068,0.00027633,-0
 .00117790,-0.00000635,-0.00030001,0.00028458,0.00000234,-0.00013278,0.
 00128552,0.00000252,-1.79212349,1.82566182,-0.00005784,0.00005380,-0.0
 0005927,0.00004324,-0.00000815,-0.00000341,0.00001077,-0.00003012,0.00
 019677,0.13284101,0.05841897,0.28676653,0.00016882,-0.00056961,0.00000
 320,-0.00008085,0.00014212,-0.00000165,-0.00044236,0.00017126,-0.00000
 237,-1.03960988,2.05340607,-0.09305220,1.02897917,-0.00013087,0.000778
 91,0.00000505,0.00011449,-0.00018334,-0.00000026,-0.00010991,-0.000841
 51,0.00000992,2.03681923,-1.61795900,0.10597913,-2.02791602,1.60917964
 ,0.00002430,-0.00006753,0.00002699,-0.00001815,0.00001637,0.00000738,-
 0.00001964,0.00005600,0.00013874,-0.09199373,0.10550486,0.71267388,0.0
 9148670,-0.10593579,-0.69795438,-0.00008831,0.00015456,0.00001077,0.00
 010165,-0.00005234,-0.00000315,0.00010571,-0.00004714,0.00006306,0.085
 75817,-0.10758748,0.19268912,0.00559687,-0.00398068,0.00035969,-0.0998
 7166,-0.00008813,0.00019131,0.00000067,0.00010913,-0.00004850,0.000004
 54,0.00013762,-0.00018491,-0.00003324,-0.09914663,-0.05524437,0.351709
 02,-0.01297703,0.00456119,0.00440856,0.11279208,0.04291317,-0.00017805
 ,-0.00002119,-0.00000681,0.00013300,0.00002953,-0.00000108,0.00000444,
 0.00009100,-0.00014996,0.17454439,0.33840727,-0.45506780,0.00540943,0.
 00098748,-0.00751353,-0.18687014,-0.34829695,0.46511326,-0.00007186,0.
 00015419,-0.00000604,0.00008596,-0.00005476,0.00000322,0.00005032,-0.0
 0005456,-0.00005723,0.13006609,-0.15515234,-0.23233704,0.00463468,-0.0
 0399782,0.00006803,0.00838990,-0.00044205,0.00733370,-0.14322172,-0.00
 007447,0.00016872,-0.00000309,0.00009892,-0.00004441,-0.00000392,0.000
 12394,-0.00017312,0.00001514,-0.14571876,-0.15227853,-0.51607013,-0.01
 245944,0.00402656,-0.00397229,-0.00122268,0.00775306,0.00905912,0.1595
 9649,0.14047349,0.00021838,0.00002582,-0.00001259,-0.00016634,-0.00003
 705,0.00000192,0.00000052,-0.00011670,-0.00015741,-0.21540465,-0.50233
 479,-0.54414177,-0.00385102,-0.00100826,-0.00712803,-0.00612908,-0.007
 86018,-0.00271620,0.22489770,0.51099958,0.55378053,0.00036682,0.000027
 71,-0.00001830,-0.00025868,0.00003093,-0.00007824,0.00001257,-0.000101
 98,-0.00001686,-0.00001494,0.00002079,-0.00000341,-0.00001312,-0.00000
 525,0.00000119,0.00000962,0.00000895,-0.00001682,0.00001105,0.00000822
 ,0.00001811,-0.00013616,0.00034988,-0.00023089,-0.00019880,-0.00035936
 ,-0.00002454,0.00004061,-0.00021860,0.00039151,0.00001547,-0.00003095,
 0.00021182,0.00000159,0.00011529,-0.00013513,0.00001210,-0.00001626,-0
 .00002265,0.00004858,-0.00001896,-0.00002052,-0.00006192,0.00019093,-0
 .00010667,-0.00021024,0.00000902,0.00026173,0.00009344,-0.00014565,0.0
 0000827,-0.00000789,-0.00000986,-0.00008087,0.00000088,0.00000174,0.00
 004259,-0.00000018,-0.00000222,-0.00003690,-0.00001004,-0.00000160,0.0
 0001190,0.00000724,0.00000049,0.00000977,0.00012015,0.00015254,-0.0002
 0320,-0.00000422,-0.00007262,-0.00000048,0.00000217,0.00003467,0.00001
 582,-0.00019216,-0.00007332,0.00000441,-0.00001765,0.00010469,0.000008
 93,-0.00000711,-0.00004702,0.00000330,0.00002556,-0.00000427,0.0000347
 0,0.00001712,-0.00000695,-0.00005028,0.00001386,-0.00003643,-0.0000090
 4,-0.00006191,0.00008043,0.00031161,-0.00002420,0.00000574,-0.00005525
 ,0.00001067,0.00007698,-0.00056611,-0.00001293,0.00002897,0.00008036,-
 0.00001585,0.00006226,-0.00008366,0.00000493,0.00000587,-0.00000573,-0
 .00004632,0.00000775,-0.00000162,0.00006095,-0.00007546,0.00002985,-0.
 00000019,-0.00001219,0.00019426,0.00004065,-0.00003684,0.00003509,-0.0
 0003114,0.00000953,0.00002338,-0.00001617,0.00002036,-0.00061747,-0.00
 000413,-0.00000101,-0.00001005,0.00000048,0.00000039,-0.00001844,0.000
 00294,-0.00000661,-0.00000315,0.00000062,0.00000805,-0.00000287,-0.000
 00519,-0.00000874,-0.00000669,0.00000433,0.00002431,0.00030608,0.00019
 922,0.00022386,0.00000302,0.00006199,-0.00010018,-0.00000620,-0.001053
 48,-0.00003492,-0.00004967,-0.00037727,0.00148821,-0.00014260,0.000773
 78,-0.00074613,0.00008832,-0.00002749,-0.00038968,-0.00039465,0.000038
 48,-0.00034527,0.00046667,0.00000892,0.00002445,0.00001569,0.00022440,
 -0.00018033,0.00000760,0.00015134,0.00005764,0.00017091,0.00004779,-0.
 00011613,0.00002611,-0.00001654,-0.00004258,-0.00039777,-0.00001841,0.
 00009135,-0.00086427,-0.00003831,0.00002508,0.00065634,-0.00002721,-0.
 00004594,0.00008742,-0.00025850,-0.00003794,0.00009635,0.00033257,-0.0
 0010486,-0.00009274,-0.00000427,0.00011342,0.00009628,-0.00000944,0.00
 005998,0.00022138,-0.00004290,0.00001804,0.00013817,0.00004226,0.00001
 692,0.00003572,-0.00002150,-0.00003632,-0.00083879,0.00003838,0.000004
 44,-0.00039744,0.00000762,-0.00003545,-0.00019572,-0.00011317,0.000075
 79,0.00033337,0.00008981,-0.00003294,0.00036665,-0.00000063,-0.0000014
 3,-0.00000662,-0.00001170,-0.00000138,0.00029413,0.00001181,-0.0000076
 8,0.00027056,-0.00220251,-0.00097871,0.00016366,0.00082558,0.00021257,
 -0.00043384,0.00147923,0.00026690,-0.00066735,-0.00095957,0.00044474,0
 .00012322,-0.00017866,-0.00022658,-0.00024244,-0.00051210,-0.00005593,
 0.00057674,0.00050183,0.00015830,-0.00066358,0.00007739,0.00063374,-0.
 00014427,-0.00011030,-0.00016357,0.00007415,0.00125628,0.00009184,-0.0
 0002000,0.00015022,0.00042933,0.00002728,-0.00014167,-0.00027765,0.000
 30147,-0.00006094,-0.00016020,-0.00053999,0.00004207,0.00013992,0.0000
 4069,0.00007140,0.00003245,0.00190188,0.00050651,-0.00036153,0.0000087
 3,-0.00041156,0.00009169,-0.00000095,0.00037082,-0.00022961,0.00002609
 ,-0.75448804,-0.00046099,0.00015986,0.00000413,0.00033766,0.00002434,0
 .00000019,0.00011278,-0.00007873,0.00000480,0.84260379,0.92268602,0.00
 006740,-0.00005757,0.00002567,-0.00005193,0.00000574,-0.00002445,-0.00
 000279,0.00003674,0.00072130,-0.12540634,-0.05566096,2.77387923,-0.000
 21865,0.00022629,0.00000481,0.00016097,-0.00005001,-0.00000143,0.00035
 364,0.00007763,-0.00000903,0.00269618,-0.00750805,0.00391196,-0.003750
 85,-0.00005206,0.00017357,-0.00000020,0.00003355,-0.00005224,0.0000013
 3,0.00017871,-0.00009545,0.00000033,-0.03162493,-0.00195302,-0.0045267
 2,0.00192971,0.00423490,-0.00001093,0.00002376,0.00001380,0.00000956,-
 0.00000573,-0.00000022,0.00001683,-0.00002111,-0.00016061,0.00426297,-
 0.00364470,-0.01607771,-0.00307797,0.00427407,-0.00537100,-0.00009192,
 0.00009922,-0.00004490,0.00006013,-0.00002917,0.00001453,-0.00026195,0
 .00002240,-0.00003094,0.38342935,-0.42885105,0.64363573,0.00007671,0.0
 1461003,-0.00888741,-0.38006295,0.00027905,-0.00029103,0.00006522,-0.0
 0021175,0.00004777,-0.00002413,-0.00015259,0.00011668,0.00036424,-0.41
 821541,-0.38012242,1.40408395,0.00327756,-0.00140995,0.00017866,0.4123
 9456,0.38514688,-0.00015508,-0.00002787,-0.00002494,0.00013799,0.00004
 136,0.00001226,-0.00015952,0.00005432,-0.00028161,0.62770073,1.4066620
 0,-1.53664353,0.00224704,-0.00563448,0.01078897,-0.63163275,-1.4018450
 1,1.51956041,-0.00011361,0.00010927,0.00003141,0.00008119,-0.00002877,
 -0.00000847,-0.00021123,0.00002870,0.00002512,0.36778572,-0.40529839,-
 0.52227220,0.00102099,0.01515075,0.00773901,-0.00325152,0.00201041,0.0
 0200523,-0.36534846,0.00031974,-0.00024477,-0.00006895,-0.00022534,0.0
 0002726,0.00002385,-0.00014840,0.00006447,-0.00036413,-0.39302642,-0.5
 4009301,-1.34393652,0.00231103,-0.00087471,-0.00080745,0.00193055,-0.0
 0389893,0.00100376,0.38823287,0.54455280,0.00009297,0.00006906,-0.0000
 3186,-0.00008956,-0.00004352,0.00001455,0.00015557,-0.00007466,-0.0002
 3946,-0.50654262,-1.34735366,-1.22025556,-0.00307804,0.00588537,0.0104
 2078,-0.00326186,-0.00219008,0.00592488,0.51266771,1.34351372,1.203598
 95,0.00040583,-0.00018950,-0.00001954,-0.00029720,0.00003668,-0.000078
 92,-0.00004731,-0.00007738,-0.00001444,-0.00000630,0.00000562,0.000000
 73,-0.00001776,-0.00000413,-0.00000032,0.00001258,0.00000168,-0.000020
 11,0.00001173,0.00000803,0.00001801,-0.00007922,0.00034323,-0.00057549
 ,-0.00019546,-0.00034506,0.00005650,0.00003956,-0.00023945,0.00041533,
 0.00002145,-0.00002839,0.00009034,-0.00000406,0.00001699,-0.00003613,-
 0.00000031,-0.00001590,-0.00000709,0.00005978,-0.00001024,-0.00001413,
 -0.00005393,0.00032674,0.00014223,-0.00023538,0.00002169,0.00023911,0.
 00009901,-0.00014609,0.00000563,0.00001509,-0.00001168,-0.00000665,-0.
 00000704,0.00000077,-0.00001935,0.00000075,0.00000225,0.00004241,0.000
 00061,-0.00009431,-0.00000747,0.00000397,0.00009092,-0.00000376,0.0001
 1578,0.00014225,-0.00022273,0.00001095,-0.00003969,0.00000027,-0.00000
 212,0.00003050,0.00001747,-0.00025432,-0.00006005,-0.00000770,-0.00016
 434,0.00005598,-0.00000783,0.00007769,-0.00000085,0.00000008,0.0000374
 4,-0.00003491,0.00004519,0.00004169,-0.00005754,-0.00003596,0.00001255
 ,-0.00004145,0.00000163,0.00001973,0.00001465,0.00024262,-0.00002184,0
 .00001445,-0.00003027,0.00001076,0.00016984,-0.00047170,-0.00001857,0.
 00013382,-0.00011921,0.00001914,-0.00004178,0.00001746,-0.00000220,-0.
 00002762,0.00006869,-0.00007619,-0.00003155,0.00006527,0.00005816,-0.0
 0006458,0.00001604,0.00000441,-0.00005360,0.00019044,0.00004271,-0.000
 03846,0.00005360,-0.00002909,0.00001018,0.00002532,-0.00002181,0.00001
 771,-0.00061742,0.00000602,-0.00000311,0.00005694,0.00000192,-0.000001
 09,-0.00001627,-0.00006819,-0.00001991,-0.00001154,0.00006081,0.000021
 06,-0.00000837,-0.00000200,-0.00000785,-0.00003005,0.00000722,0.000021
 94,0.00030151,0.00014683,0.00023407,0.00000526,-0.00000076,-0.00010551
 ,-0.00000610,-0.00117299,-0.00000530,-0.00004164,0.00028167,-0.0009973
 7,0.00012527,-0.00039892,-0.00022076,-0.00005179,0.00005216,0.00065140
 ,-0.00016873,-0.00001650,0.00065548,0.00007379,0.00000510,-0.00000650,
 0.00000558,0.00022078,-0.00011363,0.00000241,0.00088247,-0.00000145,0.
 00026828,0.00003296,-0.00007315,0.00001859,-0.00001226,-0.00011340,-0.
 00025940,-0.00002028,0.00065698,-0.00059411,0.00004026,-0.00023938,-0.
 00000443,0.00000500,-0.00013302,0.00034939,-0.00023767,-0.00016304,0.0
 0041574,0.00018955,-0.00004319,-0.00008755,-0.00001023,0.00020157,0.00
 002070,-0.00000046,-0.00009186,-0.00012719,-0.00005423,0.00001296,0.00
 012175,0.00004747,0.00001849,0.00001308,-0.00000465,-0.00004231,-0.000
 81818,-0.00004760,-0.00000949,-0.00166253,0.,-0.00000086,0.00035984,0.
 00027519,-0.00051864,0.00068256,-0.00025259,0.00052376,0.00057985,0.00
 000082,-0.00000144,0.00000284,-0.00002036,0.00000440,0.00024629,0.0000
 5594,0.00001313,0.00047450,-0.02068252,0.00823055,-0.03278472,0.000786
 52,0.00023467,0.00361744,0.00716740,0.00198882,-0.00064921,-0.00292588
 ,0.00366045,0.00609237,-0.00017795,-0.00266691,-0.00393792,-0.00049592
 ,-0.00005934,-0.00035601,0.00049204,0.00015848,-0.00048746,0.00789682,
 -0.04469262,-0.00009574,-0.00590051,0.00457623,0.00006200,0.11988426,-
 0.01157894,0.01283989,0.00012779,0.00303818,-0.00247424,-0.00013238,1.
 80090411,4.06775454,-0.00007071,-0.00015439,-0.01206494,0.00005535,0.0
 0014009,0.00463384,-0.00033393,-0.00332699,-1.16389834,0.00120201,-0.0
 0063679,0.00000480,-0.00044073,-0.00003019,0.00000197,0.00017847,-0.00
 170067,-0.00000898,0.00084788,0.00035639,0.00001814,-0.00000458,-0.000
 16946,-0.00002518,0.00000327,-0.00030275,-0.00076781,0.00000464,-0.000
 43139,0.00238313,0.00000038,0.00000030,-0.00020995,0.00000111,-0.00000
 032,0.00005185,0.00000349,-0.00000109,0.00015883,-0.00000514,0.0000022
 1,0.00249674,0.00008870,-0.00015720,-0.00000296,-0.00004093,-0.0000035
 6,0.00000039,-0.00007951,-0.00010466,0.00000841,-0.00097547,-0.0008775
 1,0.00002894,0.00052001,0.00016260,-0.00013453,0.00000111,-0.00007137,
 0.00000395,-0.00000032,-0.00031683,-0.00010266,-0.00000059,-0.00011107
 ,-0.00091520,0.00003248,0.00008730,0.00052451,-0.00000392,0.00000246,0
 .00001310,0.00000264,-0.00000045,0.00000201,0.00000915,0.00000139,-0.0
 0009493,0.00000059,0.00002508,-0.00002829,-0.00000250,-0.00001989,-0.0
 0001909,0.00019488,-0.00002907,0.00007767,-0.00009101,-0.00001134,-0.0
 0002063,-0.00026627,-0.00033297,-0.00010601,-0.00121743,0.00013934,-0.
 00084487,0.00008974,-0.00015360,0.00011399,0.00058312,0.00000130,0.000
 00162,0.00002281,0.00000667,0.00000018,-0.00000805,0.00001645,-0.00000
 887,-0.00003871,-0.00026302,0.00013714,-0.00004581,0.00009177,-0.00000
 046,0.00006417,0.00008251,-0.00008901,0.00010624,-0.00011198,0.0000213
 4,-0.00004425,0.00001286,-0.00000161,-0.00021859,0.00001744,-0.0000599
 6,-0.00015453,0.00020439,-0.00029066,-0.00010745,-0.00000443,0.0000572
 0,0.00013685,-0.00013085,0.00007537,0.00019993,-0.00002369,-0.00007206
 ,-0.00009362,-0.00001189,0.00002001,-0.00027664,-0.00034558,0.00010343
 ,-0.00123255,0.00020885,0.00082628,0.00009458,-0.00016472,-0.00010574,
 0.00008640,0.00007639,-0.00009886,0.00058046,-0.00000987,0.00000658,-0
 .00001971,0.00000988,0.00000003,0.00000665,0.00002370,-0.00001302,0.00
 003263,-0.00025147,0.00012540,0.00001244,0.00009205,-0.00000244,-0.000
 05755,0.00008815,0.00008324,-0.00004603,0.00007596,-0.00007445,-0.0001
 0407,0.00011005,0.00002262,0.00004084,-0.00001314,-0.00000124,0.000206
 83,-0.00002035,-0.00006022,0.00015946,-0.00023011,-0.00024188,0.000100
 36,0.00000413,0.00005947,0.00009081,0.00004820,0.00006780,-0.00013523,
 0.00014149,0.00003883,0.00415566,0.00177118,-0.00002288,-0.00092906,-0
 .00024250,-0.00007822,0.00143068,-0.00175218,-0.00001420,-0.00006466,-
 0.00010949,-0.00000081,0.00003040,0.00000127,0.00000037,-0.00004420,0.
 00001463,-0.00000586,-0.00004922,0.00001337,0.00000450,-0.00267809,-0.
 00398943,0.00025954,-0.00019753,-0.00005977,0.00011184,0.00004049,0.00
 026507,-0.00133649,0.00001860,0.00011484,0.00002532,0.00000089,0.00006
 031,0.00003418,0.00000053,0.00003267,0.00000204,0.00002046,0.00003280,
 0.00000142,-0.00002067,0.00190495,-0.00095851,-0.00021146,0.00001583,0
 .00307859,0.00009140,-0.00014738,-0.00039520,-0.00000499,-0.00001468,-
 0.00396552,-0.00000379,0.00000010,0.00002252,0.00000107,-0.00000024,-0
 .00000434,0.00000837,-0.00000352,-0.00000803,-0.00000974,0.00000242,-0
 .00000696,0.00012201,0.00014911,-0.00132126,-0.00253631,0.03046835,-0.
 00002853,0.00272134,-0.00366362,0.00002288,0.45004846,-1.66601618,0.00
 106148,-0.00265878,-0.00057744,0.00000003,-0.00016461,-0.00005336,0.00
 000129,-0.00011121,-0.00002937,-0.00002406,-0.00011228,-0.00002741,0.0
 0002254,-0.00132654,0.00223263,-0.00000968,-0.44137139,0.00071427,0.01
 365705,-0.00002710,-0.00166683,0.00010672,0.00000523,-1.64492684,-4.18
 398501,0.00343294,0.00186015,0.00024927,0.00000246,0.00028291,0.000163
 94,-0.00000363,0.00016309,-0.00001713,0.00000733,0.00016078,-0.0000187
 0,-0.00000454,-0.00147329,0.00149925,0.00000412,1.63742933,4.15591688,
 0.00003411,-0.00004694,0.00525863,-0.00003100,0.00000948,-0.00313133,0
 .00103416,0.00348908,1.03905258,-0.00000041,-0.00000210,0.00024182,-0.
 00000187,0.00000102,0.00004679,-0.00001453,0.00001102,0.00001775,0.000
 01198,-0.00000960,0.00001753,-0.00000307,-0.00000853,0.00222726,-0.001
 02570,-0.00341467,-1.04160519,0.00231352,0.00308049,0.00000237,0.00053
 299,-0.00160666,-0.00000451,-0.57291576,-0.12211116,-0.00069485,0.0043
 6127,0.00176346,-0.00000944,0.00043709,0.00061980,-0.00001586,0.000775
 99,0.00000268,0.00041051,0.00080294,-0.00001435,-0.00038604,-0.0005249
 8,-0.00059408,0.00001680,-0.00448864,0.00745645,-0.00000367,0.56870547
 ,0.00245271,0.00004402,0.00004048,-0.00040921,0.00012227,-0.00001405,-
 0.11554651,0.10809359,-0.00010821,0.00144961,-0.00123016,-0.00000360,0
 .00052859,0.00042873,-0.00001212,0.00002122,-0.00010876,0.00003084,-0.
 00000889,-0.00010807,-0.00001507,-0.00012794,0.00036142,-0.00000577,0.
 00023705,0.01242772,-0.00002877,0.11140339,-0.12003070,-0.00004117,0.0
 0000934,0.00061921,0.00004107,0.00001834,-0.00031485,-0.00066239,-0.00
 014021,0.13629863,0.00000602,-0.00000291,-0.00220099,-0.00002439,-0.00
 001329,-0.00003191,0.00055833,0.00008074,0.00012081,-0.00054006,-0.000
 06273,0.00010404,-0.00000183,-0.00000336,0.00037293,-0.00002025,-0.000
 00216,-0.00212585,0.00068467,0.00011624,-0.13284200\\@
 The archive entry for this job was punched.


 THERE IS AN OLD, OLD RECIPE IN MAINE FOR STEWING COOT. PLACE THE
 BIRD IN A KETTLE OF WATER WITH A RED BUILDING BRICK FREE OF MORTAR AND
 BLEMISHES. PARBOIL THE COOT AND BRICK TOGETHER FOR THREE HOURS.
 POUR OFF THE WATER, REFILL THE KETTLE, AND AGAIN PARBOIL FOR THREE HOURS.
 ONCE AGAIN POUR OFF THE WATER, FOR THE LAST TIME ADD FRESH WATER,
 AND LET THE COOT AND BRICK SIMMER TOGETHER OVERNIGHT. IN THE MORNING,
 THROW AWAY THE COOT AND EAT THE BRICK.
 Job cpu time:      37 days 22 hours 59 minutes 25.6 seconds.
 Elapsed time:       0 days 23 hours 25 minutes 59.2 seconds.
 File lengths (MBytes):  RWF=  25546 Int=      0 D2E=      0 Chk=     56 Scr=      1
 Normal termination of Gaussian 16 at Mon Mar 31 08:33:35 2025.
