 Entering Gaussian System, Link 0=g16
 Input=hconmeht_h2o_mp2_avdz_opt_anharm.gjf
 Output=hconmeht_h2o_mp2_avdz_opt_anharm.log
 Initial command:
 /sw/contrib/chem-src/g16/c01/g16/l1.exe "/scr/Gau-17110.inp" -scrdir="/scr/"
 Entering Link 1 = /sw/contrib/chem-src/g16/c01/g16/l1.exe PID=     17111.
  
 Copyright (c) 1988-2019, Gaussian, Inc.  All Rights Reserved.
  
 This is part of the Gaussian(R) 16 program.  It is based on
 the Gaussian(R) 09 system (copyright 2009, Gaussian, Inc.),
 the Gaussian(R) 03 system (copyright 2003, Gaussian, Inc.),
 the Gaussian(R) 98 system (copyright 1998, Gaussian, Inc.),
 the Gaussian(R) 94 system (copyright 1995, Gaussian, Inc.),
 the Gaussian 92(TM) system (copyright 1992, Gaussian, Inc.),
 the Gaussian 90(TM) system (copyright 1990, Gaussian, Inc.),
 the Gaussian 88(TM) system (copyright 1988, Gaussian, Inc.),
 the Gaussian 86(TM) system (copyright 1986, Carnegie Mellon
 University), and the Gaussian 82(TM) system (copyright 1983,
 Carnegie Mellon University). Gaussian is a federally registered
 trademark of Gaussian, Inc.
  
 This software contains proprietary and confidential information,
 including trade secrets, belonging to Gaussian, Inc.
  
 This software is provided under written license and may be
 used, copied, transmitted, or stored only in accord with that
 written license.
  
 The following legend is applicable only to US Government
 contracts under FAR:
  
                    RESTRICTED RIGHTS LEGEND
  
 Use, reproduction and disclosure by the US Government is
 subject to restrictions as set forth in subparagraphs (a)
 and (c) of the Commercial Computer Software - Restricted
 Rights clause in FAR 52.227-19.
  
 Gaussian, Inc.
 340 Quinnipiac St., Bldg. 40, Wallingford CT 06492
  
  
 ---------------------------------------------------------------
 Warning -- This program may not be used in any manner that
 competes with the business of Gaussian, Inc. or will provide
 assistance to any competitor of Gaussian, Inc.  The licensee
 of this program is prohibited from giving any competitor of
 Gaussian, Inc. access to this program.  By using this program,
 the user acknowledges that Gaussian, Inc. is engaged in the
 business of creating and licensing software in the field of
 computational chemistry and represents and warrants to the
 licensee that it is not a competitor of Gaussian, Inc. and that
 it will not use this program in any manner prohibited above.
 ---------------------------------------------------------------
  

 Cite this work as:
 Gaussian 16, Revision C.01,
 M. J. Frisch, G. W. Trucks, H. B. Schlegel, G. E. Scuseria, 
 M. A. Robb, J. R. Cheeseman, G. Scalmani, V. Barone, 
 G. A. Petersson, H. Nakatsuji, X. Li, M. Caricato, A. V. Marenich, 
 J. Bloino, B. G. Janesko, R. Gomperts, B. Mennucci, H. P. Hratchian, 
 J. V. Ortiz, A. F. Izmaylov, J. L. Sonnenberg, D. Williams-Young, 
 F. Ding, F. Lipparini, F. Egidi, J. Goings, B. Peng, A. Petrone, 
 T. Henderson, D. Ranasinghe, V. G. Zakrzewski, J. Gao, N. Rega, 
 G. Zheng, W. Liang, M. Hada, M. Ehara, K. Toyota, R. Fukuda, 
 J. Hasegawa, M. Ishida, T. Nakajima, Y. Honda, O. Kitao, H. Nakai, 
 T. Vreven, K. Throssell, J. A. Montgomery, Jr., J. E. Peralta, 
 F. Ogliaro, M. J. Bearpark, J. J. Heyd, E. N. Brothers, K. N. Kudin, 
 V. N. Staroverov, T. A. Keith, R. Kobayashi, J. Normand, 
 K. Raghavachari, A. P. Rendell, J. C. Burant, S. S. Iyengar, 
 J. Tomasi, M. Cossi, J. M. Millam, M. Klene, C. Adamo, R. Cammi, 
 J. W. Ochterski, R. L. Martin, K. Morokuma, O. Farkas, 
 J. B. Foresman, and D. J. Fox, Gaussian, Inc., Wallingford CT, 2019.
 
 ******************************************
 Gaussian 16:  EM64L-G16RevC.01  3-Jul-2019
                 3-Apr-2025 
 ******************************************
 %nprocshared=40
 Will use up to   40 processors via shared memory.
 %mem=50gb
 ----------------------------------------------
 # MP2/aug-cc-pVDZ opt freq=(vibrot,anharmonic)
 ----------------------------------------------
 1/18=20,19=15,38=1,80=1/1,3;
 2/9=110,12=2,17=6,18=5,40=1/2;
 3/5=16,7=10,11=9,25=1,30=1,71=1/1,2,3;
 4//1;
 5/5=2,38=5/2;
 8/6=4,10=1/1;
 9/15=2,16=-3/6;
 10/5=1/2;
 6/7=2,8=2,9=2,10=2/1;
 7/12=2/1,2,3,16;
 1/18=20,19=15,80=1/3(2);
 2/9=110/2;
 99//99;
 2/9=110/2;
 3/5=16,7=10,11=9,25=1,30=1,71=1/1,2,3;
 4/5=5,16=3,69=1/1;
 5/5=2,38=5/2;
 8/6=4,10=1/1;
 9/15=2,16=-3/6;
 10/5=1/2;
 7/12=2/1,2,3,16;
 1/18=20,19=15,80=1/3(-8);
 2/9=110/2;
 6/7=2,8=2,9=2,10=2/1;
 99/9=10/99;
 ----
 blah
 ----
 Symbolic Z-matrix:
 Charge =  0 Multiplicity = 1
 C                     0.94286  -0.86323   0.00032 
 O                     2.17798  -0.83708  -0.00122 
 N                     0.12432   0.22551   0.0017 
 O                    -2.86324  -0.26346  -0.00008 
 H                     0.36933  -1.81465   0.00113 
 H                    -3.36311  -0.58599   0.76112 
 H                    -3.36352  -0.57366  -0.76611 
 H                    -0.8791    0.06137   0.00083 
 C                     0.64015   1.58714  0. 
 H                     1.13359   1.76838  -0.96327 
 H                     1.36857   1.73235   0.81234 
 H                    -0.18353   2.30667   0.12466 
 
 Add virtual bond connecting atoms H8         and O4         Dist= 3.80D+00.

 GradGradGradGradGradGradGradGradGradGradGradGradGradGradGradGradGradGrad
 Berny optimization.
 Initialization pass.
                           ----------------------------
                           !    Initial Parameters    !
                           ! (Angstroms and Degrees)  !
 --------------------------                            --------------------------
 ! Name  Definition              Value          Derivative Info.                !
 --------------------------------------------------------------------------------
 ! R1    R(1,2)                  1.2354         estimate D2E/DX2                !
 ! R2    R(1,3)                  1.3621         estimate D2E/DX2                !
 ! R3    R(1,5)                  1.1109         estimate D2E/DX2                !
 ! R4    R(3,8)                  1.0168         estimate D2E/DX2                !
 ! R5    R(3,9)                  1.4561         estimate D2E/DX2                !
 ! R6    R(4,6)                  0.9661         estimate D2E/DX2                !
 ! R7    R(4,7)                  0.9661         estimate D2E/DX2                !
 ! R8    R(4,8)                  2.0106         estimate D2E/DX2                !
 ! R9    R(9,10)                 1.0974         estimate D2E/DX2                !
 ! R10   R(9,11)                 1.1007         estimate D2E/DX2                !
 ! R11   R(9,12)                 1.1008         estimate D2E/DX2                !
 ! A1    A(2,1,3)              125.724          estimate D2E/DX2                !
 ! A2    A(2,1,5)              122.2951         estimate D2E/DX2                !
 ! A3    A(3,1,5)              111.9809         estimate D2E/DX2                !
 ! A4    A(1,3,8)              117.6467         estimate D2E/DX2                !
 ! A5    A(1,3,9)              122.3149         estimate D2E/DX2                !
 ! A6    A(8,3,9)              120.0381         estimate D2E/DX2                !
 ! A7    A(6,4,7)              104.4559         estimate D2E/DX2                !
 ! A8    A(6,4,8)              124.3465         estimate D2E/DX2                !
 ! A9    A(7,4,8)              124.2827         estimate D2E/DX2                !
 ! A10   A(3,9,10)             108.3472         estimate D2E/DX2                !
 ! A11   A(3,9,11)             110.9125         estimate D2E/DX2                !
 ! A12   A(3,9,12)             110.2458         estimate D2E/DX2                !
 ! A13   A(10,9,11)            109.1753         estimate D2E/DX2                !
 ! A14   A(10,9,12)            109.1425         estimate D2E/DX2                !
 ! A15   A(11,9,12)            108.9883         estimate D2E/DX2                !
 ! A16   L(3,8,4,5,-1)         179.9925         estimate D2E/DX2                !
 ! A17   L(3,8,4,5,-2)         179.9741         estimate D2E/DX2                !
 ! D1    D(2,1,3,8)            179.868          estimate D2E/DX2                !
 ! D2    D(2,1,3,9)              0.0705         estimate D2E/DX2                !
 ! D3    D(5,1,3,8)             -0.1549         estimate D2E/DX2                !
 ! D4    D(5,1,3,9)           -179.9524         estimate D2E/DX2                !
 ! D5    D(1,3,4,6)             72.7581         estimate D2E/DX2                !
 ! D6    D(1,3,4,7)            -73.5194         estimate D2E/DX2                !
 ! D7    D(9,3,4,6)           -107.4223         estimate D2E/DX2                !
 ! D8    D(9,3,4,7)            106.3002         estimate D2E/DX2                !
 ! D9    D(1,3,9,10)            67.4698         estimate D2E/DX2                !
 ! D10   D(1,3,9,11)           -52.3434         estimate D2E/DX2                !
 ! D11   D(1,3,9,12)          -173.1535         estimate D2E/DX2                !
 ! D12   D(8,3,9,10)          -112.323          estimate D2E/DX2                !
 ! D13   D(8,3,9,11)           127.8638         estimate D2E/DX2                !
 ! D14   D(8,3,9,12)             7.0537         estimate D2E/DX2                !
 --------------------------------------------------------------------------------
 Trust Radius=3.00D-01 FncErr=1.00D-07 GrdErr=1.00D-07 EigMax=2.50D+02 EigMin=1.00D-04
 Number of steps in this run=     52 maximum allowed number of steps=    100.
 GradGradGradGradGradGradGradGradGradGradGradGradGradGradGradGradGradGrad

                          Input orientation:                          
 ---------------------------------------------------------------------
 Center     Atomic      Atomic             Coordinates (Angstroms)
 Number     Number       Type             X           Y           Z
 ---------------------------------------------------------------------
      1          6           0        0.942864   -0.863225    0.000318
      2          8           0        2.177977   -0.837075   -0.001215
      3          7           0        0.124323    0.225508    0.001702
      4          8           0       -2.863244   -0.263462   -0.000080
      5          1           0        0.369331   -1.814651    0.001129
      6          1           0       -3.363106   -0.585992    0.761124
      7          1           0       -3.363522   -0.573659   -0.766108
      8          1           0       -0.879098    0.061369    0.000825
      9          6           0        0.640148    1.587141   -0.000003
     10          1           0        1.133591    1.768384   -0.963269
     11          1           0        1.368573    1.732350    0.812336
     12          1           0       -0.183535    2.306671    0.124658
 ---------------------------------------------------------------------
                    Distance matrix (angstroms):
                    1          2          3          4          5
     1  C    0.000000
     2  O    1.235391   0.000000
     3  N    1.362113   2.312269   0.000000
     4  O    3.853073   5.073750   3.027318   0.000000
     5  H    1.110924   2.055933   2.054818   3.585489   0.000000
     6  H    4.381445   5.598911   3.660248   0.966084   4.002285
     7  H    4.383631   5.600238   3.659681   0.966074   4.007855
     8  H    2.043140   3.186364   1.016758   2.010560   2.253448
     9  C    2.468994   2.870844   1.456064   3.962132   3.412555
    10  H    2.808958   2.967272   2.080927   4.585938   3.788443
    11  H    2.752746   2.814062   2.115623   4.748849   3.773296
    12  H    3.366375   3.933920   2.107400   3.715102   4.160074
                    6          7          8          9         10
     6  H    0.000000
     7  H    1.527282   0.000000
     8  H    2.677205   2.676529   0.000000
     9  C    4.618210   4.613605   2.153158   0.000000
    10  H    5.360681   5.074255   2.809679   1.097368   0.000000
    11  H    5.269357   5.495624   2.915948   1.100720   1.791449
    12  H    4.345372   4.382018   2.353832   1.100781   1.791134
                   11         12
    11  H    0.000000
    12  H    1.792145   0.000000
 Stoichiometry    C2H7NO2
 Framework group  C1[X(C2H7NO2)]
 Deg. of freedom    30
 Full point group                 C1      NOp   1
 Largest Abelian subgroup         C1      NOp   1
 Largest concise Abelian subgroup C1      NOp   1
                         Standard orientation:                         
 ---------------------------------------------------------------------
 Center     Atomic      Atomic             Coordinates (Angstroms)
 Number     Number       Type             X           Y           Z
 ---------------------------------------------------------------------
      1          6           0       -0.943733   -0.863388   -0.000776
      2          8           0       -2.178842   -0.837071    0.000730
      3          7           0       -0.125044    0.225233   -0.002365
      4          8           0        2.862457   -0.264141   -0.000431
      5          1           0       -0.370329   -1.814892   -0.001384
      6          1           0        3.362288   -0.586893   -0.761561
      7          1           0        3.362679   -0.574251    0.765668
      8          1           0        0.878355    0.060959   -0.001437
      9          6           0       -0.640685    1.586937   -0.000945
     10          1           0       -1.134121    1.768441    0.962276
     11          1           0       -1.369075    1.732080   -0.813326
     12          1           0        0.183098    2.306330   -0.125737
 ---------------------------------------------------------------------
 Rotational constants (GHZ):           7.2029652           2.0015785           1.5939021
 Standard basis: Aug-CC-pVDZ (5D, 7F)
 There are   188 symmetry adapted cartesian basis functions of A   symmetry.
 There are   178 symmetry adapted basis functions of A   symmetry.
   178 basis functions,   292 primitive gaussians,   188 cartesian basis functions
    21 alpha electrons       21 beta electrons
       nuclear repulsion energy       172.9604458210 Hartrees.
 NAtoms=   12 NActive=   12 NUniq=   12 SFac= 1.00D+00 NAtFMM=   60 NAOKFM=F Big=F
 Integral buffers will be    131072 words long.
 Raffenetti 1 integral format.
 Two-electron integral symmetry is turned on.
 One-electron integrals computed using PRISM.
 NBasis=   178 RedAO= T EigKep=  1.91D-04  NBF=   178
 NBsUse=   178 1.00D-06 EigRej= -1.00D+00 NBFU=   178
 ExpMin= 2.97D-02 ExpMax= 1.17D+04 ExpMxC= 4.01D+02 IAcc=3 IRadAn=         5 AccDes= 0.00D+00
 Harris functional with IExCor=  205 and IRadAn=       5 diagonalized for initial guess.
 HarFok:  IExCor=  205 AccDes= 0.00D+00 IRadAn=         5 IDoV= 1 UseB2=F ITyADJ=14
 ICtDFT=  3500011 ScaDFX=  1.000000  1.000000  1.000000  1.000000
 FoFCou: FMM=F IPFlag=           0 FMFlag=      100000 FMFlg1=           0
         NFxFlg=           0 DoJE=T BraDBF=F KetDBF=T FulRan=T
         wScrn=  0.000000 ICntrl=       500 IOpCl=  0 I1Cent=   200000004 NGrid=           0
         NMat0=    1 NMatS0=      1 NMatT0=    0 NMatD0=    1 NMtDS0=    0 NMtDT0=    0
 Petite list used in FoFCou.
 Keep R1 ints in memory in canonical form, NReq=135773977.
 Requested convergence on RMS density matrix=1.00D-08 within 128 cycles.
 Requested convergence on MAX density matrix=1.00D-06.
 Requested convergence on             energy=1.00D-06.
 No special actions if energy rises.
 SCF Done:  E(RHF) =  -284.038274465     A.U. after   13 cycles
            NFock= 13  Conv=0.72D-08     -V/T= 2.0022
 ExpMin= 2.97D-02 ExpMax= 1.17D+04 ExpMxC= 4.01D+02 IAcc=3 IRadAn=         5 AccDes= 0.00D+00
 HarFok:  IExCor=  205 AccDes= 0.00D+00 IRadAn=         5 IDoV=-2 UseB2=F ITyADJ=14
 ICtDFT= 12500011 ScaDFX=  1.000000  1.000000  1.000000  1.000000
 Range of M.O.s used for correlation:     6   178
 NBasis=   178 NAE=    21 NBE=    21 NFC=     5 NFV=     0
 NROrb=    173 NOA=    16 NOB=    16 NVA=   157 NVB=   157

 **** Warning!!: The largest alpha MO coefficient is  0.19441172D+02

 Fully direct method using O(ONN) memory.
 JobTyp=1 Pass  1:  I=   6 to  21 NPSUse= 40 ParTrn=T ParDer=T DoDerP=T.
 Spin components of T(2) and E(2):
     alpha-alpha T2 =       0.3531413122D-01 E2=     -0.1125889139D+00
     alpha-beta  T2 =       0.1995214605D+00 E2=     -0.6585578390D+00
     beta-beta   T2 =       0.3531413122D-01 E2=     -0.1125889139D+00
 ANorm=    0.1127009194D+01
 E2 =    -0.8837356668D+00 EUMP2 =    -0.28492201013199D+03
          IDoAtm=111111111111
          Differentiating once with respect to electric field.
                with respect to dipole field.
          Differentiating once with respect to nuclear coordinates.
 Keep R1 ints in memory in canonical form, NReq=135785544.
          There are     1 degrees of freedom in the 1st order CPHF.  IDoFFX=0 NUNeed=     1.
 LinEq1:  Iter=  0 NonCon=     1 RMS=4.75D-03 Max=1.18D-01 NDo=     1
 AX will form     1 AO Fock derivatives at one time.
 LinEq1:  Iter=  1 NonCon=     1 RMS=1.33D-03 Max=2.22D-02 NDo=     1
 LinEq1:  Iter=  2 NonCon=     1 RMS=5.13D-04 Max=1.02D-02 NDo=     1
 LinEq1:  Iter=  3 NonCon=     1 RMS=1.90D-04 Max=4.28D-03 NDo=     1
 LinEq1:  Iter=  4 NonCon=     1 RMS=5.57D-05 Max=4.90D-04 NDo=     1
 LinEq1:  Iter=  5 NonCon=     1 RMS=1.90D-05 Max=2.26D-04 NDo=     1
 LinEq1:  Iter=  6 NonCon=     1 RMS=4.99D-06 Max=5.88D-05 NDo=     1
 LinEq1:  Iter=  7 NonCon=     1 RMS=1.28D-06 Max=1.34D-05 NDo=     1
 LinEq1:  Iter=  8 NonCon=     1 RMS=3.74D-07 Max=5.34D-06 NDo=     1
 LinEq1:  Iter=  9 NonCon=     1 RMS=1.64D-07 Max=1.90D-06 NDo=     1
 LinEq1:  Iter= 10 NonCon=     1 RMS=4.94D-08 Max=4.99D-07 NDo=     1
 LinEq1:  Iter= 11 NonCon=     1 RMS=9.97D-09 Max=9.78D-08 NDo=     1
 LinEq1:  Iter= 12 NonCon=     1 RMS=1.83D-09 Max=3.52D-08 NDo=     1
 LinEq1:  Iter= 13 NonCon=     1 RMS=4.78D-10 Max=1.21D-08 NDo=     1
 LinEq1:  Iter= 14 NonCon=     1 RMS=1.82D-10 Max=3.43D-09 NDo=     1
 LinEq1:  Iter= 15 NonCon=     0 RMS=5.08D-11 Max=6.03D-10 NDo=     1
 Linear equations converged to 1.000D-10 1.000D-09 after    15 iterations.
 End of Minotr F.D. properties file   721 does not exist.
 End of Minotr F.D. properties file   722 does not exist.
 End of Minotr F.D. properties file   788 does not exist.

 **********************************************************************

            Population analysis using the SCF Density.

 **********************************************************************

 Orbital symmetries:
       Occupied  (A) (A) (A) (A) (A) (A) (A) (A) (A) (A) (A) (A)
                 (A) (A) (A) (A) (A) (A) (A) (A) (A)
       Virtual   (A) (A) (A) (A) (A) (A) (A) (A) (A) (A) (A) (A)
                 (A) (A) (A) (A) (A) (A) (A) (A) (A) (A) (A) (A)
                 (A) (A) (A) (A) (A) (A) (A) (A) (A) (A) (A) (A)
                 (A) (A) (A) (A) (A) (A) (A) (A) (A) (A) (A) (A)
                 (A) (A) (A) (A) (A) (A) (A) (A) (A) (A) (A) (A)
                 (A) (A) (A) (A) (A) (A) (A) (A) (A) (A) (A) (A)
                 (A) (A) (A) (A) (A) (A) (A) (A) (A) (A) (A) (A)
                 (A) (A) (A) (A) (A) (A) (A) (A) (A) (A) (A) (A)
                 (A) (A) (A) (A) (A) (A) (A) (A) (A) (A) (A) (A)
                 (A) (A) (A) (A) (A) (A) (A) (A) (A) (A) (A) (A)
                 (A) (A) (A) (A) (A) (A) (A) (A) (A) (A) (A) (A)
                 (A) (A) (A) (A) (A) (A) (A) (A) (A) (A) (A) (A)
                 (A) (A) (A) (A) (A) (A) (A) (A) (A) (A) (A) (A)
                 (A)
 The electronic state is 1-A.
 Alpha  occ. eigenvalues --  -20.61403 -20.52060 -15.58125 -11.34635 -11.26317
 Alpha  occ. eigenvalues --   -1.38964  -1.35831  -1.21643  -0.95097  -0.79156
 Alpha  occ. eigenvalues --   -0.75030  -0.72475  -0.63013  -0.62242  -0.60913
 Alpha  occ. eigenvalues --   -0.57283  -0.54899  -0.53407  -0.51220  -0.41496
 Alpha  occ. eigenvalues --   -0.37732
 Alpha virt. eigenvalues --    0.01764   0.04495   0.04599   0.05337   0.07001
 Alpha virt. eigenvalues --    0.07360   0.08448   0.11334   0.11574   0.14459
 Alpha virt. eigenvalues --    0.15204   0.16410   0.16834   0.17657   0.18265
 Alpha virt. eigenvalues --    0.19436   0.19720   0.21061   0.21394   0.23634
 Alpha virt. eigenvalues --    0.24534   0.25977   0.27159   0.28592   0.29613
 Alpha virt. eigenvalues --    0.30637   0.31184   0.32263   0.33285   0.35136
 Alpha virt. eigenvalues --    0.35930   0.36858   0.37298   0.39924   0.41258
 Alpha virt. eigenvalues --    0.42034   0.43253   0.44507   0.45255   0.45446
 Alpha virt. eigenvalues --    0.48995   0.49824   0.50412   0.52328   0.52719
 Alpha virt. eigenvalues --    0.55180   0.55279   0.56177   0.56613   0.58894
 Alpha virt. eigenvalues --    0.59462   0.61411   0.63398   0.64216   0.64943
 Alpha virt. eigenvalues --    0.65079   0.65850   0.67968   0.68654   0.71379
 Alpha virt. eigenvalues --    0.72757   0.74183   0.76177   0.77834   0.78090
 Alpha virt. eigenvalues --    0.79819   0.82437   0.83888   0.84741   0.88605
 Alpha virt. eigenvalues --    0.90993   0.96316   0.97956   0.99881   1.01585
 Alpha virt. eigenvalues --    1.03219   1.05410   1.10230   1.11432   1.13096
 Alpha virt. eigenvalues --    1.14331   1.18146   1.18400   1.22569   1.25791
 Alpha virt. eigenvalues --    1.26811   1.31029   1.33291   1.35301   1.39015
 Alpha virt. eigenvalues --    1.41888   1.44848   1.46122   1.51665   1.54271
 Alpha virt. eigenvalues --    1.55133   1.59514   1.61706   1.67357   1.70822
 Alpha virt. eigenvalues --    1.74104   1.78118   1.80019   1.85312   1.90113
 Alpha virt. eigenvalues --    1.92911   1.95517   1.97053   1.98693   2.00084
 Alpha virt. eigenvalues --    2.03480   2.06395   2.09112   2.10553   2.12034
 Alpha virt. eigenvalues --    2.14521   2.16857   2.18588   2.24992   2.25461
 Alpha virt. eigenvalues --    2.31702   2.33643   2.37426   2.40790   2.45045
 Alpha virt. eigenvalues --    2.45280   2.47200   2.49638   2.57313   2.60952
 Alpha virt. eigenvalues --    2.61719   2.68061   2.75904   2.76777   2.81419
 Alpha virt. eigenvalues --    2.82927   2.87095   2.95590   2.97885   2.99651
 Alpha virt. eigenvalues --    3.00994   3.06799   3.13798   3.17467   3.31571
 Alpha virt. eigenvalues --    3.40397   3.60480   3.67228   3.75027   3.76756
 Alpha virt. eigenvalues --    3.81721   3.84589   3.87485   4.04168   4.06595
 Alpha virt. eigenvalues --    4.15413   4.29067
          Condensed to atoms (all electrons):
               1          2          3          4          5          6
     1  C    4.319802   0.358405   0.335136   0.003072   0.277715  -0.001184
     2  O    0.358405   8.512362  -0.070205  -0.001052  -0.094725  -0.000102
     3  N    0.335136  -0.070205   6.775969  -0.061601  -0.042531   0.003141
     4  O    0.003072  -0.001052  -0.061601   7.782386  -0.000173   0.352294
     5  H    0.277715  -0.094725  -0.042531  -0.000173   0.948530  -0.000333
     6  H   -0.001184  -0.000102   0.003141   0.352294  -0.000333   0.500762
     7  H   -0.001144  -0.000082   0.003194   0.352084  -0.000334  -0.042903
     8  H   -0.147797  -0.008981   0.309980  -0.025309   0.026173   0.003568
     9  C   -0.036591   0.017415   0.201803   0.013401  -0.003996  -0.000548
    10  H    0.024452   0.005949  -0.024648   0.000439   0.001692  -0.000065
    11  H    0.040662   0.002526  -0.057916  -0.000042   0.003675   0.000035
    12  H   -0.041007   0.002740  -0.084047   0.000948  -0.002364   0.000208
               7          8          9         10         11         12
     1  C   -0.001144  -0.147797  -0.036591   0.024452   0.040662  -0.041007
     2  O   -0.000082  -0.008981   0.017415   0.005949   0.002526   0.002740
     3  N    0.003194   0.309980   0.201803  -0.024648  -0.057916  -0.084047
     4  O    0.352084  -0.025309   0.013401   0.000439  -0.000042   0.000948
     5  H   -0.000334   0.026173  -0.003996   0.001692   0.003675  -0.002364
     6  H   -0.042903   0.003568  -0.000548  -0.000065   0.000035   0.000208
     7  H    0.500120   0.002909  -0.000611  -0.000065  -0.000032   0.000438
     8  H    0.002909   1.033697  -0.132584  -0.010257  -0.005218   0.030394
     9  C   -0.000611  -0.132584   4.100396   0.353496   0.366921   0.454232
    10  H   -0.000065  -0.010257   0.353496   0.912168  -0.062261  -0.139538
    11  H   -0.000032  -0.005218   0.366921  -0.062261   0.950439  -0.165510
    12  H    0.000438   0.030394   0.454232  -0.139538  -0.165510   1.096686
 Mulliken charges:
               1
     1  C    0.868477
     2  O   -0.724250
     3  N   -0.288275
     4  O   -0.416448
     5  H   -0.113328
     6  H    0.185127
     7  H    0.186427
     8  H   -0.076576
     9  C    0.666666
    10  H   -0.061362
    11  H   -0.073280
    12  H   -0.153180
 Sum of Mulliken charges =  -0.00000
 Mulliken charges with hydrogens summed into heavy atoms:
               1
     1  C    0.755149
     2  O   -0.724250
     3  N   -0.364850
     4  O   -0.044893
     9  C    0.378844
 Electronic spatial extent (au):  <R**2>=            717.1113
 Charge=             -0.0000 electrons
 Dipole moment (field-independent basis, Debye):
    X=              6.7263    Y=              0.1891    Z=             -0.0055  Tot=              6.7290
 Quadrupole moment (field-independent basis, Debye-Ang):
   XX=            -29.5803   YY=            -29.1172   ZZ=            -29.5011
   XY=             -8.7502   XZ=              0.0885   YZ=             -0.0672
 Traceless Quadrupole moment (field-independent basis, Debye-Ang):
   XX=             -0.1807   YY=              0.2823   ZZ=             -0.1016
   XY=             -8.7502   XZ=              0.0885   YZ=             -0.0672
 Octapole moment (field-independent basis, Debye-Ang**2):
  XXX=             91.1277  YYY=             -2.0376  ZZZ=              0.2984  XYY=              7.8457
  XXY=             -7.1007  XXZ=             -0.2195  XZZ=             11.0248  YZZ=             -2.3384
  YYZ=             -0.3136  XYZ=              0.1338
 Hexadecapole moment (field-independent basis, Debye-Ang**3):
 XXXX=           -454.4766 YYYY=           -219.4276 ZZZZ=            -37.6010 XXXY=            -91.8150
 XXXZ=              1.1855 YYYX=             -6.2881 YYYZ=             -0.8103 ZZZX=             -0.1005
 ZZZY=              0.4364 XXYY=           -139.5045 XXZZ=            -76.8383 YYZZ=            -43.5994
 XXYZ=             -0.3458 YYXZ=             -0.0269 ZZXY=             -7.5529
 N-N= 1.729604458210D+02 E-N=-1.014743708185D+03  KE= 2.834051160085D+02
 Calling FoFJK, ICntrl=  10002127 FMM=F ISym2X=0 I1Cent= 0 IOpClX= 0 NMat=1 NMatS=1 NMatT=0.
 ***** Axes restored to original set *****
 -------------------------------------------------------------------
 Center     Atomic                   Forces (Hartrees/Bohr)
 Number     Number              X              Y              Z
 -------------------------------------------------------------------
      1        6          -0.002023454    0.000770919   -0.000057287
      2        8          -0.000078396    0.002850316   -0.000024790
      3        7          -0.003445690   -0.002217920    0.004225497
      4        8           0.000028270    0.000141161    0.000007536
      5        1          -0.000214830   -0.000288940   -0.000078573
      6        1           0.000036437   -0.000011973    0.000027010
      7        1           0.000017184   -0.000008597   -0.000031931
      8        1           0.000208997   -0.000226811    0.000132616
      9        6           0.001863682   -0.001029688   -0.002375652
     10        1           0.003603555    0.004810288   -0.000485337
     11        1           0.000313453   -0.000985704   -0.001087915
     12        1          -0.000309206   -0.003803051   -0.000251175
 -------------------------------------------------------------------
 Cartesian Forces:  Max     0.004810288 RMS     0.001757171

 GradGradGradGradGradGradGradGradGradGradGradGradGradGradGradGradGradGrad
 Berny optimization.
 FormGI is forming the generalized inverse of G from B-inverse, IUseBI=4.
 Internal  Forces:  Max     0.008740622 RMS     0.002297691
 Search for a local minimum.
 Step number   1 out of a maximum of   52
 All quantities printed in internal units (Hartrees-Bohrs-Radians)
 Mixed Optimization -- RFO/linear search
 Second derivative matrix not updated -- first step.
 ITU=  0
     Eigenvalues ---    0.00230   0.00230   0.00230   0.00950   0.01188
     Eigenvalues ---    0.01282   0.02193   0.02193   0.04232   0.07434
     Eigenvalues ---    0.07697   0.16000   0.16000   0.16000   0.16000
     Eigenvalues ---    0.16000   0.16000   0.16000   0.22000   0.22000
     Eigenvalues ---    0.32502   0.33596   0.33603   0.33975   0.37461
     Eigenvalues ---    0.44859   0.52523   0.54185   0.54187   0.88877
 RFO step:  Lambda=-1.24031617D-03 EMin= 2.30000000D-03
 Linear search not attempted -- first point.
 Iteration  1 RMS(Cart)=  0.06647685 RMS(Int)=  0.00161513
 Iteration  2 RMS(Cart)=  0.00253908 RMS(Int)=  0.00015362
 Iteration  3 RMS(Cart)=  0.00000132 RMS(Int)=  0.00015362
 Iteration  4 RMS(Cart)=  0.00000000 RMS(Int)=  0.00015362
 Variable       Old X    -DE/DX   Delta X   Delta X   Delta X     New X
                                 (Linear)    (Quad)   (Total)
    R1        2.33455  -0.00002   0.00000  -0.00002  -0.00002   2.33453
    R2        2.57402  -0.00406   0.00000  -0.00770  -0.00770   2.56632
    R3        2.09934   0.00036   0.00000   0.00110   0.00110   2.10044
    R4        1.92139  -0.00027   0.00000  -0.00060  -0.00060   1.92079
    R5        2.75156   0.00100   0.00000   0.00266   0.00266   2.75422
    R6        1.82564   0.00001   0.00000   0.00001   0.00001   1.82565
    R7        1.82562   0.00002   0.00000   0.00004   0.00004   1.82565
    R8        3.79941  -0.00010   0.00000  -0.00230  -0.00230   3.79711
    R9        2.07373   0.00284   0.00000   0.00833   0.00833   2.08206
   R10        2.08006  -0.00073   0.00000  -0.00215  -0.00215   2.07791
   R11        2.08017  -0.00228   0.00000  -0.00677  -0.00677   2.07340
    A1        2.19430  -0.00441   0.00000  -0.01995  -0.01995   2.17435
    A2        2.13445   0.00224   0.00000   0.01020   0.01020   2.14465
    A3        1.95443   0.00217   0.00000   0.00975   0.00975   1.96418
    A4        2.05332   0.00234   0.00000   0.01064   0.01064   2.06396
    A5        2.13480  -0.00463   0.00000  -0.02093  -0.02093   2.11387
    A6        2.09506   0.00229   0.00000   0.01028   0.01028   2.10534
    A7        1.82310   0.00002   0.00000  -0.00159  -0.00164   1.82145
    A8        2.17026  -0.00006   0.00000  -0.00192  -0.00197   2.16829
    A9        2.16914  -0.00004   0.00000  -0.00176  -0.00181   2.16733
   A10        1.89102   0.00874   0.00000   0.05882   0.05900   1.95001
   A11        1.93579  -0.00162   0.00000  -0.01304  -0.01332   1.92247
   A12        1.92415  -0.00553   0.00000  -0.03601  -0.03609   1.88807
   A13        1.90547  -0.00314   0.00000  -0.01624  -0.01627   1.88920
   A14        1.90490  -0.00063   0.00000   0.00204   0.00242   1.90732
   A15        1.90221   0.00218   0.00000   0.00480   0.00426   1.90646
   A16        3.14146   0.00036   0.00000   0.08748   0.08747   3.22893
   A17        3.14114  -0.00004   0.00000  -0.00713  -0.00714   3.13400
    D1        3.13929  -0.00004   0.00000  -0.00266  -0.00266   3.13663
    D2        0.00123  -0.00000   0.00000   0.00057   0.00057   0.00180
    D3       -0.00270   0.00006   0.00000   0.00168   0.00169  -0.00102
    D4       -3.14076   0.00010   0.00000   0.00492   0.00491  -3.13585
    D5        1.26987   0.00000   0.00000   0.01150   0.01151   1.28138
    D6       -1.28316   0.00002   0.00000  -0.01456  -0.01456  -1.29772
    D7       -1.87487  -0.00002   0.00000   0.01305   0.01306  -1.86182
    D8        1.85529  -0.00001   0.00000  -0.01300  -0.01302   1.84227
    D9        1.17757  -0.00034   0.00000  -0.01412  -0.01396   1.16361
   D10       -0.91357  -0.00102   0.00000  -0.02342  -0.02320  -0.93677
   D11       -3.02210   0.00098   0.00000   0.00306   0.00269  -3.01941
   D12       -1.96041  -0.00030   0.00000  -0.01081  -0.01065  -1.97106
   D13        2.23164  -0.00098   0.00000  -0.02011  -0.01990   2.21175
   D14        0.12311   0.00102   0.00000   0.00637   0.00599   0.12910
         Item               Value     Threshold  Converged?
 Maximum Force            0.008741     0.000450     NO 
 RMS     Force            0.002298     0.000300     NO 
 Maximum Displacement     0.166548     0.001800     NO 
 RMS     Displacement     0.066528     0.001200     NO 
 Predicted change in Energy=-6.277354D-04
 GradGradGradGradGradGradGradGradGradGradGradGradGradGradGradGradGradGrad

                          Input orientation:                          
 ---------------------------------------------------------------------
 Center     Atomic      Atomic             Coordinates (Angstroms)
 Number     Number       Type             X           Y           Z
 ---------------------------------------------------------------------
      1          6           0        0.984168   -0.869597    0.002160
      2          8           0        2.215578   -0.770655    0.000183
      3          7           0        0.126307    0.183168   -0.002563
      4          8           0       -2.870360   -0.216386    0.003457
      5          1           0        0.457464   -1.848384    0.004048
      6          1           0       -3.383239   -0.509630    0.767848
      7          1           0       -3.389192   -0.505569   -0.758462
      8          1           0       -0.871727   -0.009376   -0.004793
      9          6           0        0.617826    1.555221   -0.012846
     10          1           0        1.134551    1.796306   -0.955601
     11          1           0        1.323389    1.711026    0.816000
     12          1           0       -0.240462    2.227234    0.111987
 ---------------------------------------------------------------------
                    Distance matrix (angstroms):
                    1          2          3          4          5
     1  C    0.000000
     2  O    1.235380   0.000000
     3  N    1.358036   2.296702   0.000000
     4  O    3.909485   5.116052   3.023192   0.000000
     5  H    1.111505   2.062154   2.058376   3.706458   0.000000
     6  H    4.448607   5.657225   3.659292   0.966091   4.138437
     7  H    4.453913   5.662089   3.661212   0.966093   4.145038
     8  H    2.045575   3.179784   1.016440   2.009342   2.269092
     9  C    2.452381   2.821822   1.457473   3.912327   3.407422
    10  H    2.836716   2.944729   2.127687   4.583670   3.829247
    11  H    2.727090   2.760488   2.106514   4.686435   3.752131
    12  H    3.331988   3.877108   2.079867   3.591577   4.136353
                    6          7          8          9         10
     6  H    0.000000
     7  H    1.526328   0.000000
     8  H    2.674869   2.674295   0.000000
     9  C    4.569641   4.567165   2.160277   0.000000
    10  H    5.357056   5.079541   2.861761   1.101777   0.000000
    11  H    5.204420   5.440647   2.907236   1.099581   1.783676
    12  H    4.218724   4.259155   2.326920   1.097198   1.793349
                   11         12
    11  H    0.000000
    12  H    1.791015   0.000000
 Stoichiometry    C2H7NO2
 Framework group  C1[X(C2H7NO2)]
 Deg. of freedom    30
 Full point group                 C1      NOp   1
 Largest Abelian subgroup         C1      NOp   1
 Largest concise Abelian subgroup C1      NOp   1
                         Standard orientation:                         
 ---------------------------------------------------------------------
 Center     Atomic      Atomic             Coordinates (Angstroms)
 Number     Number       Type             X           Y           Z
 ---------------------------------------------------------------------
      1          6           0       -0.990517   -0.863265    0.000370
      2          8           0       -2.220284   -0.745629    0.000165
      3          7           0       -0.116770    0.176363   -0.000391
      4          8           0        2.873487   -0.268670   -0.000111
      5          1           0       -0.478740   -1.849928    0.005260
      6          1           0        3.382751   -0.574448   -0.762004
      7          1           0        3.386971   -0.560921    0.764258
      8          1           0        0.878221   -0.031293    0.004309
      9          6           0       -0.587403    1.555758    0.000703
     10          1           0       -1.101514    1.810558    0.941277
     11          1           0       -1.289544    1.717064   -0.829995
     12          1           0        0.281140    2.213868   -0.127233
 ---------------------------------------------------------------------
 Rotational constants (GHZ):           7.6276504           1.9682553           1.5919140
 Standard basis: Aug-CC-pVDZ (5D, 7F)
 There are   188 symmetry adapted cartesian basis functions of A   symmetry.
 There are   178 symmetry adapted basis functions of A   symmetry.
   178 basis functions,   292 primitive gaussians,   188 cartesian basis functions
    21 alpha electrons       21 beta electrons
       nuclear repulsion energy       173.2683289078 Hartrees.
 NAtoms=   12 NActive=   12 NUniq=   12 SFac= 1.00D+00 NAtFMM=   60 NAOKFM=F Big=F
 Integral buffers will be    131072 words long.
 Raffenetti 1 integral format.
 Two-electron integral symmetry is turned on.
 One-electron integrals computed using PRISM.
 NBasis=   178 RedAO= T EigKep=  1.87D-04  NBF=   178
 NBsUse=   178 1.00D-06 EigRej= -1.00D+00 NBFU=   178
 Initial guess from the checkpoint file:  "/scr/Gau-17111.chk"
 B after Tr=    -0.000000   -0.000000   -0.000000
         Rot=    0.999960    0.001516    0.000311    0.008822 Ang=   1.03 deg.
 ExpMin= 2.97D-02 ExpMax= 1.17D+04 ExpMxC= 4.01D+02 IAcc=3 IRadAn=         5 AccDes= 0.00D+00
 Harris functional with IExCor=  205 and IRadAn=       5 diagonalized for initial guess.
 HarFok:  IExCor=  205 AccDes= 0.00D+00 IRadAn=         5 IDoV= 1 UseB2=F ITyADJ=14
 ICtDFT=  3500011 ScaDFX=  1.000000  1.000000  1.000000  1.000000
 FoFCou: FMM=F IPFlag=           0 FMFlag=      100000 FMFlg1=           0
         NFxFlg=           0 DoJE=T BraDBF=F KetDBF=T FulRan=T
         wScrn=  0.000000 ICntrl=       500 IOpCl=  0 I1Cent=   200000004 NGrid=           0
         NMat0=    1 NMatS0=      1 NMatT0=    0 NMatD0=    1 NMtDS0=    0 NMtDT0=    0
 Petite list used in FoFCou.
 Keep R1 ints in memory in canonical form, NReq=135774390.
 Requested convergence on RMS density matrix=1.00D-08 within 128 cycles.
 Requested convergence on MAX density matrix=1.00D-06.
 Requested convergence on             energy=1.00D-06.
 No special actions if energy rises.
 SCF Done:  E(RHF) =  -284.038881104     A.U. after   12 cycles
            NFock= 12  Conv=0.43D-08     -V/T= 2.0022
 ExpMin= 2.97D-02 ExpMax= 1.17D+04 ExpMxC= 4.01D+02 IAcc=3 IRadAn=         5 AccDes= 0.00D+00
 HarFok:  IExCor=  205 AccDes= 0.00D+00 IRadAn=         5 IDoV=-2 UseB2=F ITyADJ=14
 ICtDFT= 12500011 ScaDFX=  1.000000  1.000000  1.000000  1.000000
 Range of M.O.s used for correlation:     6   178
 NBasis=   178 NAE=    21 NBE=    21 NFC=     5 NFV=     0
 NROrb=    173 NOA=    16 NOB=    16 NVA=   157 NVB=   157

 **** Warning!!: The largest alpha MO coefficient is  0.21901093D+02

 Fully direct method using O(ONN) memory.
 JobTyp=1 Pass  1:  I=   6 to  21 NPSUse= 40 ParTrn=T ParDer=T DoDerP=T.
 Spin components of T(2) and E(2):
     alpha-alpha T2 =       0.3530307946D-01 E2=     -0.1126076153D+00
     alpha-beta  T2 =       0.1993861886D+00 E2=     -0.6584557833D+00
     beta-beta   T2 =       0.3530307946D-01 E2=     -0.1126076153D+00
 ANorm=    0.1126939372D+01
 E2 =    -0.8836710139D+00 EUMP2 =    -0.28492255211822D+03
          IDoAtm=111111111111
          Differentiating once with respect to electric field.
                with respect to dipole field.
          Differentiating once with respect to nuclear coordinates.
 Keep R1 ints in memory in canonical form, NReq=135785924.
          There are     1 degrees of freedom in the 1st order CPHF.  IDoFFX=0 NUNeed=     1.
 LinEq1:  Iter=  0 NonCon=     1 RMS=4.74D-03 Max=1.17D-01 NDo=     1
 AX will form     1 AO Fock derivatives at one time.
 LinEq1:  Iter=  1 NonCon=     1 RMS=1.33D-03 Max=2.19D-02 NDo=     1
 LinEq1:  Iter=  2 NonCon=     1 RMS=5.11D-04 Max=1.02D-02 NDo=     1
 LinEq1:  Iter=  3 NonCon=     1 RMS=1.88D-04 Max=4.20D-03 NDo=     1
 LinEq1:  Iter=  4 NonCon=     1 RMS=5.55D-05 Max=4.57D-04 NDo=     1
 LinEq1:  Iter=  5 NonCon=     1 RMS=1.87D-05 Max=2.31D-04 NDo=     1
 LinEq1:  Iter=  6 NonCon=     1 RMS=4.93D-06 Max=5.12D-05 NDo=     1
 LinEq1:  Iter=  7 NonCon=     1 RMS=1.27D-06 Max=1.09D-05 NDo=     1
 LinEq1:  Iter=  8 NonCon=     1 RMS=3.71D-07 Max=4.77D-06 NDo=     1
 LinEq1:  Iter=  9 NonCon=     1 RMS=1.63D-07 Max=2.56D-06 NDo=     1
 LinEq1:  Iter= 10 NonCon=     1 RMS=5.10D-08 Max=7.77D-07 NDo=     1
 LinEq1:  Iter= 11 NonCon=     1 RMS=1.06D-08 Max=1.45D-07 NDo=     1
 LinEq1:  Iter= 12 NonCon=     1 RMS=2.04D-09 Max=3.91D-08 NDo=     1
 LinEq1:  Iter= 13 NonCon=     1 RMS=4.97D-10 Max=9.44D-09 NDo=     1
 LinEq1:  Iter= 14 NonCon=     1 RMS=1.50D-10 Max=1.86D-09 NDo=     1
 LinEq1:  Iter= 15 NonCon=     0 RMS=4.70D-11 Max=4.40D-10 NDo=     1
 Linear equations converged to 1.000D-10 1.000D-09 after    15 iterations.
 End of Minotr F.D. properties file   721 does not exist.
 End of Minotr F.D. properties file   722 does not exist.
 End of Minotr F.D. properties file   788 does not exist.
 Calling FoFJK, ICntrl=  10002127 FMM=F ISym2X=0 I1Cent= 0 IOpClX= 0 NMat=1 NMatS=1 NMatT=0.
 ***** Axes restored to original set *****
 -------------------------------------------------------------------
 Center     Atomic                   Forces (Hartrees/Bohr)
 Number     Number              X              Y              Z
 -------------------------------------------------------------------
      1        6          -0.000264885    0.000154173   -0.000740568
      2        8           0.001032345   -0.000186687    0.000079452
      3        7          -0.000399263   -0.000421164   -0.000462871
      4        8          -0.000047696   -0.000032939   -0.000014630
      5        1           0.000528491   -0.000094482    0.000391161
      6        1           0.000083440    0.000020943    0.000155819
      7        1           0.000070123    0.000032817   -0.000147398
      8        1          -0.000227686    0.001195011   -0.000229275
      9        6          -0.000930309   -0.000059745    0.001018574
     10        1          -0.000130191   -0.001198194    0.000289825
     11        1           0.000628244   -0.000015198   -0.000125707
     12        1          -0.000342612    0.000605466   -0.000214381
 -------------------------------------------------------------------
 Cartesian Forces:  Max     0.001198194 RMS     0.000492183

 GradGradGradGradGradGradGradGradGradGradGradGradGradGradGradGradGradGrad
 Berny optimization.
 Using GEDIIS/GDIIS optimizer.
 FormGI is forming the generalized inverse of G from B-inverse, IUseBI=4.
 Internal  Forces:  Max     0.001882020 RMS     0.000590182
 Search for a local minimum.
 Step number   2 out of a maximum of   52
 All quantities printed in internal units (Hartrees-Bohrs-Radians)
 Mixed Optimization -- En-DIIS/RFO-DIIS
 Update second derivatives using D2CorX and points    1    2
 DE= -5.42D-04 DEPred=-6.28D-04 R= 8.63D-01
 TightC=F SS=  1.41D+00  RLast= 1.28D-01 DXNew= 5.0454D-01 3.8433D-01
 Trust test= 8.63D-01 RLast= 1.28D-01 DXMaxT set to 3.84D-01
 ITU=  1  0
 Use linear search instead of GDIIS.
     Eigenvalues ---    0.00230   0.00230   0.00233   0.00948   0.01182
     Eigenvalues ---    0.01303   0.02193   0.02199   0.04230   0.07343
     Eigenvalues ---    0.07966   0.14939   0.16000   0.16000   0.16000
     Eigenvalues ---    0.16000   0.16000   0.18936   0.20612   0.22389
     Eigenvalues ---    0.32510   0.33600   0.33727   0.34293   0.37723
     Eigenvalues ---    0.44856   0.53028   0.54186   0.54189   0.88977
 RFO step:  Lambda=-6.33975981D-05 EMin= 2.29995749D-03
 Quartic linear search produced a step of -0.11164.
 Iteration  1 RMS(Cart)=  0.01365100 RMS(Int)=  0.00007133
 Iteration  2 RMS(Cart)=  0.00009529 RMS(Int)=  0.00002088
 Iteration  3 RMS(Cart)=  0.00000000 RMS(Int)=  0.00002088
 Variable       Old X    -DE/DX   Delta X   Delta X   Delta X     New X
                                 (Linear)    (Quad)   (Total)
    R1        2.33453   0.00101   0.00000   0.00101   0.00101   2.33554
    R2        2.56632   0.00092   0.00086   0.00031   0.00117   2.56749
    R3        2.10044  -0.00017  -0.00012  -0.00028  -0.00040   2.10004
    R4        1.92079  -0.00011   0.00007  -0.00032  -0.00025   1.92054
    R5        2.75422  -0.00090  -0.00030  -0.00170  -0.00200   2.75223
    R6        1.82565   0.00007  -0.00000   0.00012   0.00012   1.82577
    R7        1.82565   0.00007  -0.00000   0.00012   0.00011   1.82577
    R8        3.79711  -0.00011   0.00026  -0.00263  -0.00237   3.79474
    R9        2.08206  -0.00057  -0.00093  -0.00015  -0.00108   2.08097
   R10        2.07791   0.00031   0.00024   0.00046   0.00070   2.07861
   R11        2.07340   0.00061   0.00076   0.00053   0.00129   2.07469
    A1        2.17435   0.00006   0.00223  -0.00295  -0.00078   2.17357
    A2        2.14465  -0.00057  -0.00114  -0.00144  -0.00262   2.14203
    A3        1.96418   0.00051  -0.00109   0.00445   0.00332   1.96750
    A4        2.06396   0.00172  -0.00119   0.01043   0.00924   2.07320
    A5        2.11387  -0.00110   0.00234  -0.00781  -0.00548   2.10839
    A6        2.10534  -0.00062  -0.00115  -0.00264  -0.00379   2.10155
    A7        1.82145   0.00019   0.00018   0.00097   0.00116   1.82261
    A8        2.16829  -0.00011   0.00022  -0.00077  -0.00055   2.16774
    A9        2.16733  -0.00009   0.00020  -0.00059  -0.00039   2.16695
   A10        1.95001  -0.00188  -0.00659  -0.00278  -0.00939   1.94062
   A11        1.92247   0.00036   0.00149  -0.00003   0.00147   1.92394
   A12        1.88807   0.00086   0.00403   0.00063   0.00466   1.89273
   A13        1.88920   0.00015   0.00182  -0.00495  -0.00315   1.88604
   A14        1.90732   0.00039  -0.00027   0.00219   0.00188   1.90920
   A15        1.90646   0.00015  -0.00048   0.00520   0.00476   1.91123
   A16        3.22893  -0.00000  -0.00976   0.01929   0.00953   3.23846
   A17        3.13400  -0.00003   0.00080  -0.00417  -0.00341   3.13060
    D1        3.13663   0.00005   0.00030   0.00067   0.00097   3.13760
    D2        0.00180   0.00011  -0.00006   0.00526   0.00519   0.00700
    D3       -0.00102  -0.00041  -0.00019  -0.01706  -0.01725  -0.01827
    D4       -3.13585  -0.00035  -0.00055  -0.01248  -0.01303   3.13431
    D5        1.28138   0.00003  -0.00129   0.00372   0.00245   1.28384
    D6       -1.29772   0.00001   0.00163  -0.00432  -0.00267  -1.30039
    D7       -1.86182  -0.00002  -0.00146   0.00145  -0.00003  -1.86185
    D8        1.84227  -0.00004   0.00145  -0.00659  -0.00516   1.83711
    D9        1.16361  -0.00028   0.00156  -0.00989  -0.00833   1.15529
   D10       -0.93677   0.00052   0.00259  -0.00180   0.00078  -0.93599
   D11       -3.01941  -0.00039  -0.00030  -0.00847  -0.00873  -3.02814
   D12       -1.97106  -0.00024   0.00119  -0.00525  -0.00408  -1.97514
   D13        2.21175   0.00057   0.00222   0.00285   0.00503   2.21678
   D14        0.12910  -0.00034  -0.00067  -0.00383  -0.00449   0.12462
         Item               Value     Threshold  Converged?
 Maximum Force            0.001882     0.000450     NO 
 RMS     Force            0.000590     0.000300     NO 
 Maximum Displacement     0.043307     0.001800     NO 
 RMS     Displacement     0.013677     0.001200     NO 
 Predicted change in Energy=-4.038381D-05
 GradGradGradGradGradGradGradGradGradGradGradGradGradGradGradGradGradGrad

                          Input orientation:                          
 ---------------------------------------------------------------------
 Center     Atomic      Atomic             Coordinates (Angstroms)
 Number     Number       Type             X           Y           Z
 ---------------------------------------------------------------------
      1          6           0        0.993728   -0.868946   -0.003289
      2          8           0        2.224523   -0.756552   -0.002940
      3          7           0        0.124875    0.175582   -0.002486
      4          8           0       -2.871967   -0.207230    0.003551
      5          1           0        0.480382   -1.854473    0.010322
      6          1           0       -3.385998   -0.499411    0.767655
      7          1           0       -3.394068   -0.487910   -0.759392
      8          1           0       -0.872860   -0.017787   -0.006422
      9          6           0        0.609674    1.548924   -0.009860
     10          1           0        1.128114    1.782959   -0.952779
     11          1           0        1.317742    1.706836    0.816941
     12          1           0       -0.249843    2.221366    0.110116
 ---------------------------------------------------------------------
                    Distance matrix (angstroms):
                    1          2          3          4          5
     1  C    0.000000
     2  O    1.235916   0.000000
     3  N    1.358656   2.297258   0.000000
     4  O    3.921927   5.126012   3.021199   0.000000
     5  H    1.111293   2.060979   2.060988   3.735197   0.000000
     6  H    4.462388   5.669028   3.657180   0.966154   4.166370
     7  H    4.468740   5.675645   3.660067   0.966153   4.179870
     8  H    2.051495   3.184268   1.016308   2.008088   2.281438
     9  C    2.448190   2.814783   1.456417   3.899497   3.405911
    10  H    2.819963   2.924623   2.119718   4.569033   3.818119
    11  H    2.722575   2.750043   2.106924   4.677490   3.746295
    12  H    3.333071   3.873405   2.082865   3.575607   4.141938
                    6          7          8          9         10
     6  H    0.000000
     7  H    1.527112   0.000000
     8  H    2.673391   2.672914   0.000000
     9  C    4.556928   4.554167   2.156965   0.000000
    10  H    5.342875   5.064028   2.853450   1.101204   0.000000
    11  H    5.195683   5.431657   2.907058   1.099953   1.781478
    12  H    4.203624   4.240563   2.327131   1.097881   1.794635
                   11         12
    11  H    0.000000
    12  H    1.794900   0.000000
 Stoichiometry    C2H7NO2
 Framework group  C1[X(C2H7NO2)]
 Deg. of freedom    30
 Full point group                 C1      NOp   1
 Largest Abelian subgroup         C1      NOp   1
 Largest concise Abelian subgroup C1      NOp   1
                         Standard orientation:                         
 ---------------------------------------------------------------------
 Center     Atomic      Atomic             Coordinates (Angstroms)
 Number     Number       Type             X           Y           Z
 ---------------------------------------------------------------------
      1          6           0       -1.001813   -0.861233    0.002970
      2          8           0       -2.230309   -0.726046    0.000022
      3          7           0       -0.113739    0.166997   -0.000938
      4          8           0        2.875494   -0.271324   -0.000164
      5          1           0       -0.506809   -1.856156   -0.005430
      6          1           0        3.385263   -0.576363   -0.762096
      7          1           0        3.391057   -0.558253    0.764897
      8          1           0        0.880231   -0.044814    0.005556
      9          6           0       -0.572999    1.549108   -0.000431
     10          1           0       -1.088546    1.796886    0.940562
     11          1           0       -1.276669    1.716456   -0.829129
     12          1           0        0.299034    2.204965   -0.121891
 ---------------------------------------------------------------------
 Rotational constants (GHZ):           7.7244072           1.9608780           1.5912029
 Standard basis: Aug-CC-pVDZ (5D, 7F)
 There are   188 symmetry adapted cartesian basis functions of A   symmetry.
 There are   178 symmetry adapted basis functions of A   symmetry.
   178 basis functions,   292 primitive gaussians,   188 cartesian basis functions
    21 alpha electrons       21 beta electrons
       nuclear repulsion energy       173.3117338948 Hartrees.
 NAtoms=   12 NActive=   12 NUniq=   12 SFac= 1.00D+00 NAtFMM=   60 NAOKFM=F Big=F
 Integral buffers will be    131072 words long.
 Raffenetti 1 integral format.
 Two-electron integral symmetry is turned on.
 One-electron integrals computed using PRISM.
 NBasis=   178 RedAO= T EigKep=  1.86D-04  NBF=   178
 NBsUse=   178 1.00D-06 EigRej= -1.00D+00 NBFU=   178
 Initial guess from the checkpoint file:  "/scr/Gau-17111.chk"
 B after Tr=     0.000000    0.000000   -0.000000
         Rot=    0.999998   -0.000185   -0.000003    0.002136 Ang=  -0.25 deg.
 ExpMin= 2.97D-02 ExpMax= 1.17D+04 ExpMxC= 4.01D+02 IAcc=3 IRadAn=         5 AccDes= 0.00D+00
 Harris functional with IExCor=  205 and IRadAn=       5 diagonalized for initial guess.
 HarFok:  IExCor=  205 AccDes= 0.00D+00 IRadAn=         5 IDoV= 1 UseB2=F ITyADJ=14
 ICtDFT=  3500011 ScaDFX=  1.000000  1.000000  1.000000  1.000000
 FoFCou: FMM=F IPFlag=           0 FMFlag=      100000 FMFlg1=           0
         NFxFlg=           0 DoJE=T BraDBF=F KetDBF=T FulRan=T
         wScrn=  0.000000 ICntrl=       500 IOpCl=  0 I1Cent=   200000004 NGrid=           0
         NMat0=    1 NMatS0=      1 NMatT0=    0 NMatD0=    1 NMtDS0=    0 NMtDT0=    0
 Petite list used in FoFCou.
 Keep R1 ints in memory in canonical form, NReq=135774331.
 Requested convergence on RMS density matrix=1.00D-08 within 128 cycles.
 Requested convergence on MAX density matrix=1.00D-06.
 Requested convergence on             energy=1.00D-06.
 No special actions if energy rises.
 SCF Done:  E(RHF) =  -284.038816909     A.U. after   11 cycles
            NFock= 11  Conv=0.19D-08     -V/T= 2.0022
 ExpMin= 2.97D-02 ExpMax= 1.17D+04 ExpMxC= 4.01D+02 IAcc=3 IRadAn=         5 AccDes= 0.00D+00
 HarFok:  IExCor=  205 AccDes= 0.00D+00 IRadAn=         5 IDoV=-2 UseB2=F ITyADJ=14
 ICtDFT= 12500011 ScaDFX=  1.000000  1.000000  1.000000  1.000000
 Range of M.O.s used for correlation:     6   178
 NBasis=   178 NAE=    21 NBE=    21 NFC=     5 NFV=     0
 NROrb=    173 NOA=    16 NOB=    16 NVA=   157 NVB=   157

 **** Warning!!: The largest alpha MO coefficient is  0.22070866D+02

 Fully direct method using O(ONN) memory.
 JobTyp=1 Pass  1:  I=   6 to  21 NPSUse= 40 ParTrn=T ParDer=T DoDerP=T.
 Spin components of T(2) and E(2):
     alpha-alpha T2 =       0.3531376898D-01 E2=     -0.1126279392D+00
     alpha-beta  T2 =       0.1994258311D+00 E2=     -0.6585195654D+00
     beta-beta   T2 =       0.3531376898D-01 E2=     -0.1126279392D+00
 ANorm=    0.1126966445D+01
 E2 =    -0.8837754438D+00 EUMP2 =    -0.28492259235244D+03
          IDoAtm=111111111111
          Differentiating once with respect to electric field.
                with respect to dipole field.
          Differentiating once with respect to nuclear coordinates.
 Keep R1 ints in memory in canonical form, NReq=135786042.
          There are     1 degrees of freedom in the 1st order CPHF.  IDoFFX=0 NUNeed=     1.
 LinEq1:  Iter=  0 NonCon=     1 RMS=4.74D-03 Max=1.17D-01 NDo=     1
 AX will form     1 AO Fock derivatives at one time.
 LinEq1:  Iter=  1 NonCon=     1 RMS=1.33D-03 Max=2.20D-02 NDo=     1
 LinEq1:  Iter=  2 NonCon=     1 RMS=5.12D-04 Max=1.03D-02 NDo=     1
 LinEq1:  Iter=  3 NonCon=     1 RMS=1.89D-04 Max=4.22D-03 NDo=     1
 LinEq1:  Iter=  4 NonCon=     1 RMS=5.57D-05 Max=4.79D-04 NDo=     1
 LinEq1:  Iter=  5 NonCon=     1 RMS=1.87D-05 Max=2.30D-04 NDo=     1
 LinEq1:  Iter=  6 NonCon=     1 RMS=4.92D-06 Max=5.05D-05 NDo=     1
 LinEq1:  Iter=  7 NonCon=     1 RMS=1.26D-06 Max=1.08D-05 NDo=     1
 LinEq1:  Iter=  8 NonCon=     1 RMS=3.59D-07 Max=4.70D-06 NDo=     1
 LinEq1:  Iter=  9 NonCon=     1 RMS=1.55D-07 Max=1.78D-06 NDo=     1
 LinEq1:  Iter= 10 NonCon=     1 RMS=4.84D-08 Max=6.04D-07 NDo=     1
 LinEq1:  Iter= 11 NonCon=     1 RMS=1.01D-08 Max=1.23D-07 NDo=     1
 LinEq1:  Iter= 12 NonCon=     1 RMS=1.87D-09 Max=3.63D-08 NDo=     1
 LinEq1:  Iter= 13 NonCon=     1 RMS=4.54D-10 Max=1.06D-08 NDo=     1
 LinEq1:  Iter= 14 NonCon=     1 RMS=1.53D-10 Max=2.37D-09 NDo=     1
 LinEq1:  Iter= 15 NonCon=     0 RMS=4.81D-11 Max=4.61D-10 NDo=     1
 Linear equations converged to 1.000D-10 1.000D-09 after    15 iterations.
 End of Minotr F.D. properties file   721 does not exist.
 End of Minotr F.D. properties file   722 does not exist.
 End of Minotr F.D. properties file   788 does not exist.
 Calling FoFJK, ICntrl=  10002127 FMM=F ISym2X=0 I1Cent= 0 IOpClX= 0 NMat=1 NMatS=1 NMatT=0.
 ***** Axes restored to original set *****
 -------------------------------------------------------------------
 Center     Atomic                   Forces (Hartrees/Bohr)
 Number     Number              X              Y              Z
 -------------------------------------------------------------------
      1        6          -0.000399471    0.000026048    0.001364583
      2        8           0.000360825    0.000042555   -0.000604421
      3        7          -0.000119644   -0.000755836   -0.000252377
      4        8          -0.000021597   -0.000008929   -0.000026345
      5        1           0.000196031    0.000043260   -0.000465791
      6        1           0.000067894    0.000012763    0.000019103
      7        1           0.000048493    0.000019946   -0.000009188
      8        1          -0.000128292    0.000343559   -0.000119539
      9        6          -0.000217783    0.000366192    0.000176814
     10        1           0.000058939   -0.000172306    0.000042703
     11        1           0.000113187    0.000013860   -0.000018128
     12        1           0.000041417    0.000068888   -0.000107414
 -------------------------------------------------------------------
 Cartesian Forces:  Max     0.001364583 RMS     0.000327589

 GradGradGradGradGradGradGradGradGradGradGradGradGradGradGradGradGradGrad
 Berny optimization.
 Using GEDIIS/GDIIS optimizer.
 FormGI is forming the generalized inverse of G from B-inverse, IUseBI=4.
 Internal  Forces:  Max     0.000622014 RMS     0.000219005
 Search for a local minimum.
 Step number   3 out of a maximum of   52
 All quantities printed in internal units (Hartrees-Bohrs-Radians)
 Mixed Optimization -- En-DIIS/RFO-DIIS
 Swapping is turned off.
 Update second derivatives using D2CorX and points    1    2    3
 DE= -4.02D-05 DEPred=-4.04D-05 R= 9.96D-01
 TightC=F SS=  1.41D+00  RLast= 3.41D-02 DXNew= 6.4637D-01 1.0215D-01
 Trust test= 9.96D-01 RLast= 3.41D-02 DXMaxT set to 3.84D-01
 ITU=  1  1  0
     Eigenvalues ---    0.00228   0.00230   0.00231   0.00902   0.01143
     Eigenvalues ---    0.01299   0.02006   0.03555   0.04216   0.07284
     Eigenvalues ---    0.07762   0.13170   0.15996   0.16000   0.16000
     Eigenvalues ---    0.16000   0.16016   0.17369   0.20079   0.22245
     Eigenvalues ---    0.32492   0.33594   0.33720   0.34163   0.38481
     Eigenvalues ---    0.44847   0.53002   0.54186   0.54204   0.88223
 En-DIIS/RFO-DIIS/Sim-DIIS IScMMF=       -3 using points:     3    2
 RFO step:  Lambda=-5.63817051D-05.
 DidBck=F Rises=F RFO-DIIS coefs:    1.46215   -0.46215
 Iteration  1 RMS(Cart)=  0.02262370 RMS(Int)=  0.00020182
 Iteration  2 RMS(Cart)=  0.00029153 RMS(Int)=  0.00005063
 Iteration  3 RMS(Cart)=  0.00000002 RMS(Int)=  0.00005063
 Variable       Old X    -DE/DX   Delta X   Delta X   Delta X     New X
                                 (Linear)    (Quad)   (Total)
    R1        2.33554   0.00036   0.00047   0.00073   0.00120   2.33674
    R2        2.56749   0.00001   0.00054   0.00005   0.00059   2.56808
    R3        2.10004  -0.00013  -0.00019  -0.00049  -0.00068   2.09936
    R4        1.92054  -0.00004  -0.00011  -0.00019  -0.00030   1.92024
    R5        2.75223   0.00026  -0.00092   0.00016  -0.00076   2.75147
    R6        1.82577  -0.00002   0.00006  -0.00001   0.00005   1.82582
    R7        1.82577  -0.00002   0.00005  -0.00001   0.00005   1.82581
    R8        3.79474  -0.00010  -0.00110  -0.00314  -0.00424   3.79050
    R9        2.08097  -0.00005  -0.00050  -0.00010  -0.00060   2.08038
   R10        2.07861   0.00006   0.00033   0.00031   0.00063   2.07925
   R11        2.07469  -0.00000   0.00060   0.00010   0.00070   2.07539
    A1        2.17357  -0.00012  -0.00036  -0.00160  -0.00214   2.17143
    A2        2.14203  -0.00010  -0.00121  -0.00091  -0.00230   2.13972
    A3        1.96750   0.00023   0.00153   0.00304   0.00439   1.97189
    A4        2.07320   0.00052   0.00427   0.00645   0.01070   2.08390
    A5        2.10839  -0.00032  -0.00253  -0.00420  -0.00675   2.10164
    A6        2.10155  -0.00021  -0.00175  -0.00232  -0.00409   2.09746
    A7        1.82261   0.00007   0.00054   0.00054   0.00107   1.82368
    A8        2.16774  -0.00006  -0.00025  -0.00081  -0.00107   2.16667
    A9        2.16695  -0.00002  -0.00018  -0.00050  -0.00068   2.16626
   A10        1.94062  -0.00028  -0.00434  -0.00246  -0.00681   1.93381
   A11        1.92394   0.00006   0.00068   0.00024   0.00090   1.92483
   A12        1.89273   0.00020   0.00216   0.00146   0.00361   1.89634
   A13        1.88604  -0.00002  -0.00146  -0.00268  -0.00416   1.88188
   A14        1.90920   0.00003   0.00087   0.00086   0.00174   1.91094
   A15        1.91123   0.00002   0.00220   0.00266   0.00484   1.91607
   A16        3.23846   0.00003   0.00440   0.01639   0.02079   3.25926
   A17        3.13060  -0.00001  -0.00157   0.00202   0.00044   3.13104
    D1        3.13760  -0.00062   0.00045  -0.02920  -0.02877   3.10882
    D2        0.00700  -0.00054   0.00240  -0.02147  -0.01904  -0.01204
    D3       -0.01827   0.00041  -0.00797   0.01165   0.00365  -0.01463
    D4        3.13431   0.00049  -0.00602   0.01937   0.01338  -3.13549
    D5        1.28384   0.00002   0.00113   0.00576   0.00690   1.29074
    D6       -1.30039   0.00003  -0.00123   0.00007  -0.00116  -1.30155
    D7       -1.86185  -0.00003  -0.00001  -0.00267  -0.00269  -1.86454
    D8        1.83711  -0.00003  -0.00238  -0.00837  -0.01075   1.82636
    D9        1.15529  -0.00013  -0.00385  -0.01166  -0.01547   1.13982
   D10       -0.93599   0.00004   0.00036  -0.00686  -0.00648  -0.94247
   D11       -3.02814  -0.00014  -0.00403  -0.01116  -0.01519  -3.04333
   D12       -1.97514  -0.00006  -0.00189  -0.00386  -0.00575  -1.98089
   D13        2.21678   0.00011   0.00232   0.00093   0.00324   2.22001
   D14        0.12462  -0.00007  -0.00207  -0.00337  -0.00547   0.11915
         Item               Value     Threshold  Converged?
 Maximum Force            0.000622     0.000450     NO 
 RMS     Force            0.000219     0.000300     YES
 Maximum Displacement     0.064229     0.001800     NO 
 RMS     Displacement     0.022563     0.001200     NO 
 Predicted change in Energy=-2.826120D-05
 GradGradGradGradGradGradGradGradGradGradGradGradGradGradGradGradGradGrad

                          Input orientation:                          
 ---------------------------------------------------------------------
 Center     Atomic      Atomic             Coordinates (Angstroms)
 Number     Number       Type             X           Y           Z
 ---------------------------------------------------------------------
      1          6           0        1.008442   -0.869479    0.003696
      2          8           0        2.237516   -0.736117   -0.021836
      3          7           0        0.123852    0.162163    0.006679
      4          8           0       -2.872627   -0.191653    0.003328
      5          1           0        0.514370   -1.864492    0.008250
      6          1           0       -3.392815   -0.476931    0.765906
      7          1           0       -3.396422   -0.463130   -0.761812
      8          1           0       -0.872880   -0.035397   -0.000409
      9          6           0        0.597157    1.539042   -0.006121
     10          1           0        1.121309    1.763494   -0.947843
     11          1           0        1.303281    1.707377    0.820734
     12          1           0       -0.266880    2.208482    0.100844
 ---------------------------------------------------------------------
                    Distance matrix (angstroms):
                    1          2          3          4          5
     1  C    0.000000
     2  O    1.236552   0.000000
     3  N    1.358968   2.296802   0.000000
     4  O    3.939816   5.139129   3.017298   0.000000
     5  H    1.110935   2.059943   2.063938   3.777587   0.000000
     6  H    4.483985   5.691076   3.654014   0.966180   4.214910
     7  H    4.489315   5.688879   3.657034   0.966178   4.225057
     8  H    2.057932   3.188422   1.016147   2.005846   2.295676
     9  C    2.443405   2.804884   1.456014   3.877473   3.404571
    10  H    2.801912   2.889889   2.114306   4.547401   3.800627
    11  H    2.719314   2.748341   2.107468   4.659686   3.747099
    12  H    3.333126   3.867520   2.085415   3.544020   4.148257
                    6          7          8          9         10
     6  H    0.000000
     7  H    1.527785   0.000000
     8  H    2.670630   2.670385   0.000000
     9  C    4.536524   4.530832   2.154043   0.000000
    10  H    5.322947   5.040075   2.847882   1.100888   0.000000
    11  H    5.179530   5.413202   2.906409   1.100289   1.778799
    12  H    4.174353   4.204250   2.326474   1.098249   1.795781
                   11         12
    11  H    0.000000
    12  H    1.798542   0.000000
 Stoichiometry    C2H7NO2
 Framework group  C1[X(C2H7NO2)]
 Deg. of freedom    30
 Full point group                 C1      NOp   1
 Largest Abelian subgroup         C1      NOp   1
 Largest concise Abelian subgroup C1      NOp   1
                         Standard orientation:                         
 ---------------------------------------------------------------------
 Center     Atomic      Atomic             Coordinates (Angstroms)
 Number     Number       Type             X           Y           Z
 ---------------------------------------------------------------------
      1          6           0       -1.019340   -0.858543   -0.009636
      2          8           0       -2.244894   -0.695344    0.011468
      3          7           0       -0.109944    0.151305   -0.010291
      4          8           0        2.877025   -0.275189    0.003874
      5          1           0       -0.549573   -1.865267   -0.011693
      6          1           0        3.392795   -0.573664   -0.756651
      7          1           0        3.391389   -0.558661    0.771059
      8          1           0        0.881663   -0.070401    0.000454
      9          6           0       -0.549703    1.539285   -0.000206
     10          1           0       -1.071541    1.777200    0.939494
     11          1           0       -1.248631    1.724021   -0.829669
     12          1           0        0.330711    2.187449   -0.104640
 ---------------------------------------------------------------------
 Rotational constants (GHZ):           7.8712048           1.9512095           1.5909281
 Standard basis: Aug-CC-pVDZ (5D, 7F)
 There are   188 symmetry adapted cartesian basis functions of A   symmetry.
 There are   178 symmetry adapted basis functions of A   symmetry.
   178 basis functions,   292 primitive gaussians,   188 cartesian basis functions
    21 alpha electrons       21 beta electrons
       nuclear repulsion energy       173.3848628104 Hartrees.
 NAtoms=   12 NActive=   12 NUniq=   12 SFac= 1.00D+00 NAtFMM=   60 NAOKFM=F Big=F
 Integral buffers will be    131072 words long.
 Raffenetti 1 integral format.
 Two-electron integral symmetry is turned on.
 One-electron integrals computed using PRISM.
 NBasis=   178 RedAO= T EigKep=  1.85D-04  NBF=   178
 NBsUse=   178 1.00D-06 EigRej= -1.00D+00 NBFU=   178
 Initial guess from the checkpoint file:  "/scr/Gau-17111.chk"
 B after Tr=    -0.000000   -0.000000    0.000000
         Rot=    0.999994   -0.000561    0.000114    0.003409 Ang=  -0.40 deg.
 ExpMin= 2.97D-02 ExpMax= 1.17D+04 ExpMxC= 4.01D+02 IAcc=3 IRadAn=         5 AccDes= 0.00D+00
 Harris functional with IExCor=  205 and IRadAn=       5 diagonalized for initial guess.
 HarFok:  IExCor=  205 AccDes= 0.00D+00 IRadAn=         5 IDoV= 1 UseB2=F ITyADJ=14
 ICtDFT=  3500011 ScaDFX=  1.000000  1.000000  1.000000  1.000000
 FoFCou: FMM=F IPFlag=           0 FMFlag=      100000 FMFlg1=           0
         NFxFlg=           0 DoJE=T BraDBF=F KetDBF=T FulRan=T
         wScrn=  0.000000 ICntrl=       500 IOpCl=  0 I1Cent=   200000004 NGrid=           0
         NMat0=    1 NMatS0=      1 NMatT0=    0 NMatD0=    1 NMtDS0=    0 NMtDT0=    0
 Petite list used in FoFCou.
 Keep R1 ints in memory in canonical form, NReq=135774095.
 Requested convergence on RMS density matrix=1.00D-08 within 128 cycles.
 Requested convergence on MAX density matrix=1.00D-06.
 Requested convergence on             energy=1.00D-06.
 No special actions if energy rises.
 SCF Done:  E(RHF) =  -284.038676179     A.U. after   10 cycles
            NFock= 10  Conv=0.69D-08     -V/T= 2.0022
 ExpMin= 2.97D-02 ExpMax= 1.17D+04 ExpMxC= 4.01D+02 IAcc=3 IRadAn=         5 AccDes= 0.00D+00
 HarFok:  IExCor=  205 AccDes= 0.00D+00 IRadAn=         5 IDoV=-2 UseB2=F ITyADJ=14
 ICtDFT= 12500011 ScaDFX=  1.000000  1.000000  1.000000  1.000000
 Range of M.O.s used for correlation:     6   178
 NBasis=   178 NAE=    21 NBE=    21 NFC=     5 NFV=     0
 NROrb=    173 NOA=    16 NOB=    16 NVA=   157 NVB=   157

 **** Warning!!: The largest alpha MO coefficient is  0.23082382D+02

 Fully direct method using O(ONN) memory.
 JobTyp=1 Pass  1:  I=   6 to  21 NPSUse= 40 ParTrn=T ParDer=T DoDerP=T.
 Spin components of T(2) and E(2):
     alpha-alpha T2 =       0.3532646433D-01 E2=     -0.1126521638D+00
     alpha-beta  T2 =       0.1994722230D+00 E2=     -0.6585952668D+00
     beta-beta   T2 =       0.3532646433D-01 E2=     -0.1126521638D+00
 ANorm=    0.1126998293D+01
 E2 =    -0.8838995945D+00 EUMP2 =    -0.28492257577348D+03
          IDoAtm=111111111111
          Differentiating once with respect to electric field.
                with respect to dipole field.
          Differentiating once with respect to nuclear coordinates.
 Keep R1 ints in memory in canonical form, NReq=135786042.
          There are     1 degrees of freedom in the 1st order CPHF.  IDoFFX=0 NUNeed=     1.
 LinEq1:  Iter=  0 NonCon=     1 RMS=4.74D-03 Max=1.17D-01 NDo=     1
 AX will form     1 AO Fock derivatives at one time.
 LinEq1:  Iter=  1 NonCon=     1 RMS=1.33D-03 Max=2.20D-02 NDo=     1
 LinEq1:  Iter=  2 NonCon=     1 RMS=5.13D-04 Max=1.03D-02 NDo=     1
 LinEq1:  Iter=  3 NonCon=     1 RMS=1.89D-04 Max=4.24D-03 NDo=     1
 LinEq1:  Iter=  4 NonCon=     1 RMS=5.59D-05 Max=4.92D-04 NDo=     1
 LinEq1:  Iter=  5 NonCon=     1 RMS=1.88D-05 Max=2.32D-04 NDo=     1
 LinEq1:  Iter=  6 NonCon=     1 RMS=4.96D-06 Max=4.90D-05 NDo=     1
 LinEq1:  Iter=  7 NonCon=     1 RMS=1.29D-06 Max=1.32D-05 NDo=     1
 LinEq1:  Iter=  8 NonCon=     1 RMS=3.78D-07 Max=5.84D-06 NDo=     1
 LinEq1:  Iter=  9 NonCon=     1 RMS=1.68D-07 Max=3.01D-06 NDo=     1
 LinEq1:  Iter= 10 NonCon=     1 RMS=5.28D-08 Max=8.56D-07 NDo=     1
 LinEq1:  Iter= 11 NonCon=     1 RMS=1.09D-08 Max=1.48D-07 NDo=     1
 LinEq1:  Iter= 12 NonCon=     1 RMS=2.13D-09 Max=3.65D-08 NDo=     1
 LinEq1:  Iter= 13 NonCon=     1 RMS=5.23D-10 Max=8.42D-09 NDo=     1
 LinEq1:  Iter= 14 NonCon=     1 RMS=1.67D-10 Max=2.19D-09 NDo=     1
 LinEq1:  Iter= 15 NonCon=     0 RMS=5.01D-11 Max=4.73D-10 NDo=     1
 Linear equations converged to 1.000D-10 1.000D-09 after    15 iterations.
 End of Minotr F.D. properties file   721 does not exist.
 End of Minotr F.D. properties file   722 does not exist.
 End of Minotr F.D. properties file   788 does not exist.
 Calling FoFJK, ICntrl=  10002127 FMM=F ISym2X=0 I1Cent= 0 IOpClX= 0 NMat=1 NMatS=1 NMatT=0.
 ***** Axes restored to original set *****
 -------------------------------------------------------------------
 Center     Atomic                   Forces (Hartrees/Bohr)
 Number     Number              X              Y              Z
 -------------------------------------------------------------------
      1        6          -0.000275085   -0.000061586   -0.002827915
      2        8          -0.000295222    0.000075066    0.001150968
      3        7           0.000319924   -0.000547981    0.001138135
      4        8           0.000020604    0.000018310   -0.000040751
      5        1          -0.000163733    0.000127514    0.000745337
      6        1           0.000034481   -0.000003733   -0.000078004
      7        1           0.000006235   -0.000002471    0.000089432
      8        1          -0.000055050   -0.000464112    0.000330012
      9        6           0.000440806    0.000547081   -0.000490442
     10        1           0.000093427    0.000452903   -0.000203076
     11        1          -0.000416867    0.000137527    0.000099638
     12        1           0.000290479   -0.000278518    0.000086667
 -------------------------------------------------------------------
 Cartesian Forces:  Max     0.002827915 RMS     0.000612306

 GradGradGradGradGradGradGradGradGradGradGradGradGradGradGradGradGradGrad
 Berny optimization.
 Using GEDIIS/GDIIS optimizer.
 FormGI is forming the generalized inverse of G from B-inverse, IUseBI=4.
 Internal  Forces:  Max     0.001105942 RMS     0.000408991
 Search for a local minimum.
 Step number   4 out of a maximum of   52
 All quantities printed in internal units (Hartrees-Bohrs-Radians)
 Mixed Optimization -- En-DIIS/RFO-DIIS
 Swapping is turned off.
 Update second derivatives using D2CorX and points    1    2    3    4
 DE=  1.66D-05 DEPred=-2.83D-05 R=-5.87D-01
 Trust test=-5.87D-01 RLast= 5.39D-02 DXMaxT set to 1.92D-01
 ITU= -1  1  1  0
     Eigenvalues ---    0.00221   0.00230   0.00233   0.00803   0.01123
     Eigenvalues ---    0.01300   0.02212   0.04122   0.06593   0.07597
     Eigenvalues ---    0.08065   0.12569   0.15999   0.16000   0.16000
     Eigenvalues ---    0.16027   0.16061   0.17523   0.20283   0.22274
     Eigenvalues ---    0.32497   0.33595   0.33741   0.34230   0.39386
     Eigenvalues ---    0.44853   0.53236   0.54186   0.54232   0.88081
 En-DIIS/RFO-DIIS/Sim-DIIS IScMMF=       -3 using points:     4    3    2
 RFO step:  Lambda=-5.95221032D-05.
 EnCoef did     3 forward-backward iterations
 DidBck=T Rises=T En-DIIS coefs:    0.44304    0.30599    0.25097
 Iteration  1 RMS(Cart)=  0.00480310 RMS(Int)=  0.00002727
 Iteration  2 RMS(Cart)=  0.00003345 RMS(Int)=  0.00001565
 Iteration  3 RMS(Cart)=  0.00000000 RMS(Int)=  0.00001565
 Variable       Old X    -DE/DX   Delta X   Delta X   Delta X     New X
                                 (Linear)    (Quad)   (Total)
    R1        2.33674  -0.00031  -0.00092   0.00063  -0.00029   2.33645
    R2        2.56808  -0.00058  -0.00062  -0.00011  -0.00074   2.56734
    R3        2.09936  -0.00004   0.00048  -0.00055  -0.00007   2.09929
    R4        1.92024   0.00008   0.00023  -0.00011   0.00012   1.92036
    R5        2.75147   0.00095   0.00092   0.00088   0.00180   2.75327
    R6        1.82582  -0.00008  -0.00006  -0.00005  -0.00011   1.82571
    R7        1.82581  -0.00007  -0.00005  -0.00005  -0.00010   1.82571
    R8        3.79050  -0.00006   0.00295  -0.00366  -0.00071   3.78979
    R9        2.08038   0.00031   0.00060  -0.00001   0.00059   2.08097
   R10        2.07925  -0.00017  -0.00053   0.00019  -0.00034   2.07890
   R11        2.07539  -0.00039  -0.00071  -0.00009  -0.00080   2.07459
    A1        2.17143   0.00001   0.00139  -0.00118   0.00018   2.17161
    A2        2.13972   0.00023   0.00194  -0.00089   0.00103   2.14075
    A3        1.97189  -0.00021  -0.00328   0.00223  -0.00107   1.97081
    A4        2.08390  -0.00074  -0.00828   0.00493  -0.00333   2.08057
    A5        2.10164   0.00063   0.00513  -0.00281   0.00233   2.10397
    A6        2.09746   0.00011   0.00323  -0.00226   0.00098   2.09844
    A7        1.82368  -0.00004  -0.00089   0.00041  -0.00047   1.82321
    A8        2.16667  -0.00001   0.00073  -0.00092  -0.00018   2.16649
    A9        2.16626   0.00004   0.00048  -0.00047   0.00001   2.16627
   A10        1.93381   0.00068   0.00615  -0.00244   0.00371   1.93752
   A11        1.92483   0.00000  -0.00087   0.00070  -0.00015   1.92468
   A12        1.89634  -0.00029  -0.00318   0.00144  -0.00173   1.89460
   A13        1.88188  -0.00003   0.00311  -0.00176   0.00137   1.88325
   A14        1.91094  -0.00017  -0.00144   0.00060  -0.00085   1.91009
   A15        1.91607  -0.00021  -0.00389   0.00149  -0.00239   1.91368
   A16        3.25926   0.00001  -0.01397   0.01312  -0.00085   3.25840
   A17        3.13104   0.00002   0.00061   0.00741   0.00804   3.13908
    D1        3.10882   0.00110   0.01578  -0.00009   0.01571   3.12454
    D2       -0.01204   0.00111   0.00930   0.00764   0.01693   0.00488
    D3       -0.01463  -0.00072   0.00230  -0.00982  -0.00750  -0.02213
    D4       -3.13549  -0.00072  -0.00418  -0.00209  -0.00629   3.14140
    D5        1.29074   0.00001  -0.00446   0.00683   0.00236   1.29309
    D6       -1.30155   0.00004   0.00132   0.00305   0.00435  -1.29720
    D7       -1.86454  -0.00004   0.00151  -0.00583  -0.00430  -1.86884
    D8        1.82636  -0.00001   0.00728  -0.00961  -0.00231   1.82405
    D9        1.13982   0.00007   0.01071  -0.01276  -0.00208   1.13773
   D10       -0.94247  -0.00034   0.00341  -0.00946  -0.00607  -0.94853
   D11       -3.04333   0.00010   0.01065  -0.01260  -0.00197  -3.04530
   D12       -1.98089   0.00008   0.00423  -0.00505  -0.00081  -1.98170
   D13        2.22001  -0.00032  -0.00306  -0.00175  -0.00479   2.21522
   D14        0.11915   0.00011   0.00417  -0.00489  -0.00069   0.11846
         Item               Value     Threshold  Converged?
 Maximum Force            0.001106     0.000450     NO 
 RMS     Force            0.000409     0.000300     NO 
 Maximum Displacement     0.012120     0.001800     NO 
 RMS     Displacement     0.004815     0.001200     NO 
 Predicted change in Energy=-2.951008D-05
 GradGradGradGradGradGradGradGradGradGradGradGradGradGradGradGradGradGrad

                          Input orientation:                          
 ---------------------------------------------------------------------
 Center     Atomic      Atomic             Coordinates (Angstroms)
 Number     Number       Type             X           Y           Z
 ---------------------------------------------------------------------
      1          6           0        1.005876   -0.870549   -0.002352
      2          8           0        2.235359   -0.740892   -0.017904
      3          7           0        0.124612    0.163389    0.006866
      4          8           0       -2.871310   -0.193293    0.003683
      5          1           0        0.507956   -1.863521    0.010747
      6          1           0       -3.392536   -0.481279    0.764460
      7          1           0       -3.393065   -0.464534   -0.762865
      8          1           0       -0.872131   -0.034563    0.004503
      9          6           0        0.598984    1.540892   -0.007535
     10          1           0        1.120271    1.769145   -0.950299
     11          1           0        1.305313    1.709519    0.818845
     12          1           0       -0.265028    2.209044    0.103268
 ---------------------------------------------------------------------
                    Distance matrix (angstroms):
                    1          2          3          4          5
     1  C    0.000000
     2  O    1.236399   0.000000
     3  N    1.358579   2.296430   0.000000
     4  O    3.935897   5.135991   3.017081   0.000000
[...]
 -0.00938776,-0.00003408,-0.00336989,-0.01511377,0.00003576,-0.00002553
 ,-0.00072599,0.00000790,-0.00000343,0.00059944,0.00003616,-0.00002668,
 0.00055172,0.00004834,0.00000624,0.00042679,-0.00000900,0.00001219,-0.
 00028126,-0.00008376,0.00002677,0.00002232,0.00009798,-0.00002733,0.00
 001464,-0.00017094,0.00007654,-0.00099897,0.00003419,-0.00006166,-0.00
 164894,-0.00037728,-0.00011688,0.00012041,0.00014063,0.00010597,-0.000
 00361,0.00024442,0.00065708,-0.00134718,-0.00058598,-0.00005862,-0.000
 00660,0.00001713,-0.00001131,-0.00003083,-0.00009450,0.00001852,-0.000
 04110,-0.00009211,0.00002302,0.00005156,0.00130679,-0.00042679,0.00098
 929,0.00054614,0.00019892,0.00002960,-0.00085619,-0.00018115,0.0002097
 2,0.00016990,0.00013945,0.00005860,-0.00010764,-0.00084194,0.00004229,
 -0.00161145,-0.00085261,-0.00013786,-0.00011282,-0.00003567,-0.0000085
 3,0.00005833,-0.00012567,-0.00000534,-0.00005875,-0.00017676,0.0000003
 5,0.00006133,0.00309196,-0.00067911,0.00089386,-0.00047998,0.00202387,
 0.00094789,-0.00051125,-0.00134615,0.00018055,-0.00019530,0.00010280,-
 0.00022495,0.00001573,-0.00011802,0.00001225,0.00102655,0.00023109,0.0
 0002915,0.00004442,0.00001518,0.00000546,-0.00000131,0.00003370,-0.000
 01940,-0.00000962,0.00003201,-0.00000758,-0.00001036,-0.00004179,0.000
 55555,0.00007036,-0.00051262,-0.00067386,-0.00065500,0.00069026,0.0000
 9380,-0.00032650,-0.00032686,-0.00036540,-0.00010029,-0.00010769,0.000
 12993,0.00009651,-0.00000822,0.00025738,0.00059823,0.00135524,-0.00058
 791,-0.00005947,0.00001810,0.00001651,-0.00001306,0.00003021,-0.000092
 66,0.00002357,-0.00004977,-0.00009379,0.00001870,0.00004451,0.00127892
 ,-0.00041678,-0.00103630,0.00059310,0.00024328,-0.00000774,-0.00006355
 ,-0.00000593,-0.00003354,-0.00088694,-0.00019894,0.00021560,-0.0001628
 4,0.00015383,0.00006734,0.00010819,-0.00081570,0.00004866,0.00164133,-
 0.00085333,-0.00013901,0.00012831,-0.00003650,-0.00000594,-0.00006546,
 -0.00017801,0.00000057,-0.00005631,-0.00012597,-0.00000577,0.00006213,
 0.00308568,-0.00067120,-0.00096034,-0.00049785,0.00200643,-0.00093095,
 -0.00000426,-0.00002255,-0.00005135,-0.00050485,-0.00135996,-0.0001617
 1,0.00020747,0.00011672,0.00021234,-0.00002091,-0.00012601,-0.00002572
 ,-0.00105400,0.00021887,-0.00002684,-0.00004524,0.00001636,-0.00000643
 ,0.00000092,0.00002989,0.00000612,0.00001027,-0.00004157,0.00002095,0.
 00000902,0.00003186,-0.00055500,-0.00006143,-0.00049533,0.00067893,0.0
 0067088,0.00061912,0.00003320,0.00005524,0.00011420,-0.00008693,0.0003
 2090,-0.00025731,0.00019754,0.00003245,0.00000479,-0.00005412,-0.00005
 069,-0.00000018,0.00140268,-0.00048340,-0.00002186,0.00019381,0.000104
 59,-0.00000091,0.00005312,0.00010464,-0.00000011,0.00005570,0.00002126
 ,0.00001736,0.00005525,0.00002184,-0.00001869,-0.00161714,0.00226182,0
 .00002776,0.00085409,-0.00131316,-0.00001849,-0.00018550,-0.00002046,0
 .00008258,-0.00018560,-0.00002409,-0.00008891,-0.00076982,0.00089780,0
 .00011398,-0.00000796,-0.00008314,-0.00007485,0.00000158,-0.00108372,-
 0.00388025,-0.00001325,-0.00046027,-0.00019316,0.00000385,-0.00010934,
 0.00013701,0.00000256,-0.00011489,-0.00002706,-0.00002532,-0.00011360,
 -0.00002720,0.00002805,0.00057354,0.00417063,0.00001635,0.00090274,0.0
 0196749,0.00000596,0.00012561,-0.00013528,0.00009239,0.00012009,-0.000
 13417,-0.00009312,-0.00065482,-0.00191713,0.00000139,0.00000002,0.0001
 6652,0.00000294,0.00000067,-0.00001984,-0.00002397,-0.00001887,-0.0002
 3251,-0.00000455,-0.00000260,-0.00001624,-0.00000113,0.00000135,-0.000
 05152,0.00001779,-0.00001483,0.00000004,-0.00002023,0.00001404,0.00000
 097,0.00002035,0.00000155,0.00010012,-0.00000281,0.00003276,0.00073085
 ,0.00011144,0.00003061,-0.00021994,-0.00011788,-0.00003361,-0.00022680
 ,0.00001666,-0.00001109,-0.00023165,-0.00034930,0.00056773,0.00057043,
 0.00038092,-0.00040415,-0.00003710,0.00020276,-0.00060935,-0.00021988,
 -0.00038576,-0.00008903,-0.00021764,0.00005132,0.00031533,0.00020285,-
 0.00015125,0.00012860,-0.00011331,0.00014694,-0.00004807,0.00024150,0.
 00056679,0.00056311,-0.00011319,0.00022813,-0.00033056,-0.00005264,0.0
 0122420,-0.00030214,-0.00015733,0.00026438,0.00021388,-0.00000035,-0.0
 0010417,0.00038137,0.00005561,-0.00019868,0.00015987,0.00041371,0.0000
 1991,0.00000554,-0.00020080,0.00010546,-0.00013369,-0.00127634,0.00004
 574,0.00042729,0.00000367,0.00010804,-0.00010772,-0.00000191,0.0007233
 2,-0.00040462,-0.00001171,0.95750144,0.00000448,-0.00034377,-0.0000026
 7,-0.00005601,0.00011842,-0.00000096,-0.00023342,0.00000595,0.00000316
 ,1.30988639,-0.61822178,0.00000327,-0.00000581,0.00022746,-0.00000117,
 -0.00000037,0.00012704,-0.00001354,0.00000594,-0.00039319,0.04217172,-
 0.04229498,3.70646781,-0.00020704,-0.00016432,-0.00003437,-0.00000568,
 -0.00001149,0.00006418,0.00003062,0.00020867,0.00001209,-0.00000132,-0
 .00004963,-0.00000043,0.00012463,-0.00017967,-0.00028608,0.00007162,0.
 00013476,0.00008013,-0.00000463,0.00001466,0.00002523,0.00002798,-0.00
 004355,0.00008805,0.00000043,0.00003380,0.00014796,-0.00003045,0.00015
 549,-0.00019241,0.00002444,-0.00002473,0.00004330,0.00005522,-0.000040
 26,0.00008292,0.00000081,0.00000048,0.00002808,-0.00003857,-0.00010234
 ,0.00013184,-0.00009251,0.00014964,-0.00004078,0.00013491,-0.00004346,
 0.00002715,-0.00000900,0.00000383,-0.00032526,-0.43376666,-0.65139510,
 1.69160562,0.00001643,-0.00000373,0.00000343,0.39985370,0.00006556,0.0
 0016301,0.00000883,0.00000274,-0.00007116,0.00001844,0.00011543,-0.000
 08354,-0.00010724,-0.65099935,0.29959802,0.99243371,0.00000339,-0.0000
 5542,-0.00001277,0.65236317,-0.33413298,-0.00049367,0.00057556,-0.0001
 0885,0.00047701,-0.00012201,-0.00003971,0.00025606,-0.00037479,0.00004
 978,1.61620561,0.94690224,-1.89022961,-0.00008527,0.00005155,-0.000009
 35,-1.65220244,-0.97040573,1.95523711,-0.00007793,0.00013358,0.0000409
 7,0.00012083,-0.00004015,-0.00003228,-0.00000788,0.00001198,0.00033020
 ,-0.52523301,-0.65778659,-1.73374371,0.00001852,-0.00000529,-0.0000041
 7,0.03450934,-0.00160314,0.03708423,0.49128868,0.00005981,0.00017032,-
 0.00000789,0.00000860,-0.00007251,-0.00001879,0.00012200,-0.00008879,0
 .00010553,-0.65941120,0.31910464,-0.95013567,0.00000237,-0.00005491,0.
 00001194,-0.00059042,0.03427581,0.02318362,0.65977216,-0.35364092,0.00
 049299,-0.00057534,-0.00012655,-0.00047898,0.00012269,-0.00002908,-0.0
 0025243,0.00037322,0.00005351,-1.65836070,-0.90461603,-1.81537972,0.00
 008495,-0.00005180,-0.00001088,-0.03988299,-0.02212092,-0.06548289,1.6
 9712550,0.92705194,1.88041626,-0.00016702,-0.00101945,-0.00002143,-0.0
 0037978,0.00030700,-0.00000171,-0.00291575,-0.00013207,0.00007308,0.00
 075219,-0.00016080,-0.00002362,0.00002360,0.00006044,-0.00001022,-0.00
 075121,-0.00000282,-0.00113411,-0.00072498,-0.00001641,0.00116735,0.00
 441504,-0.00014773,-0.00004929,0.00000706,-0.00006817,0.00003074,0.000
 02177,-0.00049496,0.00063525,-0.00002010,0.00075798,-0.00024300,-0.000
 00160,-0.00002010,0.00004394,0.00000017,-0.00043065,0.00027929,0.00047
 182,-0.00043608,0.00028260,-0.00046809,0.00076607,-0.00112491,-0.00002
 383,-0.00002126,-0.00005806,0.00002785,0.00001345,-0.00006102,0.000031
 31,-0.00001154,0.00104001,-0.00000865,0.00000658,-0.00097219,0.0000009
 6,0.00000115,-0.00004495,0.00081475,0.00016945,0.00064530,-0.00079545,
 -0.00017355,0.00061927,-0.00004396,0.00000129,-0.00113024,0.00006551,-
 0.00002329,-0.00000393,0.00001468,-0.00002291,0.00000896,0.00017823,0.
 00000367,-0.00000589,-0.00001202,-0.00008407,0.00000063,-0.00000850,-0
 .00000833,0.00000007,0.00004027,-0.00000443,-0.00004691,0.00004057,-0.
 00000524,0.00004493,-0.00025356,0.00007276,0.00000538,0.00002829,-0.00
 001596,0.00019211,0.00000795,0.00010832,-0.00005773,0.00000557,-0.0002
 1752,-0.00044542,-0.00004826,-0.00010581,0.00000826,-0.00000199,-0.000
 01959,0.00000466,0.00001867,-0.00010871,0.00002739,-0.00022902,-0.0001
 0306,0.00002433,0.00023261,0.00044879,0.00011888,0.00001527,0.00004317
 ,0.00023856,0.00001434,-0.00002187,0.00003098,0.00000975,0.00000720,0.
 00003121,-0.00001425,0.00003044,0.00031502,-0.00000021,0.00000245,0.00
 005660,-0.00000328,0.00000468,-0.00003456,0.00000323,0.00001071,-0.000
 04464,-0.00000647,-0.00001032,-0.00004298,-0.00000606,-0.00001436,-0.0
 0010062,-0.00000639,-0.00001240,-0.00009294,0.00001618,-0.00003438,0.0
 0000533,-0.00002043,0.00001321,-0.00000674,0.00001199,0.00008445,-0.00
 003318,0.00000420,-0.00004062,0.00003100,-0.00000059,0.00000273,0.0000
 0051,0.00000811,0.00002071,0.00002397,0.00001108,0.00000472,-0.0000353
 3,-0.00003297,0.00000209,0.00000392,-0.00004917,-0.00005926,0.00003051
 ,0.00003403,0.00003736,-0.00003179,0.00003923,-0.00002993,-0.00001774,
 0.00000007,0.00003266,0.00003044,-0.00007864,0.00003842,-0.00000699,0.
 00006486,0.00000328,0.00000156,-0.00000066,0.00002328,-0.00000254,0.00
 001771,-0.00000467,-0.00002019,-0.00005903,-0.00008291,0.00001324,-0.0
 0001037,-0.00001300,-0.00002297,0.00000551,-0.00000685,0.00002680,-0.0
 0001796,0.00002008,-0.00001732,0.00001775,-0.00000302,0.00000264,-0.00
 001779,-0.00004887,-0.00001367,0.00000847,-0.00001283,0.00005288,-0.00
 000279,0.00000276,0.00000404,0.00000327,0.00001064,-0.00002522,-0.0000
 1249,-0.00000726,-0.00002106,-0.00000829,0.00000370,0.00000513,0.00006
 835,-0.00000621,-0.00007059,-0.00000005,0.00001791,0.00003597,0.000034
 05,-0.00002343,-0.00000211,-0.00003573,0.00000382,-0.00000026,0.000000
 63,0.00006619,0.00003695,0.00000304,-0.00003998,-0.00003138,-0.0000018
 9,0.00000119,-0.00000136,0.00001246,0.00000460,0.00003588,0.00000726,0
 .00002089,-0.00002475,-0.00003222,0.00000062,-0.00000873,-0.00001931,-
 0.00003000,-0.00001312,-0.00001495,-0.00000072,-0.00000295,0.00000937,
 0.00001803,-0.00002361,-0.00003705,-0.00001422,-0.00000766,0.00000121,
 0.00003153,0.00003872,0.00008838,0.00003645,-0.00000657,-0.00006627,0.
 00000339,0.00000354,-0.00000642,-0.00000343,-0.00002121,0.00005946,0.0
 0002294,-0.00000193,-0.00001765,-0.00008871,0.00001227,0.00001150,0.00
 000199,-0.00005019,-0.00000918,0.00000205,0.00001315,0.00000548,-0.000
 00914,0.00002653,0.00002747,-0.00001138,-0.00001073,-0.00002631,-0.000
 00239,-0.00000205,0.00001685,0.00003793,-0.00000586,-0.00000694,0.0000
 1309,0.00005386,0.00000204,-0.00000294,0.00000160,0.00001162,0.0000070
 9,-0.00002150,-0.00000418,-0.00001100,-0.00002518,0.00000932,-0.000001
 21,0.00000221,-0.00005973,0.00000879,-0.00012273,-0.00000003,-0.000000
 28,0.00003499,-0.00000034,-0.00002123,0.00009364,-0.00003723,0.0000328
 8,0.00000478,0.00001801,0.00000594,-0.00000045,-0.00003127,-0.00013522
 ,-0.00000298,-0.00012497,-0.00004465,0.00000160,0.00001122,-0.00000701
 ,0.00000030,0.00004417,0.00003414,-0.00012037,0.00004752,0.00003272,0.
 00011946,0.00006666,-0.00000181,-0.00000356,-0.00002497,0.00005962,-0.
 00000806,0.00003251,0.00000308,-0.00003552,0.00003728,-0.00000089,0.00
 003022,-0.00003892,-0.00001842,0.00001365,0.00000136,-0.00000596,0.000
 01263,0.00000095,0.00001569,-0.00001578,-0.00000253,-0.00007427,-0.000
 10122,0.00000175,0.00001022,0.00000133,0.00000044,0.00003557,0.0000233
 2,-0.00013039,0.00003831,0.00002155,0.00012840,-0.00007915,0.00000098,
 -0.00000196,0.00003969,-0.00003788,0.00000715,0.00001114,0.00001702,0.
 00001762,0.00000597,0.00001694,-0.00001647,0.00002121,0.00004745,-0.00
 000316,0.00000022,-0.00000781,0.00000269,0.00000039,0.00000026,-0.0000
 0105,0.00000141,-0.00006510,-0.00000017,-0.00000052,-0.00003902,0.0000
 0048,0.00000154,0.00000037,-0.00001761,-0.00001222,0.00002958,0.000017
 84,0.00001145,0.00002930,-0.00000036,-0.00000045,0.00005515,-0.0000054
 8,0.00000903,0.00007524,-0.00001990,0.00000369,0.00001220,0.00001216,-
 0.00000824,0.00000175,0.00001456,-0.00000631,-0.00009192,0.00081675,0.
 00024793,0.00009134,0.00037247,-0.00041258,0.00047342,-0.00048953,0.00
 000086,-0.00020684,0.00054605,0.00003103,-0.00000547,0.00005046,-0.000
 00403,-0.00004097,-0.00014129,0.00012364,0.00005409,0.00013228,-0.0000
 4487,-0.00001746,-0.00013847,-0.00030216,-0.00012190,-0.00008531,0.000
 05390,-0.00004609,0.00050098,-0.00030526,0.00016471,0.00027401,-0.0000
 2753,0.00000978,-0.00010305,0.00045406,-0.00021488,-0.00020303,0.00017
 889,-0.00044166,0.00002330,0.00000097,-0.00008058,0.00013744,-0.000152
 20,0.00122661,0.00004047,-0.00010978,0.00000358,-0.00018862,0.00003281
 ,0.00000202,0.00041583,0.00023847,-0.00000010,1.08816295,-0.00026333,-
 0.00026118,-0.00000131,0.00023817,0.00022208,-0.00000323,-0.00028531,0
 .00036044,0.00000287,1.47079561,-0.67948079,0.00000687,-0.00000555,0.0
 0049003,0.00000082,-0.00000007,0.00011727,-0.00000937,0.00000030,0.000
 05173,0.04547147,-0.04134949,3.62387157,-0.00018506,-0.00009308,-0.000
 03190,0.00002694,-0.00000960,0.00006311,-0.00000069,0.00007711,0.00001
 076,-0.00000686,-0.00003745,-0.00000086,0.00012184,0.00001247,-0.00009
 162,0.00007256,0.00001125,0.00002400,-0.00000367,-0.00002649,0.0000235
 5,0.00002855,0.00000077,0.00019273,0.00000101,0.00003364,-0.00001768,-
 0.00002743,0.00015666,-0.00008416,0.00002321,-0.00002495,-0.00002130,0
 .00005415,-0.00003840,0.00001807,0.00000075,0.00000104,0.00000775,-0.0
 0003960,-0.00010475,0.00011093,0.00005338,-0.00003518,-0.00002298,0.00
 001468,0.00000151,0.00001517,-0.00034813,-0.00006512,-0.00014978,-0.49
 475217,-0.72992601,1.76966795,0.00001864,0.00000725,-0.00001650,0.4919
 6988,0.00013683,0.00007986,-0.00000198,-0.00011043,-0.00009282,0.00001
 154,0.00011573,-0.00008033,0.00014847,-0.73046364,0.32939517,1.0359022
 6,0.00001390,-0.00008492,-0.00001913,0.72653933,-0.32810943,-0.0000517
 0,0.00024589,-0.00014958,0.00012419,-0.00004605,-0.00003341,-0.0001818
 4,-0.00021504,0.00002685,1.77013718,1.03497512,-1.84831525,-0.00002851
 ,0.00001970,-0.00000277,-1.77008169,-1.03543940,1.83994640,0.00005318,
 -0.00003939,0.00001740,0.00001264,0.00000210,-0.00001783,-0.00033751,-
 0.00006156,0.00015942,-0.59421816,-0.74004283,-1.81509803,0.00001953,0
 .00000637,0.00001622,0.00286955,0.00361349,0.00021529,0.59142834,0.000
 13374,0.00008535,0.00000080,-0.00010650,-0.00009383,-0.00000990,0.0001
 1470,-0.00008155,-0.00014970,-0.74057980,0.35132989,-0.99455288,0.0000
 1394,-0.00008486,0.00001773,0.00360904,-0.00166310,0.00025800,0.736654
 85,-0.35004386,0.00004667,-0.00023949,-0.00015358,-0.00012332,0.000044
 68,-0.00003005,0.00019513,0.00021424,0.00002208,-1.81558877,-0.9936374
 6,-1.77402911,0.00002875,-0.00002089,-0.00000338,0.00001943,-0.0004371
 9,0.00802034,1.81527524,0.99427691,1.76566462,-0.00008736,0.00031808,-
 0.00001628,0.00016196,-0.00010948,-0.00000854,0.00004267,-0.00021590,0
 .00003080,0.00075406,-0.00055287,-0.00004229,-0.00000212,-0.00004881,-
 0.00001069,0.00008594,0.00017651,-0.00006800,0.00008306,0.00018277,0.0
 0008462,-0.00116532,0.00001365,0.00000890,0.00000774,0.00003831,-0.000
 02757,0.00001991,-0.00006104,-0.00031493,-0.00001944,0.00006919,-0.001
 54251,0.00000762,-0.00000848,0.00004367,0.00000008,-0.00015287,0.00046
 145,0.00035815,-0.00015720,0.00046009,-0.00035815,0.00026428,0.0009200
 5,-0.00002489,-0.00003294,-0.00020180,0.00002356,0.00001699,0.00000160
 ,-0.00000880,-0.00000576,-0.00063594,-0.00002881,0.00001466,-0.0023623
 0,0.00000139,0.00000195,-0.00004312,0.00060076,-0.00017005,0.00056473,
 -0.00059689,0.00016245,0.00056635,0.00003979,-0.00000297,0.00209917,-0
 .00002879,0.00000620,-0.00000312,-0.00001671,0.00000811,0.00000937,-0.
 00004880,-0.00013216,-0.00000949,-0.00008585,0.00006678,0.00000268,0.0
 0001068,0.00001019,0.00000047,0.00004564,-0.00001121,-0.00001376,0.000
 04517,-0.00001188,0.00001171,0.00013531,0.00001024,0.00000360,-0.00012
 851,0.00003333,-0.00008148,0.00000574,-0.00007196,0.00000153,0.0000081
 8,-0.00004202,0.00013420,-0.00004558,0.00024864,-0.00030982,-0.0000061
 1,0.00001077,0.00000882,0.00001823,-0.00008363,0.00012126,-0.00008940,
 -0.00008312,0.00011913,0.00009240,-0.00010012,-0.00002095,0.00001896,-
 0.00000220,-0.00002544,0.00001530,-0.00002375,0.00000245,0.00000884,0.
 00000738,0.00000382,-0.00001601,0.00003552,-0.00009267,0.00000248,-0.0
 0000120,0.00009352,-0.00000295,0.00000417,0.00001605,0.00001669,0.0000
 4469,-0.00004634,-0.00001966,-0.00004287,-0.00004575,-0.00001119,-0.00
 001559,0.00003801,-0.00001166,-0.00000986,-0.00021669,-0.00003340,0.00
 000549,0.00000272,0.00002064,0.00000549,-0.00000731,0.00000948,-0.0000
 1008,-0.00001771,-0.00001888,0.00001343,0.00000579,-0.00000137,-0.0000
 0166,0.00000221,-0.00002624,-0.00002176,-0.00000328,0.00002776,-0.0000
 0086,0.00000967,0.00000648,0.00000245,-0.00000180,0.00001676,0.0000138
 1,-0.00002994,0.00001095,-0.00001727,-0.00001324,0.00004228,0.00000675
 ,-0.00000325,0.00001201,0.00001546,0.00000012,-0.00007320,-0.00004193,
 0.00003150,0.00004505,0.00000110,-0.00000433,-0.00000816,0.00002090,-0
 .00001438,-0.00001235,0.00001905,-0.00000697,-0.00001026,0.00003793,0.
 00000672,-0.00002116,-0.00001002,0.00003671,0.00000379,-0.00002323,-0.
 00002824,0.00002681,-0.00000441,0.00000162,-0.00002299,-0.00000053,0.0
 0000292,0.00001575,0.00001736,-0.00003151,0.00000460,-0.00002442,0.000
 06615,-0.00000146,0.00000340,0.00000087,0.00000375,0.00001122,-0.00001
 909,-0.00000742,0.00000021,-0.00002517,-0.00000480,0.00001824,-0.00002
 785,-0.00003564,-0.00005169,0.00014721,0.00003590,0.00001327,-0.000107
 39,-0.00001645,0.00001800,0.00000270,0.00000604,-0.00000395,-0.0000006
 9,-0.00000231,-0.00002975,0.00002013,-0.00001926,0.00001386,-0.0000056
 7,-0.00000268,-0.00000331,-0.00000327,0.00002767,-0.00000074,-0.000009
 90,-0.00002651,-0.00002177,0.00000344,0.00000735,0.00000056,-0.0000045
 5,0.00004772,0.00004303,0.00005398,-0.00002688,0.00000979,0.00000033,-
 0.00001247,-0.00003633,-0.00000381,-0.00003878,0.00002181,0.00000708,-
 0.00001135,0.00001323,0.00000733,0.00008229,-0.00004388,0.00003158,-0.
 00004514,0.00000149,-0.00000241,0.00000121,0.00001898,-0.00000762,0.00
 001083,0.00002155,-0.00001381,0.00001231,0.00003303,0.00000624,0.00002
 017,0.00000428,0.00000354,-0.00000785,0.00001286,-0.00001474,0.0000074
 8,-0.00002471,-0.00002354,-0.00001619,0.00001318,0.00000968,0.00001391
 ,-0.00000449,-0.00000281,-0.00001701,-0.00002573,-0.00002342,-0.000003
 09,0.00002376,0.00006710,0.00000076,-0.00000355,-0.00000144,0.00000606
 ,-0.00000017,-0.00002520,-0.00000353,-0.00001074,-0.00001931,0.0000057
 0,-0.00001550,-0.00003096,0.00004954,0.00005013,0.00008618,-0.00000486
 ,-0.00000291,-0.00000915,-0.00003978,-0.00001557,-0.00004066,0.0000152
 7,-0.00001698,0.00000414,-0.00000877,-0.00000789,-0.00000021,-0.000007
 74,0.00007772,-0.00000173,-0.00008350,-0.00002007,0.00000063,0.0000011
 7,-0.00000167,0.00000049,0.00004118,0.00001199,-0.00003799,0.00004295,
 0.00001178,0.00003743,-0.00002202,-0.00001910,-0.00000335,0.00000739,0
 .00003347,-0.00000588,0.00001471,-0.00001851,-0.00001484,0.00001777,-0
 .00002232,0.00000849,-0.00001840,0.00001322,0.00002662,0.00000106,0.00
 000330,-0.00000054,0.00000078,-0.00005006,-0.00000843,-0.00000193,-0.0
 0014647,0.00003092,0.00000302,-0.00000335,-0.00000693,0.00000043,0.000
 06581,-0.00000513,-0.00006545,0.00006669,-0.00000648,0.00006290,0.0000
 1457,-0.00000116,-0.00000231,0.00006166,0.00001251,0.00000557,0.000004
 05,0.00001010,0.00000986,-0.00000101,0.00001015,-0.00000840,-0.0000284
 2,-0.00006161,-0.00000359,0.00000046,-0.00000050,0.00000306,0.00000048
 ,0.00000592,-0.00000145,-0.00000126,-0.00003954,-0.00000133,-0.0000003
 3,-0.00005843,0.00000051,0.00000154,0.00000249,-0.00005885,-0.00005026
 ,0.00003332,0.00005979,0.00004999,0.00003296,0.00000087,-0.00000008,0.
 00003212,-0.00000369,0.00000897,0.00001419,0.00000860,0.00001164,0.000
 00139,-0.00001673,-0.00001561,-0.00001002,0.00001281,-0.00000553,-0.00
 001390\\@
 The archive entry for this job was punched.


 THE PROGRESS OF RIVERS TO THE SEA IS NOT AS RAPID
 AS THAT OF MAN TO ERROR.
                                              -- VOLTAIRE
 Job cpu time:       5 days  1 hours 43 minutes 13.7 seconds.
 Elapsed time:       0 days  3 hours  5 minutes 33.7 seconds.
 File lengths (MBytes):  RWF=   4640 Int=      0 D2E=      0 Chk=     47 Scr=      1
 Normal termination of Gaussian 16 at Fri Apr  4 01:00:29 2025.
