 Entering Gaussian System, Link 0=g16
 Input=hconh2t_h2o_mp2_avdz_opt_anharm.gjf
 Output=hconh2t_h2o_mp2_avdz_opt_anharm.log
 Initial command:
 /sw/contrib/chem-src/g16/c01/g16/l1.exe "/scr/Gau-73602.inp" -scrdir="/scr/"
 Entering Link 1 = /sw/contrib/chem-src/g16/c01/g16/l1.exe PID=     73603.
  
 Copyright (c) 1988-2019, Gaussian, Inc.  All Rights Reserved.
  
 This is part of the Gaussian(R) 16 program.  It is based on
 the Gaussian(R) 09 system (copyright 2009, Gaussian, Inc.),
 the Gaussian(R) 03 system (copyright 2003, Gaussian, Inc.),
 the Gaussian(R) 98 system (copyright 1998, Gaussian, Inc.),
 the Gaussian(R) 94 system (copyright 1995, Gaussian, Inc.),
 the Gaussian 92(TM) system (copyright 1992, Gaussian, Inc.),
 the Gaussian 90(TM) system (copyright 1990, Gaussian, Inc.),
 the Gaussian 88(TM) system (copyright 1988, Gaussian, Inc.),
 the Gaussian 86(TM) system (copyright 1986, Carnegie Mellon
 University), and the Gaussian 82(TM) system (copyright 1983,
 Carnegie Mellon University). Gaussian is a federally registered
 trademark of Gaussian, Inc.
  
 This software contains proprietary and confidential information,
 including trade secrets, belonging to Gaussian, Inc.
  
 This software is provided under written license and may be
 used, copied, transmitted, or stored only in accord with that
 written license.
  
 The following legend is applicable only to US Government
 contracts under FAR:
  
                    RESTRICTED RIGHTS LEGEND
  
 Use, reproduction and disclosure by the US Government is
 subject to restrictions as set forth in subparagraphs (a)
 and (c) of the Commercial Computer Software - Restricted
 Rights clause in FAR 52.227-19.
  
 Gaussian, Inc.
 340 Quinnipiac St., Bldg. 40, Wallingford CT 06492
  
  
 ---------------------------------------------------------------
 Warning -- This program may not be used in any manner that
 competes with the business of Gaussian, Inc. or will provide
 assistance to any competitor of Gaussian, Inc.  The licensee
 of this program is prohibited from giving any competitor of
 Gaussian, Inc. access to this program.  By using this program,
 the user acknowledges that Gaussian, Inc. is engaged in the
 business of creating and licensing software in the field of
 computational chemistry and represents and warrants to the
 licensee that it is not a competitor of Gaussian, Inc. and that
 it will not use this program in any manner prohibited above.
 ---------------------------------------------------------------
  

 Cite this work as:
 Gaussian 16, Revision C.01,
 M. J. Frisch, G. W. Trucks, H. B. Schlegel, G. E. Scuseria, 
 M. A. Robb, J. R. Cheeseman, G. Scalmani, V. Barone, 
 G. A. Petersson, H. Nakatsuji, X. Li, M. Caricato, A. V. Marenich, 
 J. Bloino, B. G. Janesko, R. Gomperts, B. Mennucci, H. P. Hratchian, 
 J. V. Ortiz, A. F. Izmaylov, J. L. Sonnenberg, D. Williams-Young, 
 F. Ding, F. Lipparini, F. Egidi, J. Goings, B. Peng, A. Petrone, 
 T. Henderson, D. Ranasinghe, V. G. Zakrzewski, J. Gao, N. Rega, 
 G. Zheng, W. Liang, M. Hada, M. Ehara, K. Toyota, R. Fukuda, 
 J. Hasegawa, M. Ishida, T. Nakajima, Y. Honda, O. Kitao, H. Nakai, 
 T. Vreven, K. Throssell, J. A. Montgomery, Jr., J. E. Peralta, 
 F. Ogliaro, M. J. Bearpark, J. J. Heyd, E. N. Brothers, K. N. Kudin, 
 V. N. Staroverov, T. A. Keith, R. Kobayashi, J. Normand, 
 K. Raghavachari, A. P. Rendell, J. C. Burant, S. S. Iyengar, 
 J. Tomasi, M. Cossi, J. M. Millam, M. Klene, C. Adamo, R. Cammi, 
 J. W. Ochterski, R. L. Martin, K. Morokuma, O. Farkas, 
 J. B. Foresman, and D. J. Fox, Gaussian, Inc., Wallingford CT, 2019.
 
 ******************************************
 Gaussian 16:  EM64L-G16RevC.01  3-Jul-2019
                30-Mar-2025 
 ******************************************
 %nprocshared=40
 Will use up to   40 processors via shared memory.
 %mem=50gb
 ----------------------------------------------
 # MP2/aug-cc-pVDZ opt freq=(vibrot,anharmonic)
 ----------------------------------------------
 1/18=20,19=15,38=1,80=1/1,3;
 2/9=110,12=2,17=6,18=5,40=1/2;
 3/5=16,7=10,11=9,25=1,30=1,71=1/1,2,3;
 4//1;
 5/5=2,38=5/2;
 8/6=4,10=1/1;
 9/15=2,16=-3/6;
 10/5=1/2;
 6/7=2,8=2,9=2,10=2/1;
 7/12=2/1,2,3,16;
 1/18=20,19=15,80=1/3(2);
 2/9=110/2;
 99//99;
 2/9=110/2;
 3/5=16,7=10,11=9,25=1,30=1,71=1/1,2,3;
 4/5=5,16=3,69=1/1;
 5/5=2,38=5/2;
 8/6=4,10=1/1;
 9/15=2,16=-3/6;
 10/5=1/2;
 7/12=2/1,2,3,16;
 1/18=20,19=15,80=1/3(-8);
 2/9=110/2;
 6/7=2,8=2,9=2,10=2/1;
 99/9=10/99;
 ----
 blah
 ----
 Symbolic Z-matrix:
 Charge =  0 Multiplicity = 1
 C                     1.03144  -0.29808  -0.00035 
 O                     2.23923  -0.17689   0.00071 
 N                     0.18357   0.75714  -0.00076 
 O                    -2.42386  -0.2396    0.00033 
 H                     0.51467  -1.28023  -0.00104 
 H                    -2.97628  -0.03412   0.76654 
 H                    -2.98117  -0.04072  -0.76406 
 H                    -0.78939   0.60684  -0.00162 
 H                     0.53988   1.6749   -0.00019 
 
 Add virtual bond connecting atoms H8         and O4         Dist= 3.48D+00.

 GradGradGradGradGradGradGradGradGradGradGradGradGradGradGradGradGradGrad
 Berny optimization.
 Initialization pass.
                           ----------------------------
                           !    Initial Parameters    !
                           ! (Angstroms and Degrees)  !
 --------------------------                            --------------------------
 ! Name  Definition              Value          Derivative Info.                !
 --------------------------------------------------------------------------------
 ! R1    R(1,2)                  1.2139         estimate D2E/DX2                !
 ! R2    R(1,3)                  1.3537         estimate D2E/DX2                !
 ! R3    R(1,5)                  1.1098         estimate D2E/DX2                !
 ! R4    R(3,8)                  0.9845         estimate D2E/DX2                !
 ! R5    R(3,9)                  0.9845         estimate D2E/DX2                !
 ! R6    R(4,6)                  0.9667         estimate D2E/DX2                !
 ! R7    R(4,7)                  0.9667         estimate D2E/DX2                !
 ! R8    R(4,8)                  1.8406         estimate D2E/DX2                !
 ! A1    A(2,1,3)              123.0521         estimate D2E/DX2                !
 ! A2    A(2,1,5)              123.4813         estimate D2E/DX2                !
 ! A3    A(3,1,5)              113.4666         estimate D2E/DX2                !
 ! A4    A(1,3,8)              120.0            estimate D2E/DX2                !
 ! A5    A(1,3,9)              120.0            estimate D2E/DX2                !
 ! A6    A(8,3,9)              120.0            estimate D2E/DX2                !
 ! A7    A(6,4,7)              104.6889         estimate D2E/DX2                !
 ! A8    A(6,4,8)              114.2386         estimate D2E/DX2                !
 ! A9    A(7,4,8)              114.6137         estimate D2E/DX2                !
 ! A10   A(3,8,4)              161.4033         estimate D2E/DX2                !
 ! D1    D(2,1,3,8)            180.0            estimate D2E/DX2                !
 ! D2    D(2,1,3,9)              0.0            estimate D2E/DX2                !
 ! D3    D(5,1,3,8)             -0.0015         estimate D2E/DX2                !
 ! D4    D(5,1,3,9)            179.9985         estimate D2E/DX2                !
 ! D5    D(1,3,8,4)              0.349          estimate D2E/DX2                !
 ! D6    D(9,3,8,4)           -179.651          estimate D2E/DX2                !
 ! D7    D(6,4,7,8)            125.9386         estimate D2E/DX2                !
 ! D8    D(6,4,8,3)            119.345          estimate D2E/DX2                !
 ! D9    D(7,4,8,3)           -119.8486         estimate D2E/DX2                !
 --------------------------------------------------------------------------------
 Trust Radius=3.00D-01 FncErr=1.00D-07 GrdErr=1.00D-07 EigMax=2.50D+02 EigMin=1.00D-04
 Number of steps in this run=     37 maximum allowed number of steps=    100.
 GradGradGradGradGradGradGradGradGradGradGradGradGradGradGradGradGradGrad

                          Input orientation:                          
 ---------------------------------------------------------------------
 Center     Atomic      Atomic             Coordinates (Angstroms)
 Number     Number       Type             X           Y           Z
 ---------------------------------------------------------------------
      1          6           0        1.031435   -0.298081   -0.000346
      2          8           0        2.239233   -0.176894    0.000708
      3          7           0        0.183566    0.757141   -0.000758
      4          8           0       -2.423863   -0.239604    0.000331
      5          1           0        0.514666   -1.280233   -0.001037
      6          1           0       -2.976279   -0.034118    0.766542
      7          1           0       -2.981169   -0.040720   -0.764056
      8          1           0       -0.789392    0.606835   -0.001622
      9          1           0        0.539876    1.674901   -0.000193
 ---------------------------------------------------------------------
                    Distance matrix (angstroms):
                    1          2          3          4          5
     1  C    0.000000
     2  O    1.213863   0.000000
     3  N    1.353653   2.257917   0.000000
     4  O    3.455793   4.663518   2.791449   0.000000
     5  H    1.109808   2.047313   2.064103   3.117349   0.000000
     6  H    4.088956   5.273372   3.346560   0.966678   3.785324
     7  H    4.092735   5.277879   3.351828   0.966660   3.786747
     8  H    2.033295   3.128387   0.984500   1.840641   2.293817
     9  H    2.033295   2.513356   0.984500   3.528325   2.955241
                    6          7          8          9
     6  H    0.000000
     7  H    1.530620   0.000000
     8  H    2.404864   2.409257   0.000000
     9  H    3.983965   3.990564   1.705204   0.000000
 Stoichiometry    CH5NO2
 Framework group  C1[X(CH5NO2)]
 Deg. of freedom    21
 Full point group                 C1      NOp   1
 Largest Abelian subgroup         C1      NOp   1
 Largest concise Abelian subgroup C1      NOp   1
                         Standard orientation:                         
 ---------------------------------------------------------------------
 Center     Atomic      Atomic             Coordinates (Angstroms)
 Number     Number       Type             X           Y           Z
 ---------------------------------------------------------------------
      1          6           0        1.020586   -0.336437   -0.000363
      2          8           0        2.229055   -0.222135    0.000691
      3          7           0        0.178744    0.723599   -0.000775
      4          8           0       -2.434322   -0.258271    0.000314
      5          1           0        0.498229   -1.315628   -0.001054
      6          1           0       -2.985558   -0.049640    0.766525
      7          1           0       -2.990486   -0.056214   -0.764073
      8          1           0       -0.795055    0.578841   -0.001639
      9          1           0        0.540279    1.639314   -0.000210
 ---------------------------------------------------------------------
 Rotational constants (GHZ):          30.6043367           2.4408585           2.2846956
 Standard basis: Aug-CC-pVDZ (5D, 7F)
 There are   145 symmetry adapted cartesian basis functions of A   symmetry.
 There are   137 symmetry adapted basis functions of A   symmetry.
   137 basis functions,   227 primitive gaussians,   145 cartesian basis functions
    17 alpha electrons       17 beta electrons
       nuclear repulsion energy       117.1423106091 Hartrees.
 NAtoms=    9 NActive=    9 NUniq=    9 SFac= 1.00D+00 NAtFMM=   60 NAOKFM=F Big=F
 Integral buffers will be    131072 words long.
 Raffenetti 1 integral format.
 Two-electron integral symmetry is turned on.
 One-electron integrals computed using PRISM.
 NBasis=   137 RedAO= T EigKep=  3.25D-04  NBF=   137
 NBsUse=   137 1.00D-06 EigRej= -1.00D+00 NBFU=   137
 ExpMin= 2.97D-02 ExpMax= 1.17D+04 ExpMxC= 4.01D+02 IAcc=3 IRadAn=         5 AccDes= 0.00D+00
 Harris functional with IExCor=  205 and IRadAn=       5 diagonalized for initial guess.
 HarFok:  IExCor=  205 AccDes= 0.00D+00 IRadAn=         5 IDoV= 1 UseB2=F ITyADJ=14
 ICtDFT=  3500011 ScaDFX=  1.000000  1.000000  1.000000  1.000000
 FoFCou: FMM=F IPFlag=           0 FMFlag=      100000 FMFlg1=           0
         NFxFlg=           0 DoJE=T BraDBF=F KetDBF=T FulRan=T
         wScrn=  0.000000 ICntrl=       500 IOpCl=  0 I1Cent=   200000004 NGrid=           0
         NMat0=    1 NMatS0=      1 NMatT0=    0 NMatD0=    1 NMtDS0=    0 NMtDT0=    0
 Petite list used in FoFCou.
 Keep R1 ints in memory in canonical form, NReq=53298056.
 Requested convergence on RMS density matrix=1.00D-08 within 128 cycles.
 Requested convergence on MAX density matrix=1.00D-06.
 Requested convergence on             energy=1.00D-06.
 No special actions if energy rises.
 SCF Done:  E(RHF) =  -245.007501774     A.U. after   13 cycles
            NFock= 13  Conv=0.41D-08     -V/T= 2.0012
 ExpMin= 2.97D-02 ExpMax= 1.17D+04 ExpMxC= 4.01D+02 IAcc=3 IRadAn=         5 AccDes= 0.00D+00
 HarFok:  IExCor=  205 AccDes= 0.00D+00 IRadAn=         5 IDoV=-2 UseB2=F ITyADJ=14
 ICtDFT= 12500011 ScaDFX=  1.000000  1.000000  1.000000  1.000000
 Range of M.O.s used for correlation:     5   137
 NBasis=   137 NAE=    17 NBE=    17 NFC=     4 NFV=     0
 NROrb=    133 NOA=    13 NOB=    13 NVA=   120 NVB=   120

 **** Warning!!: The largest alpha MO coefficient is  0.17095462D+02

 Fully direct method using O(ONN) memory.
 JobTyp=1 Pass  1:  I=   5 to  17 NPSUse= 40 ParTrn=T ParDer=T DoDerP=T.
 Spin components of T(2) and E(2):
     alpha-alpha T2 =       0.2876375331D-01 E2=     -0.9535745125D-01
     alpha-beta  T2 =       0.1580552631D+00 E2=     -0.5416457880D+00
     beta-beta   T2 =       0.2876375331D-01 E2=     -0.9535745125D-01
 ANorm=    0.1102534702D+01
 E2 =    -0.7323606905D+00 EUMP2 =    -0.24573986246493D+03
          IDoAtm=111111111
          Differentiating once with respect to electric field.
                with respect to dipole field.
          Differentiating once with respect to nuclear coordinates.
 Keep R1 ints in memory in canonical form, NReq=53304895.
          There are     1 degrees of freedom in the 1st order CPHF.  IDoFFX=0 NUNeed=     1.
 LinEq1:  Iter=  0 NonCon=     1 RMS=5.50D-03 Max=7.97D-02 NDo=     1
 AX will form     1 AO Fock derivatives at one time.
 LinEq1:  Iter=  1 NonCon=     1 RMS=1.54D-03 Max=1.51D-02 NDo=     1
 LinEq1:  Iter=  2 NonCon=     1 RMS=5.72D-04 Max=8.25D-03 NDo=     1
 LinEq1:  Iter=  3 NonCon=     1 RMS=1.94D-04 Max=2.17D-03 NDo=     1
 LinEq1:  Iter=  4 NonCon=     1 RMS=5.47D-05 Max=4.59D-04 NDo=     1
 LinEq1:  Iter=  5 NonCon=     1 RMS=1.55D-05 Max=1.81D-04 NDo=     1
 LinEq1:  Iter=  6 NonCon=     1 RMS=4.86D-06 Max=5.00D-05 NDo=     1
 LinEq1:  Iter=  7 NonCon=     1 RMS=1.26D-06 Max=9.78D-06 NDo=     1
 LinEq1:  Iter=  8 NonCon=     1 RMS=4.23D-07 Max=3.65D-06 NDo=     1
 LinEq1:  Iter=  9 NonCon=     1 RMS=9.94D-08 Max=7.07D-07 NDo=     1
 LinEq1:  Iter= 10 NonCon=     1 RMS=1.99D-08 Max=1.35D-07 NDo=     1
 LinEq1:  Iter= 11 NonCon=     1 RMS=3.75D-09 Max=2.86D-08 NDo=     1
 LinEq1:  Iter= 12 NonCon=     1 RMS=6.98D-10 Max=8.78D-09 NDo=     1
 LinEq1:  Iter= 13 NonCon=     1 RMS=1.45D-10 Max=1.78D-09 NDo=     1
 LinEq1:  Iter= 14 NonCon=     0 RMS=2.62D-11 Max=2.24D-10 NDo=     1
 Linear equations converged to 1.000D-10 1.000D-09 after    14 iterations.
 End of Minotr F.D. properties file   721 does not exist.
 End of Minotr F.D. properties file   722 does not exist.
 End of Minotr F.D. properties file   788 does not exist.

 **********************************************************************

            Population analysis using the SCF Density.

 **********************************************************************

 Orbital symmetries:
       Occupied  (A) (A) (A) (A) (A) (A) (A) (A) (A) (A) (A) (A)
                 (A) (A) (A) (A) (A)
       Virtual   (A) (A) (A) (A) (A) (A) (A) (A) (A) (A) (A) (A)
                 (A) (A) (A) (A) (A) (A) (A) (A) (A) (A) (A) (A)
                 (A) (A) (A) (A) (A) (A) (A) (A) (A) (A) (A) (A)
                 (A) (A) (A) (A) (A) (A) (A) (A) (A) (A) (A) (A)
                 (A) (A) (A) (A) (A) (A) (A) (A) (A) (A) (A) (A)
                 (A) (A) (A) (A) (A) (A) (A) (A) (A) (A) (A) (A)
                 (A) (A) (A) (A) (A) (A) (A) (A) (A) (A) (A) (A)
                 (A) (A) (A) (A) (A) (A) (A) (A) (A) (A) (A) (A)
                 (A) (A) (A) (A) (A) (A) (A) (A) (A) (A) (A) (A)
                 (A) (A) (A) (A) (A) (A) (A) (A) (A) (A) (A) (A)
 The electronic state is 1-A.
 Alpha  occ. eigenvalues --  -20.61819 -20.51887 -15.56805 -11.34545  -1.39562
 Alpha  occ. eigenvalues --   -1.37207  -1.20290  -0.83379  -0.75541  -0.74343
 Alpha  occ. eigenvalues --   -0.65986  -0.62669  -0.59086  -0.55175  -0.54657
 Alpha  occ. eigenvalues --   -0.41662  -0.39719
 Alpha virt. eigenvalues --    0.01821   0.04578   0.04736   0.05677   0.08307
 Alpha virt. eigenvalues --    0.11185   0.12607   0.13141   0.16697   0.17599
 Alpha virt. eigenvalues --    0.18264   0.18865   0.20395   0.20476   0.21965
 Alpha virt. eigenvalues --    0.23611   0.25301   0.26896   0.27058   0.30811
 Alpha virt. eigenvalues --    0.32023   0.33040   0.34725   0.34785   0.35165
 Alpha virt. eigenvalues --    0.36055   0.41535   0.43358   0.43701   0.46672
 Alpha virt. eigenvalues --    0.47324   0.49414   0.50607   0.52955   0.53857
 Alpha virt. eigenvalues --    0.55182   0.56755   0.61458   0.62031   0.63561
 Alpha virt. eigenvalues --    0.64587   0.65455   0.67077   0.68243   0.71070
 Alpha virt. eigenvalues --    0.72398   0.76091   0.79377   0.79996   0.85091
 Alpha virt. eigenvalues --    0.85413   0.92417   0.94295   0.96299   0.96763
 Alpha virt. eigenvalues --    0.99927   1.03572   1.07618   1.09137   1.14373
 Alpha virt. eigenvalues --    1.16420   1.20652   1.23916   1.27475   1.28644
 Alpha virt. eigenvalues --    1.34714   1.39823   1.42331   1.43976   1.44894
 Alpha virt. eigenvalues --    1.52124   1.53672   1.55270   1.63579   1.63648
 Alpha virt. eigenvalues --    1.71402   1.77586   1.87903   1.90682   1.91002
 Alpha virt. eigenvalues --    1.97812   1.97966   2.01425   2.03842   2.07289
 Alpha virt. eigenvalues --    2.10457   2.15018   2.19394   2.25962   2.33582
 Alpha virt. eigenvalues --    2.33707   2.36177   2.41944   2.43674   2.46351
 Alpha virt. eigenvalues --    2.51503   2.54093   2.58613   2.70105   2.74547
 Alpha virt. eigenvalues --    2.82734   2.85621   2.86783   2.93865   3.02326
 Alpha virt. eigenvalues --    3.06408   3.22143   3.33417   3.58634   3.68242
 Alpha virt. eigenvalues --    3.68687   3.72502   3.75008   3.80965   3.81118
 Alpha virt. eigenvalues --    3.85626   4.04518   4.11977   4.16160   4.26889
          Condensed to atoms (all electrons):
               1          2          3          4          5          6
     1  C    4.192017   0.408795   0.340268  -0.000438   0.256997   0.001100
     2  O    0.408795   8.446057  -0.096147  -0.000550  -0.079114   0.000048
     3  N    0.340268  -0.096147   6.140689  -0.040335  -0.045467  -0.000386
     4  O   -0.000438  -0.000550  -0.040335   7.800412   0.000910   0.364854
     5  H    0.256997  -0.079114  -0.045467   0.000910   0.924679   0.000876
     6  H    0.001100   0.000048  -0.000386   0.364854   0.000876   0.496493
     7  H    0.001093   0.000048  -0.000339   0.364826   0.000872  -0.047727
     8  H   -0.096993  -0.001354   0.394836  -0.075904   0.012858  -0.000459
     9  H   -0.079941   0.006291   0.414943   0.000970   0.021999  -0.000222
               7          8          9
     1  C    0.001093  -0.096993  -0.079941
     2  O    0.000048  -0.001354   0.006291
     3  N   -0.000339   0.394836   0.414943
     4  O    0.364826  -0.075904   0.000970
     5  H    0.000872   0.012858   0.021999
     6  H   -0.047727  -0.000459  -0.000222
     7  H    0.496314  -0.000445  -0.000227
     8  H   -0.000445   0.983097  -0.259990
     9  H   -0.000227  -0.259990   0.987148
 Mulliken charges:
               1
     1  C    0.977102
     2  O   -0.684074
     3  N   -0.108062
     4  O   -0.414746
     5  H   -0.094611
     6  H    0.185422
     7  H    0.185584
     8  H    0.044355
     9  H   -0.090971
 Sum of Mulliken charges =  -0.00000
 Mulliken charges with hydrogens summed into heavy atoms:
               1
     1  C    0.882491
     2  O   -0.684074
     3  N   -0.154678
     4  O   -0.043739
 Electronic spatial extent (au):  <R**2>=            494.1796
 Charge=             -0.0000 electrons
 Dipole moment (field-independent basis, Debye):
    X=             -6.8967    Y=              1.2401    Z=             -0.0006  Tot=              7.0073
 Quadrupole moment (field-independent basis, Debye-Ang):
   XX=            -24.0449   YY=            -22.4509   ZZ=            -23.2585
   XY=             -0.6096   XZ=             -0.0030   YZ=              0.0160
 Traceless Quadrupole moment (field-independent basis, Debye-Ang):
   XX=             -0.7935   YY=              0.8006   ZZ=             -0.0071
   XY=             -0.6096   XZ=             -0.0030   YZ=              0.0160
 Octapole moment (field-independent basis, Debye-Ang**2):
  XXX=            -82.5349  YYY=              5.5350  ZZZ=              0.0143  XYY=              0.9507
  XXY=              8.3361  XXZ=             -0.0377  XZZ=            -10.2342  YZZ=             -1.0411
  YYZ=             -0.0036  XYZ=             -0.0400
 Hexadecapole moment (field-independent basis, Debye-Ang**3):
 XXXX=           -400.7057 YYYY=            -52.7030 ZZZZ=            -24.6439 XXXY=             -2.5484
 XXXZ=              0.1334 YYYX=              2.9945 YYYZ=              0.0119 ZZZX=             -0.0227
 ZZZY=              0.0196 XXYY=            -99.2037 XXZZ=            -62.6634 YYZZ=            -16.3327
 XXYZ=              0.1320 YYXZ=              0.0087 ZZXY=              0.6767
 N-N= 1.171423106091D+02 E-N=-8.127331407910D+02  KE= 2.447201749088D+02
 Calling FoFJK, ICntrl=  10002127 FMM=F ISym2X=0 I1Cent= 0 IOpClX= 0 NMat=1 NMatS=1 NMatT=0.
 ***** Axes restored to original set *****
 -------------------------------------------------------------------
 Center     Atomic                   Forces (Hartrees/Bohr)
 Number     Number              X              Y              Z
 -------------------------------------------------------------------
      1        6          -0.015529180    0.000920763   -0.000009814
      2        8           0.032514989   -0.004274417    0.000025714
      3        7           0.005389551   -0.012985788    0.000003023
      4        8          -0.004853154   -0.000253901    0.000014384
      5        1          -0.000980661   -0.000047024   -0.000001729
      6        1          -0.001072592   -0.000821797   -0.000384764
      7        1          -0.001056693   -0.000799340    0.000385031
      8        1          -0.027861799   -0.005116628   -0.000044469
      9        1           0.013449540    0.023378130    0.000012624
 -------------------------------------------------------------------
 Cartesian Forces:  Max     0.032514989 RMS     0.010669315

 GradGradGradGradGradGradGradGradGradGradGradGradGradGradGradGradGradGrad
 Berny optimization.
 FormGI is forming the generalized inverse of G from B-inverse, IUseBI=4.
 Internal  Forces:  Max     0.035503200 RMS     0.011341960
 Search for a local minimum.
 Step number   1 out of a maximum of   37
 All quantities printed in internal units (Hartrees-Bohrs-Radians)
 Mixed Optimization -- RFO/linear search
 Second derivative matrix not updated -- first step.
 ITU=  0
     Eigenvalues ---    0.00230   0.01233   0.01948   0.02305   0.02305
     Eigenvalues ---    0.04014   0.05675   0.13434   0.16000   0.16000
     Eigenvalues ---    0.16000   0.16000   0.22000   0.25000   0.32620
     Eigenvalues ---    0.50521   0.50521   0.54061   0.54065   0.54252
     Eigenvalues ---    0.98155
 RFO step:  Lambda=-7.23984708D-03 EMin= 2.30000000D-03
 Linear search not attempted -- first point.
 Iteration  1 RMS(Cart)=  0.06394121 RMS(Int)=  0.00041195
 Iteration  2 RMS(Cart)=  0.00038392 RMS(Int)=  0.00003890
 Iteration  3 RMS(Cart)=  0.00000014 RMS(Int)=  0.00003890
 Variable       Old X    -DE/DX   Delta X   Delta X   Delta X     New X
                                 (Linear)    (Quad)   (Total)
    R1        2.29387   0.03193   0.00000   0.03229   0.03229   2.32616
    R2        2.55803   0.01268   0.00000   0.02306   0.02306   2.58109
    R3        2.09723   0.00050   0.00000   0.00149   0.00149   2.09873
    R4        1.86044   0.03550   0.00000   0.06928   0.06928   1.92972
    R5        1.86044   0.02666   0.00000   0.05203   0.05203   1.91246
    R6        1.82676   0.00013   0.00000   0.00024   0.00024   1.82700
    R7        1.82672   0.00014   0.00000   0.00026   0.00026   1.82698
    R8        3.47831   0.00706   0.00000   0.11037   0.11037   3.58868
    A1        2.14766   0.01206   0.00000   0.05307   0.05307   2.20073
    A2        2.15515  -0.00514   0.00000  -0.02123  -0.02123   2.13392
    A3        1.98037  -0.00692   0.00000  -0.03184  -0.03184   1.94853
    A4        2.09440   0.00247   0.00000   0.01474   0.01474   2.10914
    A5        2.09440  -0.00503   0.00000  -0.03005  -0.03005   2.06435
    A6        2.09440   0.00256   0.00000   0.01530   0.01530   2.10970
    A7        1.82717  -0.00115   0.00000  -0.00258  -0.00270   1.82447
    A8        1.99384   0.00084   0.00000   0.01144   0.01136   2.00520
    A9        2.00039   0.00157   0.00000   0.01289   0.01282   2.01320
   A10        2.81702   0.00286   0.00000   0.01113   0.01113   2.82815
    D1        3.14159  -0.00000   0.00000  -0.00005  -0.00005   3.14154
    D2       -0.00000   0.00000   0.00000   0.00002   0.00002   0.00002
    D3       -0.00003  -0.00000   0.00000  -0.00001  -0.00001  -0.00003
    D4        3.14157   0.00000   0.00000   0.00007   0.00007  -3.14155
    D5        0.00609  -0.00000   0.00000  -0.00024  -0.00024   0.00585
    D6       -3.13550  -0.00001   0.00000  -0.00031  -0.00031  -3.13582
    D7        2.19804   0.00124   0.00000   0.02115   0.02116   2.21920
    D8        2.08296  -0.00019   0.00000  -0.00871  -0.00879   2.07417
    D9       -2.09175   0.00017   0.00000   0.00724   0.00732  -2.08443
         Item               Value     Threshold  Converged?
 Maximum Force            0.035503     0.000450     NO 
 RMS     Force            0.011342     0.000300     NO 
 Maximum Displacement     0.142295     0.001800     NO 
 RMS     Displacement     0.063973     0.001200     NO 
 Predicted change in Energy=-3.721171D-03
 GradGradGradGradGradGradGradGradGradGradGradGradGradGradGradGradGradGrad

                          Input orientation:                          
 ---------------------------------------------------------------------
 Center     Atomic      Atomic             Coordinates (Angstroms)
 Number     Number       Type             X           Y           Z
 ---------------------------------------------------------------------
      1          6           0        1.081234   -0.287223   -0.000218
      2          8           0        2.309829   -0.211148    0.000890
      3          7           0        0.209944    0.764638   -0.000803
      4          8           0       -2.495031   -0.246186   -0.000117
      5          1           0        0.547531   -1.261179   -0.000893
      6          1           0       -3.050203   -0.047280    0.766001
      7          1           0       -3.056468   -0.053372   -0.763206
      8          1           0       -0.799220    0.608567   -0.001777
      9          1           0        0.590458    1.702410   -0.000309
 ---------------------------------------------------------------------
                    Distance matrix (angstroms):
                    1          2          3          4          5
     1  C    0.000000
     2  O    1.230949   0.000000
     3  N    1.365854   2.315530   0.000000
     4  O    3.576500   4.804988   2.887674   0.000000
     5  H    1.110598   2.051405   2.053753   3.207397   0.000000
     6  H    4.208733   5.416843   3.446123   0.966807   3.873676
     7  H    4.213954   5.422719   3.452514   0.966796   3.876690
     8  H    2.082918   3.215296   1.021162   1.899048   2.304276
     9  H    2.049269   2.572536   1.012031   3.649284   2.963900
                    6          7          8          9
     6  H    0.000000
     7  H    1.529233   0.000000
     8  H    2.467092   2.472470   0.000000
     9  H    4.111334   4.118842   1.768531   0.000000
 Stoichiometry    CH5NO2
 Framework group  C1[X(CH5NO2)]
 Deg. of freedom    21
 Full point group                 C1      NOp   1
 Largest Abelian subgroup         C1      NOp   1
 Largest concise Abelian subgroup C1      NOp   1
                         Standard orientation:                         
 ---------------------------------------------------------------------
 Center     Atomic      Atomic             Coordinates (Angstroms)
 Number     Number       Type             X           Y           Z
 ---------------------------------------------------------------------
      1          6           0        1.059301   -0.318038   -0.000191
      2          8           0        2.288159   -0.246331    0.000917
      3          7           0        0.191757    0.736914   -0.000775
      4          8           0       -2.516795   -0.264289   -0.000090
      5          1           0        0.522140   -1.290090   -0.000865
      6          1           0       -3.071257   -0.063410    0.766028
      7          1           0       -3.077543   -0.069480   -0.763179
      8          1           0       -0.817956    0.584432   -0.001750
      9          1           0        0.575602    1.673328   -0.000282
 ---------------------------------------------------------------------
 Rotational constants (GHZ):          29.8584751           2.2970164           2.1543589
 Standard basis: Aug-CC-pVDZ (5D, 7F)
 There are   145 symmetry adapted cartesian basis functions of A   symmetry.
 There are   137 symmetry adapted basis functions of A   symmetry.
   137 basis functions,   227 primitive gaussians,   145 cartesian basis functions
    17 alpha electrons       17 beta electrons
       nuclear repulsion energy       114.8643902974 Hartrees.
 NAtoms=    9 NActive=    9 NUniq=    9 SFac= 1.00D+00 NAtFMM=   60 NAOKFM=F Big=F
 Integral buffers will be    131072 words long.
 Raffenetti 1 integral format.
 Two-electron integral symmetry is turned on.
 One-electron integrals computed using PRISM.
 NBasis=   137 RedAO= T EigKep=  3.38D-04  NBF=   137
 NBsUse=   137 1.00D-06 EigRej= -1.00D+00 NBFU=   137
 Initial guess from the checkpoint file:  "/scr/Gau-73603.chk"
 B after Tr=     0.000000   -0.000000   -0.000000
         Rot=    1.000000   -0.000015    0.000047    0.000606 Ang=  -0.07 deg.
 ExpMin= 2.97D-02 ExpMax= 1.17D+04 ExpMxC= 4.01D+02 IAcc=3 IRadAn=         5 AccDes= 0.00D+00
 Harris functional with IExCor=  205 and IRadAn=       5 diagonalized for initial guess.
 HarFok:  IExCor=  205 AccDes= 0.00D+00 IRadAn=         5 IDoV= 1 UseB2=F ITyADJ=14
 ICtDFT=  3500011 ScaDFX=  1.000000  1.000000  1.000000  1.000000
 FoFCou: FMM=F IPFlag=           0 FMFlag=      100000 FMFlg1=           0
         NFxFlg=           0 DoJE=T BraDBF=F KetDBF=T FulRan=T
         wScrn=  0.000000 ICntrl=       500 IOpCl=  0 I1Cent=   200000004 NGrid=           0
         NMat0=    1 NMatS0=      1 NMatT0=    0 NMatD0=    1 NMtDS0=    0 NMtDT0=    0
 Petite list used in FoFCou.
 Keep R1 ints in memory in canonical form, NReq=53296627.
 Requested convergence on RMS density matrix=1.00D-08 within 128 cycles.
 Requested convergence on MAX density matrix=1.00D-06.
 Requested convergence on             energy=1.00D-06.
 No special actions if energy rises.
 SCF Done:  E(RHF) =  -245.006891978     A.U. after   11 cycles
            NFock= 11  Conv=0.51D-08     -V/T= 2.0022
 ExpMin= 2.97D-02 ExpMax= 1.17D+04 ExpMxC= 4.01D+02 IAcc=3 IRadAn=         5 AccDes= 0.00D+00
 HarFok:  IExCor=  205 AccDes= 0.00D+00 IRadAn=         5 IDoV=-2 UseB2=F ITyADJ=14
 ICtDFT= 12500011 ScaDFX=  1.000000  1.000000  1.000000  1.000000
 Range of M.O.s used for correlation:     5   137
 NBasis=   137 NAE=    17 NBE=    17 NFC=     4 NFV=     0
 NROrb=    133 NOA=    13 NOB=    13 NVA=   120 NVB=   120

 **** Warning!!: The largest alpha MO coefficient is  0.16768707D+02

 Fully direct method using O(ONN) memory.
 JobTyp=1 Pass  1:  I=   5 to  17 NPSUse= 40 ParTrn=T ParDer=T DoDerP=T.
 Spin components of T(2) and E(2):
     alpha-alpha T2 =       0.2927578076D-01 E2=     -0.9579941784D-01
     alpha-beta  T2 =       0.1610318084D+00 E2=     -0.5448342446D+00
     beta-beta   T2 =       0.2927578076D-01 E2=     -0.9579941784D-01
 ANorm=    0.1104347486D+01
 E2 =    -0.7364330803D+00 EUMP2 =    -0.24574332505804D+03
          IDoAtm=111111111
          Differentiating once with respect to electric field.
                with respect to dipole field.
          Differentiating once with respect to nuclear coordinates.
 Keep R1 ints in memory in canonical form, NReq=53302949.
          There are     1 degrees of freedom in the 1st order CPHF.  IDoFFX=0 NUNeed=     1.
 LinEq1:  Iter=  0 NonCon=     1 RMS=5.67D-03 Max=8.61D-02 NDo=     1
 AX will form     1 AO Fock derivatives at one time.
 LinEq1:  Iter=  1 NonCon=     1 RMS=1.62D-03 Max=1.54D-02 NDo=     1
 LinEq1:  Iter=  2 NonCon=     1 RMS=6.16D-04 Max=9.22D-03 NDo=     1
 LinEq1:  Iter=  3 NonCon=     1 RMS=2.12D-04 Max=2.32D-03 NDo=     1
 LinEq1:  Iter=  4 NonCon=     1 RMS=6.00D-05 Max=5.11D-04 NDo=     1
 LinEq1:  Iter=  5 NonCon=     1 RMS=1.74D-05 Max=1.95D-04 NDo=     1
 LinEq1:  Iter=  6 NonCon=     1 RMS=5.32D-06 Max=4.59D-05 NDo=     1
 LinEq1:  Iter=  7 NonCon=     1 RMS=1.40D-06 Max=1.17D-05 NDo=     1
 LinEq1:  Iter=  8 NonCon=     1 RMS=5.03D-07 Max=6.12D-06 NDo=     1
 LinEq1:  Iter=  9 NonCon=     1 RMS=1.56D-07 Max=2.19D-06 NDo=     1
 LinEq1:  Iter= 10 NonCon=     1 RMS=3.93D-08 Max=4.26D-07 NDo=     1
 LinEq1:  Iter= 11 NonCon=     1 RMS=8.93D-09 Max=6.61D-08 NDo=     1
 LinEq1:  Iter= 12 NonCon=     1 RMS=1.38D-09 Max=1.19D-08 NDo=     1
 LinEq1:  Iter= 13 NonCon=     1 RMS=1.93D-10 Max=1.64D-09 NDo=     1
 LinEq1:  Iter= 14 NonCon=     0 RMS=3.05D-11 Max=2.86D-10 NDo=     1
 Linear equations converged to 1.000D-10 1.000D-09 after    14 iterations.
 End of Minotr F.D. properties file   721 does not exist.
 End of Minotr F.D. properties file   722 does not exist.
 End of Minotr F.D. properties file   788 does not exist.
 Calling FoFJK, ICntrl=  10002127 FMM=F ISym2X=0 I1Cent= 0 IOpClX= 0 NMat=1 NMatS=1 NMatT=0.
 ***** Axes restored to original set *****
 -------------------------------------------------------------------
 Center     Atomic                   Forces (Hartrees/Bohr)
 Number     Number              X              Y              Z
 -------------------------------------------------------------------
      1        6          -0.004610302   -0.002502408   -0.000007646
      2        8           0.000503227    0.002584320    0.000002481
      3        7           0.001344224    0.001353585    0.000009934
      4        8          -0.001988522    0.001072851    0.000015402
      5        1           0.000251932   -0.000495558    0.000001236
      6        1          -0.000653988   -0.000709202   -0.000283133
      7        1          -0.000626104   -0.000685375    0.000285385
      8        1           0.005561539   -0.001255629   -0.000020256
      9        1           0.000217995    0.000637416   -0.000003403
 -------------------------------------------------------------------
 Cartesian Forces:  Max     0.005561539 RMS     0.001704224

 GradGradGradGradGradGradGradGradGradGradGradGradGradGradGradGradGradGrad
 Berny optimization.
 Using GEDIIS/GDIIS optimizer.
 FormGI is forming the generalized inverse of G from B-inverse, IUseBI=4.
 Internal  Forces:  Max     0.004272958 RMS     0.001449123
 Search for a local minimum.
 Step number   2 out of a maximum of   37
 All quantities printed in internal units (Hartrees-Bohrs-Radians)
 Mixed Optimization -- RFO/linear search
 Update second derivatives using D2CorX and points    1    2
 DE= -3.46D-03 DEPred=-3.72D-03 R= 9.31D-01
 TightC=F SS=  1.41D+00  RLast= 1.67D-01 DXNew= 5.0454D-01 5.0114D-01
 Trust test= 9.31D-01 RLast= 1.67D-01 DXMaxT set to 5.01D-01
 ITU=  1  0
 Use linear search instead of GDIIS.
     Eigenvalues ---    0.00230   0.01233   0.01935   0.02305   0.02305
     Eigenvalues ---    0.03830   0.05275   0.13501   0.15897   0.16000
     Eigenvalues ---    0.16000   0.16146   0.23980   0.24859   0.32616
     Eigenvalues ---    0.49955   0.52009   0.54061   0.54065   0.55975
     Eigenvalues ---    0.97343
 RFO step:  Lambda=-3.67203944D-04 EMin= 2.29999872D-03
 Quartic linear search produced a step of -0.01346.
 Iteration  1 RMS(Cart)=  0.01911583 RMS(Int)=  0.00007054
 Iteration  2 RMS(Cart)=  0.00009946 RMS(Int)=  0.00003805
 Iteration  3 RMS(Cart)=  0.00000001 RMS(Int)=  0.00003805
 Variable       Old X    -DE/DX   Delta X   Delta X   Delta X     New X
                                 (Linear)    (Quad)   (Total)
    R1        2.32616   0.00066  -0.00043   0.00257   0.00214   2.32829
    R2        2.58109  -0.00214  -0.00031  -0.00253  -0.00284   2.57825
    R3        2.09873   0.00031  -0.00002   0.00103   0.00101   2.09974
    R4        1.92972  -0.00202  -0.00093   0.00012  -0.00081   1.92891
    R5        1.91246   0.00067  -0.00070   0.00437   0.00367   1.91613
    R6        1.82700   0.00001  -0.00000   0.00002   0.00002   1.82702
    R7        1.82698   0.00000  -0.00000   0.00002   0.00001   1.82699
    R8        3.58868   0.00306  -0.00149   0.05898   0.05749   3.64617
    A1        2.20073  -0.00427  -0.00071  -0.01604  -0.01675   2.18398
    A2        2.13392   0.00165   0.00029   0.00536   0.00565   2.13957
    A3        1.94853   0.00262   0.00043   0.01068   0.01110   1.95963
    A4        2.10914  -0.00094  -0.00020  -0.00496  -0.00516   2.10398
    A5        2.06435   0.00051   0.00040   0.00139   0.00180   2.06614
    A6        2.10970   0.00044  -0.00021   0.00357   0.00336   2.11306
    A7        1.82447  -0.00072   0.00004   0.00026   0.00018   1.82465
    A8        2.00520   0.00059  -0.00015   0.01047   0.01023   2.01543
    A9        2.01320   0.00112  -0.00017   0.01137   0.01112   2.02432
   A10        2.82815   0.00230  -0.00015   0.00972   0.00957   2.83773
    D1        3.14154   0.00000   0.00000   0.00002   0.00003   3.14156
    D2        0.00002   0.00000  -0.00000   0.00010   0.00010   0.00012
    D3       -0.00003  -0.00000   0.00000  -0.00008  -0.00008  -0.00011
    D4       -3.14155  -0.00000  -0.00000  -0.00001  -0.00001  -3.14156
    D5        0.00585  -0.00000   0.00000  -0.00026  -0.00026   0.00559
    D6       -3.13582  -0.00000   0.00000  -0.00034  -0.00033  -3.13615
    D7        2.21920   0.00096  -0.00028   0.02161   0.02135   2.24056
    D8        2.07417  -0.00023   0.00012  -0.01179  -0.01174   2.06243
    D9       -2.08443   0.00021  -0.00010   0.00694   0.00692  -2.07751
         Item               Value     Threshold  Converged?
 Maximum Force            0.004273     0.000450     NO 
 RMS     Force            0.001449     0.000300     NO 
 Maximum Displacement     0.047439     0.001800     NO 
 RMS     Displacement     0.019141     0.001200     NO 
 Predicted change in Energy=-1.873538D-04
 GradGradGradGradGradGradGradGradGradGradGradGradGradGradGradGradGradGrad

                          Input orientation:                          
 ---------------------------------------------------------------------
 Center     Atomic      Atomic             Coordinates (Angstroms)
 Number     Number       Type             X           Y           Z
 ---------------------------------------------------------------------
      1          6           0        1.088066   -0.289997    0.000029
      2          8           0        2.316819   -0.199539    0.001391
      3          7           0        0.223115    0.765137   -0.001073
      4          8           0       -2.516790   -0.242917   -0.000856
      5          1           0        0.559957   -1.267608   -0.000350
      6          1           0       -3.073375   -0.052535    0.766415
      7          1           0       -3.081572   -0.055835   -0.762914
      8          1           0       -0.785617    0.609082   -0.002206
      9          1           0        0.607469    1.703440   -0.000867
 ---------------------------------------------------------------------
                    Distance matrix (angstroms):
                    1          2          3          4          5
     1  C    0.000000
     2  O    1.232079   0.000000
     3  N    1.364349   2.305255   0.000000
     4  O    3.605163   4.833804   2.919461   0.000000
     5  H    1.111135   2.056049   2.060464   3.242895   0.000000
     6  H    4.238081   5.446197   3.482021   0.966818   3.907101
     7  H    4.245326   5.454121   3.489319   0.966804   3.912880
     8  H    2.078230   3.206087   1.020733   1.929472   2.309229
     9  H    2.050553   2.557970   1.013973   3.680937   2.971428
                    6          7          8          9
     6  H    0.000000
     7  H    1.529354   0.000000
     8  H    2.502469   2.508425   0.000000
     9  H    4.149793   4.157498   1.771528   0.000000
 Stoichiometry    CH5NO2
 Framework group  C1[X(CH5NO2)]
 Deg. of freedom    21
 Full point group                 C1      NOp   1
 Largest Abelian subgroup         C1      NOp   1
 Largest concise Abelian subgroup C1      NOp   1
                         Standard orientation:                         
 ---------------------------------------------------------------------
 Center     Atomic      Atomic             Coordinates (Angstroms)
 Number     Number       Type             X           Y           Z
 ---------------------------------------------------------------------
      1          6           0        1.065070   -0.326056   -0.000456
      2          8           0        2.294334   -0.242825    0.000577
      3          7           0        0.206338    0.734146   -0.000523
      4          8           0       -2.539447   -0.257779   -0.000149
      5          1           0        0.531222   -1.300544   -0.001367
      6          1           0       -3.094660   -0.064680    0.767437
      7          1           0       -3.103360   -0.066832   -0.761891
      8          1           0       -0.803295    0.584027   -0.001443
      9          1           0        0.596203    1.670173    0.000235
 ---------------------------------------------------------------------
 Rotational constants (GHZ):          29.9653458           2.2678619           2.1292379
 Standard basis: Aug-CC-pVDZ (5D, 7F)
 There are   145 symmetry adapted cartesian basis functions of A   symmetry.
 There are   137 symmetry adapted basis functions of A   symmetry.
   137 basis functions,   227 primitive gaussians,   145 cartesian basis functions
    17 alpha electrons       17 beta electrons
       nuclear repulsion energy       114.5945101819 Hartrees.
 NAtoms=    9 NActive=    9 NUniq=    9 SFac= 1.00D+00 NAtFMM=   60 NAOKFM=F Big=F
 Integral buffers will be    131072 words long.
 Raffenetti 1 integral format.
 Two-electron integral symmetry is turned on.
 One-electron integrals computed using PRISM.
 NBasis=   137 RedAO= T EigKep=  3.40D-04  NBF=   137
 NBsUse=   137 1.00D-06 EigRej= -1.00D+00 NBFU=   137
 Initial guess from the checkpoint file:  "/scr/Gau-73603.chk"
 B after Tr=     0.000000   -0.000000    0.000000
         Rot=    0.999999   -0.000308   -0.000068    0.001022 Ang=  -0.12 deg.
 ExpMin= 2.97D-02 ExpMax= 1.17D+04 ExpMxC= 4.01D+02 IAcc=3 IRadAn=         5 AccDes= 0.00D+00
 Harris functional with IExCor=  205 and IRadAn=       5 diagonalized for initial guess.
 HarFok:  IExCor=  205 AccDes= 0.00D+00 IRadAn=         5 IDoV= 1 UseB2=F ITyADJ=14
 ICtDFT=  3500011 ScaDFX=  1.000000  1.000000  1.000000  1.000000
 FoFCou: FMM=F IPFlag=           0 FMFlag=      100000 FMFlg1=           0
         NFxFlg=           0 DoJE=T BraDBF=F KetDBF=T FulRan=T
         wScrn=  0.000000 ICntrl=       500 IOpCl=  0 I1Cent=   200000004 NGrid=           0
         NMat0=    1 NMatS0=      1 NMatT0=    0 NMatD0=    1 NMtDS0=    0 NMtDT0=    0
 Petite list used in FoFCou.
 Keep R1 ints in memory in canonical form, NReq=53296037.
 Requested convergence on RMS density matrix=1.00D-08 within 128 cycles.
 Requested convergence on MAX density matrix=1.00D-06.
 Requested convergence on             energy=1.00D-06.
 No special actions if energy rises.
 SCF Done:  E(RHF) =  -245.007295731     A.U. after    9 cycles
            NFock=  9  Conv=0.91D-08     -V/T= 2.0022
 ExpMin= 2.97D-02 ExpMax= 1.17D+04 ExpMxC= 4.01D+02 IAcc=3 IRadAn=         5 AccDes= 0.00D+00
 HarFok:  IExCor=  205 AccDes= 0.00D+00 IRadAn=         5 IDoV=-2 UseB2=F ITyADJ=14
 ICtDFT= 12500011 ScaDFX=  1.000000  1.000000  1.000000  1.000000
 Range of M.O.s used for correlation:     5   137
 NBasis=   137 NAE=    17 NBE=    17 NFC=     4 NFV=     0
 NROrb=    133 NOA=    13 NOB=    13 NVA=   120 NVB=   120

 **** Warning!!: The largest alpha MO coefficient is  0.16715407D+02

 Fully direct method using O(ONN) memory.
 JobTyp=1 Pass  1:  I=   5 to  17 NPSUse= 40 ParTrn=T ParDer=T DoDerP=T.
 Spin components of T(2) and E(2):
     alpha-alpha T2 =       0.2926850933D-01 E2=     -0.9575718318D-01
     alpha-beta  T2 =       0.1610760511D+00 E2=     -0.5447894981D+00
     beta-beta   T2 =       0.2926850933D-01 E2=     -0.9575718318D-01
 ANorm=    0.1104360933D+01
 E2 =    -0.7363038645D+00 EUMP2 =    -0.24574359959550D+03
          IDoAtm=111111111
          Differentiating once with respect to electric field.
                with respect to dipole field.
          Differentiating once with respect to nuclear coordinates.
 Keep R1 ints in memory in canonical form, NReq=53302071.
          There are     1 degrees of freedom in the 1st order CPHF.  IDoFFX=0 NUNeed=     1.
 LinEq1:  Iter=  0 NonCon=     1 RMS=5.68D-03 Max=8.68D-02 NDo=     1
 AX will form     1 AO Fock derivatives at one time.
 LinEq1:  Iter=  1 NonCon=     1 RMS=1.63D-03 Max=1.51D-02 NDo=     1
 LinEq1:  Iter=  2 NonCon=     1 RMS=6.17D-04 Max=9.30D-03 NDo=     1
 LinEq1:  Iter=  3 NonCon=     1 RMS=2.12D-04 Max=2.38D-03 NDo=     1
 LinEq1:  Iter=  4 NonCon=     1 RMS=6.03D-05 Max=5.30D-04 NDo=     1
 LinEq1:  Iter=  5 NonCon=     1 RMS=1.75D-05 Max=1.93D-04 NDo=     1
 LinEq1:  Iter=  6 NonCon=     1 RMS=5.40D-06 Max=4.64D-05 NDo=     1
 LinEq1:  Iter=  7 NonCon=     1 RMS=1.44D-06 Max=1.21D-05 NDo=     1
 LinEq1:  Iter=  8 NonCon=     1 RMS=5.26D-07 Max=7.00D-06 NDo=     1
 LinEq1:  Iter=  9 NonCon=     1 RMS=1.72D-07 Max=2.55D-06 NDo=     1
 LinEq1:  Iter= 10 NonCon=     1 RMS=4.21D-08 Max=4.05D-07 NDo=     1
 LinEq1:  Iter= 11 NonCon=     1 RMS=9.21D-09 Max=6.84D-08 NDo=     1
 LinEq1:  Iter= 12 NonCon=     1 RMS=1.40D-09 Max=1.24D-08 NDo=     1
 LinEq1:  Iter= 13 NonCon=     1 RMS=1.94D-10 Max=1.65D-09 NDo=     1
 LinEq1:  Iter= 14 NonCon=     0 RMS=3.06D-11 Max=2.73D-10 NDo=     1
 Linear equations converged to 1.000D-10 1.000D-09 after    14 iterations.
 End of Minotr F.D. properties file   721 does not exist.
 End of Minotr F.D. properties file   722 does not exist.
 End of Minotr F.D. properties file   788 does not exist.
 Calling FoFJK, ICntrl=  10002127 FMM=F ISym2X=0 I1Cent= 0 IOpClX= 0 NMat=1 NMatS=1 NMatT=0.
 ***** Axes restored to original set *****
 -------------------------------------------------------------------
 Center     Atomic                   Forces (Hartrees/Bohr)
 Number     Number              X              Y              Z
 -------------------------------------------------------------------
      1        6          -0.000581925    0.000089123    0.000008297
      2        8          -0.000065094    0.000008927   -0.000003306
      3        7          -0.001689204    0.001297015    0.000007217
      4        8          -0.001298712    0.001181703    0.000021503
      5        1           0.000338025    0.000356122   -0.000003443
      6        1          -0.000553204   -0.000638825   -0.000384188
      7        1          -0.000523937   -0.000617848    0.000382135
      8        1           0.004838571   -0.000365357   -0.000025256
      9        1          -0.000464521   -0.001310861   -0.000002958
 -------------------------------------------------------------------
 Cartesian Forces:  Max     0.004838571 RMS     0.001144315

 GradGradGradGradGradGradGradGradGradGradGradGradGradGradGradGradGradGrad
 Berny optimization.
 Using GEDIIS/GDIIS optimizer.
 FormGI is forming the generalized inverse of G from B-inverse, IUseBI=4.
 Internal  Forces:  Max     0.002366439 RMS     0.000838350
 Search for a local minimum.
 Step number   3 out of a maximum of   37
 All quantities printed in internal units (Hartrees-Bohrs-Radians)
 Mixed Optimization -- En-DIIS/RFO-DIIS
 Update second derivatives using D2CorX and points    1    2    3
 DE= -2.75D-04 DEPred=-1.87D-04 R= 1.47D+00
 TightC=F SS=  1.41D+00  RLast= 6.91D-02 DXNew= 8.4281D-01 2.0724D-01
 Trust test= 1.47D+00 RLast= 6.91D-02 DXMaxT set to 5.01D-01
 ITU=  1  1  0
 Use linear search instead of GDIIS.
     Eigenvalues ---    0.00230   0.01233   0.01932   0.01937   0.02305
     Eigenvalues ---    0.02305   0.04112   0.13357   0.15568   0.16000
     Eigenvalues ---    0.16040   0.16337   0.23567   0.29248   0.33394
     Eigenvalues ---    0.50664   0.54041   0.54063   0.54870   0.56803
     Eigenvalues ---    0.98141
 RFO step:  Lambda=-2.41114043D-04 EMin= 2.29959875D-03
 Quartic linear search produced a step of  0.97781.
 Iteration  1 RMS(Cart)=  0.04080813 RMS(Int)=  0.00035572
 Iteration  2 RMS(Cart)=  0.00047224 RMS(Int)=  0.00026055
 Iteration  3 RMS(Cart)=  0.00000020 RMS(Int)=  0.00026055
 Variable       Old X    -DE/DX   Delta X   Delta X   Delta X     New X
                                 (Linear)    (Quad)   (Total)
    R1        2.32829  -0.00006   0.00209   0.00096   0.00304   2.33134
    R2        2.57825  -0.00055  -0.00278   0.00027  -0.00251   2.57573
    R3        2.09974  -0.00047   0.00099  -0.00317  -0.00218   2.09756
    R4        1.92891  -0.00237  -0.00079  -0.00518  -0.00598   1.92293
    R5        1.91613  -0.00139   0.00359  -0.00384  -0.00025   1.91588
    R6        1.82702  -0.00011   0.00002  -0.00041  -0.00039   1.82663
    R7        1.82699  -0.00011   0.00001  -0.00041  -0.00040   1.82659
    R8        3.64617   0.00216   0.05622   0.06250   0.11872   3.76489
    A1        2.18398  -0.00011  -0.01638   0.00767  -0.00871   2.17528
    A2        2.13957  -0.00008   0.00552  -0.00429   0.00123   2.14080
    A3        1.95963   0.00019   0.01086  -0.00338   0.00748   1.96711
    A4        2.10398   0.00024  -0.00504   0.00558   0.00054   2.10452
    A5        2.06614  -0.00019   0.00176  -0.00456  -0.00280   2.06334
    A6        2.11306  -0.00006   0.00329  -0.00102   0.00226   2.11532
    A7        1.82465  -0.00071   0.00018  -0.00060  -0.00123   1.82341
    A8        2.01543   0.00054   0.01000   0.01499   0.02436   2.03979
    A9        2.02432   0.00100   0.01087   0.01602   0.02633   2.05066
   A10        2.83773   0.00186   0.00936   0.01221   0.02157   2.85930
    D1        3.14156  -0.00000   0.00003  -0.00037  -0.00035   3.14122
    D2        0.00012  -0.00000   0.00009  -0.00019  -0.00010   0.00002
    D3       -0.00011   0.00000  -0.00008   0.00023   0.00015   0.00004
    D4       -3.14156   0.00000  -0.00001   0.00041   0.00041  -3.14116
    D5        0.00559  -0.00000  -0.00025  -0.00001  -0.00026   0.00533
    D6       -3.13615  -0.00000  -0.00032  -0.00020  -0.00052  -3.13667
    D7        2.24056   0.00085   0.02088   0.03083   0.05182   2.29238
    D8        2.06243  -0.00018  -0.01148  -0.01710  -0.02906   2.03337
    D9       -2.07751   0.00017   0.00676   0.00946   0.01669  -2.06082
         Item               Value     Threshold  Converged?
 Maximum Force            0.002366     0.000450     NO 
 RMS     Force            0.000838     0.000300     NO 
 Maximum Displacement     0.106238     0.001800     NO 
 RMS     Displacement     0.040945     0.001200     NO 
 Predicted change in Energy=-2.006074D-04
 GradGradGradGradGradGradGradGradGradGradGradGradGradGradGradGradGradGrad

                          Input orientation:                          
 ---------------------------------------------------------------------
 Center     Atomic      Atomic             Coordinates (Angstroms)
 Number     Number       Type             X           Y           Z
 ---------------------------------------------------------------------
      1          6           0        1.111552   -0.289799    0.000842
      2          8           0        2.341024   -0.187882    0.002451
      3          7           0        0.246905    0.763862   -0.001672
      4          8           0       -2.564831   -0.232609   -0.002509
      5          1           0        0.591813   -1.270581    0.000888
      6          1           0       -3.125250   -0.063375    0.766666
      7          1           0       -3.137790   -0.059864   -0.761573
      8          1           0       -0.758706    0.608317   -0.003228
      9          1           0        0.633357    1.701159   -0.002297
 ---------------------------------------------------------------------
                    Distance matrix (angstroms):
                    1          2          3          4          5
     1  C    0.000000
     2  O    1.233689   0.000000
     3  N    1.363020   2.300254   0.000000
     4  O    3.676830   4.906061   2.983088   0.000000
     5  H    1.109983   2.057177   2.063474   3.322920   0.000000
     6  H    4.311409   5.520840   3.556135   0.966613   3.982502
     7  H    4.323316   5.533310   3.565408   0.966592   3.994636
     8  H    2.074728   3.200358   1.017571   1.992296   2.313909
     9  H    2.047583   2.546492   1.013840   3.737361   2.972032
                    6          7          8          9
     6  H    0.000000
     7  H    1.528294   0.000000
     8  H    2.577680   2.584877   0.000000
     9  H    4.222797   4.230751   1.769787   0.000000
 Stoichiometry    CH5NO2
 Framework group  C1[X(CH5NO2)]
 Deg. of freedom    21
 Full point group                 C1      NOp   1
 Largest Abelian subgroup         C1      NOp   1
 Largest concise Abelian subgroup C1      NOp   1
                         Standard orientation:                         
 ---------------------------------------------------------------------
 Center     Atomic      Atomic             Coordinates (Angstroms)
 Number     Number       Type             X           Y           Z
 ---------------------------------------------------------------------
      1          6           0        1.085250   -0.332070   -0.000531
      2          8           0        2.315452   -0.239384    0.000338
      3          7           0        0.228533    0.728052   -0.000037
      4          8           0       -2.590603   -0.247288   -0.000872
      5          1           0        0.558164   -1.308922   -0.002247
      6          1           0       -3.149145   -0.075560    0.769115
      7          1           0       -3.162832   -0.068566   -0.759102
      8          1           0       -0.778219    0.580061   -0.001148
      9          1           0        0.622008    1.662423    0.001108
 ---------------------------------------------------------------------
 Rotational constants (GHZ):          30.3184381           2.1974351           2.0686732
 Standard basis: Aug-CC-pVDZ (5D, 7F)
 There are   145 symmetry adapted cartesian basis functions of A   symmetry.
 There are   137 symmetry adapted basis functions of A   symmetry.
   137 basis functions,   227 primitive gaussians,   145 cartesian basis functions
    17 alpha electrons       17 beta electrons
       nuclear repulsion energy       113.9491366196 Hartrees.
 NAtoms=    9 NActive=    9 NUniq=    9 SFac= 1.00D+00 NAtFMM=   60 NAOKFM=F Big=F
 Integral buffers will be    131072 words long.
 Raffenetti 1 integral format.
 Two-electron integral symmetry is turned on.
 One-electron integrals computed using PRISM.
 NBasis=   137 RedAO= T EigKep=  3.41D-04  NBF=   137
 NBsUse=   137 1.00D-06 EigRej= -1.00D+00 NBFU=   137
 Initial guess from the checkpoint file:  "/scr/Gau-73603.chk"
 B after Tr=    -0.000000    0.000000    0.000000
         Rot=    0.999999   -0.000618   -0.000028    0.001249 Ang=  -0.16 deg.
 ExpMin= 2.97D-02 ExpMax= 1.17D+04 ExpMxC= 4.01D+02 IAcc=3 IRadAn=         5 AccDes= 0.00D+00
 Harris functional with IExCor=  205 and IRadAn=       5 diagonalized for initial guess.
 HarFok:  IExCor=  205 AccDes= 0.00D+00 IRadAn=         5 IDoV= 1 UseB2=F ITyADJ=14
 ICtDFT=  3500011 ScaDFX=  1.000000  1.000000  1.000000  1.000000
 FoFCou: FMM=F IPFlag=           0 FMFlag=      100000 FMFlg1=           0
         NFxFlg=           0 DoJE=T BraDBF=F KetDBF=T FulRan=T
         wScrn=  0.000000 ICntrl=       500 IOpCl=  0 I1Cent=   200000004 NGrid=           0
         NMat0=    1 NMatS0=      1 NMatT0=    0 NMatD0=    1 NMtDS0=    0 NMtDT0=    0
 Petite list used in FoFCou.
 Keep R1 ints in memory in canonical form, NReq=53295257.
 Requested convergence on RMS density matrix=1.00D-08 within 128 cycles.
 Requested convergence on MAX density matrix=1.00D-06.
 Requested convergence on             energy=1.00D-06.
 No special actions if energy rises.
 SCF Done:  E(RHF) =  -245.007972891     A.U. after   10 cycles
            NFock= 10  Conv=0.81D-08     -V/T= 2.0023
 ExpMin= 2.97D-02 ExpMax= 1.17D+04 ExpMxC= 4.01D+02 IAcc=3 IRadAn=         5 AccDes= 0.00D+00
 HarFok:  IExCor=  205 AccDes= 0.00D+00 IRadAn=         5 IDoV=-2 UseB2=F ITyADJ=14
 ICtDFT= 12500011 ScaDFX=  1.000000  1.000000  1.000000  1.000000
 Range of M.O.s used for correlation:     5   137
 NBasis=   137 NAE=    17 NBE=    17 NFC=     4 NFV=     0
 NROrb=    133 NOA=    13 NOB=    13 NVA=   120 NVB=   120

 **** Warning!!: The largest alpha MO coefficient is  0.16718234D+02

 Fully direct method using O(ONN) memory.
 JobTyp=1 Pass  1:  I=   5 to  17 NPSUse= 40 ParTrn=T ParDer=T DoDerP=T.
 Spin components of T(2) and E(2):
     alpha-alpha T2 =       0.2923968878D-01 E2=     -0.9565629662D-01
     alpha-beta  T2 =       0.1610390809D+00 E2=     -0.5445866096D+00
     beta-beta   T2 =       0.2923968878D-01 E2=     -0.9565629662D-01
 ANorm=    0.1104318097D+01
 E2 =    -0.7358992029D+00 EUMP2 =    -0.24574387209367D+03
          IDoAtm=111111111
          Differentiating once with respect to electric field.
                with respect to dipole field.
          Differentiating once with respect to nuclear coordinates.
 Keep R1 ints in memory in canonical form, NReq=53301232.
          There are     1 degrees of freedom in the 1st order CPHF.  IDoFFX=0 NUNeed=     1.
 LinEq1:  Iter=  0 NonCon=     1 RMS=5.68D-03 Max=8.80D-02 NDo=     1
 AX will form     1 AO Fock derivatives at one time.
 LinEq1:  Iter=  1 NonCon=     1 RMS=1.63D-03 Max=1.44D-02 NDo=     1
 LinEq1:  Iter=  2 NonCon=     1 RMS=6.18D-04 Max=9.38D-03 NDo=     1
 LinEq1:  Iter=  3 NonCon=     1 RMS=2.12D-04 Max=2.44D-03 NDo=     1
 LinEq1:  Iter=  4 NonCon=     1 RMS=6.05D-05 Max=5.41D-04 NDo=     1
 LinEq1:  Iter=  5 NonCon=     1 RMS=1.77D-05 Max=1.87D-04 NDo=     1
 LinEq1:  Iter=  6 NonCon=     1 RMS=5.51D-06 Max=4.72D-05 NDo=     1
 LinEq1:  Iter=  7 NonCon=     1 RMS=1.51D-06 Max=1.25D-05 NDo=     1
 LinEq1:  Iter=  8 NonCon=     1 RMS=5.56D-07 Max=7.91D-06 NDo=     1
 LinEq1:  Iter=  9 NonCon=     1 RMS=1.88D-07 Max=2.93D-06 NDo=     1
 LinEq1:  Iter= 10 NonCon=     1 RMS=4.42D-08 Max=4.32D-07 NDo=     1
 LinEq1:  Iter= 11 NonCon=     1 RMS=9.36D-09 Max=7.00D-08 NDo=     1
 LinEq1:  Iter= 12 NonCon=     1 RMS=1.40D-09 Max=1.26D-08 NDo=     1
 LinEq1:  Iter= 13 NonCon=     1 RMS=1.92D-10 Max=1.61D-09 NDo=     1
 LinEq1:  Iter= 14 NonCon=     0 RMS=3.00D-11 Max=2.51D-10 NDo=     1
 Linear equations converged to 1.000D-10 1.000D-09 after    14 iterations.
 End of Minotr F.D. properties file   721 does not exist.
 End of Minotr F.D. properties file   722 does not exist.
 End of Minotr F.D. properties file   788 does not exist.
 Calling FoFJK, ICntrl=  10002127 FMM=F ISym2X=0 I1Cent= 0 IOpClX= 0 NMat=1 NMatS=1 NMatT=0.
 ***** Axes restored to original set *****
 -------------------------------------------------------------------
 Center     Atomic                   Forces (Hartrees/Bohr)
 Number     Number              X              Y              Z
 -------------------------------------------------------------------
      1        6           0.003343313    0.001277650   -0.000053368
      2        8          -0.001837733   -0.001163604    0.000019680
      3        7          -0.001582076    0.000814846    0.000025383
      4        8          -0.000061869    0.001329652    0.000032879
      5        1          -0.000106619    0.000103218    0.000017283
      6        1          -0.000408514   -0.000500326   -0.000275753
      7        1          -0.000379895   -0.000487547    0.000265350
      8        1           0.001911117   -0.000189941   -0.000032186
      9        1          -0.000877726   -0.001183949    0.000000731
 -------------------------------------------------------------------
 Cartesian Forces:  Max     0.003343313 RMS     0.001041983

 GradGradGradGradGradGradGradGradGradGradGradGradGradGradGradGradGradGrad
 Berny optimization.
 Using GEDIIS/GDIIS optimizer.
 FormGI is forming the generalized inverse of G from B-inverse, IUseBI=4.
 Internal  Forces:  Max     0.001927551 RMS     0.000760960
 Search for a local minimum.
 Step number   4 out of a maximum of   37
 All quantities printed in internal units (Hartrees-Bohrs-Radians)
 Mixed Optimization -- En-DIIS/RFO-DIIS
 Swapping is turned off.
 Update second derivatives using D2CorX and points    1    2    3    4
 DE= -2.72D-04 DEPred=-2.01D-04 R= 1.36D+00
 TightC=F SS=  1.41D+00  RLast= 1.41D-01 DXNew= 8.4281D-01 4.2278D-01
 Trust test= 1.36D+00 RLast= 1.41D-01 DXMaxT set to 5.01D-01
 ITU=  1  1  1  0
     Eigenvalues ---    0.00230   0.01125   0.01233   0.01933   0.02305
     Eigenvalues ---    0.02306   0.03955   0.13450   0.15498   0.16004
     Eigenvalues ---    0.16203   0.16362   0.23291   0.31448   0.33984
     Eigenvalues ---    0.50768   0.54048   0.54063   0.54620   0.59302
     Eigenvalues ---    1.02079
 En-DIIS/RFO-DIIS/Sim-DIIS IScMMF=       -3 using points:     4    3
 RFO step:  Lambda=-1.44810949D-04.
 DidBck=F Rises=F RFO-DIIS coefs:    1.70975   -0.70975
 Iteration  1 RMS(Cart)=  0.02875594 RMS(Int)=  0.00036210
 Iteration  2 RMS(Cart)=  0.00026408 RMS(Int)=  0.00033535
 Iteration  3 RMS(Cart)=  0.00000006 RMS(Int)=  0.00033535
 Variable       Old X    -DE/DX   Delta X   Delta X   Delta X     New X
                                 (Linear)    (Quad)   (Total)
    R1        2.33134  -0.00193   0.00216  -0.00265  -0.00049   2.33085
    R2        2.57573   0.00072  -0.00178   0.00205   0.00027   2.57600
    R3        2.09756  -0.00004  -0.00155   0.00140  -0.00015   2.09741
    R4        1.92293  -0.00107  -0.00424   0.00047  -0.00378   1.91915
    R5        1.91588  -0.00143  -0.00018  -0.00123  -0.00141   1.91447
    R6        1.82663  -0.00007  -0.00028   0.00001  -0.00027   1.82636
    R7        1.82659  -0.00007  -0.00028   0.00001  -0.00028   1.82632
    R8        3.76489   0.00063   0.08426  -0.00734   0.07692   3.84181
    A1        2.17528   0.00167  -0.00618   0.00739   0.00121   2.17648
    A2        2.14080  -0.00068   0.00087  -0.00219  -0.00132   2.13948
    A3        1.96711  -0.00098   0.00531  -0.00520   0.00011   1.96722
    A4        2.10452   0.00056   0.00038   0.00243   0.00281   2.10733
    A5        2.06334   0.00007  -0.00199   0.00236   0.00037   2.06371
    A6        2.11532  -0.00062   0.00161  -0.00479  -0.00318   2.11214
    A7        1.82341  -0.00053  -0.00088   0.00083  -0.00110   1.82232
    A8        2.03979   0.00040   0.01729   0.00416   0.02062   2.06041
    A9        2.05066   0.00072   0.01869   0.00439   0.02233   2.07298
   A10        2.85930   0.00121   0.01531   0.00217   0.01748   2.87678
    D1        3.14122   0.00002  -0.00025   0.00145   0.00120  -3.14077
    D2        0.00002   0.00002  -0.00007   0.00139   0.00132   0.00134
    D3        0.00004  -0.00002   0.00011  -0.00121  -0.00111  -0.00106
    D4       -3.14116  -0.00002   0.00029  -0.00128  -0.00099   3.14104
    D5        0.00533   0.00000  -0.00019   0.00047   0.00029   0.00561
    D6       -3.13667   0.00000  -0.00037   0.00054   0.00017  -3.13650
    D7        2.29238   0.00065   0.03678   0.01003   0.04693   2.33931
    D8        2.03337  -0.00016  -0.02062  -0.00389  -0.02510   2.00827
    D9       -2.06082   0.00016   0.01185   0.00586   0.01829  -2.04253
         Item               Value     Threshold  Converged?
 Maximum Force            0.001928     0.000450     NO 
 RMS     Force            0.000761     0.000300     NO 
 Maximum Displacement     0.074517     0.001800     NO 
 RMS     Displacement     0.028813     0.001200     NO 
 Predicted change in Energy=-7.389448D-05
 GradGradGradGradGradGradGradGradGradGradGradGradGradGradGradGradGradGrad

                          Input orientation:                          
 ---------------------------------------------------------------------
 Center     Atomic      Atomic             Coordinates (Angstroms)
 Number     Number       Type             X           Y           Z
 ---------------------------------------------------------------------
      1          6           0        1.131439   -0.288590    0.000548
      2          8           0        2.360407   -0.183792    0.003539
      3          7           0        0.262946    0.762088   -0.002161
      4          8           0       -2.597693   -0.221072   -0.003403
      5          1           0        0.615345   -1.271205    0.001725
      6          1           0       -3.161995   -0.070823    0.766696
      7          1           0       -3.177223   -0.063679   -0.760629
      8          1           0       -0.740573    0.606088   -0.003844
      9          1           0        0.645420    1.700211   -0.002903
 ---------------------------------------------------------------------
                    Distance matrix (angstroms):
                    1          2          3          4          5
     1  C    0.000000
     2  O    1.233431   0.000000
     3  N    1.363163   2.300883   0.000000
     4  O    3.729746   4.958245   3.024874   0.000000
     5  H    1.109904   2.056140   2.063609   3.380299   0.000000
     6  H    4.366690   5.576028   3.607645   0.966470   4.036632
     7  H    4.381158   5.591397   3.618276   0.966446   4.052515
     8  H    2.074825   3.200006   1.015573   2.033000   2.315767
     9  H    2.047329   2.547682   1.013096   3.769498   2.971572
                    6          7          8          9
     6  H    0.000000
     7  H    1.527418   0.000000
     8  H    2.629682   2.637911   0.000000
     9  H    4.269105   4.277623   1.765809   0.000000
 Stoichiometry    CH5NO2
 Framework group  C1[X(CH5NO2)]
 Deg. of freedom    21
 Full point group                 C1      NOp   1
 Largest Abelian subgroup         C1      NOp   1
 Largest concise Abelian subgroup C1      NOp   1
                         Standard orientation:                         
 ---------------------------------------------------------------------
 Center     Atomic      Atomic             Coordinates (Angstroms)
 Number     Number       Type             X           Y           Z
 ---------------------------------------------------------------------
      1          6           0        1.102312   -0.333504   -0.001344
      2          8           0        2.331985   -0.237308    0.000668
      3          7           0        0.241186    0.723223    0.000115
      4          8           0       -2.626259   -0.239907   -0.001135
      5          1           0        0.579360   -1.312486   -0.002657
      6          1           0       -3.188697   -0.088104    0.770023
      7          1           0       -3.205459   -0.076121   -0.757256
      8          1           0       -0.763401    0.574249   -0.000987
      9          1           0        0.630211    1.658648    0.001868
 ---------------------------------------------------------------------
 Rotational constants (GHZ):          30.6263342           2.1482562           2.0263699
 Standard basis: Aug-CC-pVDZ (5D, 7F)
 There are   145 symmetry adapted cartesian basis functions of A   symmetry.
 There are   137 symmetry adapted basis functions of A   symmetry.
   137 basis functions,   227 primitive gaussians,   145 cartesian basis functions
    17 alpha electrons       17 beta electrons
       nuclear repulsion energy       113.4997855415 Hartrees.
 NAtoms=    9 NActive=    9 NUniq=    9 SFac= 1.00D+00 NAtFMM=   60 NAOKFM=F Big=F
 Integral buffers will be    131072 words long.
 Raffenetti 1 integral format.
 Two-electron integral symmetry is turned on.
 One-electron integrals computed using PRISM.
 NBasis=   137 RedAO= T EigKep=  3.43D-04  NBF=   137
 NBsUse=   137 1.00D-06 EigRej= -1.00D+00 NBFU=   137
 Initial guess from the checkpoint file:  "/scr/Gau-73603.chk"
 B after Tr=    -0.000000    0.000000    0.000000
         Rot=    1.000000   -0.000352   -0.000016    0.000504 Ang=  -0.07 deg.
 ExpMin= 2.97D-02 ExpMax= 1.17D+04 ExpMxC= 4.01D+02 IAcc=3 IRadAn=         5 AccDes= 0.00D+00
 Harris functional with IExCor=  205 and IRadAn=       5 diagonalized for initial guess.
 HarFok:  IExCor=  205 AccDes= 0.00D+00 IRadAn=         5 IDoV= 1 UseB2=F ITyADJ=14
 ICtDFT=  3500011 ScaDFX=  1.000000  1.000000  1.000000  1.000000
 FoFCou: FMM=F IPFlag=           0 FMFlag=      100000 FMFlg1=           0
         NFxFlg=           0 DoJE=T BraDBF=F KetDBF=T FulRan=T
         wScrn=  0.000000 ICntrl=       500 IOpCl=  0 I1Cent=   200000004 NGrid=           0
         NMat0=    1 NMatS0=      1 NMatT0=    0 NMatD0=    1 NMtDS0=    0 NMtDT0=    0
 Petite list used in FoFCou.
 Keep R1 ints in memory in canonical form, NReq=53294110.
 Requested convergence on RMS density matrix=1.00D-08 within 128 cycles.
 Requested convergence on MAX density matrix=1.00D-06.
 Requested convergence on             energy=1.00D-06.
 No special actions if energy rises.
 SCF Done:  E(RHF) =  -245.008397797     A.U. after   10 cycles
            NFock= 10  Conv=0.42D-08     -V/T= 2.0023
 ExpMin= 2.97D-02 ExpMax= 1.17D+04 ExpMxC= 4.01D+02 IAcc=3 IRadAn=         5 AccDes= 0.00D+00
 HarFok:  IExCor=  205 AccDes= 0.00D+00 IRadAn=         5 IDoV=-2 UseB2=F ITyADJ=14
 ICtDFT= 12500011 ScaDFX=  1.000000  1.000000  1.000000  1.000000
 Range of M.O.s used for correlation:     5   137
 NBasis=   137 NAE=    17 NBE=    17 NFC=     4 NFV=     0
 NROrb=    133 NOA=    13 NOB=    13 NVA=   120 NVB=   120

 **** Warning!!: The largest alpha MO coefficient is  0.16747649D+02

 Fully direct method using O(ONN) memory.
 JobTyp=1 Pass  1:  I=   5 to  17 NPSUse= 40 ParTrn=T ParDer=T DoDerP=T.
 Spin components of T(2) and E(2):
     alpha-alpha T2 =       0.2921255356D-01 E2=     -0.9558195481D-01
     alpha-beta  T2 =       0.1609715649D+00 E2=     -0.5444114755D+00
     beta-beta   T2 =       0.2921255356D-01 E2=     -0.9558195481D-01
 ANorm=    0.1104262954D+01
 E2 =    -0.7355753851D+00 EUMP2 =    -0.24574397318248D+03
          IDoAtm=111111111
          Differentiating once with respect to electric field.
                with respect to dipole field.
          Differentiating once with respect to nuclear coordinates.
 Keep R1 ints in memory in canonical form, NReq=53300721.
          There are     1 degrees of freedom in the 1st order CPHF.  IDoFFX=0 NUNeed=     1.
 LinEq1:  Iter=  0 NonCon=     1 RMS=5.67D-03 Max=8.82D-02 NDo=     1
 AX will form     1 AO Fock derivatives at one time.
 LinEq1:  Iter=  1 NonCon=     1 RMS=1.63D-03 Max=1.42D-02 NDo=     1
 LinEq1:  Iter=  2 NonCon=     1 RMS=6.17D-04 Max=9.36D-03 NDo=     1
 LinEq1:  Iter=  3 NonCon=     1 RMS=2.11D-04 Max=2.43D-03 NDo=     1
 LinEq1:  Iter=  4 NonCon=     1 RMS=6.04D-05 Max=5.43D-04 NDo=     1
 LinEq1:  Iter=  5 NonCon=     1 RMS=1.77D-05 Max=1.86D-04 NDo=     1
 LinEq1:  Iter=  6 NonCon=     1 RMS=5.50D-06 Max=4.74D-05 NDo=     1
 LinEq1:  Iter=  7 NonCon=     1 RMS=1.51D-06 Max=1.25D-05 NDo=     1
 LinEq1:  Iter=  8 NonCon=     1 RMS=5.56D-07 Max=7.90D-06 NDo=     1
 LinEq1:  Iter=  9 NonCon=     1 RMS=1.87D-07 Max=2.97D-06 NDo=     1
 LinEq1:  Iter= 10 NonCon=     1 RMS=4.40D-08 Max=4.27D-07 NDo=     1
 LinEq1:  Iter= 11 NonCon=     1 RMS=9.30D-09 Max=6.99D-08 NDo=     1
 LinEq1:  Iter= 12 NonCon=     1 RMS=1.39D-09 Max=1.23D-08 NDo=     1
 LinEq1:  Iter= 13 NonCon=     1 RMS=1.92D-10 Max=1.57D-09 NDo=     1
 LinEq1:  Iter= 14 NonCon=     0 RMS=3.31D-11 Max=4.44D-10 NDo=     1
 Linear equations converged to 1.000D-10 1.000D-09 after    14 iterations.
 End of Minotr F.D. properties file   721 does not exist.
 End of Minotr F.D. properties file   722 does not exist.
 End of Minotr F.D. properties file   788 does not exist.
 Calling FoFJK, ICntrl=  10002127 FMM=F ISym2X=0 I1Cent= 0 IOpClX= 0 NMat=1 NMatS=1 NMatT=0.
 ***** Axes restored to original set *****
 -------------------------------------------------------------------
 Center     Atomic                   Forces (Hartrees/Bohr)
 Number     Number              X              Y              Z
 -------------------------------------------------------------------
      1        6           0.003014397    0.000803953    0.000238189
      2        8          -0.001773318   -0.000810786   -0.000094084
      3        7          -0.000490956    0.000511192   -0.000034436
      4        8           0.000515179    0.001352699    0.000040740
      5        1          -0.000238291    0.000079566   -0.000079906
      6        1          -0.000299481   -0.000418169   -0.000172094
      7        1          -0.000270481   -0.000406839    0.000156781
      8        1           0.000190262   -0.000549300   -0.000056106
      9        1          -0.000647313   -0.000562316    0.000000916
 -------------------------------------------------------------------
 Cartesian Forces:  Max     0.003014397 RMS     0.000814320

 GradGradGradGradGradGradGradGradGradGradGradGradGradGradGradGradGradGrad
 Berny optimization.
 Using GEDIIS/GDIIS optimizer.
 FormGI is forming the generalized inverse of G from B-inverse, IUseBI=4.
 Internal  Forces:  Max     0.001836017 RMS     0.000566160
 Search for a local minimum.
 Step number   5 out of a maximum of   37
 All quantities printed in internal units (Hartrees-Bohrs-Radians)
 Mixed Optimization -- En-DIIS/RFO-DIIS
 Swapping is turned off.
 Update second derivatives using D2CorX and points    1    2    3    4    5
 DE= -1.01D-04 DEPred=-7.39D-05 R= 1.37D+00
 TightC=F SS=  1.41D+00  RLast= 1.02D-01 DXNew= 8.4281D-01 3.0533D-01
 Trust test= 1.37D+00 RLast= 1.02D-01 DXMaxT set to 5.01D-01
 ITU=  1  1  1  1  0
     Eigenvalues ---    0.00230   0.00711   0.01234   0.01935   0.02305
     Eigenvalues ---    0.02348   0.04121   0.13415   0.15390   0.16016
     Eigenvalues ---    0.16230   0.16344   0.22917   0.31526   0.33986
     Eigenvalues ---    0.51002   0.52816   0.54063   0.54080   0.57233
     Eigenvalues ---    0.99096
 En-DIIS/RFO-DIIS/Sim-DIIS IScMMF=       -3 using points:     5    4    3
 RFO step:  Lambda=-7.27075003D-05.
 DidBck=F Rises=F RFO-DIIS coefs:    0.94709    0.51797   -0.46506
 Iteration  1 RMS(Cart)=  0.01561100 RMS(Int)=  0.00036240
 Iteration  2 RMS(Cart)=  0.00009518 RMS(Int)=  0.00035795
 Iteration  3 RMS(Cart)=  0.00000001 RMS(Int)=  0.00035795
 Variable       Old X    -DE/DX   Delta X   Delta X   Delta X     New X
                                 (Linear)    (Quad)   (Total)
    R1        2.33085  -0.00184   0.00144  -0.00241  -0.00097   2.32988
    R2        2.57600   0.00058  -0.00118   0.00142   0.00024   2.57624
    R3        2.09741   0.00004  -0.00100   0.00105   0.00004   2.09746
    R4        1.91915  -0.00013  -0.00258   0.00067  -0.00191   1.91725
    R5        1.91447  -0.00077  -0.00004  -0.00095  -0.00099   1.91348
    R6        1.82636  -0.00003  -0.00017   0.00002  -0.00014   1.82622
    R7        1.82632  -0.00003  -0.00017   0.00002  -0.00015   1.82617
    R8        3.84181  -0.00016   0.05114  -0.01226   0.03888   3.88069
    A1        2.17648   0.00119  -0.00411   0.00521   0.00109   2.17757
    A2        2.13948  -0.00034   0.00064  -0.00087  -0.00023   2.13925
    A3        1.96722  -0.00086   0.00347  -0.00433  -0.00086   1.96636
    A4        2.10733   0.00029   0.00010   0.00129   0.00140   2.10873
    A5        2.06371   0.00023  -0.00132   0.00255   0.00123   2.06494
    A6        2.11214  -0.00051   0.00122  -0.00385  -0.00262   2.10952
    A7        1.82232  -0.00037  -0.00052   0.00126  -0.00038   1.82194
    A8        2.06041   0.00030   0.01024   0.00381   0.01316   2.07357
    A9        2.07298   0.00053   0.01106   0.00404   0.01428   2.08726
   A10        2.87678   0.00088   0.00911   0.00182   0.01093   2.88771
    D1       -3.14077  -0.00009  -0.00023  -0.00232  -0.00255   3.13987
    D2        0.00134  -0.00008  -0.00011  -0.00203  -0.00214  -0.00080
    D3       -0.00106   0.00007   0.00013   0.00179   0.00192   0.00085
    D4        3.14104   0.00008   0.00024   0.00208   0.00232  -3.13982
    D5        0.00561   0.00001  -0.00014   0.00072   0.00058   0.00620
    D6       -3.13650   0.00000  -0.00025   0.00041   0.00016  -3.13634
    D7        2.33931   0.00052   0.02162   0.01036   0.03208   2.37140
    D8        2.00827  -0.00016  -0.01219  -0.00418  -0.01698   1.99129
    D9       -2.04253   0.00016   0.00679   0.00649   0.01389  -2.02864
         Item               Value     Threshold  Converged?
 Maximum Force            0.001836     0.000450     NO 
 RMS     Force            0.000566     0.000300     NO 
 Maximum Displacement     0.039300     0.001800     NO 
 RMS     Displacement     0.015624     0.001200     NO 
 Predicted change in Energy=-2.997705D-05
 GradGradGradGradGradGradGradGradGradGradGradGradGradGradGradGradGradGrad

                          Input orientation:                          
 ---------------------------------------------------------------------
 Center     Atomic      Atomic             Coordinates (Angstroms)
 Number     Number       Type             X           Y           Z
 ---------------------------------------------------------------------
      1          6           0        1.142630   -0.287995    0.001898
      2          8           0        2.370968   -0.181809    0.002805
      3          7           0        0.271688    0.760817   -0.001791
      4          8           0       -2.614927   -0.212498   -0.003666
      5          1           0        0.627900   -1.271351    0.001423
      6          1           0       -3.182163   -0.074536    0.766481
      7          1           0       -3.198020   -0.067288   -0.760491
      8          1           0       -0.730697    0.604108   -0.003843
      9          1           0        0.650694    1.699779   -0.003249
 ---------------------------------------------------------------------
                    Distance matrix (angstroms):
                    1          2          3          4          5
     1  C    0.000000
     2  O    1.232920   0.000000
     3  N    1.363290   2.301204   0.000000
     4  O    3.758319   4.985993   3.046291   0.000000
     5  H    1.109926   2.055575   2.063153   3.411322   0.000000
     6  H    4.397043   5.606422   3.635539   0.966394   4.066234
[...]
 ,-0.00000031,-0.00101255,-0.00089502,-0.00000222,0.00014864,-0.0000268
 7,0.00006340,0.00014806,-0.00002677,-0.00006408,-0.00113171,0.00203545
 ,-0.00243512,0.00000559,0.00010504,0.00094557,0.00001011,-0.00011100,0
 .00208472,-0.00001287,0.00009613,0.00001408,0.00000060,-0.00186338,0.0
 0195882,-0.00001080,0.00008375,-0.00002838,-0.00000571,0.00008404,-0.0
 0002874,0.00000519,-0.00087566,-0.00246930,-0.00001105,-0.00001032,0.0
 0184560,0.00000904,0.00000606,-0.00012658,-0.00000830,-0.00001076,-0.0
 0152593,0.00000005,-0.00000082,-0.00018243,0.00000393,-0.00000418,-0.0
 0120624,0.00000570,-0.00000201,0.00000287,-0.00000599,0.00000275,0.000
 00185,0.00000199,0.00001153,0.00053593,-0.00147203,0.00359219,-0.00000
 582,0.00008427,0.00070305,-0.00000113,0.00299124,-0.00254175,-0.000003
 25,0.00002751,0.00000872,-0.00000033,-0.00237884,-0.00329090,0.0000071
 8,0.00000844,0.00000340,-0.00000272,0.00000822,0.00000357,0.00000272,0
 .00039883,0.00044564,0.00000464,0.00033235,-0.00006091,-0.00011480,0.0
 0000851,-0.00099581,-0.00075244,-0.00000417,-0.00301745,0.00031383,-0.
 00002793,0.00002236,0.00001331,-0.00000045,0.00324255,0.00188195,0.000
 00887,0.00000828,-0.00001644,-0.00000215,0.00000822,-0.00001629,0.0000
 0227,-0.00028334,-0.00004166,0.00000775,0.00107608,-0.00126745,0.00001
 658,-0.00000797,-0.00349771,0.00000086,-0.00000738,0.00069947,-0.00000
 536,0.00000695,0.00232627,-0.00000073,0.00000028,-0.00001634,-0.000006
 54,0.00000457,0.00220676,0.00000836,-0.00000248,-0.00000241,-0.0000083
 7,0.00000237,-0.00000251,-0.00000351,-0.00000364,0.00065492,-0.0000013
 0,0.00000730,-0.00236845,-0.01269889,-0.00522829,-0.01362967,0.0000909
 0,-0.00020016,-0.00539641,0.00613670,-0.00187608,-0.00000521,-0.003430
 16,0.00270466,0.00634948,0.00005756,-0.00128997,-0.00372312,-0.0000086
 8,0.00006909,0.00175117,-0.00000817,-0.00004568,-0.00202676,0.00380891
 ,-0.01020596,-0.00000984,-0.00677923,0.00217962,-0.00004271,3.25416586
 ,-0.01819957,0.00515853,0.00008299,0.00317308,-0.00019114,-0.00002602,
 1.45351554,0.82165361,-0.00006497,0.00006964,-0.00536107,0.00001044,-0
 .00001603,0.00051992,-0.00059101,-0.00231340,-1.06133642,-0.00039694,-
 0.00689563,0.00001119,-0.00336041,0.00274740,-0.00000652,-0.00575890,0
 .00188515,0.00000100,0.00565850,-0.00012477,-0.00181370,0.00000427,-0.
 00112329,0.00069336,-0.00000302,-0.00201240,0.00072054,-0.00000049,-0.
 00101232,-0.00737924,0.00000096,0.00003299,0.00066478,0.00001489,-0.00
 001297,-0.00032483,0.00001584,-0.00001045,0.00116420,0.00005429,0.0000
 3110,0.01489742,0.00249561,0.00049538,-0.00004137,-0.00035595,-0.00016
 171,0.00005865,-0.00069097,0.00163410,0.00000853,0.00007887,0.00003345
 ,-0.00000078,-0.00202502,-0.00188084,0.00166908,0.00003360,0.00007646,
 -0.00045002,-0.00000520,0.00142210,-0.00151663,0.00002433,0.00055536,0
 .00009371,-0.00000274,0.00136132,-0.00173417,0.00000423,0.00006912,0.0
 0219957,-0.00000627,0.00000514,-0.00045888,0.00003009,-0.00001862,0.00
 021916,0.,0.00000091,0.00003460,-0.00003100,-0.00005299,-0.00069259,-0
 .00008924,-0.00113103,-0.00013836,-0.00048930,0.00043288,0.00006041,-0
 .00042077,0.00053575,-0.00025157,-0.00278165,-0.00069166,-0.00366846,0
 .00000149,0.00011096,0.00000058,-0.00121716,-0.00013228,-0.00018345,-0
 .00000181,-0.00001701,0.00007426,0.00000581,0.00017253,0.00021666,-0.0
 0004484,-0.00053571,0.00282501,0.00043441,0.00001264,-0.00000381,0.000
 00061,-0.00017428,-0.00202520,0.00014237,-0.00051946,-0.00003013,-0.00
 040732,0.00017043,0.00001582,-0.00107404,0.00022540,-0.00019974,-0.003
 76265,0.00033699,-0.00361595,0.00001915,0.00002894,0.00000037,0.000889
 68,-0.00071076,0.00197067,-0.00008712,-0.00112002,0.00014302,-0.000485
 70,0.00042783,-0.00006350,-0.00042642,0.00053263,0.00025393,-0.0028277
 6,-0.00067939,0.00370999,0.00000101,0.00011029,-0.00000053,0.00072676,
 0.00005846,-0.00130683,-0.00113621,-0.00013108,-0.00018299,0.00000174,
 -0.00001690,0.00007404,-0.00000598,0.00016940,0.00021440,0.00004657,-0
 .00055066,0.00277956,-0.00043339,0.00001220,-0.00000345,-0.00000094,0.
 00006395,0.00044009,-0.00038078,-0.00015921,-0.00199541,-0.00014177,0.
 00051556,-0.00003123,0.00040504,-0.00016892,0.00001663,0.00106940,-0.0
 0022402,-0.00019815,0.00372218,-0.00035153,-0.00361890,-0.00001903,-0.
 00002826,0.00000037,0.00131377,0.00038518,0.00056522,-0.00089005,0.000
 71211,0.00194897,0.00323615,0.01058584,-0.00002700,0.00726004,-0.00577
 784,0.00000829,-3.25368613,-0.77934765,-0.00022649,0.01088165,0.006113
 61,-0.00013359,0.00075764,-0.00230869,0.,0.00451425,0.00065402,0.00570
 457,0.00447953,0.00065069,-0.00566343,3.21435554,0.02348692,0.00332746
 ,0.00000249,0.00278646,-0.00406365,0.00002056,-0.75304453,0.50682073,0
 .00004631,0.00366165,0.00190263,-0.00003759,-0.00334477,0.00124001,-0.
 00001035,0.00086155,-0.00133054,0.00093401,0.00083912,-0.00131289,-0.0
 0092428,0.76574822,-0.51013286,-0.00003868,-0.00004025,0.00267709,-0.0
 0000596,0.00002330,0.00160477,-0.00030078,0.00004908,0.72799816,-0.000
 01808,-0.00001829,-0.00928355,0.00000674,-0.00000242,-0.00162435,0.001
 74341,-0.00008212,0.00129800,-0.00179581,0.00007413,0.00132104,0.00034
 986,-0.00002127,-0.73180670,-0.00240517,0.01537577,-0.00002334,0.00150
 401,-0.00126286,0.00000224,0.00978768,-0.66372903,0.00086015,-0.001493
 37,-0.00050321,0.00000686,-0.00026269,0.00055304,0.00000289,-0.0002443
 8,-0.00003836,-0.00020492,-0.00024408,-0.00003839,0.00020390,0.0082013
 2,-0.04099464,0.00005930,-0.01484332,-0.00049475,-0.00069474,0.0000193
 3,-0.00171274,0.00123678,-0.00000955,-0.69219631,-1.33307670,0.0021879
 2,0.00014476,0.00017813,-0.00000135,-0.00004262,0.00070528,0.00000711,
 -0.00000812,-0.00001304,-0.00008476,-0.00000971,-0.00001335,0.00008415
 ,0.00368180,0.00354909,0.00001784,0.69063769,1.32812855,0.00001564,0.0
 0000348,0.00352623,0.00000256,-0.00001281,-0.00109785,0.00090307,0.002
 23504,0.33719395,-0.00000141,0.00000007,0.00008217,-0.00000089,0.00000
 473,0.00032175,0.00005053,0.00001352,-0.00000427,-0.00005021,-0.000013
 46,-0.00000394,-0.00001220,-0.00000986,0.00781554,-0.00090708,-0.00222
 070,-0.34783358,-0.01735998,0.01124754,-0.02784087,0.00005883,-0.00015
 432,0.00666585,0.00534927,-0.00056653,-0.00000327,-0.00194186,0.002633
 64,0.00502644,0.00005587,-0.00182120,-0.00313105,-0.00000689,0.0000663
 7,0.00028554,-0.00000855,-0.00004378,-0.00110321,0.00485174,-0.0373635
 2,0.00003260,-0.00506131,0.00470507,-0.00004607,1.44021238,-0.02027580
 ,0.01274214,0.00006037,0.00333484,-0.00106503,-0.00002058,1.72572861,2
 .82677600,-0.00005395,0.00004841,-0.01083283,0.00000936,-0.00001453,0.
 00204272,-0.00157350,-0.00535712,-1.19321325,0.00102966,-0.00275871,0.
 00000370,-0.00136406,0.00077529,-0.00000234,-0.00162997,-0.00240369,0.
 00000604,0.00253686,0.00037124,-0.00060058,0.00000148,-0.00049974,0.00
 021745,-0.00000168,-0.00116148,-0.00056165,0.00000109,0.00015097,-0.00
 385727,-0.00000451,0.00001266,-0.00020759,0.00000619,-0.00000410,-0.00
 001112,0.00000363,0.00001093,0.00077276,0.00003744,0.00002251,0.008955
 62,0.00255067,0.00205222,-0.00004268,-0.00048421,-0.00035076,0.0000575
 0,0.00124828,-0.00020817,0.00001189,-0.00007654,-0.00008194,0.00000033
 ,-0.00210873,-0.00291460,0.00166040,0.00003114,-0.00002809,-0.00009119
 ,-0.00000506,0.00089318,-0.00249117,0.00002246,0.00035348,0.00008179,-
 0.00000180,0.00079995,-0.00098678,0.00000631,0.00006627,0.00128119,-0.
 00000659,0.00000493,-0.00014842,0.00003027,-0.00001948,-0.00159274,0.0
 0000011,0.00000092,0.00004310,-0.00002928,-0.00005305,-0.00072771,0.00
 020257,-0.00037595,0.00002287,-0.00021948,0.00010716,-0.00000637,0.000
 05446,-0.00045018,-0.00004002,-0.00157546,-0.00050338,-0.00080003,-0.0
 0003038,0.00007550,0.00000756,-0.00032624,-0.00003122,-0.00004624,0.00
 002844,-0.00000364,0.00002026,-0.00000123,-0.00000461,0.00006413,-0.00
 007123,-0.00050848,0.00168813,0.00076461,0.00000835,0.00000152,-0.0000
 0962,0.00019689,-0.00123626,0.00022512,-0.00025791,0.00003808,-0.00017
 411,0.00003894,-0.00000316,-0.00047950,-0.00002469,-0.00017411,-0.0008
 1126,0.00060497,-0.00260887,-0.00000684,0.00003090,-0.00000434,-0.0004
 5349,-0.00083351,0.00200337,0.00020225,-0.00037228,-0.00002152,-0.0002
 1840,0.00010565,0.00000497,0.00005121,-0.00044705,0.00004335,-0.001602
 87,-0.00050558,0.00080600,-0.00003055,0.00007507,-0.00000740,0.0003287
 1,0.00003807,-0.00057994,-0.00028312,-0.00003082,-0.00004648,-0.000029
 27,-0.00000355,0.00002025,0.00000139,-0.00000663,0.00006520,0.00007288
 ,-0.00052281,0.00166498,-0.00077372,0.00000820,0.00000175,0.00000939,0
 .00004055,0.00018858,-0.00012192,0.00021096,-0.00122007,-0.00022381,0.
 00025632,0.00003767,0.00017321,-0.00003845,-0.00000293,0.00047729,0.00
 002225,-0.00017336,0.00078159,-0.00062110,-0.00260443,0.00000674,-0.00
 003042,-0.00000440,0.00058783,0.00012628,0.00013732,0.00046095,0.00084
 165,0.00198884,0.00439941,0.00694138,-0.00001852,0.00252272,-0.0038963
 6,0.00000320,-1.71237531,-0.30686737,-0.00026076,0.00594326,0.00286171
 ,-0.00006267,-0.00052093,-0.00119379,-0.00000184,0.00221215,0.00037397
 ,0.00245090,0.00219432,0.00037236,-0.00243309,1.69791279,0.00693117,0.
 00097399,-0.00000157,0.00107820,-0.00073420,0.00001408,-0.31175521,0.3
 3007534,-0.00001801,0.00233954,0.00091656,-0.00002028,-0.00086091,0.00
 052716,-0.00000727,0.00047412,-0.00069529,0.00045669,0.00046356,-0.000
 68852,-0.00045171,0.29852502,-0.33163747,-0.00001268,-0.00002634,-0.00
 008427,0.00000218,0.00001167,0.00099239,-0.00027834,-0.00002484,0.3972
 3306,-0.00001208,-0.00000758,-0.00465605,0.00000144,-0.00000009,-0.000
 37749,0.00072422,-0.00000700,0.00057952,-0.00074788,0.00000228,0.00058
 841,0.00033456,0.00004206,-0.38910197,-0.00122557,0.02119585,-0.000032
 01,0.00141732,-0.00225849,0.00000455,0.27264853,-1.39841120,0.00185759
 ,-0.00326089,-0.00063180,0.00001363,-0.00054760,0.00193929,0.00000086,
 -0.00064633,-0.00006932,-0.00017086,-0.00064154,-0.00006825,0.00016930
 ,-0.00228842,0.00280451,-0.00001141,-0.26545550,0.00206884,0.00813120,
 0.00000788,-0.00149030,-0.00026293,-0.00000951,-1.38103541,-3.16560496
 ,0.00531604,0.00257442,0.00045059,-0.00001080,-0.00136693,0.00129652,0
 .00000791,0.00043530,0.00001517,0.00010654,0.00043160,0.00001431,-0.00
 010482,0.00288308,0.00126242,0.00000981,1.37549941,3.15469769,0.000011
 60,-0.00001146,0.00281636,0.00000159,-0.00001055,-0.00205185,0.0018336
 2,0.00535315,0.80593776,-0.00000320,-0.00000062,0.00031655,0.00000089,
 0.00000592,0.00153080,-0.00004256,0.00000327,0.00003219,0.00004148,-0.
 00000268,0.00003288,-0.00001177,-0.00001398,-0.00517358,-0.00183165,-0
 .00532305,-0.80344110,-0.00218559,-0.00021113,0.00012716,0.00007978,-0
 .00020459,-0.00051339,0.00140255,-0.00035797,-0.00000439,-0.00151250,-
 0.00005681,-0.00006527,0.00006190,0.00024368,0.00008158,-0.00000449,0.
 00007322,0.00010770,-0.00001146,-0.00004623,-0.00001517,0.00045362,0.0
 0102003,-0.00002600,0.00024734,-0.00032857,-0.00003698,0.00174897,0.00
 020316,-0.00038423,0.00009865,0.00020381,-0.00001020,-0.00002660,0.000
 52272,0.00172171,-0.00008715,0.00008610,0.00039079,0.00001529,-0.00001
 890,-0.00012185,0.00004828,-0.00005355,-0.00145510,0.00003025,0.000458
 02,-0.00000047,0.00012177,-0.00014746,-0.00000044,0.00082037,-0.000192
 83,0.00000300,0.96500344,0.00002111,-0.00027951,0.00000175,-0.00001911
 ,0.00009148,-0.00000112,-0.00009631,-0.00022137,0.00000223,1.30020092,
 -0.63397984,-0.00000033,0.00000123,0.00008537,-0.00000045,-0.00000017,
 0.00001737,0.00000050,-0.00000001,-0.00004712,0.00044055,0.00462083,3.
 71865197,0.00026815,0.00006673,-0.00004031,-0.00009912,-0.00001171,0.0
 0005740,-0.00006068,0.00007598,0.00001105,-0.00008597,-0.00001494,-0.0
 0000072,-0.00016220,-0.00011584,-0.00009174,0.00003262,-0.00000114,0.0
 0002959,-0.00000492,0.00007750,-0.00008564,0.00002128,-0.00000940,0.00
 005927,0.00000009,-0.00003347,0.00018557,0.00000269,0.00006734,0.00001
 938,-0.00000665,0.00000498,0.00005350,0.00003118,-0.00002056,0.0000157
 7,0.00000079,0.00000102,0.00006155,-0.00002832,-0.00005417,-0.00002933
 ,-0.00011640,0.00013118,-0.00001842,0.00012561,-0.00003596,0.00000585,
 -0.00005190,0.00001068,-0.00028319,-0.48500410,-0.64925604,1.71863820,
 0.00005663,-0.00001830,0.00002364,0.45087827,0.00003253,0.00022517,-0.
 00000375,0.00002343,-0.00007632,0.00000018,0.00012116,-0.00008947,-0.0
 0008873,-0.64990292,0.31789438,0.96055363,0.00001364,-0.00006166,-0.00
 001744,0.65075215,-0.35247857,-0.00061611,0.00058325,-0.00006651,0.000
 49201,-0.00012259,0.00000897,0.00019499,-0.00030534,-0.00006998,1.6433
 0526,0.91554018,-1.85621328,-0.00016733,0.00007050,-0.00002487,-1.6806
 4017,-0.93824604,1.92083169,-0.00011687,0.00013230,0.00001773,0.000126
 31,-0.00003655,-0.00000652,-0.00005298,0.00001205,0.00027962,-0.481372
 23,-0.65085575,-1.71908042,0.00005661,-0.00001839,-0.00002334,0.034576
 25,-0.00086447,0.03868878,0.44725697,0.00003301,0.00022458,0.00000171,
 0.00002305,-0.00007621,0.00000029,0.00011980,-0.00008899,0.00008691,-0
 .65137403,0.31661044,-0.96517458,0.00001349,-0.00006132,0.00001721,-0.
 00092908,0.03435823,0.02241935,0.65229081,-0.35119406,0.00061683,-0.00
 058564,-0.00006476,-0.00049271,0.00012313,0.00000817,-0.00019679,0.000
 30631,-0.00007283,-1.64373719,-0.92015664,-1.86182881,0.00016782,-0.00
 007039,-0.00002542,-0.03849216,-0.02248637,-0.06497592,1.68087514,0.94
 292921,1.92644039,0.00023238,-0.00109991,-0.00000664,-0.00037914,0.000
 37126,-0.00000338,-0.00363065,-0.00055623,0.00001930,0.00035039,0.0001
 6208,0.00000391,0.00003260,0.00010814,-0.00000391,-0.00053505,-0.00020
 601,-0.00139573,-0.00054475,-0.00020730,0.00139716,0.00487800,-0.00013
 419,-0.00007745,-0.00000073,-0.00014473,0.00006811,0.00001087,-0.00084
 126,0.00077143,-0.00000824,0.00099543,-0.00022492,-0.00000033,-0.00006
 176,-0.00000493,-0.00000591,-0.00061983,0.00024495,0.00014443,-0.00062
 509,0.00024355,-0.00014379,0.00113602,-0.00128157,-0.00000623,-0.00001
 615,0.00001972,0.00000850,0.00000704,-0.00008468,-0.00000696,-0.000005
 58,0.00093677,-0.00001134,-0.00000855,-0.00082876,0.00000138,-0.000000
 13,-0.00003022,0.00078752,0.00027378,0.00056789,-0.00077195,-0.0002651
 6,0.00057904,-0.00000675,0.00000817,-0.00111084,0.00003192,-0.00013926
 ,-0.00000128,-0.00003286,0.00000212,0.00000001,0.00052595,-0.00027934,
 -0.00000622,0.00013606,-0.00014196,-0.00000125,-0.00000601,0.00001089,
 0.00000392,0.00007070,0.00003049,0.00013832,0.00007068,0.00003026,-0.0
 0013812,-0.00040378,0.00029542,0.00000583,-0.00039265,0.00022816,0.000
 32130,0.00001244,0.00002897,-0.00004278,-0.00000569,-0.00059507,-0.001
 61325,-0.00002710,-0.00002774,0.00005008,-0.00000069,-0.00004796,0.000
 03087,0.00000753,-0.00003480,-0.00001670,-0.00008375,-0.00003490,-0.00
 001622,0.00008418,0.00029195,0.00026082,0.00000657,0.00019138,0.001025
 88,0.00001501,-0.00000477,0.00002170,-0.00000013,-0.00000917,0.0000259
 6,-0.00000823,0.00000669,0.00042356,-0.00000018,0.00000029,0.00010167,
 -0.00000097,0.00000513,-0.00004035,-0.00002128,0.00001473,-0.00005798,
 0.00002096,-0.00001494,-0.00005986,-0.00000396,-0.00000447,-0.00004894
 ,-0.00000121,0.00000651,-0.00036576,-0.00076486,-0.00038320,-0.0002631
 4,0.00008240,-0.00020112,0.00006066,0.00043193,0.00011273,-0.00000672,
 -0.00031056,0.00007488,0.00012077,0.00006262,-0.00007270,-0.00016579,-
 0.00000595,0.00007343,0.00023104,-0.00000953,-0.00004689,-0.00028749,-
 0.00015896,-0.00002383,-0.00002430,-0.00012980,0.00010124,-0.00003831,
 0.00079064,0.00014895,0.00000818,0.00009601,0.00004223,0.00005746,-0.0
 0002638,0.00028785,0.00004662,-0.00008700,0.00008181,-0.00036362,0.000
 01480,-0.00001883,0.00005898,0.00004824,-0.00004735,0.00092699,0.00011
 171,-0.00011923,0.00000034,-0.00019433,0.00002894,-0.00000124,0.000505
 66,0.00008130,0.00000315,1.09621921,-0.00021947,-0.00051533,0.00000255
 ,0.00017905,0.00021944,-0.00000139,-0.00016747,0.00045122,0.00000167,1
 .46124858,-0.69813887,-0.00000045,0.00000532,0.00024513,0.00000112,-0.
 00000124,0.00000172,0.00000164,-0.00000197,0.00056796,-0.00546494,0.00
 137803,3.63645555,0.00020292,0.00010926,-0.00004201,-0.00002065,-0.000
 00625,0.00005820,-0.00007079,-0.00005479,0.00001146,-0.00010240,-0.000
 00008,0.00000024,-0.00014442,0.00009313,0.00003740,0.00003114,-0.00009
 921,-0.00001612,-0.00000479,0.00002620,-0.00005750,0.00002166,0.000044
 88,0.00019368,-0.00000067,-0.00001959,0.00002991,0.00000150,0.00006682
 ,0.00007209,-0.00000683,0.00000523,0.00000079,0.00003210,-0.00002108,-
 0.00002989,0.00000052,0.00000094,0.00004142,-0.00002786,-0.00005336,-0
 .00003289,0.00005245,-0.00003527,0.00001999,0.00000687,0.00000224,-0.0
 0000075,-0.00036866,0.00000298,-0.00007847,-0.55135447,-0.73098171,1.8
 0221148,0.00006162,-0.00001315,-0.00001249,0.54843639,0.00011912,0.000
 17806,-0.00001860,-0.00009446,-0.00009515,0.00000651,0.00004329,-0.000
 08519,0.00005578,-0.73136540,0.35089920,1.00674222,0.00000859,-0.00008
 816,-0.00001274,0.72753221,-0.34934616,-0.00014096,0.00022534,-0.00008
 741,0.00012523,-0.00005983,0.00000468,-0.00016952,-0.00013958,-0.00010
 377,1.80312148,1.00588996,-1.81778230,-0.00004959,0.00002022,-0.000015
 83,-1.80262733,-1.00645042,1.80963450,0.00005358,-0.00003689,-0.000019
 30,0.00000556,0.00000227,0.00000004,-0.00036870,0.00000490,0.00007751,
 -0.54572340,-0.73020488,-1.79674983,0.00006145,-0.00001304,0.00001280,
 0.00288456,0.00369428,-0.00007291,0.54280929,0.00011987,0.00017655,0.0
 0001724,-0.00009555,-0.00009457,-0.00000603,0.00004222,-0.00008502,-0.
 00005650,-0.73059325,0.34830750,-1.00811855,0.00000828,-0.00008770,0.0
 0001255,0.00369752,-0.00185982,0.00034278,0.72676052,-0.34675412,0.000
 14113,-0.00022938,-0.00008721,-0.00012626,0.00006078,0.00000432,0.0001
 6847,0.00014145,-0.00010562,-1.79764885,-1.00726190,-1.81731119,0.0000
 4918,-0.00001956,-0.00001626,0.00003150,-0.00034509,0.00785881,1.79720
 081,1.00782450,1.80916083,0.00018920,0.00033596,-0.00000875,0.00020360
 ,-0.00013332,-0.00000243,-0.00026536,-0.00013924,0.00001729,0.00070011
 ,0.00012123,0.00000151,0.00000333,-0.00002757,-0.00000374,0.00021073,0
 .00006619,-0.00022960,0.00020792,0.00006462,0.00022764,-0.00147462,-0.
 00002769,0.00007422,-0.00000274,0.00002268,-0.00002245,0.00001156,-0.0
 0014930,-0.00020339,-0.00001064,0.00059588,-0.00135513,-0.00000196,-0.
 00002213,-0.00001501,-0.00000603,-0.00017606,0.00037831,0.00023120,-0.
 00017849,0.00037778,-0.00023092,-0.00029421,0.00071529,-0.00000586,-0.
 00001661,-0.00008255,0.00000860,0.00000723,-0.00001248,-0.00000985,-0.
 00000760,-0.00085744,-0.00001055,-0.00000933,-0.00237683,0.00000119,0.
 00000012,-0.00001564,0.00056038,-0.00001202,0.00053715,-0.00055332,0.0
 0001815,0.00054225,0.00000194,0.00001232,0.00234969,-0.00011797,0.0000
 4047,-0.00000165,0.00000737,0.00000271,-0.00000003,0.00006597,-0.00037
 417,-0.00000698,-0.00016210,0.00002475,-0.00000077,0.00000894,0.000008
 36,0.00000400,0.00007051,-0.00000381,0.00004321,0.00006974,-0.00000423
 ,-0.00004362,0.00022509,0.00022931,0.00000748,-0.00016755,0.00007441,0
 .00018330,0.00001290,0.00000525,-0.00000359,-0.00000601,-0.00016020,-0
 .00013240,-0.00002759,0.00007830,-0.00006172,-0.00000119,-0.00002329,0
 .00000350,0.00000768,-0.00002876,0.00001891,-0.00005966,-0.00002866,0.
 00001941,0.00006013,0.00000633,0.00005037,0.00000773,0.00007661,-0.000
 07779,0.00001520,-0.00000561,0.00001187,-0.00000041,-0.00000907,-0.000
 00160,-0.00000847,0.00000650,-0.00009358,0.00000009,-0.00000052,0.0001
 5852,-0.00000080,0.00000524,-0.00000377,-0.00010432,0.00003436,-0.0000
 4584,0.00010419,-0.00003416,-0.00004595,-0.00000385,-0.00000278,-0.000
 08414,-0.00000163,0.00000602,0.00010450\\@
 The archive entry for this job was punched.


 Until you make peace with who you are,
 you'll never be content with what you have.
                           -- Doris Mortman
 Job cpu time:       1 days  5 hours 34 minutes 36.7 seconds.
 Elapsed time:       0 days  0 hours 45 minutes 19.3 seconds.
 File lengths (MBytes):  RWF=   1832 Int=      0 D2E=      0 Chk=     43 Scr=      1
 Normal termination of Gaussian 16 at Sun Mar 30 03:27:29 2025.
