 Entering Gaussian System, Link 0=g16
 Input=acoht_mp2_avdz_opt_anharm.gjf
 Output=acoht_mp2_avdz_opt_anharm.log
 Initial command:
 /sw/contrib/chem-src/g16/c01/g16/l1.exe "/scr/Gau-5692.inp" -scrdir="/scr/"
 Entering Link 1 = /sw/contrib/chem-src/g16/c01/g16/l1.exe PID=      5693.
  
 Copyright (c) 1988-2019, Gaussian, Inc.  All Rights Reserved.
  
 This is part of the Gaussian(R) 16 program.  It is based on
 the Gaussian(R) 09 system (copyright 2009, Gaussian, Inc.),
 the Gaussian(R) 03 system (copyright 2003, Gaussian, Inc.),
 the Gaussian(R) 98 system (copyright 1998, Gaussian, Inc.),
 the Gaussian(R) 94 system (copyright 1995, Gaussian, Inc.),
 the Gaussian 92(TM) system (copyright 1992, Gaussian, Inc.),
 the Gaussian 90(TM) system (copyright 1990, Gaussian, Inc.),
 the Gaussian 88(TM) system (copyright 1988, Gaussian, Inc.),
 the Gaussian 86(TM) system (copyright 1986, Carnegie Mellon
 University), and the Gaussian 82(TM) system (copyright 1983,
 Carnegie Mellon University). Gaussian is a federally registered
 trademark of Gaussian, Inc.
  
 This software contains proprietary and confidential information,
 including trade secrets, belonging to Gaussian, Inc.
  
 This software is provided under written license and may be
 used, copied, transmitted, or stored only in accord with that
 written license.
  
 The following legend is applicable only to US Government
 contracts under FAR:
  
                    RESTRICTED RIGHTS LEGEND
  
 Use, reproduction and disclosure by the US Government is
 subject to restrictions as set forth in subparagraphs (a)
 and (c) of the Commercial Computer Software - Restricted
 Rights clause in FAR 52.227-19.
  
 Gaussian, Inc.
 340 Quinnipiac St., Bldg. 40, Wallingford CT 06492
  
  
 ---------------------------------------------------------------
 Warning -- This program may not be used in any manner that
 competes with the business of Gaussian, Inc. or will provide
 assistance to any competitor of Gaussian, Inc.  The licensee
 of this program is prohibited from giving any competitor of
 Gaussian, Inc. access to this program.  By using this program,
 the user acknowledges that Gaussian, Inc. is engaged in the
 business of creating and licensing software in the field of
 computational chemistry and represents and warrants to the
 licensee that it is not a competitor of Gaussian, Inc. and that
 it will not use this program in any manner prohibited above.
 ---------------------------------------------------------------
  

 Cite this work as:
 Gaussian 16, Revision C.01,
 M. J. Frisch, G. W. Trucks, H. B. Schlegel, G. E. Scuseria, 
 M. A. Robb, J. R. Cheeseman, G. Scalmani, V. Barone, 
 G. A. Petersson, H. Nakatsuji, X. Li, M. Caricato, A. V. Marenich, 
 J. Bloino, B. G. Janesko, R. Gomperts, B. Mennucci, H. P. Hratchian, 
 J. V. Ortiz, A. F. Izmaylov, J. L. Sonnenberg, D. Williams-Young, 
 F. Ding, F. Lipparini, F. Egidi, J. Goings, B. Peng, A. Petrone, 
 T. Henderson, D. Ranasinghe, V. G. Zakrzewski, J. Gao, N. Rega, 
 G. Zheng, W. Liang, M. Hada, M. Ehara, K. Toyota, R. Fukuda, 
 J. Hasegawa, M. Ishida, T. Nakajima, Y. Honda, O. Kitao, H. Nakai, 
 T. Vreven, K. Throssell, J. A. Montgomery, Jr., J. E. Peralta, 
 F. Ogliaro, M. J. Bearpark, J. J. Heyd, E. N. Brothers, K. N. Kudin, 
 V. N. Staroverov, T. A. Keith, R. Kobayashi, J. Normand, 
 K. Raghavachari, A. P. Rendell, J. C. Burant, S. S. Iyengar, 
 J. Tomasi, M. Cossi, J. M. Millam, M. Klene, C. Adamo, R. Cammi, 
 J. W. Ochterski, R. L. Martin, K. Morokuma, O. Farkas, 
 J. B. Foresman, and D. J. Fox, Gaussian, Inc., Wallingford CT, 2019.
 
 ******************************************
 Gaussian 16:  EM64L-G16RevC.01  3-Jul-2019
                21-Mar-2025 
 ******************************************
 %nprocshared=40
 Will use up to   40 processors via shared memory.
 %mem=50gb
 ----------------------------------------------
 # MP2/aug-cc-pVDZ opt freq=(vibrot,anharmonic)
 ----------------------------------------------
 1/18=20,19=15,38=1,80=1/1,3;
 2/9=110,12=2,17=6,18=5,40=1/2;
 3/5=16,7=10,11=9,25=1,30=1,71=1/1,2,3;
 4//1;
 5/5=2,38=5/2;
 8/6=4,10=1/1;
 9/15=2,16=-3/6;
 10/5=1/2;
 6/7=2,8=2,9=2,10=2/1;
 7/12=2/1,2,3,16;
 1/18=20,19=15,80=1/3(2);
 2/9=110/2;
 99//99;
 2/9=110/2;
 3/5=16,7=10,11=9,25=1,30=1,71=1/1,2,3;
 4/5=5,16=3,69=1/1;
 5/5=2,38=5/2;
 8/6=4,10=1/1;
 9/15=2,16=-3/6;
 10/5=1/2;
 7/12=2/1,2,3,16;
 1/18=20,19=15,80=1/3(-8);
 2/9=110/2;
 6/7=2,8=2,9=2,10=2/1;
 99/9=10/99;
 ----
 blah
 ----
 Symbolic Z-matrix:
 Charge =  0 Multiplicity = 1
 C                     1.00159  -0.09697   0.00001 
 O                     2.16805  -0.44763   0.00006 
 O                     0.00441  -1.02793  -0.00006 
 C                     0.54268   1.34931  -0.00003 
 H                    -0.8711   -0.58881   0.00001 
 H                     1.42093   2.005     0.00021 
 H                    -0.07535   1.55158   0.88837 
 H                    -0.07488   1.55163  -0.88874 
 

 GradGradGradGradGradGradGradGradGradGradGradGradGradGradGradGradGradGrad
 Berny optimization.
 Initialization pass.
                           ----------------------------
                           !    Initial Parameters    !
                           ! (Angstroms and Degrees)  !
 --------------------------                            --------------------------
 ! Name  Definition              Value          Derivative Info.                !
 --------------------------------------------------------------------------------
 ! R1    R(1,2)                  1.218          estimate D2E/DX2                !
 ! R2    R(1,3)                  1.3642         estimate D2E/DX2                !
 ! R3    R(1,4)                  1.5173         estimate D2E/DX2                !
 ! R4    R(3,5)                  0.9795         estimate D2E/DX2                !
 ! R5    R(4,6)                  1.096          estimate D2E/DX2                !
 ! R6    R(4,7)                  1.101          estimate D2E/DX2                !
 ! R7    R(4,8)                  1.101          estimate D2E/DX2                !
 ! A1    A(2,1,3)              120.2355         estimate D2E/DX2                !
 ! A2    A(2,1,4)              124.336          estimate D2E/DX2                !
 ! A3    A(3,1,4)              115.4285         estimate D2E/DX2                !
 ! A4    A(1,3,5)              110.3304         estimate D2E/DX2                !
 ! A5    A(1,4,6)              109.1401         estimate D2E/DX2                !
 ! A6    A(1,4,7)              110.1743         estimate D2E/DX2                !
 ! A7    A(1,4,8)              110.1712         estimate D2E/DX2                !
 ! A8    A(6,4,7)              109.8603         estimate D2E/DX2                !
 ! A9    A(6,4,8)              109.8592         estimate D2E/DX2                !
 ! A10   A(7,4,8)              107.6215         estimate D2E/DX2                !
 ! D1    D(2,1,3,5)            179.9936         estimate D2E/DX2                !
 ! D2    D(4,1,3,5)             -0.0079         estimate D2E/DX2                !
 ! D3    D(2,1,4,6)             -0.0113         estimate D2E/DX2                !
 ! D4    D(2,1,4,7)           -120.7171         estimate D2E/DX2                !
 ! D5    D(2,1,4,8)            120.6913         estimate D2E/DX2                !
 ! D6    D(3,1,4,6)            179.9902         estimate D2E/DX2                !
 ! D7    D(3,1,4,7)             59.2844         estimate D2E/DX2                !
 ! D8    D(3,1,4,8)            -59.3072         estimate D2E/DX2                !
 --------------------------------------------------------------------------------
 Trust Radius=3.00D-01 FncErr=1.00D-07 GrdErr=1.00D-07 EigMax=2.50D+02 EigMin=1.00D-04
 Number of steps in this run=     35 maximum allowed number of steps=    100.
 GradGradGradGradGradGradGradGradGradGradGradGradGradGradGradGradGradGrad

                          Input orientation:                          
 ---------------------------------------------------------------------
 Center     Atomic      Atomic             Coordinates (Angstroms)
 Number     Number       Type             X           Y           Z
 ---------------------------------------------------------------------
      1          6           0        1.001589   -0.096973    0.000006
      2          8           0        2.168054   -0.447631    0.000060
      3          8           0        0.004407   -1.027932   -0.000060
      4          6           0        0.542678    1.349310   -0.000029
      5          1           0       -0.871104   -0.588807    0.000005
      6          1           0        1.420933    2.005004    0.000206
      7          1           0       -0.075345    1.551583    0.888370
      8          1           0       -0.074881    1.551630   -0.888743
 ---------------------------------------------------------------------
                    Distance matrix (angstroms):
                    1          2          3          4          5
     1  C    0.000000
     2  O    1.218032   0.000000
     3  O    1.364205   2.240116   0.000000
     4  C    1.517344   2.422982   2.437420   0.000000
     5  H    1.936202   3.042435   0.979464   2.398974   0.000000
     6  H    2.143398   2.563905   3.347424   1.096023   3.461400
     7  H    2.160258   3.133495   2.729389   1.100963   2.450244
     8  H    2.160221   3.133333   2.729503   1.100966   2.450574
                    6          7          8
     6  H    0.000000
     7  H    1.798131   0.000000
     8  H    1.798121   1.777113   0.000000
 Stoichiometry    C2H4O2
 Framework group  C1[X(C2H4O2)]
 Deg. of freedom    18
 Full point group                 C1      NOp   1
 Largest Abelian subgroup         C1      NOp   1
 Largest concise Abelian subgroup C1      NOp   1
                         Standard orientation:                         
 ---------------------------------------------------------------------
 Center     Atomic      Atomic             Coordinates (Angstroms)
 Number     Number       Type             X           Y           Z
 ---------------------------------------------------------------------
      1          6           0        0.133576   -0.132182   -0.000015
      2          8           0        0.712595   -1.203788   -0.000069
      3          8           0        0.843953    1.032473    0.000051
      4          6           0       -1.375587    0.025171    0.000020
      5          1           0        0.237053    1.801253   -0.000014
      6          1           0       -1.840391   -0.967414   -0.000215
      7          1           0       -1.698512    0.589605   -0.888379
      8          1           0       -1.698464    0.589142    0.888734
 ---------------------------------------------------------------------
 Rotational constants (GHZ):          10.7792949           9.5528458           5.2314016
 Standard basis: Aug-CC-pVDZ (5D, 7F)
 There are   136 symmetry adapted cartesian basis functions of A   symmetry.
 There are   128 symmetry adapted basis functions of A   symmetry.
   128 basis functions,   216 primitive gaussians,   136 cartesian basis functions
    16 alpha electrons       16 beta electrons
       nuclear repulsion energy       120.0045348843 Hartrees.
 NAtoms=    8 NActive=    8 NUniq=    8 SFac= 1.00D+00 NAtFMM=   60 NAOKFM=F Big=F
 Integral buffers will be    131072 words long.
 Raffenetti 1 integral format.
 Two-electron integral symmetry is turned on.
 One-electron integrals computed using PRISM.
 NBasis=   128 RedAO= T EigKep=  1.14D-04  NBF=   128
 NBsUse=   128 1.00D-06 EigRej= -1.00D+00 NBFU=   128
 ExpMin= 2.97D-02 ExpMax= 1.17D+04 ExpMxC= 4.01D+02 IAcc=3 IRadAn=         5 AccDes= 0.00D+00
 Harris functional with IExCor=  205 and IRadAn=       5 diagonalized for initial guess.
 HarFok:  IExCor=  205 AccDes= 0.00D+00 IRadAn=         5 IDoV= 1 UseB2=F ITyADJ=14
 ICtDFT=  3500011 ScaDFX=  1.000000  1.000000  1.000000  1.000000
 FoFCou: FMM=F IPFlag=           0 FMFlag=      100000 FMFlg1=           0
         NFxFlg=           0 DoJE=T BraDBF=F KetDBF=T FulRan=T
         wScrn=  0.000000 ICntrl=       500 IOpCl=  0 I1Cent=   200000004 NGrid=           0
         NMat0=    1 NMatS0=      1 NMatT0=    0 NMatD0=    1 NMtDS0=    0 NMtDT0=    0
 Petite list used in FoFCou.
 Keep R1 ints in memory in canonical form, NReq=42669268.
 Requested convergence on RMS density matrix=1.00D-08 within 128 cycles.
 Requested convergence on MAX density matrix=1.00D-06.
 Requested convergence on             energy=1.00D-06.
 No special actions if energy rises.
 SCF Done:  E(RHF) =  -227.836948984     A.U. after   13 cycles
            NFock= 13  Conv=0.53D-08     -V/T= 2.0023
 ExpMin= 2.97D-02 ExpMax= 1.17D+04 ExpMxC= 4.01D+02 IAcc=3 IRadAn=         5 AccDes= 0.00D+00
 HarFok:  IExCor=  205 AccDes= 0.00D+00 IRadAn=         5 IDoV=-2 UseB2=F ITyADJ=14
 ICtDFT= 12500011 ScaDFX=  1.000000  1.000000  1.000000  1.000000
 Range of M.O.s used for correlation:     5   128
 NBasis=   128 NAE=    16 NBE=    16 NFC=     4 NFV=     0
 NROrb=    124 NOA=    12 NOB=    12 NVA=   112 NVB=   112

 **** Warning!!: The largest alpha MO coefficient is  0.30997973D+02

 Fully direct method using O(ONN) memory.
 JobTyp=1 Pass  1:  I=   5 to  16 NPSUse= 40 ParTrn=T ParDer=T DoDerP=T.
 Spin components of T(2) and E(2):
     alpha-alpha T2 =       0.2741721838D-01 E2=     -0.8833849926D-01
     alpha-beta  T2 =       0.1514617070D+00 E2=     -0.5020731292D+00
     beta-beta   T2 =       0.2741721838D-01 E2=     -0.8833849926D-01
 ANorm=    0.1098315139D+01
 E2 =    -0.6787501277D+00 EUMP2 =    -0.22851569911211D+03
          IDoAtm=11111111
          Differentiating once with respect to electric field.
                with respect to dipole field.
          Differentiating once with respect to nuclear coordinates.
 Keep R1 ints in memory in canonical form, NReq=42674680.
          There are     1 degrees of freedom in the 1st order CPHF.  IDoFFX=0 NUNeed=     1.
 LinEq1:  Iter=  0 NonCon=     1 RMS=5.90D-03 Max=1.16D-01 NDo=     1
 AX will form     1 AO Fock derivatives at one time.
 LinEq1:  Iter=  1 NonCon=     1 RMS=1.82D-03 Max=2.49D-02 NDo=     1
 LinEq1:  Iter=  2 NonCon=     1 RMS=5.94D-04 Max=8.24D-03 NDo=     1
 LinEq1:  Iter=  3 NonCon=     1 RMS=1.94D-04 Max=2.58D-03 NDo=     1
 LinEq1:  Iter=  4 NonCon=     1 RMS=6.89D-05 Max=6.67D-04 NDo=     1
 LinEq1:  Iter=  5 NonCon=     1 RMS=2.28D-05 Max=2.79D-04 NDo=     1
 LinEq1:  Iter=  6 NonCon=     1 RMS=6.23D-06 Max=4.86D-05 NDo=     1
 LinEq1:  Iter=  7 NonCon=     1 RMS=1.18D-06 Max=8.42D-06 NDo=     1
 LinEq1:  Iter=  8 NonCon=     1 RMS=2.40D-07 Max=2.73D-06 NDo=     1
 LinEq1:  Iter=  9 NonCon=     1 RMS=7.43D-08 Max=1.09D-06 NDo=     1
 LinEq1:  Iter= 10 NonCon=     1 RMS=2.22D-08 Max=2.88D-07 NDo=     1
 LinEq1:  Iter= 11 NonCon=     1 RMS=5.98D-09 Max=5.39D-08 NDo=     1
 LinEq1:  Iter= 12 NonCon=     1 RMS=1.01D-09 Max=7.90D-09 NDo=     1
 LinEq1:  Iter= 13 NonCon=     1 RMS=1.12D-10 Max=5.97D-10 NDo=     1
 LinEq1:  Iter= 14 NonCon=     0 RMS=1.47D-11 Max=1.12D-10 NDo=     1
 Linear equations converged to 1.000D-10 1.000D-09 after    14 iterations.
 End of Minotr F.D. properties file   721 does not exist.
 End of Minotr F.D. properties file   722 does not exist.
 End of Minotr F.D. properties file   788 does not exist.

 **********************************************************************

            Population analysis using the SCF Density.

 **********************************************************************

 Orbital symmetries:
       Occupied  (A) (A) (A) (A) (A) (A) (A) (A) (A) (A) (A) (A)
                 (A) (A) (A) (A)
       Virtual   (A) (A) (A) (A) (A) (A) (A) (A) (A) (A) (A) (A)
                 (A) (A) (A) (A) (A) (A) (A) (A) (A) (A) (A) (A)
                 (A) (A) (A) (A) (A) (A) (A) (A) (A) (A) (A) (A)
                 (A) (A) (A) (A) (A) (A) (A) (A) (A) (A) (A) (A)
                 (A) (A) (A) (A) (A) (A) (A) (A) (A) (A) (A) (A)
                 (A) (A) (A) (A) (A) (A) (A) (A) (A) (A) (A) (A)
                 (A) (A) (A) (A) (A) (A) (A) (A) (A) (A) (A) (A)
                 (A) (A) (A) (A) (A) (A) (A) (A) (A) (A) (A) (A)
                 (A) (A) (A) (A) (A) (A) (A) (A) (A) (A) (A) (A)
                 (A) (A) (A) (A)
 The electronic state is 1-A.
 Alpha  occ. eigenvalues --  -20.62988 -20.55949 -11.40406 -11.27163  -1.46009
 Alpha  occ. eigenvalues --   -1.36289  -1.02848  -0.83308  -0.71969  -0.67040
 Alpha  occ. eigenvalues --   -0.65040  -0.60160  -0.56953  -0.55911  -0.47790
 Alpha  occ. eigenvalues --   -0.45279
 Alpha virt. eigenvalues --    0.02315   0.04502   0.04845   0.06719   0.09272
 Alpha virt. eigenvalues --    0.11869   0.12049   0.12582   0.14049   0.15042
 Alpha virt. eigenvalues --    0.16129   0.16414   0.19814   0.21967   0.23125
 Alpha virt. eigenvalues --    0.25027   0.26576   0.27854   0.28955   0.32104
 Alpha virt. eigenvalues --    0.32525   0.33063   0.35802   0.35807   0.36988
 Alpha virt. eigenvalues --    0.39337   0.41843   0.43885   0.44978   0.47288
 Alpha virt. eigenvalues --    0.47291   0.51905   0.53997   0.54283   0.56110
 Alpha virt. eigenvalues --    0.56700   0.58714   0.63329   0.63393   0.63913
 Alpha virt. eigenvalues --    0.66134   0.67905   0.68572   0.71608   0.72293
 Alpha virt. eigenvalues --    0.74202   0.79316   0.82897   0.88851   0.93295
 Alpha virt. eigenvalues --    0.93703   0.94630   1.00322   1.04749   1.05852
 Alpha virt. eigenvalues --    1.08102   1.09451   1.14372   1.18124   1.21801
 Alpha virt. eigenvalues --    1.22844   1.26311   1.30287   1.31552   1.37618
 Alpha virt. eigenvalues --    1.40509   1.42333   1.48784   1.53959   1.64239
 Alpha virt. eigenvalues --    1.65702   1.74416   1.74854   1.78495   1.82192
 Alpha virt. eigenvalues --    1.85091   1.85953   1.86366   1.96017   1.99309
 Alpha virt. eigenvalues --    2.02649   2.11049   2.13376   2.15153   2.19938
 Alpha virt. eigenvalues --    2.21172   2.28332   2.32622   2.37735   2.39940
 Alpha virt. eigenvalues --    2.45400   2.48868   2.62841   2.63643   2.75638
 Alpha virt. eigenvalues --    2.80691   2.81554   2.90587   2.90947   2.99293
 Alpha virt. eigenvalues --    3.26380   3.35088   3.67927   3.68818   3.75229
 Alpha virt. eigenvalues --    3.75650   3.78342   3.80208   3.88891   4.01138
 Alpha virt. eigenvalues --    4.13027   4.28781
          Condensed to atoms (all electrons):
               1          2          3          4          5          6
     1  C    4.567384   0.360456  -0.049186   0.307946  -0.042948  -0.018070
     2  O    0.360456   8.433752  -0.078465  -0.049272   0.008610   0.019139
     3  O   -0.049186  -0.078465   8.500289   0.012653   0.310149   0.003802
     4  C    0.307946  -0.049272   0.012653   4.461897  -0.029458   0.356229
     5  H   -0.042948   0.008610   0.310149  -0.029458   0.515007  -0.002303
     6  H   -0.018070   0.019139   0.003802   0.356229  -0.002303   0.871381
     7  H   -0.042071  -0.000645   0.002256   0.368805   0.008185  -0.083520
     8  H   -0.042064  -0.000647   0.002273   0.368806   0.008184  -0.083493
               7          8
     1  C   -0.042071  -0.042064
     2  O   -0.000645  -0.000647
     3  O    0.002256   0.002273
     4  C    0.368805   0.368806
     5  H    0.008185   0.008184
     6  H   -0.083520  -0.083493
     7  H    0.792093  -0.082223
     8  H   -0.082223   0.791947
 Mulliken charges:
               1
     1  C    0.958553
     2  O   -0.692928
     3  O   -0.703769
     4  C    0.202396
     5  H    0.224575
     6  H   -0.063164
     7  H    0.037120
     8  H    0.037217
 Sum of Mulliken charges =  -0.00000
 Mulliken charges with hydrogens summed into heavy atoms:
               1
     1  C    0.958553
     2  O   -0.692928
     3  O   -0.479194
     4  C    0.213569
 Electronic spatial extent (au):  <R**2>=            257.9263
 Charge=             -0.0000 electrons
 Dipole moment (field-independent basis, Debye):
    X=             -3.7475    Y=              3.2382    Z=              0.0000  Tot=              4.9527
 Quadrupole moment (field-independent basis, Debye-Ang):
   XX=            -25.4427   YY=            -23.7867   ZZ=            -23.3432
   XY=              0.6470   XZ=             -0.0000   YZ=             -0.0004
 Traceless Quadrupole moment (field-independent basis, Debye-Ang):
   XX=             -1.2518   YY=              0.4042   ZZ=              0.8476
   XY=              0.6470   XZ=             -0.0000   YZ=             -0.0004
 Octapole moment (field-independent basis, Debye-Ang**2):
  XXX=             -1.0442  YYY=             14.8184  ZZZ=              0.0006  XYY=             -3.1501
  XXY=             -0.5582  XXZ=             -0.0000  XZZ=              0.2918  YZZ=              0.9144
  YYZ=             -0.0006  XYZ=             -0.0003
 Hexadecapole moment (field-independent basis, Debye-Ang**3):
 XXXX=           -165.2994 YYYY=           -109.3769 ZZZZ=            -27.5994 XXXY=              1.7748
 XXXZ=              0.0013 YYYX=              5.1221 YYYZ=             -0.0032 ZZZX=             -0.0003
 ZZZY=             -0.0023 XXYY=            -49.4934 XXZZ=            -30.7037 YYZZ=            -25.8694
 XXYZ=             -0.0009 YYXZ=              0.0014 ZZXY=             -1.4370
 N-N= 1.200045348843D+02 E-N=-7.764965186459D+02  KE= 2.273155921688D+02
 Calling FoFJK, ICntrl=  10002127 FMM=F ISym2X=0 I1Cent= 0 IOpClX= 0 NMat=1 NMatS=1 NMatT=0.
 ***** Axes restored to original set *****
 -------------------------------------------------------------------
 Center     Atomic                   Forces (Hartrees/Bohr)
 Number     Number              X              Y              Z
 -------------------------------------------------------------------
      1        6           0.008343357    0.007599184    0.000002026
      2        8          -0.005610482   -0.000953460   -0.000001174
      3        8          -0.012189303   -0.003001771    0.000001609
      4        6          -0.000524943   -0.000864285   -0.000002369
      5        1           0.009662141   -0.003350079   -0.000002128
      6        1          -0.000538249    0.000099387    0.000000320
      7        1           0.000428552    0.000235443    0.001035073
      8        1           0.000428927    0.000235582   -0.001033358
 -------------------------------------------------------------------
 Cartesian Forces:  Max     0.012189303 RMS     0.004212360

 GradGradGradGradGradGradGradGradGradGradGradGradGradGradGradGradGradGrad
 Berny optimization.
 FormGI is forming the generalized inverse of G from B-inverse, IUseBI=4.
 Internal  Forces:  Max     0.010138617 RMS     0.002799911
 Search for a local minimum.
 Step number   1 out of a maximum of   35
 All quantities printed in internal units (Hartrees-Bohrs-Radians)
 Mixed Optimization -- RFO/linear search
 Second derivative matrix not updated -- first step.
 ITU=  0
     Eigenvalues ---    0.00537   0.00917   0.02165   0.07333   0.07342
     Eigenvalues ---    0.16000   0.16000   0.16000   0.16000   0.25000
     Eigenvalues ---    0.25000   0.30624   0.33576   0.33576   0.34126
     Eigenvalues ---    0.51489   0.52106   0.96261
 RFO step:  Lambda=-4.41306810D-04 EMin= 5.36515259D-03
 Linear search not attempted -- first point.
 Iteration  1 RMS(Cart)=  0.00781851 RMS(Int)=  0.00003255
 Iteration  2 RMS(Cart)=  0.00004634 RMS(Int)=  0.00000245
 Iteration  3 RMS(Cart)=  0.00000000 RMS(Int)=  0.00000245
 Variable       Old X    -DE/DX   Delta X   Delta X   Delta X     New X
                                 (Linear)    (Quad)   (Total)
    R1        2.30175  -0.00510   0.00000  -0.00529  -0.00529   2.29645
    R2        2.57797   0.00618   0.00000   0.01185   0.01185   2.58983
    R3        2.86737  -0.00022   0.00000  -0.00071  -0.00071   2.86665
    R4        1.85092  -0.01014   0.00000  -0.01967  -0.01967   1.83125
    R5        2.07118  -0.00037   0.00000  -0.00109  -0.00109   2.07010
    R6        2.08052   0.00064   0.00000   0.00190   0.00190   2.08242
    R7        2.08052   0.00064   0.00000   0.00189   0.00189   2.08242
    A1        2.09850  -0.00362   0.00000  -0.01446  -0.01446   2.08404
    A2        2.17007   0.00220   0.00000   0.00877   0.00877   2.17885
    A3        2.01461   0.00143   0.00000   0.00569   0.00569   2.02030
    A4        1.92563  -0.00248   0.00000  -0.01543  -0.01543   1.91020
    A5        1.90485   0.00036   0.00000   0.00025   0.00025   1.90510
    A6        1.92290  -0.00012   0.00000   0.00027   0.00026   1.92317
    A7        1.92285  -0.00011   0.00000   0.00028   0.00028   1.92313
    A8        1.91742  -0.00046   0.00000  -0.00481  -0.00481   1.91261
    A9        1.91741  -0.00046   0.00000  -0.00480  -0.00480   1.91260
   A10        1.87835   0.00079   0.00000   0.00881   0.00880   1.88715
    D1        3.14148   0.00000   0.00000   0.00008   0.00008   3.14156
    D2       -0.00014   0.00000   0.00000   0.00004   0.00004  -0.00010
    D3       -0.00020  -0.00000   0.00000  -0.00000  -0.00000  -0.00020
    D4       -2.10691   0.00041   0.00000   0.00560   0.00560  -2.10131
    D5        2.10646  -0.00041   0.00000  -0.00559  -0.00559   2.10087
    D6        3.14142  -0.00000   0.00000   0.00004   0.00004   3.14146
    D7        1.03471   0.00041   0.00000   0.00564   0.00565   1.04035
    D8       -1.03511  -0.00041   0.00000  -0.00555  -0.00555  -1.04066
         Item               Value     Threshold  Converged?
 Maximum Force            0.010139     0.000450     NO 
 RMS     Force            0.002800     0.000300     NO 
 Maximum Displacement     0.023038     0.001800     NO 
 RMS     Displacement     0.007835     0.001200     NO 
 Predicted change in Energy=-2.209655D-04
 GradGradGradGradGradGradGradGradGradGradGradGradGradGradGradGradGradGrad

                          Input orientation:                          
 ---------------------------------------------------------------------
 Center     Atomic      Atomic             Coordinates (Angstroms)
 Number     Number       Type             X           Y           Z
 ---------------------------------------------------------------------
      1          6           0        0.999432   -0.094058    0.000028
      2          8           0        2.160112   -0.454065    0.000065
      3          8           0        0.003037   -1.035019   -0.000051
      4          6           0        0.540585    1.351851   -0.000026
      5          1           0       -0.858913   -0.592179   -0.000044
      6          1           0        1.418192    2.007450    0.000181
      7          1           0       -0.073267    1.556092    0.892052
      8          1           0       -0.072847    1.556112   -0.892390
 ---------------------------------------------------------------------
                    Distance matrix (angstroms):
                    1          2          3          4          5
     1  C    0.000000
     2  O    1.215230   0.000000
     3  O    1.370478   2.233939   0.000000
     4  C    1.516968   2.425737   2.446652   0.000000
     5  H    1.923946   3.022183   0.969053   2.395380   0.000000
     6  H    2.142824   2.570895   3.355485   1.095447   3.455905
     7  H    2.160875   3.134382   2.741446   1.101967   2.455227
     8  H    2.160845   3.134229   2.741530   1.101968   2.455470
                    6          7          8
     6  H    0.000000
     7  H    1.795441   0.000000
     8  H    1.795435   1.784442   0.000000
 Stoichiometry    C2H4O2
 Framework group  C1[X(C2H4O2)]
 Deg. of freedom    18
 Full point group                 C1      NOp   1
 Largest Abelian subgroup         C1      NOp   1
 Largest concise Abelian subgroup C1      NOp   1
                         Standard orientation:                         
 ---------------------------------------------------------------------
 Center     Atomic      Atomic             Coordinates (Angstroms)
 Number     Number       Type             X           Y           Z
 ---------------------------------------------------------------------
      1          6           0        0.126822   -0.135576   -0.000031
      2          8           0        0.698387   -1.208003   -0.000067
      3          8           0        0.863933    1.019794    0.000049
      4          6           0       -1.379529    0.043583    0.000024
      5          1           0        0.267107    1.783249    0.000041
      6          1           0       -1.858660   -0.941525   -0.000184
      7          1           0       -1.695410    0.608161   -0.892054
      8          1           0       -1.695351    0.607744    0.892387
 ---------------------------------------------------------------------
 Rotational constants (GHZ):          10.8457148           9.4789667           5.2260512
 Standard basis: Aug-CC-pVDZ (5D, 7F)
 There are   136 symmetry adapted cartesian basis functions of A   symmetry.
 There are   128 symmetry adapted basis functions of A   symmetry.
   128 basis functions,   216 primitive gaussians,   136 cartesian basis functions
    16 alpha electrons       16 beta electrons
       nuclear repulsion energy       120.0021989777 Hartrees.
 NAtoms=    8 NActive=    8 NUniq=    8 SFac= 1.00D+00 NAtFMM=   60 NAOKFM=F Big=F
 Integral buffers will be    131072 words long.
 Raffenetti 1 integral format.
 Two-electron integral symmetry is turned on.
 One-electron integrals computed using PRISM.
 NBasis=   128 RedAO= T EigKep=  1.13D-04  NBF=   128
 NBsUse=   128 1.00D-06 EigRej= -1.00D+00 NBFU=   128
 Initial guess from the checkpoint file:  "/scr/Gau-5693.chk"
 B after Tr=    -0.000000   -0.000000   -0.000000
         Rot=    0.999977    0.000000   -0.000001    0.006853 Ang=   0.79 deg.
 ExpMin= 2.97D-02 ExpMax= 1.17D+04 ExpMxC= 4.01D+02 IAcc=3 IRadAn=         5 AccDes= 0.00D+00
 Harris functional with IExCor=  205 and IRadAn=       5 diagonalized for initial guess.
 HarFok:  IExCor=  205 AccDes= 0.00D+00 IRadAn=         5 IDoV= 1 UseB2=F ITyADJ=14
 ICtDFT=  3500011 ScaDFX=  1.000000  1.000000  1.000000  1.000000
 FoFCou: FMM=F IPFlag=           0 FMFlag=      100000 FMFlg1=           0
         NFxFlg=           0 DoJE=T BraDBF=F KetDBF=T FulRan=T
         wScrn=  0.000000 ICntrl=       500 IOpCl=  0 I1Cent=   200000004 NGrid=           0
         NMat0=    1 NMatS0=      1 NMatT0=    0 NMatD0=    1 NMtDS0=    0 NMtDT0=    0
 Petite list used in FoFCou.
 Keep R1 ints in memory in canonical form, NReq=42669445.
 Requested convergence on RMS density matrix=1.00D-08 within 128 cycles.
 Requested convergence on MAX density matrix=1.00D-06.
 Requested convergence on             energy=1.00D-06.
 No special actions if energy rises.
 SCF Done:  E(RHF) =  -227.837580532     A.U. after   10 cycles
            NFock= 10  Conv=0.77D-08     -V/T= 2.0022
 ExpMin= 2.97D-02 ExpMax= 1.17D+04 ExpMxC= 4.01D+02 IAcc=3 IRadAn=         5 AccDes= 0.00D+00
 HarFok:  IExCor=  205 AccDes= 0.00D+00 IRadAn=         5 IDoV=-2 UseB2=F ITyADJ=14
 ICtDFT= 12500011 ScaDFX=  1.000000  1.000000  1.000000  1.000000
 Range of M.O.s used for correlation:     5   128
 NBasis=   128 NAE=    16 NBE=    16 NFC=     4 NFV=     0
 NROrb=    124 NOA=    12 NOB=    12 NVA=   112 NVB=   112

 **** Warning!!: The largest alpha MO coefficient is  0.31374063D+02

 Fully direct method using O(ONN) memory.
 JobTyp=1 Pass  1:  I=   5 to  16 NPSUse= 40 ParTrn=T ParDer=T DoDerP=T.
 Spin components of T(2) and E(2):
     alpha-alpha T2 =       0.2737517600D-01 E2=     -0.8827302010D-01
     alpha-beta  T2 =       0.1512649631D+00 E2=     -0.5018059431D+00
     beta-beta   T2 =       0.2737517600D-01 E2=     -0.8827302010D-01
 ANorm=    0.1098187286D+01
 E2 =    -0.6783519833D+00 EUMP2 =    -0.22851593251578D+03
          IDoAtm=11111111
          Differentiating once with respect to electric field.
                with respect to dipole field.
          Differentiating once with respect to nuclear coordinates.
 Keep R1 ints in memory in canonical form, NReq=42674739.
          There are     1 degrees of freedom in the 1st order CPHF.  IDoFFX=0 NUNeed=     1.
 LinEq1:  Iter=  0 NonCon=     1 RMS=5.88D-03 Max=1.15D-01 NDo=     1
 AX will form     1 AO Fock derivatives at one time.
 LinEq1:  Iter=  1 NonCon=     1 RMS=1.82D-03 Max=2.52D-02 NDo=     1
 LinEq1:  Iter=  2 NonCon=     1 RMS=5.91D-04 Max=8.16D-03 NDo=     1
 LinEq1:  Iter=  3 NonCon=     1 RMS=1.93D-04 Max=2.67D-03 NDo=     1
 LinEq1:  Iter=  4 NonCon=     1 RMS=6.85D-05 Max=6.62D-04 NDo=     1
 LinEq1:  Iter=  5 NonCon=     1 RMS=2.29D-05 Max=2.83D-04 NDo=     1
 LinEq1:  Iter=  6 NonCon=     1 RMS=6.31D-06 Max=5.02D-05 NDo=     1
 LinEq1:  Iter=  7 NonCon=     1 RMS=1.22D-06 Max=1.00D-05 NDo=     1
 LinEq1:  Iter=  8 NonCon=     1 RMS=2.69D-07 Max=3.77D-06 NDo=     1
 LinEq1:  Iter=  9 NonCon=     1 RMS=8.46D-08 Max=1.14D-06 NDo=     1
 LinEq1:  Iter= 10 NonCon=     1 RMS=2.39D-08 Max=2.34D-07 NDo=     1
 LinEq1:  Iter= 11 NonCon=     1 RMS=6.13D-09 Max=5.43D-08 NDo=     1
 LinEq1:  Iter= 12 NonCon=     1 RMS=1.02D-09 Max=7.71D-09 NDo=     1
 LinEq1:  Iter= 13 NonCon=     1 RMS=1.12D-10 Max=6.23D-10 NDo=     1
 LinEq1:  Iter= 14 NonCon=     0 RMS=1.51D-11 Max=1.25D-10 NDo=     1
 Linear equations converged to 1.000D-10 1.000D-09 after    14 iterations.
 End of Minotr F.D. properties file   721 does not exist.
 End of Minotr F.D. properties file   722 does not exist.
 End of Minotr F.D. properties file   788 does not exist.
 Calling FoFJK, ICntrl=  10002127 FMM=F ISym2X=0 I1Cent= 0 IOpClX= 0 NMat=1 NMatS=1 NMatT=0.
 ***** Axes restored to original set *****
 -------------------------------------------------------------------
 Center     Atomic                   Forces (Hartrees/Bohr)
 Number     Number              X              Y              Z
 -------------------------------------------------------------------
      1        6           0.004586676    0.002102186   -0.000005610
      2        8          -0.000932416    0.000440827    0.000002170
      3        8          -0.002896030   -0.001443504    0.000001988
      4        6          -0.001105520   -0.000917320    0.000001199
      5        1          -0.000309581   -0.000174767   -0.000000431
      6        1           0.000159529    0.000046138    0.000000158
      7        1           0.000248720   -0.000026620   -0.000004725
      8        1           0.000248622   -0.000026940    0.000005250
 -------------------------------------------------------------------
 Cartesian Forces:  Max     0.004586676 RMS     0.001280202

 GradGradGradGradGradGradGradGradGradGradGradGradGradGradGradGradGradGrad
 Berny optimization.
 Using GEDIIS/GDIIS optimizer.
 FormGI is forming the generalized inverse of G from B-inverse, IUseBI=4.
 Internal  Forces:  Max     0.003441707 RMS     0.000812901
 Search for a local minimum.
 Step number   2 out of a maximum of   35
 All quantities printed in internal units (Hartrees-Bohrs-Radians)
 Mixed Optimization -- En-DIIS/RFO-DIIS
 Update second derivatives using D2CorX and points    1    2
 DE= -2.33D-04 DEPred=-2.21D-04 R= 1.06D+00
 TightC=F SS=  1.41D+00  RLast= 3.70D-02 DXNew= 5.0454D-01 1.1105D-01
 Trust test= 1.06D+00 RLast= 3.70D-02 DXMaxT set to 3.00D-01
 ITU=  1  0
 Use linear search instead of GDIIS.
     Eigenvalues ---    0.00537   0.00908   0.02165   0.07145   0.07359
     Eigenvalues ---    0.15968   0.16000   0.16000   0.16494   0.23907
     Eigenvalues ---    0.27538   0.30586   0.33576   0.33696   0.34173
     Eigenvalues ---    0.41232   0.58986   0.94799
 RFO step:  Lambda=-4.23605553D-05 EMin= 5.36515233D-03
 Quartic linear search produced a step of  0.05403.
 Iteration  1 RMS(Cart)=  0.00234498 RMS(Int)=  0.00000372
 Iteration  2 RMS(Cart)=  0.00000491 RMS(Int)=  0.00000062
 Iteration  3 RMS(Cart)=  0.00000000 RMS(Int)=  0.00000062
 Variable       Old X    -DE/DX   Delta X   Delta X   Delta X     New X
                                 (Linear)    (Quad)   (Total)
    R1        2.29645  -0.00102  -0.00029  -0.00134  -0.00162   2.29483
    R2        2.58983   0.00344   0.00064   0.00745   0.00809   2.59792
    R3        2.86665  -0.00075  -0.00004  -0.00260  -0.00263   2.86402
    R4        1.83125   0.00020  -0.00106  -0.00041  -0.00148   1.82977
    R5        2.07010   0.00016  -0.00006   0.00044   0.00038   2.07047
    R6        2.08242  -0.00015   0.00010  -0.00038  -0.00028   2.08213
    R7        2.08242  -0.00015   0.00010  -0.00039  -0.00028   2.08213
    A1        2.08404   0.00081  -0.00078   0.00284   0.00206   2.08610
    A2        2.17885   0.00048   0.00047   0.00239   0.00286   2.18171
    A3        2.02030  -0.00130   0.00031  -0.00523  -0.00492   2.01538
    A4        1.91020   0.00054  -0.00083   0.00296   0.00213   1.91233
    A5        1.90510  -0.00013   0.00001  -0.00141  -0.00139   1.90371
    A6        1.92317  -0.00002   0.00001   0.00016   0.00018   1.92335
    A7        1.92313  -0.00002   0.00001   0.00016   0.00018   1.92330
    A8        1.91261  -0.00001  -0.00026  -0.00080  -0.00106   1.91156
    A9        1.91260  -0.00001  -0.00026  -0.00079  -0.00105   1.91155
   A10        1.88715   0.00019   0.00048   0.00269   0.00316   1.89031
    D1        3.14156  -0.00000   0.00000  -0.00010  -0.00009   3.14147
    D2       -0.00010   0.00000   0.00000   0.00014   0.00014   0.00004
    D3       -0.00020   0.00000  -0.00000   0.00014   0.00014  -0.00006
    D4       -2.10131   0.00011   0.00030   0.00191   0.00221  -2.09910
    D5        2.10087  -0.00011  -0.00030  -0.00162  -0.00193   2.09894
    D6        3.14146  -0.00000   0.00000  -0.00011  -0.00011   3.14135
    D7        1.04035   0.00011   0.00031   0.00166   0.00196   1.04232
    D8       -1.04066  -0.00011  -0.00030  -0.00187  -0.00217  -1.04283
         Item               Value     Threshold  Converged?
 Maximum Force            0.003442     0.000450     NO 
 RMS     Force            0.000813     0.000300     NO 
 Maximum Displacement     0.005227     0.001800     NO 
 RMS     Displacement     0.002348     0.001200     NO 
 Predicted change in Energy=-2.183834D-05
 GradGradGradGradGradGradGradGradGradGradGradGradGradGradGradGradGradGrad

                          Input orientation:                          
 ---------------------------------------------------------------------
 Center     Atomic      Atomic             Coordinates (Angstroms)
 Number     Number       Type             X           Y           Z
 ---------------------------------------------------------------------
      1          6           0        1.002105   -0.092610   -0.000044
      2          8           0        2.161818   -0.452834    0.000108
      3          8           0        0.000271   -1.034043   -0.000017
      4          6           0        0.540136    1.350841   -0.000040
      5          1           0       -0.860835   -0.591271   -0.000039
      6          1           0        1.417208    2.007489    0.000186
      7          1           0       -0.072388    1.554261    0.892952
      8          1           0       -0.071985    1.554349   -0.893290
 ---------------------------------------------------------------------
                    Distance matrix (angstroms):
                    1          2          3          4          5
     1  C    0.000000
     2  O    1.214371   0.000000
     3  O    1.374761   2.238323   0.000000
     4  C    1.515575   2.425509   2.445225   0.000000
     5  H    1.928524   3.025821   0.968272   2.394685   0.000000
     6  H    2.140731   2.570532   3.355388   1.095646   3.455869
     7  H    2.159667   3.133254   2.738976   1.101818   2.454055
     8  H    2.159637   3.133180   2.739148   1.101818   2.454356
                    6          7          8
     6  H    0.000000
     7  H    1.794811   0.000000
     8  H    1.794806   1.786243   0.000000
 Stoichiometry    C2H4O2
 Framework group  C1[X(C2H4O2)]
 Deg. of freedom    18
 Full point group                 C1      NOp   1
 Largest Abelian subgroup         C1      NOp   1
 Largest concise Abelian subgroup C1      NOp   1
                         Standard orientation:                         
 ---------------------------------------------------------------------
 Center     Atomic      Atomic             Coordinates (Angstroms)
 Number     Number       Type             X           Y           Z
 ---------------------------------------------------------------------
      1          6           0        0.126479   -0.138204    0.000045
      2          8           0        0.698516   -1.209405   -0.000107
      3          8           0        0.862553    1.022900    0.000018
      4          6           0       -1.378120    0.043863    0.000041
      5          1           0        0.265639    1.785293    0.000040
      6          1           0       -1.857977   -0.941113   -0.000185
      7          1           0       -1.693178    0.607161   -0.892952
      8          1           0       -1.693188    0.606748    0.893291
 ---------------------------------------------------------------------
 Rotational constants (GHZ):          10.8058392           9.4963214           5.2223771
 Standard basis: Aug-CC-pVDZ (5D, 7F)
 There are   136 symmetry adapted cartesian basis functions of A   symmetry.
 There are   128 symmetry adapted basis functions of A   symmetry.
   128 basis functions,   216 primitive gaussians,   136 cartesian basis functions
    16 alpha electrons       16 beta electrons
       nuclear repulsion energy       119.9538707077 Hartrees.
 NAtoms=    8 NActive=    8 NUniq=    8 SFac= 1.00D+00 NAtFMM=   60 NAOKFM=F Big=F
 Integral buffers will be    131072 words long.
 Raffenetti 1 integral format.
 Two-electron integral symmetry is turned on.
 One-electron integrals computed using PRISM.
 NBasis=   128 RedAO= T EigKep=  1.13D-04  NBF=   128
 NBsUse=   128 1.00D-06 EigRej= -1.00D+00 NBFU=   128
 Initial guess from the checkpoint file:  "/scr/Gau-5693.chk"
 B after Tr=    -0.000000    0.000000    0.000000
         Rot=    1.000000   -0.000001   -0.000007   -0.000224 Ang=  -0.03 deg.
 Keep R1 ints in memory in canonical form, NReq=42669445.
 Requested convergence on RMS density matrix=1.00D-08 within 128 cycles.
 Requested convergence on MAX density matrix=1.00D-06.
 Requested convergence on             energy=1.00D-06.
 No special actions if energy rises.
 SCF Done:  E(RHF) =  -227.837511432     A.U. after   10 cycles
            NFock= 10  Conv=0.36D-08     -V/T= 2.0022
 ExpMin= 2.97D-02 ExpMax= 1.17D+04 ExpMxC= 4.01D+02 IAcc=3 IRadAn=         5 AccDes= 0.00D+00
 HarFok:  IExCor=  205 AccDes= 0.00D+00 IRadAn=         5 IDoV=-2 UseB2=F ITyADJ=14
 ICtDFT= 12500011 ScaDFX=  1.000000  1.000000  1.000000  1.000000
 Range of M.O.s used for correlation:     5   128
 NBasis=   128 NAE=    16 NBE=    16 NFC=     4 NFV=     0
 NROrb=    124 NOA=    12 NOB=    12 NVA=   112 NVB=   112

 **** Warning!!: The largest alpha MO coefficient is  0.31446081D+02

 Fully direct method using O(ONN) memory.
 JobTyp=1 Pass  1:  I=   5 to  16 NPSUse= 40 ParTrn=T ParDer=T DoDerP=T.
 Spin components of T(2) and E(2):
     alpha-alpha T2 =       0.2738714435D-01 E2=     -0.8828297417D-01
     alpha-beta  T2 =       0.1513214370D+00 E2=     -0.5018804121D+00
     beta-beta   T2 =       0.2738714435D-01 E2=     -0.8828297417D-01
 ANorm=    0.1098223896D+01
 E2 =    -0.6784463604D+00 EUMP2 =    -0.22851595779272D+03
          IDoAtm=11111111
          Differentiating once with respect to electric field.
                with respect to dipole field.
          Differentiating once with respect to nuclear coordinates.
 Keep R1 ints in memory in canonical form, NReq=42674798.
          There are     1 degrees of freedom in the 1st order CPHF.  IDoFFX=0 NUNeed=     1.
 LinEq1:  Iter=  0 NonCon=     1 RMS=5.88D-03 Max=1.15D-01 NDo=     1
 AX will form     1 AO Fock derivatives at one time.
 LinEq1:  Iter=  1 NonCon=     1 RMS=1.82D-03 Max=2.54D-02 NDo=     1
 LinEq1:  Iter=  2 NonCon=     1 RMS=5.93D-04 Max=8.12D-03 NDo=     1
 LinEq1:  Iter=  3 NonCon=     1 RMS=1.93D-04 Max=2.73D-03 NDo=     1
 LinEq1:  Iter=  4 NonCon=     1 RMS=6.88D-05 Max=6.60D-04 NDo=     1
 LinEq1:  Iter=  5 NonCon=     1 RMS=2.32D-05 Max=2.85D-04 NDo=     1
 LinEq1:  Iter=  6 NonCon=     1 RMS=6.41D-06 Max=5.37D-05 NDo=     1
 LinEq1:  Iter=  7 NonCon=     1 RMS=1.25D-06 Max=1.14D-05 NDo=     1
 LinEq1:  Iter=  8 NonCon=     1 RMS=2.83D-07 Max=4.09D-06 NDo=     1
 LinEq1:  Iter=  9 NonCon=     1 RMS=8.82D-08 Max=1.10D-06 NDo=     1
 LinEq1:  Iter= 10 NonCon=     1 RMS=2.44D-08 Max=2.14D-07 NDo=     1
 LinEq1:  Iter= 11 NonCon=     1 RMS=6.19D-09 Max=5.40D-08 NDo=     1
 LinEq1:  Iter= 12 NonCon=     1 RMS=1.02D-09 Max=7.71D-09 NDo=     1
 LinEq1:  Iter= 13 NonCon=     1 RMS=1.14D-10 Max=6.41D-10 NDo=     1
 LinEq1:  Iter= 14 NonCon=     0 RMS=1.56D-11 Max=1.27D-10 NDo=     1
 Linear equations converged to 1.000D-10 1.000D-09 after    14 iterations.
 End of Minotr F.D. properties file   721 does not exist.
 End of Minotr F.D. properties file   722 does not exist.
 End of Minotr F.D. properties file   788 does not exist.
 Calling FoFJK, ICntrl=  10002127 FMM=F ISym2X=0 I1Cent= 0 IOpClX= 0 NMat=1 NMatS=1 NMatT=0.
 ***** Axes restored to original set *****
 -------------------------------------------------------------------
 Center     Atomic                   Forces (Hartrees/Bohr)
 Number     Number              X              Y              Z
 -------------------------------------------------------------------
      1        6           0.001353364    0.000551540    0.000026941
      2        8          -0.000651485   -0.000048436   -0.000010029
      3        8           0.000202622   -0.001007025   -0.000006148
      4        6          -0.000369809   -0.000038933   -0.000008706
      5        1          -0.000721621    0.000482348   -0.000001671
      6        1           0.000062610    0.000133680   -0.000000544
      7        1           0.000062946   -0.000038389   -0.000100434
      8        1           0.000061373   -0.000034784    0.000100592
 -------------------------------------------------------------------
 Cartesian Forces:  Max     0.001353364 RMS     0.000436021

 GradGradGradGradGradGradGradGradGradGradGradGradGradGradGradGradGradGrad
 Berny optimization.
 Using GEDIIS/GDIIS optimizer.
 FormGI is forming the generalized inverse of G from B-inverse, IUseBI=4.
 Internal  Forces:  Max     0.000862322 RMS     0.000283744
 Search for a local minimum.
 Step number   3 out of a maximum of   35
 All quantities printed in internal units (Hartrees-Bohrs-Radians)
 Mixed Optimization -- En-DIIS/RFO-DIIS
 Swapping is turned off.
 Update second derivatives using D2CorX and points    1    2    3
 DE= -2.53D-05 DEPred=-2.18D-05 R= 1.16D+00
 TightC=F SS=  1.41D+00  RLast= 1.23D-02 DXNew= 5.0454D-01 3.6769D-02
 Trust test= 1.16D+00 RLast= 1.23D-02 DXMaxT set to 3.00D-01
 ITU=  1  1  0
     Eigenvalues ---    0.00537   0.00908   0.02165   0.07262   0.07375
     Eigenvalues ---    0.15632   0.16000   0.16005   0.16381   0.20572
     Eigenvalues ---    0.27944   0.31960   0.33572   0.33576   0.34051
     Eigenvalues ---    0.39902   0.59087   0.93685
 En-DIIS/RFO-DIIS/Sim-DIIS IScMMF=       -3 using points:     3    2
 RFO step:  Lambda=-5.99735802D-06.
 DidBck=F Rises=F RFO-DIIS coefs:    1.22116   -0.22116
 Iteration  1 RMS(Cart)=  0.00143014 RMS(Int)=  0.00000163
 Iteration  2 RMS(Cart)=  0.00000181 RMS(Int)=  0.00000033
 Iteration  3 RMS(Cart)=  0.00000000 RMS(Int)=  0.00000033
 Variable       Old X    -DE/DX   Delta X   Delta X   Delta X     New X
                                 (Linear)    (Quad)   (Total)
    R1        2.29483  -0.00061  -0.00036  -0.00070  -0.00106   2.29377
    R2        2.59792   0.00074   0.00179   0.00106   0.00285   2.60077
    R3        2.86402   0.00008  -0.00058   0.00058  -0.00000   2.86402
    R4        1.82977   0.00086  -0.00033   0.00164   0.00131   1.83108
    R5        2.07047   0.00013   0.00008   0.00038   0.00046   2.07094
    R6        2.08213  -0.00012  -0.00006  -0.00035  -0.00042   2.08172
    R7        2.08213  -0.00012  -0.00006  -0.00035  -0.00041   2.08172
    A1        2.08610  -0.00015   0.00046  -0.00131  -0.00085   2.08525
    A2        2.18171   0.00040   0.00063   0.00182   0.00245   2.18415
    A3        2.01538  -0.00026  -0.00109  -0.00051  -0.00159   2.01379
    A4        1.91233  -0.00018   0.00047  -0.00199  -0.00152   1.91081
    A5        1.90371   0.00012  -0.00031   0.00116   0.00086   1.90457
    A6        1.92335  -0.00004   0.00004  -0.00037  -0.00033   1.92301
    A7        1.92330  -0.00003   0.00004  -0.00032  -0.00028   1.92303
    A8        1.91156  -0.00002  -0.00023  -0.00007  -0.00030   1.91125
    A9        1.91155  -0.00003  -0.00023  -0.00007  -0.00031   1.91124
   A10        1.89031   0.00000   0.00070  -0.00035   0.00035   1.89067
    D1        3.14147   0.00001  -0.00002   0.00067   0.00065  -3.14107
    D2        0.00004  -0.00000   0.00003  -0.00052  -0.00048  -0.00044
    D3       -0.00006  -0.00000   0.00003  -0.00057  -0.00054  -0.00060
    D4       -2.09910  -0.00002   0.00049  -0.00099  -0.00050  -2.09960
    D5        2.09894   0.00002  -0.00043  -0.00013  -0.00055   2.09838
    D6        3.14135   0.00000  -0.00002   0.00069   0.00066  -3.14117
    D7        1.04232  -0.00002   0.00043   0.00027   0.00070   1.04302
    D8       -1.04283   0.00003  -0.00048   0.00113   0.00065  -1.04218
         Item               Value     Threshold  Converged?
 Maximum Force            0.000862     0.000450     NO 
 RMS     Force            0.000284     0.000300     YES
 Maximum Displacement     0.003879     0.001800     NO 
 RMS     Displacement     0.001431     0.001200     NO 
 Predicted change in Energy=-2.998755D-06
 GradGradGradGradGradGradGradGradGradGradGradGradGradGradGradGradGradGrad

                          Input orientation:                          
 ---------------------------------------------------------------------
 Center     Atomic      Atomic             Coordinates (Angstroms)
 Number     Number       Type             X           Y           Z
 ---------------------------------------------------------------------
      1          6           0        1.003433   -0.092353    0.000349
      2          8           0        2.162069   -0.454147   -0.000020
      3          8           0       -0.000107   -1.034171   -0.000159
      4          6           0        0.540096    1.350658    0.000032
      5          1           0       -0.860869   -0.589218   -0.000246
      6          1           0        1.416178    2.009035    0.000045
      7          1           0       -0.072366    1.553338    0.892965
      8          1           0       -0.072103    1.553043   -0.893151
 ---------------------------------------------------------------------
                    Distance matrix (angstroms):
                    1          2          3          4          5
     1  C    0.000000
     2  O    1.213809   0.000000
     3  O    1.376268   2.238623   0.000000
     4  C    1.515573   2.426545   2.445246   0.000000
     5  H    1.929378   3.025955   0.968966   2.392869   0.000000
     6  H    2.141539   2.573639   3.356630   1.095892   3.454831
     7  H    2.159260   3.133707   2.738265   1.101598   2.451552
     8  H    2.159271   3.133373   2.737937   1.101600   2.451268
                    6          7          8
     6  H    0.000000
     7  H    1.794638   0.000000
     8  H    1.794633   1.786116   0.000000
 Stoichiometry    C2H4O2
 Framework group  C1[X(C2H4O2)]
 Deg. of freedom    18
 Full point group                 C1      NOp   1
 Largest Abelian subgroup         C1      NOp   1
 Largest concise Abelian subgroup C1      NOp   1
                         Standard orientation:                         
 ---------------------------------------------------------------------
 Center     Atomic      Atomic             Coordinates (Angstroms)
 Number     Number       Type             X           Y           Z
 ---------------------------------------------------------------------
      1          6           0        0.126502   -0.139121   -0.000334
      2          8           0        0.702615   -1.207496    0.000034
      3          8           0        0.859654    1.025612    0.000174
      4          6           0       -1.378387    0.040522   -0.000017
      5          1           0        0.258714    1.785722    0.000261
      6          1           0       -1.857606   -0.945038   -0.000031
      7          1           0       -1.694147    0.603091   -0.892950
      8          1           0       -1.693808    0.602889    0.893166
 ---------------------------------------------------------------------
 Rotational constants (GHZ):          10.8024589           9.4927962           5.2204969
 Standard basis: Aug-CC-pVDZ (5D, 7F)
 There are   136 symmetry adapted cartesian basis functions of A   symmetry.
 There are   128 symmetry adapted basis functions of A   symmetry.
   128 basis functions,   216 primitive gaussians,   136 cartesian basis functions
    16 alpha electrons       16 beta electrons
       nuclear repulsion energy       119.9332404923 Hartrees.
 NAtoms=    8 NActive=    8 NUniq=    8 SFac= 1.00D+00 NAtFMM=   60 NAOKFM=F Big=F
 Integral buffers will be    131072 words long.
 Raffenetti 1 integral format.
 Two-electron integral symmetry is turned on.
 One-electron integrals computed using PRISM.
 NBasis=   128 RedAO= T EigKep=  1.13D-04  NBF=   128
 NBsUse=   128 1.00D-06 EigRej= -1.00D+00 NBFU=   128
 Initial guess from the checkpoint file:  "/scr/Gau-5693.chk"
 B after Tr=     0.000000   -0.000000   -0.000000
         Rot=    0.999999   -0.000004    0.000027   -0.001387 Ang=  -0.16 deg.
 Keep R1 ints in memory in canonical form, NReq=42669445.
 Requested convergence on RMS density matrix=1.00D-08 within 128 cycles.
 Requested convergence on MAX density matrix=1.00D-06.
 Requested convergence on             energy=1.00D-06.
 No special actions if energy rises.
 SCF Done:  E(RHF) =  -227.837443752     A.U. after    9 cycles
            NFock=  9  Conv=0.58D-08     -V/T= 2.0022
 ExpMin= 2.97D-02 ExpMax= 1.17D+04 ExpMxC= 4.01D+02 IAcc=3 IRadAn=         5 AccDes= 0.00D+00
 HarFok:  IExCor=  205 AccDes= 0.00D+00 IRadAn=         5 IDoV=-2 UseB2=F ITyADJ=14
 ICtDFT= 12500011 ScaDFX=  1.000000  1.000000  1.000000  1.000000
 Range of M.O.s used for correlation:     5   128
 NBasis=   128 NAE=    16 NBE=    16 NFC=     4 NFV=     0
 NROrb=    124 NOA=    12 NOB=    12 NVA=   112 NVB=   112

 **** Warning!!: The largest alpha MO coefficient is  0.31497951D+02

 Fully direct method using O(ONN) memory.
 JobTyp=1 Pass  1:  I=   5 to  16 NPSUse= 40 ParTrn=T ParDer=T DoDerP=T.
 Spin components of T(2) and E(2):
     alpha-alpha T2 =       0.2739441113D-01 E2=     -0.8829039015D-01
     alpha-beta  T2 =       0.1513634913D+00 E2=     -0.5019364541D+00
     beta-beta   T2 =       0.2739441113D-01 E2=     -0.8829039015D-01
 ANorm=    0.1098249659D+01
 E2 =    -0.6785172344D+00 EUMP2 =    -0.22851596098678D+03
          IDoAtm=11111111
          Differentiating once with respect to electric field.
                with respect to dipole field.
          Differentiating once with respect to nuclear coordinates.
 Keep R1 ints in memory in canonical form, NReq=42674798.
          There are     1 degrees of freedom in the 1st order CPHF.  IDoFFX=0 NUNeed=     1.
 LinEq1:  Iter=  0 NonCon=     1 RMS=5.88D-03 Max=1.14D-01 NDo=     1
 AX will form     1 AO Fock derivatives at one time.
 LinEq1:  Iter=  1 NonCon=     1 RMS=1.82D-03 Max=2.55D-02 NDo=     1
 LinEq1:  Iter=  2 NonCon=     1 RMS=5.93D-04 Max=8.10D-03 NDo=     1
 LinEq1:  Iter=  3 NonCon=     1 RMS=1.93D-04 Max=2.75D-03 NDo=     1
 LinEq1:  Iter=  4 NonCon=     1 RMS=6.89D-05 Max=6.57D-04 NDo=     1
 LinEq1:  Iter=  5 NonCon=     1 RMS=2.33D-05 Max=2.87D-04 NDo=     1
 LinEq1:  Iter=  6 NonCon=     1 RMS=6.46D-06 Max=5.64D-05 NDo=     1
 LinEq1:  Iter=  7 NonCon=     1 RMS=1.27D-06 Max=1.21D-05 NDo=     1
 LinEq1:  Iter=  8 NonCon=     1 RMS=2.91D-07 Max=4.22D-06 NDo=     1
 LinEq1:  Iter=  9 NonCon=     1 RMS=9.00D-08 Max=1.08D-06 NDo=     1
 LinEq1:  Iter= 10 NonCon=     1 RMS=2.47D-08 Max=2.04D-07 NDo=     1
 LinEq1:  Iter= 11 NonCon=     1 RMS=6.22D-09 Max=5.39D-08 NDo=     1
 LinEq1:  Iter= 12 NonCon=     1 RMS=1.03D-09 Max=7.70D-09 NDo=     1
 LinEq1:  Iter= 13 NonCon=     1 RMS=1.17D-10 Max=9.67D-10 NDo=     1
 LinEq1:  Iter= 14 NonCon=     0 RMS=1.88D-11 Max=3.56D-10 NDo=     1
 Linear equations converged to 1.000D-10 1.000D-09 after    14 iterations.
 End of Minotr F.D. properties file   721 does not exist.
 End of Minotr F.D. properties file   722 does not exist.
 End of Minotr F.D. properties file   788 does not exist.
 Calling FoFJK, ICntrl=  10002127 FMM=F ISym2X=0 I1Cent= 0 IOpClX= 0 NMat=1 NMatS=1 NMatT=0.
 ***** Axes restored to original set *****
 -------------------------------------------------------------------
 Center     Atomic                   Forces (Hartrees/Bohr)
 Number     Number              X              Y              Z
 -------------------------------------------------------------------
      1        6           0.000075707   -0.000044924   -0.000138184
      2        8          -0.000016083    0.000013292    0.000052130
      3        8           0.000127896   -0.000086500    0.000032926
      4        6           0.000053212    0.000053637    0.000043328
      5        1          -0.000179990    0.000090397    0.000007025
      6        1          -0.000018055    0.000004510    0.000002270
      7        1          -0.000024401   -0.000006905   -0.000002412
      8        1          -0.000018286   -0.000023507    0.000002916
 -------------------------------------------------------------------
 Cartesian Forces:  Max     0.000179990 RMS     0.000066150

 GradGradGradGradGradGradGradGradGradGradGradGradGradGradGradGradGradGrad
 Berny optimization.
 Using GEDIIS/GDIIS optimizer.
 FormGI is forming the generalized inverse of G from B-inverse, IUseBI=4.
 Internal  Forces:  Max     0.000201401 RMS     0.000047888
 Search for a local minimum.
 Step number   4 out of a maximum of   35
 All quantities printed in internal units (Hartrees-Bohrs-Radians)
 Mixed Optimization -- En-DIIS/RFO-DIIS
 Swapping is turned off.
 Update second derivatives using D2CorX and points    1    2    3    4
 DE= -3.19D-06 DEPred=-3.00D-06 R= 1.07D+00
 TightC=F SS=  1.41D+00  RLast= 5.21D-03 DXNew= 5.0454D-01 1.5640D-02
 Trust test= 1.07D+00 RLast= 5.21D-03 DXMaxT set to 3.00D-01
 ITU=  1  1  1  0
     Eigenvalues ---    0.00537   0.00936   0.02166   0.07328   0.07372
     Eigenvalues ---    0.14982   0.15999   0.16008   0.16547   0.20456
     Eigenvalues ---    0.28371   0.32380   0.33575   0.33690   0.34165
     Eigenvalues ---    0.39769   0.52665   0.93943
 En-DIIS/RFO-DIIS/Sim-DIIS IScMMF=       -3 using points:     4    3    2
 RFO step:  Lambda=-7.23504268D-07.
 DidBck=T Rises=F RFO-DIIS coefs:    0.46171    0.88764   -0.34935
 Iteration  1 RMS(Cart)=  0.00047425 RMS(Int)=  0.00000043
 Iteration  2 RMS(Cart)=  0.00000041 RMS(Int)=  0.00000031
 Variable       Old X    -DE/DX   Delta X   Delta X   Delta X     New X
                                 (Linear)    (Quad)   (Total)
    R1        2.29377  -0.00002   0.00000  -0.00008  -0.00008   2.29369
    R2        2.60077   0.00004   0.00129  -0.00104   0.00026   2.60103
    R3        2.86402   0.00003  -0.00092   0.00094   0.00002   2.86404
    R4        1.83108   0.00020  -0.00122   0.00157   0.00034   1.83143
    R5        2.07094  -0.00001  -0.00012   0.00015   0.00003   2.07096
    R6        2.08172   0.00001   0.00013  -0.00015  -0.00003   2.08169
    R7        2.08172   0.00000   0.00012  -0.00016  -0.00004   2.08169
    A1        2.08525   0.00004   0.00118  -0.00110   0.00008   2.08533
    A2        2.18415   0.00002  -0.00032   0.00052   0.00020   2.18436
    A3        2.01379  -0.00006  -0.00086   0.00058  -0.00029   2.01350
    A4        1.91081   0.00000   0.00156  -0.00158  -0.00002   1.91080
    A5        1.90457   0.00004  -0.00095   0.00114   0.00019   1.90476
    A6        1.92301  -0.00001   0.00024  -0.00030  -0.00006   1.92295
    A7        1.92303  -0.00004   0.00021  -0.00036  -0.00015   1.92288
    A8        1.91125   0.00000  -0.00021   0.00025   0.00004   1.91129
    A9        1.91124   0.00001  -0.00020   0.00025   0.00005   1.91129
   A10        1.89067  -0.00001   0.00091  -0.00099  -0.00008   1.89059
    D1       -3.14107  -0.00003  -0.00038  -0.00081  -0.00119   3.14092
    D2       -0.00044   0.00002   0.00031   0.00065   0.00096   0.00051
    D3       -0.00060   0.00003   0.00034   0.00075   0.00109   0.00049
    D4       -2.09960   0.00000   0.00104  -0.00008   0.00096  -2.09864
    D5        2.09838   0.00004  -0.00038   0.00156   0.00118   2.09957
    D6       -3.14117  -0.00002  -0.00039  -0.00080  -0.00120   3.14082
    D7        1.04302  -0.00004   0.00031  -0.00163  -0.00133   1.04169
    D8       -1.04218  -0.00001  -0.00111   0.00000  -0.00110  -1.04329
         Item               Value     Threshold  Converged?
 Maximum Force            0.000201     0.000450     YES
 RMS     Force            0.000048     0.000300     YES
 Maximum Displacement     0.001386     0.001800     YES
 RMS     Displacement     0.000474     0.001200     YES
 Predicted change in Energy=-2.533796D-07
 Optimization completed.
    -- Stationary point found.
                           ----------------------------
                           !   Optimized Parameters   !
                           ! (Angstroms and Degrees)  !
 --------------------------                            --------------------------
 ! Name  Definition              Value          Derivative Info.                !
 --------------------------------------------------------------------------------
 ! R1    R(1,2)                  1.2138         -DE/DX =    0.0                 !
 ! R2    R(1,3)                  1.3763         -DE/DX =    0.0                 !
 ! R3    R(1,4)                  1.5156         -DE/DX =    0.0                 !
 ! R4    R(3,5)                  0.969          -DE/DX =    0.0002              !
 ! R5    R(4,6)                  1.0959         -DE/DX =    0.0                 !
 ! R6    R(4,7)                  1.1016         -DE/DX =    0.0                 !
 ! R7    R(4,8)                  1.1016         -DE/DX =    0.0                 !
 ! A1    A(2,1,3)              119.4758         -DE/DX =    0.0                 !
 ! A2    A(2,1,4)              125.1428         -DE/DX =    0.0                 !
 ! A3    A(3,1,4)              115.3814         -DE/DX =   -0.0001              !
 ! A4    A(1,3,5)              109.4815         -DE/DX =    0.0                 !
 ! A5    A(1,4,6)              109.1236         -DE/DX =    0.0                 !
 ! A6    A(1,4,7)              110.1806         -DE/DX =    0.0                 !
 ! A7    A(1,4,8)              110.1813         -DE/DX =    0.0                 !
 ! A8    A(6,4,7)              109.5067         -DE/DX =    0.0                 !
 ! A9    A(6,4,8)              109.506          -DE/DX =    0.0                 !
 ! A10   A(7,4,8)              108.3273         -DE/DX =    0.0                 !
 ! D1    D(2,1,3,5)            180.03           -DE/DX =    0.0                 !
 ! D2    D(4,1,3,5)             -0.0253         -DE/DX =    0.0                 !
 ! D3    D(2,1,4,6)             -0.0346         -DE/DX =    0.0                 !
 ! D4    D(2,1,4,7)           -120.2982         -DE/DX =    0.0                 !
 ! D5    D(2,1,4,8)            120.2285         -DE/DX =    0.0                 !
 ! D6    D(3,1,4,6)            180.0242         -DE/DX =    0.0                 !
 ! D7    D(3,1,4,7)             59.7606         -DE/DX =    0.0                 !
 ! D8    D(3,1,4,8)            -59.7126         -DE/DX =    0.0                 !
 --------------------------------------------------------------------------------
 GradGradGradGradGradGradGradGradGradGradGradGradGradGradGradGradGradGrad

                          Input orientation:                          
 ---------------------------------------------------------------------
 Center     Atomic      Atomic             Coordinates (Angstroms)
 Number     Number       Type             X           Y           Z
 ---------------------------------------------------------------------
      1          6           0        1.003433   -0.092353    0.000349
      2          8           0        2.162069   -0.454147   -0.000020
      3          8           0       -0.000107   -1.034171   -0.000159
      4          6           0        0.540096    1.350658    0.000032
      5          1           0       -0.860869   -0.589218   -0.000246
      6          1           0        1.416178    2.009035    0.000045
      7          1           0       -0.072366    1.553338    0.892965
      8          1           0       -0.072103    1.553043   -0.893151
 ---------------------------------------------------------------------
                    Distance matrix (angstroms):
                    1          2          3          4          5
     1  C    0.000000
     2  O    1.213809   0.000000
     3  O    1.376268   2.238623   0.000000
     4  C    1.515573   2.426545   2.445246   0.000000
     5  H    1.929378   3.025955   0.968966   2.392869   0.000000
     6  H    2.141539   2.573639   3.356630   1.095892   3.454831
     7  H    2.159260   3.133707   2.738265   1.101598   2.451552
     8  H    2.159271   3.133373   2.737937   1.101600   2.451268
                    6          7          8
     6  H    0.000000
     7  H    1.794638   0.000000
     8  H    1.794633   1.786116   0.000000
 Stoichiometry    C2H4O2
 Framework group  C1[X(C2H4O2)]
 Deg. of freedom    18
 Full point group                 C1      NOp   1
 Largest Abelian subgroup         C1      NOp   1
 Largest concise Abelian subgroup C1      NOp   1
                         Standard orientation:                         
 ---------------------------------------------------------------------
 Center     Atomic      Atomic             Coordinates (Angstroms)
 Number     Number       Type             X           Y           Z
 ---------------------------------------------------------------------
      1          6           0        0.126502   -0.139121   -0.000334
      2          8           0        0.702615   -1.207496    0.000034
      3          8           0        0.859654    1.025612    0.000174
      4          6           0       -1.378387    0.040522   -0.000017
      5          1           0        0.258714    1.785722    0.000261
      6          1           0       -1.857606   -0.945038   -0.000031
      7          1           0       -1.694147    0.603091   -0.892950
      8          1           0       -1.693808    0.602889    0.893166
 ---------------------------------------------------------------------
 Rotational constants (GHZ):          10.8024589           9.4927962           5.2204969

 **********************************************************************

            Population analysis using the SCF Density.

 **********************************************************************

 Orbital symmetries:
       Occupied  (A) (A) (A) (A) (A) (A) (A) (A) (A) (A) (A) (A)
                 (A) (A) (A) (A)
       Virtual   (A) (A) (A) (A) (A) (A) (A) (A) (A) (A) (A) (A)
                 (A) (A) (A) (A) (A) (A) (A) (A) (A) (A) (A) (A)
                 (A) (A) (A) (A) (A) (A) (A) (A) (A) (A) (A) (A)
                 (A) (A) (A) (A) (A) (A) (A) (A) (A) (A) (A) (A)
                 (A) (A) (A) (A) (A) (A) (A) (A) (A) (A) (A) (A)
                 (A) (A) (A) (A) (A) (A) (A) (A) (A) (A) (A) (A)
                 (A) (A) (A) (A) (A) (A) (A) (A) (A) (A) (A) (A)
                 (A) (A) (A) (A) (A) (A) (A) (A) (A) (A) (A) (A)
                 (A) (A) (A) (A) (A) (A) (A) (A) (A) (A) (A) (A)
                 (A) (A) (A) (A)
 The electronic state is 1-A.
 Alpha  occ. eigenvalues --  -20.62668 -20.56128 -11.40446 -11.27304  -1.45822
 Alpha  occ. eigenvalues --   -1.36479  -1.03008  -0.82981  -0.72012  -0.67017
 Alpha  occ. eigenvalues --   -0.64980  -0.60306  -0.56964  -0.56003  -0.47968
 Alpha  occ. eigenvalues --   -0.45414
 Alpha virt. eigenvalues --    0.02354   0.04515   0.04836   0.06721   0.09243
 Alpha virt. eigenvalues --    0.11884   0.12039   0.12559   0.14133   0.15022
 Alpha virt. eigenvalues --    0.16083   0.16334   0.19824   0.22085   0.23131
 Alpha virt. eigenvalues --    0.25064   0.26544   0.27847   0.28995   0.32012
 Alpha virt. eigenvalues --    0.32475   0.33055   0.35853   0.35925   0.36930
 Alpha virt. eigenvalues --    0.39282   0.41852   0.43900   0.44909   0.47247
 Alpha virt. eigenvalues --    0.47292   0.51628   0.53898   0.54333   0.56031
 Alpha virt. eigenvalues --    0.56589   0.58685   0.63303   0.63333   0.63975
 Alpha virt. eigenvalues --    0.66478   0.68005   0.68395   0.71632   0.72176
 Alpha virt. eigenvalues --    0.74301   0.79314   0.82821   0.89120   0.93275
 Alpha virt. eigenvalues --    0.93751   0.94502   1.00382   1.04814   1.06001
 Alpha virt. eigenvalues --    1.08248   1.09297   1.14315   1.18040   1.22048
 Alpha virt. eigenvalues --    1.23144   1.26179   1.30582   1.31627   1.37605
 Alpha virt. eigenvalues --    1.40618   1.42306   1.48641   1.53997   1.64333
 Alpha virt. eigenvalues --    1.65586   1.74258   1.74846   1.78149   1.82431
 Alpha virt. eigenvalues --    1.85014   1.85559   1.86175   1.95964   1.99060
 Alpha virt. eigenvalues --    2.02830   2.11197   2.13374   2.15247   2.19854
 Alpha virt. eigenvalues --    2.21208   2.28360   2.32531   2.38340   2.40342
 Alpha virt. eigenvalues --    2.46143   2.48930   2.62085   2.64041   2.75658
 Alpha virt. eigenvalues --    2.80352   2.82640   2.90030   2.90635   2.98947
 Alpha virt. eigenvalues --    3.26503   3.35109   3.68109   3.69143   3.75104
 Alpha virt. eigenvalues --    3.75710   3.78469   3.80126   3.89480   4.00554
 Alpha virt. eigenvalues --    4.13015   4.30814
          Condensed to atoms (all electrons):
               1          2          3          4          5          6
     1  C    4.577457   0.362470  -0.047940   0.303184  -0.044762  -0.021607
     2  O    0.362470   8.424231  -0.079057  -0.049152   0.008451   0.020958
     3  O   -0.047940  -0.079057   8.490186   0.012297   0.316690   0.004463
     4  C    0.303184  -0.049152   0.012297   4.467650  -0.028901   0.357076
     5  H   -0.044762   0.008451   0.316690  -0.028901   0.525522  -0.001980
     6  H   -0.021607   0.020958   0.004463   0.357076  -0.001980   0.869596
     7  H   -0.041902  -0.000732   0.001561   0.369070   0.007630  -0.081559
     8  H   -0.041663  -0.000737   0.001537   0.368993   0.007651  -0.081552
               7          8
     1  C   -0.041902  -0.041663
     2  O   -0.000732  -0.000737
     3  O    0.001561   0.001537
     4  C    0.369070   0.368993
     5  H    0.007630   0.007651
     6  H   -0.081559  -0.081552
     7  H    0.786633  -0.084390
     8  H   -0.084390   0.786530
 Mulliken charges:
               1
     1  C    0.954762
     2  O   -0.686433
     3  O   -0.699738
     4  C    0.199783
     5  H    0.209700
     6  H   -0.065395
     7  H    0.043689
     8  H    0.043631
 Sum of Mulliken charges =  -0.00000
 Mulliken charges with hydrogens summed into heavy atoms:
               1
     1  C    0.954762
     2  O   -0.686433
     3  O   -0.490038
     4  C    0.221708
 Electronic spatial extent (au):  <R**2>=            258.3302
 Charge=              0.0000 electrons
 Dipole moment (field-independent basis, Debye):
    X=             -3.7744    Y=              3.1507    Z=             -0.0006  Tot=              4.9166
 Quadrupole moment (field-independent basis, Debye-Ang):
   XX=            -25.3836   YY=            -23.9223   ZZ=            -23.3011
   XY=              0.5921   XZ=             -0.0008   YZ=              0.0006
 Traceless Quadrupole moment (field-independent basis, Debye-Ang):
   XX=             -1.1813   YY=              0.2800   ZZ=              0.9012
   XY=              0.5921   XZ=             -0.0008   YZ=              0.0006
 Octapole moment (field-independent basis, Debye-Ang**2):
  XXX=             -1.1911  YYY=             14.4022  ZZZ=              0.0011  XYY=             -2.9852
  XXY=             -0.7059  XXZ=              0.0006  XZZ=              0.2313  YZZ=              0.8698
  YYZ=              0.0026  XYZ=             -0.0000
 Hexadecapole moment (field-independent basis, Debye-Ang**3):
 XXXX=           -165.6443 YYYY=           -110.0883 ZZZZ=            -27.5543 XXXY=              1.7096
 XXXZ=             -0.0037 YYYX=              5.2144 YYYZ=             -0.0004 ZZZX=             -0.0040
 ZZZY=             -0.0036 XXYY=            -49.4903 XXZZ=            -30.7519 YYZZ=            -25.7698
 XXYZ=             -0.0015 YYXZ=              0.0003 ZZXY=             -1.4974
 N-N= 1.199332404923D+02 E-N=-7.763596417743D+02  KE= 2.273283004440D+02
 Unable to Open any file for archive entry.
 1\1\GINC-N3185\FOpt\RMP2-FC\Aug-CC-pVDZ\C2H4O2\GDS001\21-Mar-2025\0\\#
  MP2/aug-cc-pVDZ opt freq=(vibrot,anharmonic)\\blah\\0,1\C,1.003433340
 1,-0.0923531786,0.0003490777\O,2.1620694122,-0.4541471296,-0.000019779
 6\O,-0.0001068157,-1.0341713378,-0.0001589275\C,0.5400957264,1.3506578
 922,0.0000318569\H,-0.8608693804,-0.5892179253,-0.0002463229\H,1.41617
 75993,2.0090345843,0.0000453415\H,-0.0723656892,1.5533377952,0.8929646
 655\H,-0.0721031927,1.5530432997,-0.8931509115\\Version=EM64L-G16RevC.
 01\State=1-A\HF=-227.8374438\MP2=-228.515961\RMSD=5.776e-09\RMSF=6.615
 e-05\Dipole=-1.3242619,1.0719063,0.0001137\PG=C01 [X(C2H4O2)]\\@
 The archive entry for this job was punched.


 VIRTUE IS LEARNED AT YOUR MOTHER'S KNEE,
 VICES ARE PICKED UP AT SOME OTHER JOINT.
 Job cpu time:       0 days  0 hours 15 minutes 21.6 seconds.
 Elapsed time:       0 days  0 hours  0 minutes 28.7 seconds.
 File lengths (MBytes):  RWF=     10 Int=      0 D2E=      0 Chk=      3 Scr=      1
 Normal termination of Gaussian 16 at Fri Mar 21 03:00:36 2025.
 Link1:  Proceeding to internal job step number  2.
 ----------------------------------------------------------------------
 #N Geom=AllCheck Guess=TCheck SCRF=Check GenChk RMP2(FC)/Aug-CC-pVDZ F
 req
 ----------------------------------------------------------------------
 1/10=4,29=7,30=1,38=21,40=1,80=1/1,6,3;
 2/12=2,40=1/2;
 3/5=16,7=10,11=1,14=-4,25=1,30=1,70=2,71=2,116=1,140=1/1,2,3;
 4/5=101,69=2/1;
 5/5=2,38=6,98=1/2;
 8/6=3,8=1,10=1,19=11,30=-1/1;
 9/15=3,16=-3/6;
 11/6=1,8=1,15=11,17=12,24=-1,27=1,28=-2,29=300,32=6,42=3/1,2,10;
 10/6=2,21=1,60=-2/2;
 8/6=4,8=1,10=1,19=11,30=-1/11,4;
 10/5=1,20=4,60=-2/2;
 11/12=2,14=11,16=1,17=2,28=-2,42=3,76=2/2,10,12;
 6/7=2,8=2,9=2,10=2,22=-1/1;
 7/10=1,12=2,25=1,44=2,70=1,71=2/1,2,3,16;
 1/38=20,80=1/6(3);
 7/8=1,25=202,44=-1,70=1,71=1,92=10/16,17;
 1/10=4,30=1,38=20,80=1/3;
 99//99;
 3/5=16,7=10,11=1,14=-2,25=1,30=1,70=5,71=2,116=1,140=1/1,2,3;
 4/5=5,16=3,69=2/1;
 5/5=2,38=5,98=1/2;
 8/6=3,8=1,10=1,19=11,30=-1/1;
 9/15=3,16=-3/6;
 11/6=1,8=1,15=11,17=12,24=-1,27=1,28=-2,29=300,32=6,42=3/1,2,10;
 10/6=2,21=1,60=-2/2;
 8/6=4,8=1,10=1,19=11,30=-1/11,4;
 10/5=1,20=4,60=-2/2;
 11/12=2,14=11,16=1,17=2,28=-2,42=3,76=2/2,10,12;
 6/7=2,8=2,9=2,10=2,22=-1/1;
 7/7=1,10=1,12=2,25=1,44=2,70=1,71=1/1,2,3,16;
 1/38=20,80=1/6(-12);
 7/8=1,25=202,44=-1,70=1,71=1,92=10/16,17;
 1/10=4,30=1,38=20,80=1/3;
 99//99;
 Structure from the checkpoint file:  "/scr/Gau-5693.chk"
 ----
 blah
 ----
 Charge =  0 Multiplicity = 1
 Redundant internal coordinates found in file.  (old form).
 C,0,1.0034333401,-0.0923531786,0.0003490777
 O,0,2.1620694122,-0.4541471296,-0.0000197796
 O,0,-0.0001068157,-1.0341713378,-0.0001589275
 C,0,0.5400957264,1.3506578922,0.0000318569
 H,0,-0.8608693804,-0.5892179253,-0.0002463229
 H,0,1.4161775993,2.0090345843,0.0000453415
 H,0,-0.0723656892,1.5533377952,0.8929646655
 H,0,-0.0721031927,1.5530432997,-0.8931509115
 Recover connectivity data from disk.
 Numerical evaluation of third derivatives.
 Nuclear step= 0.010000 Angstroms, electric field step= 0.000333 atomic units, NStep=1.

 GradGradGradGradGradGradGradGradGradGradGradGradGradGradGradGradGradGrad
 Berny optimization.
 Initialization pass.
                           ----------------------------
                           !    Initial Parameters    !
                           ! (Angstroms and Degrees)  !
 --------------------------                            --------------------------
 ! Name  Definition              Value          Derivative Info.                !
 --------------------------------------------------------------------------------
 ! R1    R(1,2)                  1.2138         calculate D2E/DX2 analytically  !
 ! R2    R(1,3)                  1.3763         calculate D2E/DX2 analytically  !
 ! R3    R(1,4)                  1.5156         calculate D2E/DX2 analytically  !
 ! R4    R(3,5)                  0.969          calculate D2E/DX2 analytically  !
 ! R5    R(4,6)                  1.0959         calculate D2E/DX2 analytically  !
 ! R6    R(4,7)                  1.1016         calculate D2E/DX2 analytically  !
 ! R7    R(4,8)                  1.1016         calculate D2E/DX2 analytically  !
 ! A1    A(2,1,3)              119.4758         calculate D2E/DX2 analytically  !
 ! A2    A(2,1,4)              125.1428         calculate D2E/DX2 analytically  !
 ! A3    A(3,1,4)              115.3814         calculate D2E/DX2 analytically  !
 ! A4    A(1,3,5)              109.4815         calculate D2E/DX2 analytically  !
 ! A5    A(1,4,6)              109.1236         calculate D2E/DX2 analytically  !
 ! A6    A(1,4,7)              110.1806         calculate D2E/DX2 analytically  !
 ! A7    A(1,4,8)              110.1813         calculate D2E/DX2 analytically  !
 ! A8    A(6,4,7)              109.5067         calculate D2E/DX2 analytically  !
 ! A9    A(6,4,8)              109.506          calculate D2E/DX2 analytically  !
 ! A10   A(7,4,8)              108.3273         calculate D2E/DX2 analytically  !
 ! D1    D(2,1,3,5)           -179.97           calculate D2E/DX2 analytically  !
 ! D2    D(4,1,3,5)             -0.0253         calculate D2E/DX2 analytically  !
 ! D3    D(2,1,4,6)             -0.0346         calculate D2E/DX2 analytically  !
 ! D4    D(2,1,4,7)           -120.2982         calculate D2E/DX2 analytically  !
 ! D5    D(2,1,4,8)            120.2285         calculate D2E/DX2 analytically  !
 ! D6    D(3,1,4,6)           -179.9758         calculate D2E/DX2 analytically  !
 ! D7    D(3,1,4,7)             59.7606         calculate D2E/DX2 analytically  !
 ! D8    D(3,1,4,8)            -59.7126         calculate D2E/DX2 analytically  !
 --------------------------------------------------------------------------------
 Trust Radius=3.00D-01 FncErr=1.00D-07 GrdErr=1.00D-07 EigMax=2.50D+02 EigMin=1.00D-04
 Number of steps in this run=      2 maximum allowed number of steps=      2.
 GradGradGradGradGradGradGradGradGradGradGradGradGradGradGradGradGradGrad

                          Input orientation:                          
 ---------------------------------------------------------------------
 Center     Atomic      Atomic             Coordinates (Angstroms)
 Number     Number       Type             X           Y           Z
 ---------------------------------------------------------------------
      1          6           0        1.003433   -0.092353    0.000349
      2          8           0        2.162069   -0.454147   -0.000020
      3          8           0       -0.000107   -1.034171   -0.000159
      4          6           0        0.540096    1.350658    0.000032
      5          1           0       -0.860869   -0.589218   -0.000246
      6          1           0        1.416178    2.009035    0.000045
      7          1           0       -0.072366    1.553338    0.892965
      8          1           0       -0.072103    1.553043   -0.893151
 ---------------------------------------------------------------------
[...]
 132,0.00003064,-0.00000521,-0.04661569,-0.00000035,-0.00000049,0.00036
 784,-0.00001934,0.00001194,0.04640015,-0.00073451,-0.00063511,0.002772
 07,-0.00061815,0.00054198,-0.00095189,0.00004137,-0.00021530,0.0003374
 3,0.03918388,-0.01361373,-0.04575958,-0.00019720,-0.00014079,-0.000147
 75,-0.00963375,-0.00828347,-0.01518278,-0.02466399,0.00064657,0.000207
 60,0.00265611,-0.00042757,0.00051657,-0.00042338,0.00037163,-0.0000612
 5,-0.00011740,-0.02885716,-0.00461067,0.03541211,-0.00031963,-0.000067
 37,-0.00017277,0.00623905,0.00072634,-0.01440589,0.02216192,0.00444426
 ,0.00224606,-0.00247638,-0.00044622,0.00051254,-0.00013265,0.00010634,
 -0.00008905,0.00032446,-0.00001695,-0.07127232,0.01973179,0.10129775,-
 0.00009500,-0.00017762,0.00027535,0.01120504,0.00640746,-0.00056259,0.
 05820932,-0.02331722,-0.09983966,-0.00071154,-0.00064354,-0.00276528,-
 0.00062194,0.00053551,0.00095546,0.00004060,-0.00021366,-0.00033595,0.
 03911573,-0.01357159,0.04562369,-0.00019970,-0.00014156,0.00014881,-0.
 00963933,-0.00826685,0.01517302,-0.00337764,0.00018519,-0.00071658,-0.
 02460618,0.00063407,0.00020368,-0.00265222,-0.00042986,0.00051400,0.00
 041662,0.00037551,-0.00006438,0.00011879,-0.02878531,-0.00460293,-0.03
 536281,-0.00031818,-0.00006470,0.00017268,0.00622276,0.00072689,0.0143
 9672,0.00018450,-0.00115549,-0.00035982,0.02211650,0.00444294,-0.00224
 043,0.00247751,-0.00044498,-0.00051192,0.00013045,0.00010536,0.0000893
 7,-0.00032551,-0.00001571,0.07111723,-0.01970038,0.10119306,0.00009513
 ,0.00017799,0.00027488,-0.01118939,-0.00639854,-0.00055718,0.00072317,
 0.00036844,-0.00081401,-0.05808317,0.02327004,-0.09974142,1.11677943,-
 0.37901866,-0.03123767,-0.00037292,0.00030614,-0.22390049,-1.14112528,
 0.38698223,0.00043759,1.14344780,0.39346318,0.08419450,-0.00019201,-0.
 39367690,-0.07649521,0.00045109,-0.00020060,0.19796215,-0.00044723,0.0
 0017303,-0.19779288,0.01891719,-0.00017859,-0.00002067,-0.00095990,-0.
 00270692,-0.00003000,-0.03813299,-0.02933481,-0.01177477,-0.00009599,0
 .00581516,-0.00281439,0.00003365,0.03316089,-0.00357694,-0.00007645,-0
 .00006397,0.01202744,0.00001599,0.00000657,-0.00160988,0.00004521,0.00
 004904,-0.00843079,0.00999897,-0.00390666,-0.00003274,-0.00048742,0.00
 265242,0.00002742,0.00438201,0.00237668,0.00000112,-0.02165431,0.00088
 242,-0.04247682,-0.00002710,0.00286698,-0.00394456,0.00000753,-0.00337
 503,0.00057416,-0.00000140,-0.00332311,0.04153941,0.00000536,-0.000032
 67,0.01366108,-0.00001313,0.00001607,0.00136580,0.00000453,-0.00000097
 ,-0.00186096,0.00002428,0.00002285,-0.01884364,-0.00386561,-0.00553556
 ,-0.00001015,-0.00152767,0.00077943,-0.00000824,0.01507607,-0.01169563
 ,0.00001294,0.00078640,-0.00003953,0.00000395,-0.01052961,0.00895638,0
 .00107422,0.00000233,-0.00223987,0.00009809,-0.00000745,-0.02481932,0.
 01661984,0.00000956,0.00066509,-0.00175674,0.00000065,0.01718848,-0.01
 564450,-0.00000353,-0.00000431,0.00164823,0.00000498,-0.00000364,0.000
 33231,-0.00000145,0.00001697,-0.00033597,-0.00000215,-0.00000225,0.000
 39116,0.00000131,-0.00000575,-0.00189625,0.00010738,0.00018179,-0.0000
 0076,0.00058812,-0.00063968,0.00000149,-0.00026567,-0.00043383,-0.0000
 0226,0.00469584,0.00391714,-0.00000265,-0.00005512,0.00010138,0.000000
 30,-0.00461242,0.00196375,-0.00047872,0.00000231,0.00046594,0.00002134
 ,0.00000113,0.00010843,0.00061338,0.00000100,0.00049509,0.00314238,-0.
 00001203,-0.00016699,0.00007628,-0.00000048,-0.00282816,-0.00294167,-0
 .00000652,-0.00000085,-0.00029829,0.00000198,0.00000043,-0.00007970,0.
 00000098,-0.00000035,0.00001422,0.00000007,-0.00000146,0.00129856,-0.0
 0000004,-0.00000016,-0.00003498,0.00000319,0.00000591,-0.00074692,-0.0
 0041452,0.00074373,0.00013815,0.00003525,0.00006595,0.00018508,0.00049
 196,0.00005609,-0.00007972,0.00114085,-0.00046691,-0.00049092,0.000058
 78,0.00007405,0.00007533,-0.00022921,-0.00001668,-0.00016528,-0.001007
 38,0.00155083,0.00035160,0.00008440,-0.00010577,-0.00052864,0.00029228
 ,-0.00109733,0.00017906,-0.00011000,0.00051903,0.00145027,-0.00150823,
 -0.00026599,-0.00023489,0.00009643,-0.00014878,-0.00021505,-0.00018242
 ,-0.00040110,-0.00114379,0.00068458,-0.00181850,-0.00054746,0.00005291
 ,0.00008822,-0.00008902,0.00024998,0.00031370,0.00009664,-0.00109563,0
 .00043819,0.00200017,0.00000359,0.00003469,-0.00005221,0.00006411,-0.0
 0011585,-0.00007689,0.00018914,0.00119463,-0.00132738,-0.00039756,0.00
 073173,-0.00013850,0.00002912,0.00006252,-0.00017961,0.00049133,0.0000
 5545,0.00008318,0.00113765,-0.00046197,0.00046858,0.00005676,0.0000738
 0,-0.00007479,-0.00022892,-0.00002138,0.00016563,-0.00007573,-0.000050
 90,-0.00014868,-0.00101265,0.00153691,0.00034768,-0.00008007,-0.000107
 77,-0.00053113,-0.00029959,-0.00109212,0.00017966,0.00010921,0.0005214
 6,0.00147190,0.00151433,-0.00026421,-0.00023230,-0.00009697,-0.0001498
 6,-0.00021793,0.00017891,-0.00005513,0.00014145,-0.00013508,-0.0003892
 6,-0.00115933,-0.00068160,0.00181476,-0.00055266,-0.00005309,-0.000088
 67,-0.00008877,-0.00024858,-0.00031606,0.00009929,0.00107764,-0.000436
 36,0.00198784,-0.00000336,-0.00003388,-0.00005229,-0.00006342,0.000118
 02,-0.00007600,0.00014823,0.00013291,-0.00000384,-0.00017580,-0.001190
 74,-0.00131356,-0.00684514,0.00398630,-0.00708606,0.00008038,0.0001719
 6,-0.00506338,0.00161014,-0.00541049,-0.00002420,-0.00146992,0.0006540
 2,0.00433569,-0.00005246,0.00213494,-0.00316681,-0.00001267,-0.0000623
 0,0.00108114,0.00001092,0.00003510,0.00007928,-0.00064759,0.00156798,-
 0.00002083,0.00044683,-0.00091769,-0.00002649,0.00060382,-0.00213367,0
 .00251488,-0.00008779,0.00120725,-0.00072965,0.00003558,-0.00067678,-0
 .00237835,-0.00006660,-0.00005211,0.00045925,0.00001619,0.00000622,0.0
 0001472,0.00003796,0.00003918,0.00011631,0.00181688,-0.00208331,-0.000
 02732,-0.00064555,0.00021519,0.00002873,0.00087735,0.00224529,-0.00000
 047,0.68930417,-0.01051551,0.01058886,-0.00004773,0.00306842,-0.002258
 60,0.00000515,-0.00044309,-0.00424661,-0.00000235,-0.01447988,-0.33008
 345,0.00000804,-0.00005841,-0.00709613,-0.00001097,0.00001508,0.000128
 66,0.00000513,0.00000067,0.00112636,0.00008361,0.00026636,1.43537182,-
 0.00007536,-0.00052004,-0.00000569,0.00008161,0.00013668,-0.00000813,0
 .00000577,0.00052791,0.00001346,0.00020270,0.00069014,0.00000438,0.000
 36347,-0.00004851,-0.00000161,0.00000329,-0.00003728,-0.00010448,-0.00
 000776,-0.00000796,0.00029230,0.00000958,0.00061010,0.00002293,0.00000
 060,-0.00002890,-0.00073942,-0.00000417,-0.00000190,-0.00034560,0.0000
 0676,-0.00000389,0.00009758,0.00000263,0.00001356,0.00026285,-0.000002
 73,-0.00000137,-0.00034283,-0.00000346,-0.00000569,-0.00031718,0.00144
 070,0.00595433,-0.00000335,-0.00013452,-0.00120295,0.00000200,-0.00009
 083,0.00073272,-0.00000160,-0.27587350,-0.24886936,-0.00001227,-0.0000
 5083,-0.00004640,0.00000023,0.27680716,-0.00093588,-0.00093217,0.00000
 068,-0.00085820,0.00129878,0.00000260,0.00032056,0.00060395,0.00000064
 ,-0.26147187,-0.08891638,-0.00002445,0.00002497,0.00017137,-0.00000018
 ,0.25332724,0.07948690,-0.00000655,0.00000047,0.00050494,0.00000221,0.
 00000037,-0.00010966,0.00000103,0.00000028,-0.00044687,-0.00000631,-0.
 00000896,0.07682311,-0.00000021,-0.00000020,0.00015368,0.00001423,0.00
 001459,-0.08888872,0.00134259,-0.00174331,-0.00118291,0.00005896,-0.00
 050870,0.00009961,-0.00059745,-0.00095156,0.00026682,-0.20800935,0.135
 39034,0.66991500,-0.00026253,-0.00022043,0.00003347,-0.00104959,0.0048
 0151,0.01053285,0.19513490,0.00450148,-0.00470717,-0.00647915,-0.00005
 060,0.00031359,0.00073827,0.00007592,0.00197005,0.00068513,0.13759405,
 0.20734422,-0.20760645,-0.00041607,0.00017820,0.00018707,-0.00494965,0
 .00414734,0.01043236,-0.13258579,-0.21249210,-0.00576248,0.00712517,0.
 00522719,-0.00094296,0.00116760,-0.00064469,0.00052813,-0.00031927,-0.
 00076645,0.65877985,-0.20180377,-0.75264654,0.00023371,0.00044871,0.00
 024576,-0.00876492,-0.00106331,0.00597957,-0.66187082,0.19824691,0.744
 48170,0.00135778,-0.00175146,0.00118391,0.00005244,-0.00051149,-0.0000
 9396,-0.00059792,-0.00095116,-0.00026576,-0.20767269,0.13515893,-0.669
 99292,-0.00026483,-0.00022062,-0.00003274,-0.00104859,0.00479166,-0.01
 053725,0.01338246,-0.00416935,0.01779948,0.19479135,0.00449176,-0.0047
 1243,0.00649120,-0.00005402,0.00031149,-0.00074663,0.00008106,0.001973
 42,-0.00068629,0.13737042,0.20754904,0.20740660,-0.00041469,0.00018071
 ,-0.00018760,-0.00494594,0.00414021,-0.01043891,-0.00418207,0.00324589
 ,-0.00380205,-0.13234652,-0.21268832,0.00576406,-0.00712288,0.00523259
 ,0.00094204,-0.00116802,-0.00064704,-0.00052756,0.00031779,-0.00076619
 ,-0.65885537,0.20159267,-0.75336446,-0.00023407,-0.00044852,0.00024573
 ,0.00876567,0.00106941,0.00598397,-0.01779401,0.00379587,-0.00187654,0
 .66193923,-0.19803632,0.74519194,-0.00424728,0.00773724,-0.01379734,0.
 00008243,0.00017457,-0.00405378,0.00265467,-0.00589539,-0.00002309,-0.
 00139683,0.00038988,0.00354177,-0.00005439,0.00088389,-0.00169788,-0.0
 0001429,-0.00006273,0.00227102,0.00001041,0.00003659,-0.00068742,-0.00
 124354,0.00059681,-0.00002248,0.00047428,-0.00083775,-0.00002612,0.001
 41539,-0.00312403,0.00103449,-0.00009022,0.00121075,-0.00047415,0.0000
 3626,0.00006051,-0.00122036,-0.00006753,-0.00005333,0.00061811,0.00001
 612,0.00000667,-0.00002478,0.00003888,0.00004066,0.00014601,-0.0074375
 6,0.00262692,-0.00003457,-0.00470344,0.00301729,0.00003261,0.00072890,
 0.00094026,0.00000023,0.60454866,-0.01825037,0.02065549,-0.00004743,0.
 00292940,-0.00062109,0.00000442,-0.00033721,-0.00314690,-0.00000243,-0
 .42091027,-0.54406715,0.00001155,-0.00005839,-0.02009574,-0.00000968,0
 .00001205,0.00071975,0.00000386,-0.00000281,0.00295005,-0.00022675,0.0
 0039039,1.84095830,0.00016071,-0.00058555,-0.00000540,0.00012126,0.000
 14523,-0.00000822,-0.00013775,0.00068017,0.00001354,0.00059040,0.00010
 131,0.00000491,0.00049430,-0.00023464,-0.00021206,0.00000319,0.0000036
 6,-0.00001534,-0.00000773,0.00006729,0.00037148,0.00000985,0.00026790,
 -0.00014264,0.00000039,0.00004807,-0.00086523,-0.00000409,-0.00000170,
 -0.00016389,0.00000684,-0.00000393,0.00001039,0.00000276,0.00001378,0.
 00011264,-0.00000275,-0.00000163,-0.00078827,-0.00000371,-0.00000588,-
 0.00015966,0.00085415,0.00052227,-0.00000203,-0.00026342,-0.00037657,0
 .00000170,-0.00025179,-0.00012451,-0.00000213,-0.00410438,0.01786627,0
 .00000517,-0.00009094,-0.00008575,0.00000021,0.00168242,0.00100024,-0.
 00026615,0.00000319,0.00004925,-0.00000962,0.00000189,0.00026293,0.000
 90331,0.00000031,-0.00140352,-0.00141316,-0.00001172,-0.00012083,0.000
 16232,-0.00000028,-0.00078765,-0.00074379,-0.00000585,-0.00000151,0.00
 331693,0.00000178,0.00000049,-0.00012366,0.00000119,0.00000125,-0.0010
 2832,0.00000736,0.00000085,-0.01430744,-0.00000037,-0.00000033,0.00036
 115,-0.00000430,0.00000125,-0.00056553,0.00462259,-0.00249783,-0.00457
 433,0.00156050,-0.00161036,0.00090113,-0.00049287,0.00017735,0.0013393
 2,-0.29509980,0.20949655,0.89507485,-0.00056770,-0.00003322,-0.0002616
 3,0.00108695,0.00050358,0.00121582,0.29718343,0.00624760,-0.00547660,-
 0.00509173,0.00041070,-0.00036059,0.00019979,0.00009109,0.00126511,0.0
 0044862,0.20792428,0.26427950,-0.29399458,-0.00013507,0.00034934,0.000
 35669,-0.00850843,0.00068665,0.00457199,-0.20787116,-0.25791387,-0.005
 13525,0.00510202,0.00905375,-0.00018518,0.00119390,-0.00108221,0.00088
 581,0.00032593,-0.00138678,0.88643415,-0.29235228,-0.90441721,0.000248
 72,0.00069429,0.00031370,-0.00456922,-0.00290568,0.00617375,-0.8856821
 0,0.29072493,0.88470850,0.00463627,-0.00250446,0.00457947,0.00155298,-
 0.00161161,-0.00089723,-0.00049263,0.00017950,-0.00133842,-0.29452278,
 0.20910432,-0.89486390,-0.00057027,-0.00003330,0.00026237,0.00108702,0
 .00049600,-0.00121564,-0.00829311,0.00184099,0.00800307,0.29660252,0.0
 0623408,-0.00547957,0.00510281,0.00040775,-0.00036310,-0.00020848,0.00
 009634,0.00126700,-0.00045035,0.20753715,0.26445595,0.29366468,-0.0001
 3332,0.00035213,-0.00035705,-0.00850563,0.00068043,-0.00457399,0.00183
 508,-0.00282953,-0.00278311,-0.20747144,-0.25808330,0.00513304,-0.0050
 9894,0.00905360,0.00018279,-0.00119136,-0.00108309,-0.00088390,-0.0003
 2483,-0.00138696,-0.88621029,0.29200810,-0.90501943,-0.00024948,-0.000
 69377,0.00031394,0.00457061,0.00291103,0.00617312,-0.00801306,0.002784
 29,0.00663650,0.88547028,-0.29039452,0.88531231,-0.00820613,0.00158986
 ,-0.01045553,0.00008265,0.00017693,0.00138992,0.00168384,-0.00169645,-
 0.00002653,-0.00116471,0.00173750,0.00176881,-0.00005355,0.00133796,-0
 .00354511,-0.00001332,-0.00006488,-0.00047022,0.00001142,0.00003609,0.
 00071494,0.00003068,0.00105929,-0.00002194,0.00025482,-0.00027913,-0.0
 0002641,0.00042987,-0.00524673,0.00253764,-0.00008983,0.00060899,0.000
 04366,0.00003625,0.00062198,-0.00447179,-0.00006865,-0.00005267,0.0003
 7794,0.00001662,0.00000658,0.00027740,0.00003912,0.00003965,-0.0006074
 2,-0.01507081,-0.02891353,-0.00002111,0.00053069,0.00550674,0.00002811
 ,0.00029485,-0.00190189,-0.00000191,1.59618953,-0.00173591,0.01211380,
 -0.00004345,0.00464566,-0.00125682,0.00000391,0.00053446,0.00035624,-0
 .00000184,1.54763958,0.56253143,0.00000369,-0.00006233,-0.00803184,-0.
 00000916,0.00001549,0.00021739,0.00000512,0.00000029,-0.00040499,-0.00
 006375,0.00015728,-0.23321481,0.00094019,0.00001851,-0.00000527,-0.000
 24742,-0.00006677,-0.00000821,-0.00033821,0.00053890,0.00001306,0.0001
 0054,-0.00063303,0.00000399,0.00032128,0.00021213,-0.00045033,0.000003
 32,0.00016183,0.00004560,-0.00000776,-0.00041250,0.00099160,0.00000969
 ,0.00081816,0.00007297,0.00000011,0.00014671,-0.00085789,-0.00000347,-
 0.00000165,0.00000271,0.00000676,-0.00000397,-0.00003772,0.00000212,0.
 00001373,0.00055911,-0.00000283,-0.00000219,0.00020209,-0.00000323,-0.
 00000581,-0.00077314,0.01411332,0.02361586,-0.00000801,-0.00107986,-0.
 00538064,0.00000330,-0.00023409,0.00483058,-0.00000071,-1.52818758,-1.
 60879783,-0.00003056,-0.00083325,-0.00083759,0.00000016,1.50704171,0.0
 0186911,-0.00370159,0.00000157,-0.00431322,0.00263733,0.00000343,-0.00
 151332,-0.00000772,-0.00000039,-1.60506507,-0.64312805,-0.00003159,-0.
 00022775,-0.00033880,-0.00000029,1.58709667,0.64158684,-0.00000335,0.0
 0000413,0.00083107,0.00000221,-0.00000034,-0.00012706,0.00000087,0.000
 00094,0.00079767,-0.00003248,-0.00002368,0.58962975,-0.00000007,-0.000
 00003,-0.00031969,0.00003496,0.00002438,-0.58123911,0.00324772,0.00216
 837,0.00119991,0.00001412,-0.00142652,-0.00000459,-0.00021892,0.000274
 64,-0.00010795,-0.02697472,0.02920917,0.12456628,0.00002932,-0.0000443
 2,0.00011511,0.00458894,0.01108179,0.00745737,0.01610685,0.00079391,-0
 .00090441,0.00050854,-0.00037142,0.00015457,-0.00025419,-0.00000762,0.
 00027539,-0.00008552,0.04099780,0.03463671,-0.06582014,0.00011080,0.00
 026716,0.00016112,-0.00026477,0.00147594,0.00204943,-0.04192926,-0.039
 86290,-0.00172592,0.00159923,0.00295167,-0.00006244,0.00031829,-0.0002
 8720,0.00045120,0.00006004,-0.00050068,0.13704398,-0.05200733,-0.17418
 168,0.00025083,0.00025566,0.00018343,-0.00598170,-0.00871217,-0.004785
 04,-0.13160032,0.06096455,0.17561043,0.00326119,0.00215810,-0.00119972
 ,0.00000854,-0.00142915,0.00000971,-0.00021901,0.00027354,0.00011043,-
 0.02688250,0.02913790,-0.12447560,0.00002755,-0.00004441,-0.00011461,0
 .00459080,0.01107179,-0.00745951,0.00320669,0.00067056,0.00162436,0.01
 600673,0.00078013,-0.00090838,-0.00050353,-0.00037334,0.00015198,0.000
 24716,-0.00000316,0.00027497,0.00008450,0.04091821,0.03467372,0.065740
 89,0.00011264,0.00026970,-0.00016095,-0.00026227,0.00147606,-0.0020548
 3,0.00066612,0.00395753,-0.00247827,-0.04183832,-0.03989559,0.00172837
 ,-0.00159876,0.00294874,0.00006111,-0.00031859,-0.00028750,-0.00045007
 ,-0.00006107,-0.00049906,-0.13695001,0.05191730,-0.17421590,-0.0002511
 0,-0.00025518,0.00018321,0.00598257,0.00871506,-0.00478760,-0.00162581
 ,0.00247621,0.00100907,0.13150494,-0.06087497,0.17564902,-0.01862031,-
 0.01121882,-0.01425961,0.00007537,0.00017791,0.00237568,0.00311863,0.0
 0934840,-0.00001910,-0.00366488,-0.00512110,0.00351247,-0.00005385,-0.
 00325647,-0.00460716,-0.00001435,-0.00006784,0.00164363,0.00000817,0.0
 0003468,-0.00084831,0.02673382,0.01116256,-0.00001368,-0.00322080,0.00
 752024,-0.00002056,4.98808566,0.05842947,-0.00245993,-0.00007335,0.000
 78247,0.00699776,0.00004003,-3.38901227,0.40378028,-0.00003788,-0.0000
 5252,-0.00800633,0.00001173,0.00001071,-0.00466641,0.00066589,-0.00028
 034,-1.40366737,-0.00251537,-0.00255316,-0.00002776,-0.00007619,0.0008
 7860,0.00002850,-0.00080127,-0.00531422,-0.00000495,-0.00112851,0.0009
 0217,0.00116862,-0.00004703,0.00013404,-0.00008629,0.00000652,-0.00256
 739,-0.00100774,0.00000056,-0.00384570,-0.00394061,0.00000517,-0.00005
 636,-0.00046400,-0.00000965,0.00001552,0.00060666,0.00000199,0.0000000
 4,0.00107282,0.00001804,0.00004332,0.00015152,-0.00904621,-0.00744120,
 -0.00001404,0.00325240,-0.00004596,-0.00000918,-5.01048436,3.33467521,
 -0.00063595,0.00462744,0.00483556,0.00000856,5.01306337,-0.04222318,0.
 01250083,-0.00001015,-0.00760608,-0.00565014,-0.00000808,3.37236480,-0
 .40760061,0.00032187,0.00985854,0.00333289,0.00000327,-3.33159204,0.39
 608202,-0.00002499,0.00000099,0.00483685,0.00000743,-0.00000669,0.0035
 3745,-0.00063571,0.00031736,1.41376805,0.00000258,-0.00000255,-0.00180
 364,0.00065114,-0.00030847,-1.41906250,0.00011930,0.00027994,-0.000001
 18,0.00016397,0.00008896,0.00000171,-0.00049538,0.00038723,-0.00000221
 ,-0.00034541,0.00041526,-0.00000206,-0.00001701,-0.00101503,0.00000009
 ,0.00067827,0.00033333,-0.00008621,0.00000142,-0.00030103,0.00000206,0
 .00000207,-0.00017002,-0.00170225,0.00000053,0.00033067,-0.00004602,-0
 .00001273,0.00015990,0.00236940,0.00000006,-0.00023313,-0.00048675,-0.
 00000669,-0.00000100,-0.00030712,0.00000220,0.00000048,0.00001400,0.00
 000150,-0.00000053,0.00089021,0.00000056,-0.00000194,0.00000080,-0.000
 00070,0.00000018,-0.00067305,0.00000310,0.00000641,-0.00008960,0.00009
 676,0.00021613,-0.00003412,0.00021651,-0.00003027,0.00014141,0.0000913
 5,0.00002678,-0.00034806,0.00012039,0.00006065,-0.00003147,-0.00069654
 ,0.00010597,0.00029069,-0.00005187,-0.00005739,-0.00008633,0.00035330,
 -0.00054582,-0.00018621,0.00004220,0.00045079,-0.00008306,0.00010681,0
 .00034875,0.00099584,0.00040896,0.00032087,0.00027869,-0.00008353,-0.0
 0029600,-0.00051834,-0.00027211,0.00003902,-0.00002368,-0.00022830,-0.
 00026116,-0.00054649,0.00020250,0.00030853,-0.00003697,-0.00032110,-0.
 00015387,-0.00014361,0.00042312,-0.00038738,0.00030269,0.00051185,-0.0
 0001190,0.00022337,-0.00055973,0.00038041,-0.00030123,-0.00004553,-0.0
 0000948,0.00008198,-0.00007144,-0.00004904,-0.00021382,0.00011339,0.00
 020615,0.00003450,0.00021037,-0.00003401,-0.00013570,0.00009097,0.0000
 2532,0.00035144,0.00011892,0.00006542,0.00000942,-0.00069909,0.0001070
 2,-0.00029124,-0.00005186,-0.00006234,0.00008636,-0.00012989,-0.000056
 44,-0.00013968,0.00034719,-0.00055607,-0.00018995,-0.00003714,0.000447
 88,-0.00008565,-0.00011418,0.00035332,0.00099664,-0.00040978,0.0003244
 1,0.00030048,0.00009047,-0.00029547,-0.00051606,0.00027141,0.00003775,
 -0.00002655,0.00022471,-0.00006070,0.00008325,-0.00007728,-0.00025112,
 -0.00056215,-0.00019915,-0.00030972,-0.00004174,0.00032032,0.00015302,
 -0.00014341,-0.00042255,0.00038418,0.00030632,-0.00052882,0.00001302,0
 .00021247,0.00055991,-0.00037903,-0.00030192,0.00004608,0.00001172,0.0
 0008277,0.00013932,0.00007501,0.00008758,0.00008490,0.00005179,-0.0002
 0207\\@
 The archive entry for this job was punched.


 ALL MY ATTEMPTS TO ADAPT THE THEORETICAL FOUNDATIONS OF PHYSICS
 TO THESE NEW NOTIONS FAILED COMPLETELY. IT WAS AS IF THE GROUND HAD
 BEEN PULLED OUT FROM UNDER ONE WITH NO FIRM FOUNDATION TO BE SEEN ANYWHERE,
 UPON WHICH ONE COULD HAVE BUILT.  -- A.EINSTEIN
 Job cpu time:       0 days 21 hours 51 minutes 18.7 seconds.
 Elapsed time:       0 days  0 hours 33 minutes 31.3 seconds.
 File lengths (MBytes):  RWF=   1446 Int=      0 D2E=      0 Chk=     42 Scr=      1
 Normal termination of Gaussian 16 at Fri Mar 21 03:34:16 2025.
