 Entering Gaussian System, Link 0=g16
 Input=acoh_mp2_avdz.gjf
 Output=acoh_mp2_avdz.log
 Initial command:
 /sw/contrib/gaussian/g16/A03/g16/l1.exe "/gscratch/scrubbed/gds001/Gau-8412.inp" -scrdir="/gscratch/scrubbed/gds001/"
 Entering Link 1 = /sw/contrib/gaussian/g16/A03/g16/l1.exe PID=      8413.
  
 Copyright (c) 1988,1990,1992,1993,1995,1998,2003,2009,2016,
            Gaussian, Inc.  All Rights Reserved.
  
 This is part of the Gaussian(R) 16 program.  It is based on
 the Gaussian(R) 09 system (copyright 2009, Gaussian, Inc.),
 the Gaussian(R) 03 system (copyright 2003, Gaussian, Inc.),
 the Gaussian(R) 98 system (copyright 1998, Gaussian, Inc.),
 the Gaussian(R) 94 system (copyright 1995, Gaussian, Inc.),
 the Gaussian 92(TM) system (copyright 1992, Gaussian, Inc.),
 the Gaussian 90(TM) system (copyright 1990, Gaussian, Inc.),
 the Gaussian 88(TM) system (copyright 1988, Gaussian, Inc.),
 the Gaussian 86(TM) system (copyright 1986, Carnegie Mellon
 University), and the Gaussian 82(TM) system (copyright 1983,
 Carnegie Mellon University). Gaussian is a federally registered
 trademark of Gaussian, Inc.
  
 This software contains proprietary and confidential information,
 including trade secrets, belonging to Gaussian, Inc.
  
 This software is provided under written license and may be
 used, copied, transmitted, or stored only in accord with that
 written license.
  
 The following legend is applicable only to US Government
 contracts under FAR:
  
                    RESTRICTED RIGHTS LEGEND
  
 Use, reproduction and disclosure by the US Government is
 subject to restrictions as set forth in subparagraphs (a)
 and (c) of the Commercial Computer Software - Restricted
 Rights clause in FAR 52.227-19.
  
 Gaussian, Inc.
 340 Quinnipiac St., Bldg. 40, Wallingford CT 06492
  
  
 ---------------------------------------------------------------
 Warning -- This program may not be used in any manner that
 competes with the business of Gaussian, Inc. or will provide
 assistance to any competitor of Gaussian, Inc.  The licensee
 of this program is prohibited from giving any competitor of
 Gaussian, Inc. access to this program.  By using this program,
 the user acknowledges that Gaussian, Inc. is engaged in the
 business of creating and licensing software in the field of
 computational chemistry and represents and warrants to the
 licensee that it is not a competitor of Gaussian, Inc. and that
 it will not use this program in any manner prohibited above.
 ---------------------------------------------------------------
  

 Cite this work as:
 Gaussian 16, Revision A.03,
 M. J. Frisch, G. W. Trucks, H. B. Schlegel, G. E. Scuseria, 
 M. A. Robb, J. R. Cheeseman, G. Scalmani, V. Barone, 
 G. A. Petersson, H. Nakatsuji, X. Li, M. Caricato, A. V. Marenich, 
 J. Bloino, B. G. Janesko, R. Gomperts, B. Mennucci, H. P. Hratchian, 
 J. V. Ortiz, A. F. Izmaylov, J. L. Sonnenberg, D. Williams-Young, 
 F. Ding, F. Lipparini, F. Egidi, J. Goings, B. Peng, A. Petrone, 
 T. Henderson, D. Ranasinghe, V. G. Zakrzewski, J. Gao, N. Rega, 
 G. Zheng, W. Liang, M. Hada, M. Ehara, K. Toyota, R. Fukuda, 
 J. Hasegawa, M. Ishida, T. Nakajima, Y. Honda, O. Kitao, H. Nakai, 
 T. Vreven, K. Throssell, J. A. Montgomery, Jr., J. E. Peralta, 
 F. Ogliaro, M. J. Bearpark, J. J. Heyd, E. N. Brothers, K. N. Kudin, 
 V. N. Staroverov, T. A. Keith, R. Kobayashi, J. Normand, 
 K. Raghavachari, A. P. Rendell, J. C. Burant, S. S. Iyengar, 
 J. Tomasi, M. Cossi, J. M. Millam, M. Klene, C. Adamo, R. Cammi, 
 J. W. Ochterski, R. L. Martin, K. Morokuma, O. Farkas, 
 J. B. Foresman, and D. J. Fox, Gaussian, Inc., Wallingford CT, 2016.
 
 ******************************************
 Gaussian 16:  ES64L-G16RevA.03 25-Dec-2016
                20-Mar-2023 
 ******************************************
 %nprocshared=28
 Will use up to   28 processors via shared memory.
 %mem=41GB
 ----------------------------------
 # mp2/aug-cc-pVDZ opt freq(vibrot)
 ----------------------------------
 1/18=20,19=15,38=1/1,3;
 2/9=110,12=2,17=6,18=5,40=1/2;
 3/5=16,7=10,11=9,25=1,30=1,71=1/1,2,3;
 4//1;
 5/5=2,38=5/2;
 8/6=4,10=1/1;
 9/15=2,16=-3/6;
 10/5=1/2;
 6/7=2,8=2,9=2,10=2/1;
 7/12=2/1,2,3,16;
 1/18=20,19=15/3(2);
 2/9=110/2;
 99//99;
 2/9=110/2;
 3/5=16,7=10,11=9,25=1,30=1,71=1/1,2,3;
 4/5=5,16=3,69=1/1;
 5/5=2,38=5/2;
 8/6=4,10=1/1;
 9/15=2,16=-3/6;
 10/5=1/2;
 7/12=2/1,2,3,16;
 1/18=20,19=15/3(-8);
 2/9=110/2;
 6/7=2,8=2,9=2,10=2/1;
 99//99;
 ----
 blah
 ----
 Symbolic Z-matrix:
 Charge =  0 Multiplicity = 1
 C                    -1.93481   1.05529  0. 
 O                    -1.4257    2.16426   0. 
 O                    -1.20866  -0.0845   0. 
 C                    -3.41178   0.80223   0. 
 H                    -1.75271  -0.89451  0. 
 H                    -3.94308   1.75835  0. 
 H                    -3.69311   0.24823   0.89899 
 H                    -3.69311   0.24823  -0.89899 
 

 GradGradGradGradGradGradGradGradGradGradGradGradGradGradGradGradGradGrad
 Berny optimization.
 Initialization pass.
                           ----------------------------
                           !    Initial Parameters    !
                           ! (Angstroms and Degrees)  !
 --------------------------                            --------------------------
 ! Name  Definition              Value          Derivative Info.                !
 --------------------------------------------------------------------------------
 ! R1    R(1,2)                  1.2202         estimate D2E/DX2                !
 ! R2    R(1,3)                  1.3514         estimate D2E/DX2                !
 ! R3    R(1,4)                  1.4985         estimate D2E/DX2                !
 ! R4    R(3,5)                  0.9758         estimate D2E/DX2                !
 ! R5    R(4,6)                  1.0938         estimate D2E/DX2                !
 ! R6    R(4,7)                  1.0928         estimate D2E/DX2                !
 ! R7    R(4,8)                  1.0928         estimate D2E/DX2                !
 ! A1    A(2,1,3)              122.8398         estimate D2E/DX2                !
 ! A2    A(2,1,4)              124.3817         estimate D2E/DX2                !
 ! A3    A(3,1,4)              112.7785         estimate D2E/DX2                !
 ! A4    A(1,3,5)              113.6115         estimate D2E/DX2                !
 ! A5    A(1,4,6)              109.3376         estimate D2E/DX2                !
 ! A6    A(1,4,7)              109.8375         estimate D2E/DX2                !
 ! A7    A(1,4,8)              109.8375         estimate D2E/DX2                !
 ! A8    A(6,4,7)              108.5472         estimate D2E/DX2                !
 ! A9    A(6,4,8)              108.5471         estimate D2E/DX2                !
 ! A10   A(7,4,8)              110.6988         estimate D2E/DX2                !
 ! D1    D(2,1,3,5)            180.0            estimate D2E/DX2                !
 ! D2    D(4,1,3,5)              0.0            estimate D2E/DX2                !
 ! D3    D(2,1,4,6)              0.0001         estimate D2E/DX2                !
 ! D4    D(2,1,4,7)           -119.0105         estimate D2E/DX2                !
 ! D5    D(2,1,4,8)            119.0107         estimate D2E/DX2                !
 ! D6    D(3,1,4,6)           -180.0            estimate D2E/DX2                !
 ! D7    D(3,1,4,7)             60.9894         estimate D2E/DX2                !
 ! D8    D(3,1,4,8)            -60.9894         estimate D2E/DX2                !
 --------------------------------------------------------------------------------
 Trust Radius=3.00D-01 FncErr=1.00D-07 GrdErr=1.00D-07 EigMax=2.50D+02 EigMin=1.00D-04
 Number of steps in this run=     35 maximum allowed number of steps=    100.
 GradGradGradGradGradGradGradGradGradGradGradGradGradGradGradGradGradGrad

                          Input orientation:                          
 ---------------------------------------------------------------------
 Center     Atomic      Atomic             Coordinates (Angstroms)
 Number     Number       Type             X           Y           Z
 ---------------------------------------------------------------------
      1          6           0       -1.934812    1.055291   -0.000000
      2          8           0       -1.425702    2.164257    0.000000
      3          8           0       -1.208660   -0.084496   -0.000000
      4          6           0       -3.411778    0.802232    0.000000
      5          1           0       -1.752707   -0.894507   -0.000000
      6          1           0       -3.943077    1.758354   -0.000000
      7          1           0       -3.693112    0.248230    0.898989
      8          1           0       -3.693112    0.248229   -0.898987
 ---------------------------------------------------------------------
                    Distance matrix (angstroms):
                    1          2          3          4          5
     1  C    0.000000
     2  O    1.220245   0.000000
     3  O    1.351449   2.259203   0.000000
     4  C    1.498489   2.408239   2.374872   0.000000
     5  H    1.958284   3.076194   0.975759   2.373066   0.000000
     6  H    2.127775   2.549889   3.297444   1.093823   3.440261
     7  H    2.133341   3.101691   2.662967   1.092816   2.424706
     8  H    2.133341   3.101692   2.662966   1.092816   2.424705
                    6          7          8
     6  H    0.000000
     7  H    1.775145   0.000000
     8  H    1.775145   1.797976   0.000000
 Stoichiometry    C2H4O2
 Framework group  C1[X(C2H4O2)]
 Deg. of freedom    18
 Full point group                 C1      NOp   1
 Largest Abelian subgroup         C1      NOp   1
 Largest concise Abelian subgroup C1      NOp   1
                         Standard orientation:                         
 ---------------------------------------------------------------------
 Center     Atomic      Atomic             Coordinates (Angstroms)
 Number     Number       Type             X           Y           Z
 ---------------------------------------------------------------------
      1          6           0       -0.156513   -0.121020   -0.000000
      2          8           0       -0.836900   -1.133972    0.000000
      3          8           0       -0.690454    1.120480   -0.000000
      4          6           0        1.341920   -0.108127    0.000000
      5          1           0       -0.023532    1.832744   -0.000000
      6          1           0        1.712987   -1.137087   -0.000000
      7          1           0        1.708468    0.393579    0.898989
      8          1           0        1.708468    0.393580   -0.898987
 ---------------------------------------------------------------------
 Rotational constants (GHZ):          10.6445589           9.9375048           5.3155603
 Standard basis: Aug-CC-pVDZ (5D, 7F)
 There are   136 symmetry adapted cartesian basis functions of A   symmetry.
 There are   128 symmetry adapted basis functions of A   symmetry.
   128 basis functions,   216 primitive gaussians,   136 cartesian basis functions
    16 alpha electrons       16 beta electrons
       nuclear repulsion energy       120.7482359828 Hartrees.
 NAtoms=    8 NActive=    8 NUniq=    8 SFac= 1.00D+00 NAtFMM=   60 NAOKFM=F Big=F
 Integral buffers will be    131072 words long.
 Raffenetti 1 integral format.
 Two-electron integral symmetry is turned on.
 One-electron integrals computed using PRISM.
 NBasis=   128 RedAO= T EigKep=  1.14D-04  NBF=   128
 NBsUse=   128 1.00D-06 EigRej= -1.00D+00 NBFU=   128
 ExpMin= 2.97D-02 ExpMax= 1.17D+04 ExpMxC= 4.01D+02 IAcc=3 IRadAn=         5 AccDes= 0.00D+00
 Harris functional with IExCor=  205 and IRadAn=       5 diagonalized for initial guess.
 HarFok:  IExCor=  205 AccDes= 0.00D+00 IRadAn=         5 IDoV= 1 UseB2=F ITyADJ=14
 ICtDFT=  3500011 ScaDFX=  1.000000  1.000000  1.000000  1.000000
 FoFCou: FMM=F IPFlag=           0 FMFlag=      100000 FMFlg1=           0
         NFxFlg=           0 DoJE=T BraDBF=F KetDBF=T FulRan=T
         wScrn=  0.000000 ICntrl=       500 IOpCl=  0 I1Cent=   200000004 NGrid=           0
         NMat0=    1 NMatS0=      1 NMatT0=    0 NMatD0=    1 NMtDS0=    0 NMtDT0=    0
 Petite list used in FoFCou.
 Keep R1 ints in memory in canonical form, NReq=40119068.
 Requested convergence on RMS density matrix=1.00D-08 within 128 cycles.
 Requested convergence on MAX density matrix=1.00D-06.
 Requested convergence on             energy=1.00D-06.
 No special actions if energy rises.
 SCF Done:  E(RHF) =  -227.836222477     A.U. after   13 cycles
            NFock= 13  Conv=0.54D-08     -V/T= 2.0019
 ExpMin= 2.97D-02 ExpMax= 1.17D+04 ExpMxC= 4.01D+02 IAcc=3 IRadAn=         5 AccDes= 0.00D+00
 HarFok:  IExCor=  205 AccDes= 0.00D+00 IRadAn=         5 IDoV=-2 UseB2=F ITyADJ=14
 ICtDFT= 12500011 ScaDFX=  1.000000  1.000000  1.000000  1.000000
 Range of M.O.s used for correlation:     5   128
 NBasis=   128 NAE=    16 NBE=    16 NFC=     4 NFV=     0
 NROrb=    124 NOA=    12 NOB=    12 NVA=   112 NVB=   112

 **** Warning!!: The largest alpha MO coefficient is  0.31227792D+02

 Fully direct method using O(ONN) memory.
 JobTyp=1 Pass  1:  I=   5 to  16 NPSUse= 28 ParTrn=T ParDer=T DoDerP=T.
 Spin components of T(2) and E(2):
     alpha-alpha T2 =       0.2727553579D-01 E2=     -0.8828742443D-01
     alpha-beta  T2 =       0.1502858293D+00 E2=     -0.5009208566D+00
     beta-beta   T2 =       0.2727553579D-01 E2=     -0.8828742443D-01
 ANorm=    0.1097650628D+01
 E2 =    -0.6774957054D+00 EUMP2 =    -0.22851371818252D+03
          IDoAtm=11111111
          Differentiating once with respect to electric field.
                with respect to dipole field.
          Differentiating once with respect to nuclear coordinates.
 Keep R1 ints in memory in canonical form, NReq=40122856.
          There are     1 degrees of freedom in the 1st order CPHF.  IDoFFX=0 NUNeed=     1.
 LinEq1:  Iter=  0 NonCon=     1 RMS=5.88D-03 Max=1.14D-01 NDo=     1
 AX will form     1 AO Fock derivatives at one time.
 LinEq1:  Iter=  1 NonCon=     1 RMS=1.78D-03 Max=2.41D-02 NDo=     1
 LinEq1:  Iter=  2 NonCon=     1 RMS=5.89D-04 Max=7.96D-03 NDo=     1
 LinEq1:  Iter=  3 NonCon=     1 RMS=1.95D-04 Max=2.44D-03 NDo=     1
 LinEq1:  Iter=  4 NonCon=     1 RMS=6.81D-05 Max=6.74D-04 NDo=     1
 LinEq1:  Iter=  5 NonCon=     1 RMS=2.13D-05 Max=2.53D-04 NDo=     1
 LinEq1:  Iter=  6 NonCon=     1 RMS=5.88D-06 Max=4.69D-05 NDo=     1
 LinEq1:  Iter=  7 NonCon=     1 RMS=1.09D-06 Max=7.08D-06 NDo=     1
 LinEq1:  Iter=  8 NonCon=     1 RMS=2.06D-07 Max=1.39D-06 NDo=     1
 LinEq1:  Iter=  9 NonCon=     1 RMS=5.27D-08 Max=4.10D-07 NDo=     1
 LinEq1:  Iter= 10 NonCon=     1 RMS=1.49D-08 Max=1.88D-07 NDo=     1
 LinEq1:  Iter= 11 NonCon=     1 RMS=4.17D-09 Max=6.59D-08 NDo=     1
 LinEq1:  Iter= 12 NonCon=     1 RMS=8.33D-10 Max=1.14D-08 NDo=     1
 LinEq1:  Iter= 13 NonCon=     1 RMS=1.04D-10 Max=5.39D-10 NDo=     1
 LinEq1:  Iter= 14 NonCon=     0 RMS=1.36D-11 Max=7.85D-11 NDo=     1
 Linear equations converged to 1.000D-10 1.000D-09 after    14 iterations.
 End of Minotr F.D. properties file   721 does not exist.
 End of Minotr F.D. properties file   722 does not exist.
 End of Minotr F.D. properties file   788 does not exist.

 **********************************************************************

            Population analysis using the SCF density.

 **********************************************************************

 Orbital symmetries:
       Occupied  (A) (A) (A) (A) (A) (A) (A) (A) (A) (A) (A) (A)
                 (A) (A) (A) (A)
       Virtual   (A) (A) (A) (A) (A) (A) (A) (A) (A) (A) (A) (A)
                 (A) (A) (A) (A) (A) (A) (A) (A) (A) (A) (A) (A)
                 (A) (A) (A) (A) (A) (A) (A) (A) (A) (A) (A) (A)
                 (A) (A) (A) (A) (A) (A) (A) (A) (A) (A) (A) (A)
                 (A) (A) (A) (A) (A) (A) (A) (A) (A) (A) (A) (A)
                 (A) (A) (A) (A) (A) (A) (A) (A) (A) (A) (A) (A)
                 (A) (A) (A) (A) (A) (A) (A) (A) (A) (A) (A) (A)
                 (A) (A) (A) (A) (A) (A) (A) (A) (A) (A) (A) (A)
                 (A) (A) (A) (A) (A) (A) (A) (A) (A) (A) (A) (A)
                 (A) (A) (A) (A)
 The electronic state is 1-A.
 Alpha  occ. eigenvalues --  -20.62962 -20.55953 -11.40304 -11.26455  -1.46349
 Alpha  occ. eigenvalues --   -1.36471  -1.03228  -0.84375  -0.71919  -0.67225
 Alpha  occ. eigenvalues --   -0.65703  -0.59981  -0.57266  -0.55262  -0.47844
 Alpha  occ. eigenvalues --   -0.45252
 Alpha virt. eigenvalues --    0.02321   0.04504   0.04804   0.06828   0.09168
 Alpha virt. eigenvalues --    0.11880   0.12057   0.12524   0.14070   0.15198
 Alpha virt. eigenvalues --    0.16181   0.16581   0.19830   0.21951   0.23015
 Alpha virt. eigenvalues --    0.25148   0.26621   0.28187   0.28858   0.32334
 Alpha virt. eigenvalues --    0.32562   0.33129   0.35803   0.35852   0.37283
 Alpha virt. eigenvalues --    0.39832   0.42122   0.44053   0.45171   0.47196
 Alpha virt. eigenvalues --    0.47628   0.51929   0.54037   0.54770   0.56520
 Alpha virt. eigenvalues --    0.57105   0.59833   0.63305   0.63487   0.64522
 Alpha virt. eigenvalues --    0.66018   0.67783   0.68989   0.71371   0.72820
 Alpha virt. eigenvalues --    0.73690   0.79299   0.83245   0.88512   0.93897
 Alpha virt. eigenvalues --    0.94246   0.94956   1.01121   1.04317   1.05488
 Alpha virt. eigenvalues --    1.08653   1.09790   1.14650   1.18464   1.21122
 Alpha virt. eigenvalues --    1.21933   1.27053   1.31321   1.31526   1.37388
 Alpha virt. eigenvalues --    1.41000   1.42288   1.49116   1.54437   1.63716
 Alpha virt. eigenvalues --    1.66318   1.74327   1.74914   1.80144   1.82237
 Alpha virt. eigenvalues --    1.84434   1.85765   1.87141   1.97293   2.00521
 Alpha virt. eigenvalues --    2.03857   2.12171   2.14327   2.15598   2.21231
 Alpha virt. eigenvalues --    2.22787   2.30813   2.34096   2.38163   2.39570
 Alpha virt. eigenvalues --    2.47612   2.51354   2.64313   2.66413   2.78494
 Alpha virt. eigenvalues --    2.79976   2.82225   2.92278   2.92538   3.01439
 Alpha virt. eigenvalues --    3.25961   3.34906   3.67648   3.68596   3.75429
 Alpha virt. eigenvalues --    3.75854   3.78242   3.80602   3.86697   4.03761
 Alpha virt. eigenvalues --    4.14509   4.29087
          Condensed to atoms (all electrons):
               1          2          3          4          5          6
     1  C    4.573951   0.359165  -0.048944   0.297490  -0.037010  -0.012845
     2  O    0.359165   8.428582  -0.070690  -0.046377   0.007140   0.020515
     3  O   -0.048944  -0.070690   8.491430   0.012031   0.306824   0.002920
     4  C    0.297490  -0.046377   0.012031   4.457567  -0.031394   0.359239
     5  H   -0.037010   0.007140   0.306824  -0.031394   0.512386  -0.002660
     6  H   -0.012845   0.020515   0.002920   0.359239  -0.002660   0.890775
     7  H   -0.040710  -0.000963   0.004053   0.357771   0.009184  -0.086958
     8  H   -0.040711  -0.000963   0.004053   0.357771   0.009184  -0.086958
               7          8
     1  C   -0.040710  -0.040711
     2  O   -0.000963  -0.000963
     3  O    0.004053   0.004053
     4  C    0.357771   0.357771
     5  H    0.009184   0.009184
     6  H   -0.086958  -0.086958
     7  H    0.819195  -0.096695
     8  H   -0.096695   0.819195
 Mulliken charges:
               1
     1  C    0.949614
     2  O   -0.696410
     3  O   -0.701675
     4  C    0.235902
     5  H    0.226346
     6  H   -0.084027
     7  H    0.035125
     8  H    0.035124
 Sum of Mulliken charges =  -0.00000
 Mulliken charges with hydrogens summed into heavy atoms:
               1
     1  C    0.949614
     2  O   -0.696410
     3  O   -0.475329
     4  C    0.222125
 Electronic spatial extent (au):  <R**2>=            254.6136
 Charge=             -0.0000 electrons
 Dipole moment (field-independent basis, Debye):
    X=              3.9564    Y=              2.9296    Z=              0.0000  Tot=              4.9229
 Quadrupole moment (field-independent basis, Debye-Ang):
   XX=            -25.6825   YY=            -23.6033   ZZ=            -23.1989
   XY=             -0.5033   XZ=              0.0000   YZ=              0.0000
 Traceless Quadrupole moment (field-independent basis, Debye-Ang):
   XX=             -1.5209   YY=              0.5583   ZZ=              0.9626
   XY=             -0.5033   XZ=              0.0000   YZ=              0.0000
 Octapole moment (field-independent basis, Debye-Ang**2):
  XXX=              0.7142  YYY=             14.3560  ZZZ=              0.0000  XYY=              4.7115
  XXY=              0.2813  XXZ=              0.0000  XZZ=             -0.0364  YZZ=              0.9716
  YYZ=             -0.0000  XYZ=             -0.0000
 Hexadecapole moment (field-independent basis, Debye-Ang**3):
 XXXX=           -160.9151 YYYY=           -107.8961 ZZZZ=            -27.3829 XXXY=             -1.6216
 XXXZ=             -0.0000 YYYX=             -1.6748 YYYZ=              0.0000 ZZZX=             -0.0000
 ZZZY=              0.0000 XXYY=            -49.5974 XXZZ=            -29.2890 YYZZ=            -26.3853
 XXYZ=              0.0000 YYXZ=             -0.0000 ZZXY=              1.3957
 N-N= 1.207482359828D+02 E-N=-7.780389023907D+02  KE= 2.274009494585D+02
 Calling FoFJK, ICntrl=  10002127 FMM=F ISym2X=0 I1Cent= 0 IOpClX= 0 NMat=1 NMatS=1 NMatT=0.
 ***** Axes restored to original set *****
 -------------------------------------------------------------------
 Center     Atomic                   Forces (Hartrees/Bohr)
 Number     Number              X              Y              Z
 -------------------------------------------------------------------
      1        6          -0.012668030    0.012227360    0.000000120
      2        8           0.004773227   -0.012202610   -0.000000048
      3        8           0.023380580   -0.013006489   -0.000000025
      4        6          -0.008813521    0.010941081   -0.000000064
      5        1          -0.000654960    0.010873370   -0.000000008
      6        1          -0.001178237    0.001860183    0.000000008
      7        1          -0.002419521   -0.005346440    0.002818061
      8        1          -0.002419539   -0.005346454   -0.002818045
 -------------------------------------------------------------------
 Cartesian Forces:  Max     0.023380580 RMS     0.008172995

 GradGradGradGradGradGradGradGradGradGradGradGradGradGradGradGradGradGrad
 Berny optimization.
 FormGI is forming the generalized inverse of G from B-inverse, IUseBI=4.
 Internal  Forces:  Max     0.018527554 RMS     0.007444128
 Search for a local minimum.
 Step number   1 out of a maximum of   35
 All quantities printed in internal units (Hartrees-Bohrs-Radians)
 Mixed Optimization -- RFO/linear search
 Second derivative matrix not updated -- first step.
 ITU=  0
     Eigenvalues ---    0.00786   0.01163   0.02334   0.07422   0.07591
     Eigenvalues ---    0.16000   0.16000   0.16000   0.16000   0.25000
     Eigenvalues ---    0.25000   0.32536   0.34375   0.34489   0.34489
     Eigenvalues ---    0.52217   0.54714   0.95275
 RFO step:  Lambda=-4.82447514D-03 EMin= 7.85941526D-03
 Linear search not attempted -- first point.
 Iteration  1 RMS(Cart)=  0.04235773 RMS(Int)=  0.00058063
 Iteration  2 RMS(Cart)=  0.00069491 RMS(Int)=  0.00003449
 Iteration  3 RMS(Cart)=  0.00000024 RMS(Int)=  0.00003449
 Variable       Old X    -DE/DX   Delta X   Delta X   Delta X     New X
                                 (Linear)    (Quad)   (Total)
    R1        2.30593  -0.00910   0.00000  -0.00950  -0.00950   2.29643
    R2        2.55387   0.01401   0.00000   0.02538   0.02538   2.57925
    R3        2.83173   0.01426   0.00000   0.04319   0.04319   2.87493
    R4        1.84392  -0.00866   0.00000  -0.01643  -0.01643   1.82748
    R5        2.06703   0.00220   0.00000   0.00631   0.00631   2.07333
    R6        2.06512   0.00565   0.00000   0.01616   0.01616   2.08128
    R7        2.06512   0.00565   0.00000   0.01616   0.01616   2.08128
    A1        2.14396  -0.01853   0.00000  -0.07271  -0.07271   2.07125
    A2        2.17087   0.00322   0.00000   0.01262   0.01262   2.18349
    A3        1.96836   0.01531   0.00000   0.06009   0.06009   2.02845
    A4        1.98290  -0.01218   0.00000  -0.07391  -0.07391   1.90899
    A5        1.90830   0.00047   0.00000   0.00854   0.00845   1.91675
    A6        1.91703   0.00130   0.00000   0.00497   0.00492   1.92195
    A7        1.91703   0.00130   0.00000   0.00497   0.00492   1.92195
    A8        1.89451   0.00021   0.00000   0.00700   0.00691   1.90142
    A9        1.89451   0.00021   0.00000   0.00700   0.00691   1.90142
   A10        1.93206  -0.00347   0.00000  -0.03202  -0.03204   1.90002
    D1        3.14159   0.00000   0.00000   0.00000   0.00000  -3.14159
    D2        0.00000  -0.00000   0.00000  -0.00000  -0.00000  -0.00000
    D3        0.00000  -0.00000   0.00000  -0.00000  -0.00000   0.00000
    D4       -2.07713  -0.00132   0.00000  -0.01672  -0.01675  -2.09388
    D5        2.07713   0.00132   0.00000   0.01672   0.01675   2.09388
    D6       -3.14159   0.00000   0.00000   0.00000   0.00000  -3.14159
    D7        1.06447  -0.00132   0.00000  -0.01672  -0.01675   1.04772
    D8       -1.06447   0.00132   0.00000   0.01672   0.01675  -1.04772
         Item               Value     Threshold  Converged?
 Maximum Force            0.018528     0.000450     NO 
 RMS     Force            0.007444     0.000300     NO 
 Maximum Displacement     0.105805     0.001800     NO 
 RMS     Displacement     0.042567     0.001200     NO 
 Predicted change in Energy=-2.461530D-03
 GradGradGradGradGradGradGradGradGradGradGradGradGradGradGradGradGradGrad

                          Input orientation:                          
 ---------------------------------------------------------------------
 Center     Atomic      Atomic             Coordinates (Angstroms)
 Number     Number       Type             X           Y           Z
 ---------------------------------------------------------------------
      1          6           0       -1.933575    1.040377    0.000001
      2          8           0       -1.392748    2.128614   -0.000000
      3          8           0       -1.152670   -0.079035   -0.000000
      4          6           0       -3.437502    0.810825    0.000001
      5          1           0       -1.717308   -0.864142   -0.000000
      6          1           0       -3.961028    1.775025   -0.000001
      7          1           0       -3.734065    0.242964    0.895877
      8          1           0       -3.734065    0.242962   -0.895874
 ---------------------------------------------------------------------
                    Distance matrix (angstroms):
                    1          2          3          4          5
     1  C    0.000000
     2  O    1.215217   0.000000
     3  O    1.364880   2.220665   0.000000
     4  C    1.521345   2.432609   2.452001   0.000000
     5  H    1.916759   3.010303   0.967062   2.400954   0.000000
     6  H    2.156449   2.592506   3.365177   1.097160   3.464026
     7  H    2.163383   3.136883   2.751341   1.101367   2.468924
     8  H    2.163383   3.136884   2.751340   1.101367   2.468922
                    6          7          8
     6  H    0.000000
     7  H    1.789224   0.000000
     8  H    1.789224   1.791751   0.000000
 Stoichiometry    C2H4O2
 Framework group  C1[X(C2H4O2)]
 Deg. of freedom    18
 Full point group                 C1      NOp   1
 Largest Abelian subgroup         C1      NOp   1
 Largest concise Abelian subgroup C1      NOp   1
                         Standard orientation:                         
 ---------------------------------------------------------------------
 Center     Atomic      Atomic             Coordinates (Angstroms)
 Number     Number       Type             X           Y           Z
 ---------------------------------------------------------------------
      1          6           0       -0.125524   -0.132819    0.000000
      2          8           0       -0.705002   -1.200975   -0.000000
      3          8           0       -0.865812    1.013859   -0.000000
      4          6           0        1.385664    0.042691    0.000000
      5          1           0       -0.273401    1.778227   -0.000000
      6          1           0        1.874299   -0.939651   -0.000001
      7          1           0        1.702385    0.599560    0.895877
      8          1           0        1.702386    0.599562   -0.895875
 ---------------------------------------------------------------------
 Rotational constants (GHZ):          10.9636631           9.3874269           5.2264697
 Standard basis: Aug-CC-pVDZ (5D, 7F)
 There are   136 symmetry adapted cartesian basis functions of A   symmetry.
 There are   128 symmetry adapted basis functions of A   symmetry.
   128 basis functions,   216 primitive gaussians,   136 cartesian basis functions
    16 alpha electrons       16 beta electrons
       nuclear repulsion energy       120.0516396854 Hartrees.
 NAtoms=    8 NActive=    8 NUniq=    8 SFac= 1.00D+00 NAtFMM=   60 NAOKFM=F Big=F
 Integral buffers will be    131072 words long.
 Raffenetti 1 integral format.
 Two-electron integral symmetry is turned on.
 One-electron integrals computed using PRISM.
 NBasis=   128 RedAO= T EigKep=  1.13D-04  NBF=   128
 NBsUse=   128 1.00D-06 EigRej= -1.00D+00 NBFU=   128
 Initial guess from the checkpoint file:  "/gscratch/scrubbed/gds001/Gau-8413.chk"
 B after Tr=    -0.000000   -0.000000    0.000000
         Rot=    0.998102   -0.000000    0.000000   -0.061588 Ang=  -7.06 deg.
 ExpMin= 2.97D-02 ExpMax= 1.17D+04 ExpMxC= 4.01D+02 IAcc=3 IRadAn=         5 AccDes= 0.00D+00
 Harris functional with IExCor=  205 and IRadAn=       5 diagonalized for initial guess.
 HarFok:  IExCor=  205 AccDes= 0.00D+00 IRadAn=         5 IDoV= 1 UseB2=F ITyADJ=14
 ICtDFT=  3500011 ScaDFX=  1.000000  1.000000  1.000000  1.000000
 FoFCou: FMM=F IPFlag=           0 FMFlag=      100000 FMFlg1=           0
         NFxFlg=           0 DoJE=T BraDBF=F KetDBF=T FulRan=T
         wScrn=  0.000000 ICntrl=       500 IOpCl=  0 I1Cent=   200000004 NGrid=           0
         NMat0=    1 NMatS0=      1 NMatT0=    0 NMatD0=    1 NMtDS0=    0 NMtDT0=    0
 Petite list used in FoFCou.
 Keep R1 ints in memory in canonical form, NReq=40118602.
 Requested convergence on RMS density matrix=1.00D-08 within 128 cycles.
 Requested convergence on MAX density matrix=1.00D-06.
 Requested convergence on             energy=1.00D-06.
 No special actions if energy rises.
 SCF Done:  E(RHF) =  -227.837747299     A.U. after   11 cycles
            NFock= 11  Conv=0.68D-08     -V/T= 2.0022
 ExpMin= 2.97D-02 ExpMax= 1.17D+04 ExpMxC= 4.01D+02 IAcc=3 IRadAn=         5 AccDes= 0.00D+00
 HarFok:  IExCor=  205 AccDes= 0.00D+00 IRadAn=         5 IDoV=-2 UseB2=F ITyADJ=14
 ICtDFT= 12500011 ScaDFX=  1.000000  1.000000  1.000000  1.000000
 Range of M.O.s used for correlation:     5   128
 NBasis=   128 NAE=    16 NBE=    16 NFC=     4 NFV=     0
 NROrb=    124 NOA=    12 NOB=    12 NVA=   112 NVB=   112

 **** Warning!!: The largest alpha MO coefficient is  0.31364679D+02

 Fully direct method using O(ONN) memory.
 JobTyp=1 Pass  1:  I=   5 to  16 NPSUse= 28 ParTrn=T ParDer=T DoDerP=T.
 Spin components of T(2) and E(2):
     alpha-alpha T2 =       0.2733571100D-01 E2=     -0.8822021045D-01
     alpha-beta  T2 =       0.1511002777D+00 E2=     -0.5015629296D+00
     beta-beta   T2 =       0.2733571100D-01 E2=     -0.8822021045D-01
 ANorm=    0.1098076363D+01
 E2 =    -0.6780033505D+00 EUMP2 =    -0.22851575064947D+03
          IDoAtm=11111111
          Differentiating once with respect to electric field.
                with respect to dipole field.
          Differentiating once with respect to nuclear coordinates.
 Keep R1 ints in memory in canonical form, NReq=40122812.
          There are     1 degrees of freedom in the 1st order CPHF.  IDoFFX=0 NUNeed=     1.
 LinEq1:  Iter=  0 NonCon=     1 RMS=5.86D-03 Max=1.15D-01 NDo=     1
 AX will form     1 AO Fock derivatives at one time.
 LinEq1:  Iter=  1 NonCon=     1 RMS=1.81D-03 Max=2.50D-02 NDo=     1
 LinEq1:  Iter=  2 NonCon=     1 RMS=5.88D-04 Max=8.12D-03 NDo=     1
 LinEq1:  Iter=  3 NonCon=     1 RMS=1.92D-04 Max=2.63D-03 NDo=     1
 LinEq1:  Iter=  4 NonCon=     1 RMS=6.78D-05 Max=6.61D-04 NDo=     1
 LinEq1:  Iter=  5 NonCon=     1 RMS=2.26D-05 Max=2.79D-04 NDo=     1
 LinEq1:  Iter=  6 NonCon=     1 RMS=6.18D-06 Max=5.06D-05 NDo=     1
 LinEq1:  Iter=  7 NonCon=     1 RMS=1.18D-06 Max=8.81D-06 NDo=     1
 LinEq1:  Iter=  8 NonCon=     1 RMS=2.54D-07 Max=3.40D-06 NDo=     1
 LinEq1:  Iter=  9 NonCon=     1 RMS=8.04D-08 Max=1.13D-06 NDo=     1
 LinEq1:  Iter= 10 NonCon=     1 RMS=2.32D-08 Max=2.49D-07 NDo=     1
 LinEq1:  Iter= 11 NonCon=     1 RMS=6.01D-09 Max=5.40D-08 NDo=     1
 LinEq1:  Iter= 12 NonCon=     1 RMS=9.98D-10 Max=7.68D-09 NDo=     1
 LinEq1:  Iter= 13 NonCon=     1 RMS=1.10D-10 Max=5.92D-10 NDo=     1
 LinEq1:  Iter= 14 NonCon=     0 RMS=1.47D-11 Max=1.20D-10 NDo=     1
 Linear equations converged to 1.000D-10 1.000D-09 after    14 iterations.
 End of Minotr F.D. properties file   721 does not exist.
 End of Minotr F.D. properties file   722 does not exist.
 End of Minotr F.D. properties file   788 does not exist.
 Calling FoFJK, ICntrl=  10002127 FMM=F ISym2X=0 I1Cent= 0 IOpClX= 0 NMat=1 NMatS=1 NMatT=0.
 ***** Axes restored to original set *****
 -------------------------------------------------------------------
 Center     Atomic                   Forces (Hartrees/Bohr)
 Number     Number              X              Y              Z
 -------------------------------------------------------------------
      1        6          -0.002528300    0.008533470   -0.000000233
      2        8          -0.002346785    0.001558909    0.000000088
      3        8           0.001565452   -0.006243251    0.000000054
      4        6           0.001900583    0.000581876    0.000000064
      5        1          -0.000721001   -0.002525909    0.000000012
      6        1           0.001973577    0.000091279    0.000000008
      7        1           0.000078219   -0.000998191   -0.000355655
      8        1           0.000078255   -0.000998182    0.000355662
 -------------------------------------------------------------------
 Cartesian Forces:  Max     0.008533470 RMS     0.002462984

 GradGradGradGradGradGradGradGradGradGradGradGradGradGradGradGradGradGrad
 Berny optimization.
 Using GEDIIS/GDIIS optimizer.
 FormGI is forming the generalized inverse of G from B-inverse, IUseBI=4.
 Internal  Forces:  Max     0.007675211 RMS     0.002366065
 Search for a local minimum.
 Step number   2 out of a maximum of   35
 All quantities printed in internal units (Hartrees-Bohrs-Radians)
 Mixed Optimization -- RFO/linear search
 Update second derivatives using D2CorX and points    1    2
 DE= -2.03D-03 DEPred=-2.46D-03 R= 8.26D-01
 TightC=F SS=  1.41D+00  RLast= 1.43D-01 DXNew= 5.0454D-01 4.2759D-01
 Trust test= 8.26D-01 RLast= 1.43D-01 DXMaxT set to 4.28D-01
 ITU=  1  0
 Use linear search instead of GDIIS.
     Eigenvalues ---    0.00786   0.01134   0.02334   0.07326   0.07456
     Eigenvalues ---    0.15388   0.16000   0.16000   0.16593   0.24997
     Eigenvalues ---    0.28649   0.34125   0.34209   0.34489   0.35482
     Eigenvalues ---    0.51028   0.54550   0.95223
 RFO step:  Lambda=-2.37149564D-04 EMin= 7.85941526D-03
 Quartic linear search produced a step of -0.13492.
 Iteration  1 RMS(Cart)=  0.00950890 RMS(Int)=  0.00002740
 Iteration  2 RMS(Cart)=  0.00003648 RMS(Int)=  0.00000650
 Iteration  3 RMS(Cart)=  0.00000000 RMS(Int)=  0.00000650
 Variable       Old X    -DE/DX   Delta X   Delta X   Delta X     New X
                                 (Linear)    (Quad)   (Total)
    R1        2.29643   0.00035   0.00128  -0.00143  -0.00015   2.29628
    R2        2.57925   0.00768  -0.00342   0.01682   0.01340   2.59265
    R3        2.87493  -0.00378  -0.00583  -0.00205  -0.00788   2.86705
    R4        1.82748   0.00247   0.00222   0.00106   0.00327   1.83075
    R5        2.07333  -0.00086  -0.00085  -0.00100  -0.00185   2.07148
    R6        2.08128   0.00020  -0.00218   0.00351   0.00133   2.08261
    R7        2.08128   0.00020  -0.00218   0.00351   0.00133   2.08261
    A1        2.07125   0.00532   0.00981   0.00488   0.01469   2.08594
    A2        2.18349  -0.00110  -0.00170  -0.00147  -0.00317   2.18031
    A3        2.02845  -0.00421  -0.00811  -0.00341  -0.01151   2.01693
    A4        1.90899   0.00163   0.00997  -0.00501   0.00496   1.91395
    A5        1.91675  -0.00240  -0.00114  -0.01039  -0.01151   1.90524
    A6        1.92195   0.00030  -0.00066   0.00204   0.00138   1.92333
    A7        1.92195   0.00030  -0.00066   0.00203   0.00138   1.92333
    A8        1.90142   0.00126  -0.00093   0.00904   0.00813   1.90954
    A9        1.90142   0.00126  -0.00093   0.00904   0.00813   1.90954
   A10        1.90002  -0.00068   0.00432  -0.01160  -0.00728   1.89274
    D1       -3.14159  -0.00000  -0.00000  -0.00000  -0.00000   3.14159
    D2       -0.00000   0.00000   0.00000   0.00000   0.00000   0.00000
    D3        0.00000   0.00000   0.00000   0.00000   0.00000   0.00000
    D4       -2.09388  -0.00023   0.00226  -0.00590  -0.00363  -2.09751
    D5        2.09388   0.00023  -0.00226   0.00590   0.00364   2.09751
    D6       -3.14159  -0.00000  -0.00000  -0.00000  -0.00000   3.14159
    D7        1.04772  -0.00023   0.00226  -0.00590  -0.00364   1.04408
    D8       -1.04772   0.00023  -0.00226   0.00590   0.00363  -1.04408
         Item               Value     Threshold  Converged?
 Maximum Force            0.007675     0.000450     NO 
 RMS     Force            0.002366     0.000300     NO 
 Maximum Displacement     0.020831     0.001800     NO 
 RMS     Displacement     0.009522     0.001200     NO 
 Predicted change in Energy=-1.690351D-04
 GradGradGradGradGradGradGradGradGradGradGradGradGradGradGradGradGradGrad

                          Input orientation:                          
 ---------------------------------------------------------------------
 Center     Atomic      Atomic             Coordinates (Angstroms)
 Number     Number       Type             X           Y           Z
 ---------------------------------------------------------------------
      1          6           0       -1.935036    1.046577   -0.000001
      2          8           0       -1.402491    2.138801    0.000000
      3          8           0       -1.158109   -0.084212    0.000000
      4          6           0       -3.433821    0.811070    0.000000
      5          1           0       -1.725460   -0.869498    0.000001
      6          1           0       -3.950004    1.778111    0.000000
      7          1           0       -3.729019    0.238371    0.894108
      8          1           0       -3.729021    0.238370   -0.894107
 ---------------------------------------------------------------------
                    Distance matrix (angstroms):
                    1          2          3          4          5
     1  C    0.000000
     2  O    1.215137   0.000000
     3  O    1.371969   2.236405   0.000000
     4  C    1.517176   2.426762   2.445485   0.000000
     5  H    1.927502   3.025586   0.968794   2.396416   0.000000
     6  H    2.143652   2.572921   3.356029   1.096182   3.458097
     7  H    2.161251   3.134293   2.740998   1.102069   2.457855
     8  H    2.161251   3.134295   2.740999   1.102069   2.457856
                    6          7          8
     6  H    0.000000
     7  H    1.794175   0.000000
     8  H    1.794175   1.788215   0.000000
 Stoichiometry    C2H4O2
 Framework group  C1[X(C2H4O2)]
 Deg. of freedom    18
 Full point group                 C1      NOp   1
 Largest Abelian subgroup         C1      NOp   1
 Largest concise Abelian subgroup C1      NOp   1
                         Standard orientation:                         
 ---------------------------------------------------------------------
 Center     Atomic      Atomic             Coordinates (Angstroms)
 Number     Number       Type             X           Y           Z
 ---------------------------------------------------------------------
      1          6           0       -0.127452   -0.136608   -0.000001
      2          8           0       -0.700904   -1.207921    0.000000
      3          8           0       -0.861078    1.022741    0.000000
      4          6           0        1.379165    0.042074    0.000000
      5          1           0       -0.264448    1.786019    0.000001
      6          1           0        1.858424   -0.943789    0.000000
      7          1           0        1.695800    0.603205    0.894108
      8          1           0        1.695802    0.603206   -0.894107
 ---------------------------------------------------------------------
 Rotational constants (GHZ):          10.8213303           9.4835409           5.2225032
 Standard basis: Aug-CC-pVDZ (5D, 7F)
 There are   136 symmetry adapted cartesian basis functions of A   symmetry.
 There are   128 symmetry adapted basis functions of A   symmetry.
   128 basis functions,   216 primitive gaussians,   136 cartesian basis functions
    16 alpha electrons       16 beta electrons
       nuclear repulsion energy       119.9564909662 Hartrees.
 NAtoms=    8 NActive=    8 NUniq=    8 SFac= 1.00D+00 NAtFMM=   60 NAOKFM=F Big=F
 Integral buffers will be    131072 words long.
 Raffenetti 1 integral format.
 Two-electron integral symmetry is turned on.
 One-electron integrals computed using PRISM.
 NBasis=   128 RedAO= T EigKep=  1.13D-04  NBF=   128
 NBsUse=   128 1.00D-06 EigRej= -1.00D+00 NBFU=   128
 Initial guess from the checkpoint file:  "/gscratch/scrubbed/gds001/Gau-8413.chk"
 B after Tr=     0.000000    0.000000    0.000000
         Rot=    1.000000   -0.000000   -0.000000    0.000395 Ang=  -0.05 deg.
 ExpMin= 2.97D-02 ExpMax= 1.17D+04 ExpMxC= 4.01D+02 IAcc=3 IRadAn=         5 AccDes= 0.00D+00
 Harris functional with IExCor=  205 and IRadAn=       5 diagonalized for initial guess.
 HarFok:  IExCor=  205 AccDes= 0.00D+00 IRadAn=         5 IDoV= 1 UseB2=F ITyADJ=14
 ICtDFT=  3500011 ScaDFX=  1.000000  1.000000  1.000000  1.000000
 FoFCou: FMM=F IPFlag=           0 FMFlag=      100000 FMFlg1=           0
         NFxFlg=           0 DoJE=T BraDBF=F KetDBF=T FulRan=T
         wScrn=  0.000000 ICntrl=       500 IOpCl=  0 I1Cent=   200000004 NGrid=           0
         NMat0=    1 NMatS0=      1 NMatT0=    0 NMatD0=    1 NMtDS0=    0 NMtDT0=    0
 Petite list used in FoFCou.
 Keep R1 ints in memory in canonical form, NReq=40118646.
 Requested convergence on RMS density matrix=1.00D-08 within 128 cycles.
 Requested convergence on MAX density matrix=1.00D-06.
 Requested convergence on             energy=1.00D-06.
 No special actions if energy rises.
 SCF Done:  E(RHF) =  -227.837519127     A.U. after   10 cycles
            NFock= 10  Conv=0.62D-08     -V/T= 2.0022
 ExpMin= 2.97D-02 ExpMax= 1.17D+04 ExpMxC= 4.01D+02 IAcc=3 IRadAn=         5 AccDes= 0.00D+00
 HarFok:  IExCor=  205 AccDes= 0.00D+00 IRadAn=         5 IDoV=-2 UseB2=F ITyADJ=14
 ICtDFT= 12500011 ScaDFX=  1.000000  1.000000  1.000000  1.000000
 Range of M.O.s used for correlation:     5   128
 NBasis=   128 NAE=    16 NBE=    16 NFC=     4 NFV=     0
 NROrb=    124 NOA=    12 NOB=    12 NVA=   112 NVB=   112

 **** Warning!!: The largest alpha MO coefficient is  0.31356023D+02

 Fully direct method using O(ONN) memory.
 JobTyp=1 Pass  1:  I=   5 to  16 NPSUse= 28 ParTrn=T ParDer=T DoDerP=T.
 Spin components of T(2) and E(2):
     alpha-alpha T2 =       0.2738477317D-01 E2=     -0.8827864179D-01
     alpha-beta  T2 =       0.1513247708D+00 E2=     -0.5018685915D+00
     beta-beta   T2 =       0.2738477317D-01 E2=     -0.8827864179D-01
 ANorm=    0.1098223255D+01
 E2 =    -0.6784258751D+00 EUMP2 =    -0.22851594500178D+03
          IDoAtm=11111111
          Differentiating once with respect to electric field.
                with respect to dipole field.
          Differentiating once with respect to nuclear coordinates.
 Keep R1 ints in memory in canonical form, NReq=40122856.
          There are     1 degrees of freedom in the 1st order CPHF.  IDoFFX=0 NUNeed=     1.
 LinEq1:  Iter=  0 NonCon=     1 RMS=5.88D-03 Max=1.15D-01 NDo=     1
 AX will form     1 AO Fock derivatives at one time.
 LinEq1:  Iter=  1 NonCon=     1 RMS=1.82D-03 Max=2.53D-02 NDo=     1
 LinEq1:  Iter=  2 NonCon=     1 RMS=5.92D-04 Max=8.14D-03 NDo=     1
 LinEq1:  Iter=  3 NonCon=     1 RMS=1.93D-04 Max=2.70D-03 NDo=     1
 LinEq1:  Iter=  4 NonCon=     1 RMS=6.87D-05 Max=6.62D-04 NDo=     1
 LinEq1:  Iter=  5 NonCon=     1 RMS=2.31D-05 Max=2.84D-04 NDo=     1
 LinEq1:  Iter=  6 NonCon=     1 RMS=6.34D-06 Max=5.06D-05 NDo=     1
 LinEq1:  Iter=  7 NonCon=     1 RMS=1.23D-06 Max=1.04D-05 NDo=     1
 LinEq1:  Iter=  8 NonCon=     1 RMS=2.72D-07 Max=3.85D-06 NDo=     1
 LinEq1:  Iter=  9 NonCon=     1 RMS=8.56D-08 Max=1.13D-06 NDo=     1
 LinEq1:  Iter= 10 NonCon=     1 RMS=2.41D-08 Max=2.30D-07 NDo=     1
 LinEq1:  Iter= 11 NonCon=     1 RMS=6.16D-09 Max=5.42D-08 NDo=     1
 LinEq1:  Iter= 12 NonCon=     1 RMS=1.02D-09 Max=7.73D-09 NDo=     1
 LinEq1:  Iter= 13 NonCon=     1 RMS=1.13D-10 Max=6.25D-10 NDo=     1
 LinEq1:  Iter= 14 NonCon=     0 RMS=1.52D-11 Max=1.25D-10 NDo=     1
 Linear equations converged to 1.000D-10 1.000D-09 after    14 iterations.
 End of Minotr F.D. properties file   721 does not exist.
 End of Minotr F.D. properties file   722 does not exist.
 End of Minotr F.D. properties file   788 does not exist.
 Calling FoFJK, ICntrl=  10002127 FMM=F ISym2X=0 I1Cent= 0 IOpClX= 0 NMat=1 NMatS=1 NMatT=0.
 ***** Axes restored to original set *****
 -------------------------------------------------------------------
 Center     Atomic                   Forces (Hartrees/Bohr)
 Number     Number              X              Y              Z
 -------------------------------------------------------------------
      1        6          -0.001576306    0.003559621    0.000000579
      2        8          -0.000472146   -0.001321864   -0.000000220
      3        8           0.001519133   -0.001787734   -0.000000133
      4        6           0.000337765   -0.000059283   -0.000000184
      5        1          -0.000338111   -0.000184490   -0.000000030
      6        1           0.000286396   -0.000092215   -0.000000009
      7        1           0.000121672   -0.000057010   -0.000351416
      8        1           0.000121597   -0.000057024    0.000351414
 -------------------------------------------------------------------
 Cartesian Forces:  Max     0.003559621 RMS     0.000984657

 GradGradGradGradGradGradGradGradGradGradGradGradGradGradGradGradGradGrad
 Berny optimization.
 Using GEDIIS/GDIIS optimizer.
 FormGI is forming the generalized inverse of G from B-inverse, IUseBI=4.
 Internal  Forces:  Max     0.002294320 RMS     0.000601376
 Search for a local minimum.
 Step number   3 out of a maximum of   35
 All quantities printed in internal units (Hartrees-Bohrs-Radians)
 Mixed Optimization -- En-DIIS/RFO-DIIS
 Update second derivatives using D2CorX and points    1    2    3
 DE= -1.94D-04 DEPred=-1.69D-04 R= 1.15D+00
 TightC=F SS=  1.41D+00  RLast= 3.19D-02 DXNew= 7.1911D-01 9.5643D-02
 Trust test= 1.15D+00 RLast= 3.19D-02 DXMaxT set to 4.28D-01
 ITU=  1  1  0
 Use linear search instead of GDIIS.
     Eigenvalues ---    0.00786   0.01139   0.02334   0.07153   0.07510
     Eigenvalues ---    0.14730   0.16000   0.16006   0.16834   0.24873
     Eigenvalues ---    0.29762   0.34045   0.34444   0.34489   0.34984
     Eigenvalues ---    0.43357   0.52801   0.96453
 RFO step:  Lambda=-1.69330535D-05 EMin= 7.85941526D-03
 Quartic linear search produced a step of  0.18286.
 Iteration  1 RMS(Cart)=  0.00254583 RMS(Int)=  0.00000415
 Iteration  2 RMS(Cart)=  0.00000404 RMS(Int)=  0.00000055
 Iteration  3 RMS(Cart)=  0.00000000 RMS(Int)=  0.00000055
 Variable       Old X    -DE/DX   Delta X   Delta X   Delta X     New X
                                 (Linear)    (Quad)   (Total)
    R1        2.29628  -0.00140  -0.00003  -0.00192  -0.00195   2.29433
    R2        2.59265   0.00229   0.00245   0.00381   0.00626   2.59891
    R3        2.86705  -0.00082  -0.00144  -0.00137  -0.00281   2.86424
    R4        1.83075   0.00035   0.00060   0.00013   0.00073   1.83148
    R5        2.07148  -0.00022  -0.00034  -0.00043  -0.00077   2.07071
    R6        2.08261  -0.00029   0.00024  -0.00093  -0.00068   2.08192
    R7        2.08261  -0.00029   0.00024  -0.00093  -0.00068   2.08192
    A1        2.08594   0.00011   0.00269  -0.00249   0.00019   2.08613
    A2        2.18031   0.00046  -0.00058   0.00286   0.00228   2.18259
    A3        2.01693  -0.00057  -0.00211  -0.00037  -0.00247   2.01446
    A4        1.91395  -0.00030   0.00091  -0.00410  -0.00319   1.91075
    A5        1.90524  -0.00023  -0.00211   0.00036  -0.00175   1.90349
    A6        1.92333  -0.00000   0.00025  -0.00040  -0.00015   1.92318
    A7        1.92333  -0.00000   0.00025  -0.00040  -0.00015   1.92318
    A8        1.90954   0.00020   0.00149   0.00115   0.00264   1.91218
    A9        1.90954   0.00020   0.00149   0.00115   0.00264   1.91218
   A10        1.89274  -0.00015  -0.00133  -0.00183  -0.00316   1.88958
    D1        3.14159   0.00000  -0.00000   0.00001   0.00001  -3.14158
    D2        0.00000  -0.00000   0.00000  -0.00001  -0.00001  -0.00001
    D3        0.00000  -0.00000   0.00000  -0.00001  -0.00001  -0.00001
    D4       -2.09751  -0.00010  -0.00066  -0.00140  -0.00206  -2.09957
    D5        2.09751   0.00010   0.00067   0.00138   0.00204   2.09956
    D6        3.14159   0.00000  -0.00000   0.00001   0.00001  -3.14158
    D7        1.04408  -0.00010  -0.00067  -0.00138  -0.00204   1.04204
    D8       -1.04408   0.00010   0.00066   0.00140   0.00206  -1.04202
         Item               Value     Threshold  Converged?
 Maximum Force            0.002294     0.000450     NO 
 RMS     Force            0.000601     0.000300     NO 
 Maximum Displacement     0.007466     0.001800     NO 
 RMS     Displacement     0.002547     0.001200     NO 
 Predicted change in Energy=-1.308269D-05
 GradGradGradGradGradGradGradGradGradGradGradGradGradGradGradGradGradGrad

                          Input orientation:                          
 ---------------------------------------------------------------------
 Center     Atomic      Atomic             Coordinates (Angstroms)
 Number     Number       Type             X           Y           Z
 ---------------------------------------------------------------------
      1          6           0       -1.936130    1.048861    0.000005
      2          8           0       -1.403110    2.139707   -0.000002
      3          8           0       -1.158511   -0.085472   -0.000002
      4          6           0       -3.433111    0.811449    0.000001
      5          1           0       -1.729411   -0.868658   -0.000003
      6          1           0       -3.948791    1.778298   -0.000002
      7          1           0       -3.726951    0.236705    0.892797
      8          1           0       -3.726947    0.236701   -0.892793
 ---------------------------------------------------------------------
                    Distance matrix (angstroms):
                    1          2          3          4          5
     1  C    0.000000
     2  O    1.214107   0.000000
     3  O    1.375282   2.238581   0.000000
     4  C    1.515690   2.425937   2.445051   0.000000
     5  H    1.928629   3.026008   0.969179   2.392771   0.000000
     6  H    2.140767   2.571208   3.355488   1.095775   3.454276
     7  H    2.159564   3.133487   2.738206   1.101706   2.451343
     8  H    2.159564   3.133484   2.738199   1.101706   2.451335
                    6          7          8
     6  H    0.000000
     7  H    1.795219   0.000000
     8  H    1.795219   1.785590   0.000000
 Stoichiometry    C2H4O2
 Framework group  C1[X(C2H4O2)]
 Deg. of freedom    18
 Full point group                 C1      NOp   1
 Largest Abelian subgroup         C1      NOp   1
 Largest concise Abelian subgroup C1      NOp   1
                         Standard orientation:                         
 ---------------------------------------------------------------------
 Center     Atomic      Atomic             Coordinates (Angstroms)
 Number     Number       Type             X           Y           Z
 ---------------------------------------------------------------------
      1          6           0       -0.126818   -0.138488    0.000005
      2          8           0       -0.701487   -1.207979   -0.000002
      3          8           0       -0.860138    1.024973   -0.000002
      4          6           0        1.378201    0.041047    0.000001
      5          1           0       -0.259475    1.785573   -0.000003
      6          1           0        1.856232   -0.944959   -0.000002
      7          1           0        1.693976    0.604039    0.892797
      8          1           0        1.693972    0.604043   -0.892793
 ---------------------------------------------------------------------
 Rotational constants (GHZ):          10.8031747           9.4968220           5.2217793
 Standard basis: Aug-CC-pVDZ (5D, 7F)
 There are   136 symmetry adapted cartesian basis functions of A   symmetry.
 There are   128 symmetry adapted basis functions of A   symmetry.
   128 basis functions,   216 primitive gaussians,   136 cartesian basis functions
    16 alpha electrons       16 beta electrons
       nuclear repulsion energy       119.9455494234 Hartrees.
 NAtoms=    8 NActive=    8 NUniq=    8 SFac= 1.00D+00 NAtFMM=   60 NAOKFM=F Big=F
 Integral buffers will be    131072 words long.
 Raffenetti 1 integral format.
 Two-electron integral symmetry is turned on.
 One-electron integrals computed using PRISM.
 NBasis=   128 RedAO= T EigKep=  1.13D-04  NBF=   128
 NBsUse=   128 1.00D-06 EigRej= -1.00D+00 NBFU=   128
 Initial guess from the checkpoint file:  "/gscratch/scrubbed/gds001/Gau-8413.chk"
 B after Tr=    -0.000000   -0.000000   -0.000000
         Rot=    1.000000   -0.000000    0.000000    0.000383 Ang=  -0.04 deg.
 Keep R1 ints in memory in canonical form, NReq=40118646.
 Requested convergence on RMS density matrix=1.00D-08 within 128 cycles.
 Requested convergence on MAX density matrix=1.00D-06.
 Requested convergence on             energy=1.00D-06.
 No special actions if energy rises.
 SCF Done:  E(RHF) =  -227.837455836     A.U. after   10 cycles
            NFock= 10  Conv=0.26D-08     -V/T= 2.0022
 ExpMin= 2.97D-02 ExpMax= 1.17D+04 ExpMxC= 4.01D+02 IAcc=3 IRadAn=         5 AccDes= 0.00D+00
 HarFok:  IExCor=  205 AccDes= 0.00D+00 IRadAn=         5 IDoV=-2 UseB2=F ITyADJ=14
 ICtDFT= 12500011 ScaDFX=  1.000000  1.000000  1.000000  1.000000
 Range of M.O.s used for correlation:     5   128
 NBasis=   128 NAE=    16 NBE=    16 NFC=     4 NFV=     0
 NROrb=    124 NOA=    12 NOB=    12 NVA=   112 NVB=   112

 **** Warning!!: The largest alpha MO coefficient is  0.31465773D+02

 Fully direct method using O(ONN) memory.
 JobTyp=1 Pass  1:  I=   5 to  16 NPSUse= 28 ParTrn=T ParDer=T DoDerP=T.
 Spin components of T(2) and E(2):
     alpha-alpha T2 =       0.2739267239D-01 E2=     -0.8828996515D-01
     alpha-beta  T2 =       0.1513528519D+00 E2=     -0.5019241178D+00
     beta-beta   T2 =       0.2739267239D-01 E2=     -0.8828996515D-01
 ANorm=    0.1098243232D+01
 E2 =    -0.6785040481D+00 EUMP2 =    -0.22851595988438D+03
          IDoAtm=11111111
          Differentiating once with respect to electric field.
                with respect to dipole field.
          Differentiating once with respect to nuclear coordinates.
 Keep R1 ints in memory in canonical form, NReq=40122900.
          There are     1 degrees of freedom in the 1st order CPHF.  IDoFFX=0 NUNeed=     1.
 LinEq1:  Iter=  0 NonCon=     1 RMS=5.88D-03 Max=1.15D-01 NDo=     1
 AX will form     1 AO Fock derivatives at one time.
 LinEq1:  Iter=  1 NonCon=     1 RMS=1.82D-03 Max=2.55D-02 NDo=     1
 LinEq1:  Iter=  2 NonCon=     1 RMS=5.93D-04 Max=8.12D-03 NDo=     1
 LinEq1:  Iter=  3 NonCon=     1 RMS=1.93D-04 Max=2.74D-03 NDo=     1
 LinEq1:  Iter=  4 NonCon=     1 RMS=6.88D-05 Max=6.59D-04 NDo=     1
 LinEq1:  Iter=  5 NonCon=     1 RMS=2.32D-05 Max=2.86D-04 NDo=     1
 LinEq1:  Iter=  6 NonCon=     1 RMS=6.43D-06 Max=5.50D-05 NDo=     1
 LinEq1:  Iter=  7 NonCon=     1 RMS=1.26D-06 Max=1.17D-05 NDo=     1
 LinEq1:  Iter=  8 NonCon=     1 RMS=2.87D-07 Max=4.16D-06 NDo=     1
 LinEq1:  Iter=  9 NonCon=     1 RMS=8.92D-08 Max=1.09D-06 NDo=     1
 LinEq1:  Iter= 10 NonCon=     1 RMS=2.46D-08 Max=2.10D-07 NDo=     1
 LinEq1:  Iter= 11 NonCon=     1 RMS=6.21D-09 Max=5.40D-08 NDo=     1
 LinEq1:  Iter= 12 NonCon=     1 RMS=1.03D-09 Max=7.71D-09 NDo=     1
 LinEq1:  Iter= 13 NonCon=     1 RMS=1.14D-10 Max=6.48D-10 NDo=     1
 LinEq1:  Iter= 14 NonCon=     0 RMS=1.55D-11 Max=1.29D-10 NDo=     1
 Linear equations converged to 1.000D-10 1.000D-09 after    14 iterations.
 End of Minotr F.D. properties file   721 does not exist.
 End of Minotr F.D. properties file   722 does not exist.
 End of Minotr F.D. properties file   788 does not exist.
 Calling FoFJK, ICntrl=  10002127 FMM=F ISym2X=0 I1Cent= 0 IOpClX= 0 NMat=1 NMatS=1 NMatT=0.
 ***** Axes restored to original set *****
 -------------------------------------------------------------------
 Center     Atomic                   Forces (Hartrees/Bohr)
 Number     Number              X              Y              Z
 -------------------------------------------------------------------
      1        6          -0.000314062    0.000844818   -0.000002313
      2        8           0.000019170   -0.000360798    0.000000868
      3        8           0.000300566   -0.000446594    0.000000545
      4        6           0.000067313   -0.000186357    0.000000732
      5        1           0.000028995   -0.000001458    0.000000120
      6        1          -0.000139343   -0.000029932    0.000000040
      7        1           0.000018525    0.000090128    0.000002390
      8        1           0.000018837    0.000090193   -0.000002381
 -------------------------------------------------------------------
 Cartesian Forces:  Max     0.000844818 RMS     0.000233637

 GradGradGradGradGradGradGradGradGradGradGradGradGradGradGradGradGradGrad
 Berny optimization.
 Using GEDIIS/GDIIS optimizer.
 FormGI is forming the generalized inverse of G from B-inverse, IUseBI=4.
 Internal  Forces:  Max     0.000555895 RMS     0.000151008
 Search for a local minimum.
 Step number   4 out of a maximum of   35
 All quantities printed in internal units (Hartrees-Bohrs-Radians)
 Mixed Optimization -- En-DIIS/RFO-DIIS
 Swapping is turned off.
 Update second derivatives using D2CorX and points    1    2    3    4
 DE= -1.49D-05 DEPred=-1.31D-05 R= 1.14D+00
 TightC=F SS=  1.41D+00  RLast= 1.09D-02 DXNew= 7.1911D-01 3.2627D-02
 Trust test= 1.14D+00 RLast= 1.09D-02 DXMaxT set to 4.28D-01
 ITU=  1  1  1  0
     Eigenvalues ---    0.00786   0.01139   0.02334   0.07269   0.07514
     Eigenvalues ---    0.15991   0.16000   0.16017   0.16902   0.22950
     Eigenvalues ---    0.29037   0.34190   0.34489   0.34787   0.35635
     Eigenvalues ---    0.37591   0.52976   0.95152
 En-DIIS/RFO-DIIS/Sim-DIIS IScMMF=       -3 using points:     4    3
 RFO step:  Lambda=-1.88020415D-06.
 DidBck=F Rises=F RFO-DIIS coefs:    1.10265   -0.10265
 Iteration  1 RMS(Cart)=  0.00069993 RMS(Int)=  0.00000041
 Iteration  2 RMS(Cart)=  0.00000041 RMS(Int)=  0.00000005
 Variable       Old X    -DE/DX   Delta X   Delta X   Delta X     New X
                                 (Linear)    (Quad)   (Total)
    R1        2.29433  -0.00032  -0.00020  -0.00030  -0.00050   2.29383
    R2        2.59891   0.00056   0.00064   0.00116   0.00180   2.60071
    R3        2.86424   0.00004  -0.00029   0.00020  -0.00009   2.86415
    R4        1.83148  -0.00002   0.00007  -0.00004   0.00004   1.83152
    R5        2.07071   0.00004  -0.00008   0.00014   0.00006   2.07078
    R6        2.08192  -0.00005  -0.00007  -0.00007  -0.00014   2.08178
    R7        2.08192  -0.00005  -0.00007  -0.00007  -0.00014   2.08178
    A1        2.08613  -0.00017   0.00002  -0.00059  -0.00057   2.08556
    A2        2.18259   0.00024   0.00023   0.00092   0.00115   2.18374
    A3        2.01446  -0.00007  -0.00025  -0.00033  -0.00058   2.01388
    A4        1.91075   0.00004  -0.00033   0.00045   0.00012   1.91088
    A5        1.90349   0.00019  -0.00018   0.00118   0.00100   1.90449
    A6        1.92318  -0.00004  -0.00002  -0.00024  -0.00025   1.92293
    A7        1.92318  -0.00004  -0.00002  -0.00024  -0.00026   1.92292
    A8        1.91218  -0.00009   0.00027  -0.00063  -0.00036   1.91182
    A9        1.91218  -0.00009   0.00027  -0.00063  -0.00036   1.91182
   A10        1.88958   0.00006  -0.00032   0.00054   0.00022   1.88980
    D1       -3.14158  -0.00000   0.00000  -0.00004  -0.00004   3.14156
    D2       -0.00001   0.00000  -0.00000   0.00003   0.00003   0.00003
    D3       -0.00001   0.00000  -0.00000   0.00004   0.00004   0.00003
    D4       -2.09957   0.00001  -0.00021   0.00022   0.00001  -2.09956
    D5        2.09956  -0.00001   0.00021  -0.00015   0.00006   2.09962
    D6       -3.14158  -0.00000   0.00000  -0.00004  -0.00004   3.14156
    D7        1.04204   0.00001  -0.00021   0.00014  -0.00007   1.04197
    D8       -1.04202  -0.00001   0.00021  -0.00023  -0.00002  -1.04204
         Item               Value     Threshold  Converged?
 Maximum Force            0.000556     0.000450     NO 
 RMS     Force            0.000151     0.000300     YES
 Maximum Displacement     0.002402     0.001800     NO 
 RMS     Displacement     0.000700     0.001200     YES
 Predicted change in Energy=-9.401128D-07
 GradGradGradGradGradGradGradGradGradGradGradGradGradGradGradGradGradGrad

                          Input orientation:                          
 ---------------------------------------------------------------------
 Center     Atomic      Atomic             Coordinates (Angstroms)
 Number     Number       Type             X           Y           Z
 ---------------------------------------------------------------------
      1          6           0       -1.936269    1.049486   -0.000020
      2          8           0       -1.402396    2.139621    0.000007
      3          8           0       -1.158475   -0.085880    0.000007
      4          6           0       -3.433142    0.811684   -0.000003
      5          1           0       -1.729540   -0.868971    0.000010
      6          1           0       -3.950062    1.777909    0.000006
      7          1           0       -3.726529    0.236867    0.892802
      8          1           0       -3.726547    0.236874   -0.892806
 ---------------------------------------------------------------------
                    Distance matrix (angstroms):
                    1          2          3          4          5
     1  C    0.000000
     2  O    1.213843   0.000000
     3  O    1.376234   2.238828   0.000000
     4  C    1.515644   2.426385   2.445349   0.000000
     5  H    1.929563   3.026326   0.969199   2.393086   0.000000
     6  H    2.141486   2.573216   3.356586   1.095808   3.454951
     7  H    2.159284   3.133552   2.737910   1.101631   2.451105
     8  H    2.159282   3.133567   2.737934   1.101631   2.451132
                    6          7          8
     6  H    0.000000
     7  H    1.794954   0.000000
     8  H    1.794954   1.785608   0.000000
 Stoichiometry    C2H4O2
 Framework group  C1[X(C2H4O2)]
 Deg. of freedom    18
 Full point group                 C1      NOp   1
 Largest Abelian subgroup         C1      NOp   1
 Largest concise Abelian subgroup C1      NOp   1
                         Standard orientation:                         
 ---------------------------------------------------------------------
 Center     Atomic      Atomic             Coordinates (Angstroms)
 Number     Number       Type             X           Y           Z
 ---------------------------------------------------------------------
      1          6           0       -0.126571   -0.139092   -0.000020
      2          8           0       -0.702113   -1.207814    0.000008
      3          8           0       -0.859974    1.025442    0.000007
      4          6           0        1.378364    0.040770   -0.000003
      5          1           0       -0.259115    1.785913    0.000010
      6          1           0        1.857613   -0.944682    0.000007
      7          1           0        1.693713    0.603838    0.892802
      8          1           0        1.693731    0.603831   -0.892806
 ---------------------------------------------------------------------
 Rotational constants (GHZ):          10.8006494           9.4937451           5.2202625
 Standard basis: Aug-CC-pVDZ (5D, 7F)
 There are   136 symmetry adapted cartesian basis functions of A   symmetry.
 There are   128 symmetry adapted basis functions of A   symmetry.
   128 basis functions,   216 primitive gaussians,   136 cartesian basis functions
    16 alpha electrons       16 beta electrons
       nuclear repulsion energy       119.9304528638 Hartrees.
 NAtoms=    8 NActive=    8 NUniq=    8 SFac= 1.00D+00 NAtFMM=   60 NAOKFM=F Big=F
 Integral buffers will be    131072 words long.
 Raffenetti 1 integral format.
 Two-electron integral symmetry is turned on.
 One-electron integrals computed using PRISM.
 NBasis=   128 RedAO= T EigKep=  1.13D-04  NBF=   128
 NBsUse=   128 1.00D-06 EigRej= -1.00D+00 NBFU=   128
 Initial guess from the checkpoint file:  "/gscratch/scrubbed/gds001/Gau-8413.chk"
 B after Tr=     0.000000    0.000000    0.000000
         Rot=    1.000000    0.000000   -0.000002    0.000113 Ang=   0.01 deg.
 Keep R1 ints in memory in canonical form, NReq=40118646.
 Requested convergence on RMS density matrix=1.00D-08 within 128 cycles.
 Requested convergence on MAX density matrix=1.00D-06.
 Requested convergence on             energy=1.00D-06.
 No special actions if energy rises.
 SCF Done:  E(RHF) =  -227.837431078     A.U. after    8 cycles
            NFock=  8  Conv=0.84D-08     -V/T= 2.0022
 ExpMin= 2.97D-02 ExpMax= 1.17D+04 ExpMxC= 4.01D+02 IAcc=3 IRadAn=         5 AccDes= 0.00D+00
 HarFok:  IExCor=  205 AccDes= 0.00D+00 IRadAn=         5 IDoV=-2 UseB2=F ITyADJ=14
 ICtDFT= 12500011 ScaDFX=  1.000000  1.000000  1.000000  1.000000
 Range of M.O.s used for correlation:     5   128
 NBasis=   128 NAE=    16 NBE=    16 NFC=     4 NFV=     0
 NROrb=    124 NOA=    12 NOB=    12 NVA=   112 NVB=   112

 **** Warning!!: The largest alpha MO coefficient is  0.31486257D+02

 Fully direct method using O(ONN) memory.
 JobTyp=1 Pass  1:  I=   5 to  16 NPSUse= 28 ParTrn=T ParDer=T DoDerP=T.
 Spin components of T(2) and E(2):
     alpha-alpha T2 =       0.2739581367D-01 E2=     -0.8829194070D-01
     alpha-beta  T2 =       0.1513714078D+00 E2=     -0.5019460523D+00
     beta-beta   T2 =       0.2739581367D-01 E2=     -0.8829194070D-01
 ANorm=    0.1098254540D+01
 E2 =    -0.6785299337D+00 EUMP2 =    -0.22851596101167D+03
          IDoAtm=11111111
          Differentiating once with respect to electric field.
                with respect to dipole field.
          Differentiating once with respect to nuclear coordinates.
 Keep R1 ints in memory in canonical form, NReq=40122900.
          There are     1 degrees of freedom in the 1st order CPHF.  IDoFFX=0 NUNeed=     1.
 LinEq1:  Iter=  0 NonCon=     1 RMS=5.88D-03 Max=1.14D-01 NDo=     1
 AX will form     1 AO Fock derivatives at one time.
 LinEq1:  Iter=  1 NonCon=     1 RMS=1.82D-03 Max=2.55D-02 NDo=     1
 LinEq1:  Iter=  2 NonCon=     1 RMS=5.93D-04 Max=8.11D-03 NDo=     1
 LinEq1:  Iter=  3 NonCon=     1 RMS=1.93D-04 Max=2.75D-03 NDo=     1
 LinEq1:  Iter=  4 NonCon=     1 RMS=6.89D-05 Max=6.57D-04 NDo=     1
 LinEq1:  Iter=  5 NonCon=     1 RMS=2.33D-05 Max=2.87D-04 NDo=     1
 LinEq1:  Iter=  6 NonCon=     1 RMS=6.46D-06 Max=5.64D-05 NDo=     1
 LinEq1:  Iter=  7 NonCon=     1 RMS=1.27D-06 Max=1.20D-05 NDo=     1
 LinEq1:  Iter=  8 NonCon=     1 RMS=2.91D-07 Max=4.22D-06 NDo=     1
 LinEq1:  Iter=  9 NonCon=     1 RMS=9.00D-08 Max=1.08D-06 NDo=     1
 LinEq1:  Iter= 10 NonCon=     1 RMS=2.47D-08 Max=2.05D-07 NDo=     1
 LinEq1:  Iter= 11 NonCon=     1 RMS=6.22D-09 Max=5.39D-08 NDo=     1
 LinEq1:  Iter= 12 NonCon=     1 RMS=1.03D-09 Max=7.71D-09 NDo=     1
 LinEq1:  Iter= 13 NonCon=     1 RMS=1.14D-10 Max=6.53D-10 NDo=     1
 LinEq1:  Iter= 14 NonCon=     0 RMS=1.55D-11 Max=1.30D-10 NDo=     1
 Linear equations converged to 1.000D-10 1.000D-09 after    14 iterations.
 End of Minotr F.D. properties file   721 does not exist.
 End of Minotr F.D. properties file   722 does not exist.
 End of Minotr F.D. properties file   788 does not exist.
 Calling FoFJK, ICntrl=  10002127 FMM=F ISym2X=0 I1Cent= 0 IOpClX= 0 NMat=1 NMatS=1 NMatT=0.
 ***** Axes restored to original set *****
 -------------------------------------------------------------------
 Center     Atomic                   Forces (Hartrees/Bohr)
 Number     Number              X              Y              Z
 -------------------------------------------------------------------
      1        6          -0.000051262    0.000132400    0.000008698
      2        8           0.000030413   -0.000092106   -0.000003267
      3        8           0.000011625   -0.000044279   -0.000002056
      4        6           0.000043458   -0.000116688   -0.000002736
      5        1           0.000009370    0.000032116   -0.000000452
      6        1          -0.000056968   -0.000000680   -0.000000149
      7        1           0.000007262    0.000044738    0.000025314
      8        1           0.000006101    0.000044497   -0.000025353
 -------------------------------------------------------------------
 Cartesian Forces:  Max     0.000132400 RMS     0.000048727

 GradGradGradGradGradGradGradGradGradGradGradGradGradGradGradGradGradGrad
 Berny optimization.
 Using GEDIIS/GDIIS optimizer.
 FormGI is forming the generalized inverse of G from B-inverse, IUseBI=4.
 Internal  Forces:  Max     0.000101599 RMS     0.000036980
 Search for a local minimum.
 Step number   5 out of a maximum of   35
 All quantities printed in internal units (Hartrees-Bohrs-Radians)
 Mixed Optimization -- En-DIIS/RFO-DIIS
 Swapping is turned off.
 Update second derivatives using D2CorX and points    1    2    3    4    5
 DE= -1.13D-06 DEPred=-9.40D-07 R= 1.20D+00
 TightC=F SS=  1.41D+00  RLast= 2.65D-03 DXNew= 7.1911D-01 7.9418D-03
 Trust test= 1.20D+00 RLast= 2.65D-03 DXMaxT set to 4.28D-01
 ITU=  1  1  1  1  0
     Eigenvalues ---    0.00786   0.01139   0.02334   0.07407   0.07509
     Eigenvalues ---    0.14685   0.16000   0.16038   0.16153   0.19841
     Eigenvalues ---    0.29054   0.34160   0.34489   0.34846   0.35505
     Eigenvalues ---    0.41008   0.52979   0.94442
 En-DIIS/RFO-DIIS/Sim-DIIS IScMMF=       -3 using points:     5    4    3
 RFO step:  Lambda=-1.99394433D-07.
 DidBck=F Rises=F RFO-DIIS coefs:    1.39349   -0.43302    0.03953
 Iteration  1 RMS(Cart)=  0.00038932 RMS(Int)=  0.00000012
 Iteration  2 RMS(Cart)=  0.00000011 RMS(Int)=  0.00000003
 Variable       Old X    -DE/DX   Delta X   Delta X   Delta X     New X
                                 (Linear)    (Quad)   (Total)
    R1        2.29383  -0.00007  -0.00012  -0.00001  -0.00013   2.29370
    R2        2.60071   0.00002   0.00046  -0.00022   0.00024   2.60095
    R3        2.86415   0.00000   0.00008  -0.00012  -0.00005   2.86411
    R4        1.83152  -0.00003  -0.00001  -0.00004  -0.00005   1.83147
    R5        2.07078   0.00003   0.00006   0.00003   0.00009   2.07087
    R6        2.08178  -0.00000  -0.00003   0.00001  -0.00002   2.08176
    R7        2.08178  -0.00000  -0.00003   0.00001  -0.00002   2.08176
    A1        2.08556  -0.00005  -0.00023   0.00001  -0.00022   2.08535
    A2        2.18374   0.00010   0.00036   0.00021   0.00058   2.18432
    A3        2.01388  -0.00005  -0.00013  -0.00023  -0.00036   2.01352
    A4        1.91088  -0.00002   0.00017  -0.00032  -0.00015   1.91073
    A5        1.90449   0.00007   0.00046  -0.00004   0.00043   1.90492
    A6        1.92293  -0.00002  -0.00009  -0.00005  -0.00014   1.92279
    A7        1.92292  -0.00002  -0.00009  -0.00003  -0.00012   1.92280
    A8        1.91182  -0.00004  -0.00025  -0.00010  -0.00034   1.91147
    A9        1.91182  -0.00004  -0.00025  -0.00010  -0.00035   1.91147
   A10        1.88980   0.00005   0.00021   0.00031   0.00052   1.89032
    D1        3.14156   0.00000  -0.00002   0.00020   0.00019  -3.14144
    D2        0.00003  -0.00000   0.00001  -0.00016  -0.00014  -0.00012
    D3        0.00003  -0.00000   0.00002  -0.00018  -0.00017  -0.00014
    D4       -2.09956   0.00001   0.00009  -0.00001   0.00007  -2.09948
    D5        2.09962  -0.00002  -0.00006  -0.00035  -0.00040   2.09922
    D6        3.14156   0.00000  -0.00002   0.00020   0.00018  -3.14144
    D7        1.04197   0.00002   0.00005   0.00037   0.00042   1.04240
    D8       -1.04204  -0.00001  -0.00009   0.00004  -0.00005  -1.04209
         Item               Value     Threshold  Converged?
 Maximum Force            0.000102     0.000450     YES
 RMS     Force            0.000037     0.000300     YES
 Maximum Displacement     0.001021     0.001800     YES
 RMS     Displacement     0.000389     0.001200     YES
 Predicted change in Energy=-9.929530D-08
 Optimization completed.
    -- Stationary point found.
                           ----------------------------
                           !   Optimized Parameters   !
                           ! (Angstroms and Degrees)  !
 --------------------------                            --------------------------
 ! Name  Definition              Value          Derivative Info.                !
 --------------------------------------------------------------------------------
 ! R1    R(1,2)                  1.2138         -DE/DX =   -0.0001              !
 ! R2    R(1,3)                  1.3762         -DE/DX =    0.0                 !
 ! R3    R(1,4)                  1.5156         -DE/DX =    0.0                 !
 ! R4    R(3,5)                  0.9692         -DE/DX =    0.0                 !
 ! R5    R(4,6)                  1.0958         -DE/DX =    0.0                 !
 ! R6    R(4,7)                  1.1016         -DE/DX =    0.0                 !
 ! R7    R(4,8)                  1.1016         -DE/DX =    0.0                 !
 ! A1    A(2,1,3)              119.494          -DE/DX =   -0.0001              !
 ! A2    A(2,1,4)              125.1193         -DE/DX =    0.0001              !
 ! A3    A(3,1,4)              115.3866         -DE/DX =    0.0                 !
 ! A4    A(1,3,5)              109.4853         -DE/DX =    0.0                 !
 ! A5    A(1,4,6)              109.1194         -DE/DX =    0.0001              !
 ! A6    A(1,4,7)              110.1756         -DE/DX =    0.0                 !
 ! A7    A(1,4,8)              110.1754         -DE/DX =    0.0                 !
 ! A8    A(6,4,7)              109.5389         -DE/DX =    0.0                 !
 ! A9    A(6,4,8)              109.539          -DE/DX =    0.0                 !
 ! A10   A(7,4,8)              108.2776         -DE/DX =    0.0                 !
 ! D1    D(2,1,3,5)           -180.0019         -DE/DX =    0.0                 !
 ! D2    D(4,1,3,5)              0.0015         -DE/DX =    0.0                 !
 ! D3    D(2,1,4,6)              0.0018         -DE/DX =    0.0                 !
 ! D4    D(2,1,4,7)           -120.2958         -DE/DX =    0.0                 !
 ! D5    D(2,1,4,8)            120.2993         -DE/DX =    0.0                 !
 ! D6    D(3,1,4,6)           -180.0019         -DE/DX =    0.0                 !
 ! D7    D(3,1,4,7)             59.7006         -DE/DX =    0.0                 !
 ! D8    D(3,1,4,8)            -59.7043         -DE/DX =    0.0                 !
 --------------------------------------------------------------------------------
 GradGradGradGradGradGradGradGradGradGradGradGradGradGradGradGradGradGrad

                          Input orientation:                          
 ---------------------------------------------------------------------
 Center     Atomic      Atomic             Coordinates (Angstroms)
 Number     Number       Type             X           Y           Z
 ---------------------------------------------------------------------
      1          6           0       -1.936269    1.049486   -0.000020
      2          8           0       -1.402396    2.139621    0.000007
      3          8           0       -1.158475   -0.085880    0.000007
      4          6           0       -3.433142    0.811684   -0.000003
      5          1           0       -1.729540   -0.868971    0.000010
      6          1           0       -3.950062    1.777909    0.000006
      7          1           0       -3.726529    0.236867    0.892802
      8          1           0       -3.726547    0.236874   -0.892806
 ---------------------------------------------------------------------
                    Distance matrix (angstroms):
                    1          2          3          4          5
     1  C    0.000000
     2  O    1.213843   0.000000
     3  O    1.376234   2.238828   0.000000
     4  C    1.515644   2.426385   2.445349   0.000000
     5  H    1.929563   3.026326   0.969199   2.393086   0.000000
     6  H    2.141486   2.573216   3.356586   1.095808   3.454951
     7  H    2.159284   3.133552   2.737910   1.101631   2.451105
     8  H    2.159282   3.133567   2.737934   1.101631   2.451132
                    6          7          8
     6  H    0.000000
     7  H    1.794954   0.000000
     8  H    1.794954   1.785608   0.000000
 Stoichiometry    C2H4O2
 Framework group  C1[X(C2H4O2)]
 Deg. of freedom    18
 Full point group                 C1      NOp   1
 Largest Abelian subgroup         C1      NOp   1
 Largest concise Abelian subgroup C1      NOp   1
                         Standard orientation:                         
 ---------------------------------------------------------------------
 Center     Atomic      Atomic             Coordinates (Angstroms)
 Number     Number       Type             X           Y           Z
 ---------------------------------------------------------------------
      1          6           0       -0.126571   -0.139092   -0.000020
      2          8           0       -0.702113   -1.207814    0.000008
      3          8           0       -0.859974    1.025442    0.000007
      4          6           0        1.378364    0.040770   -0.000003
      5          1           0       -0.259115    1.785913    0.000010
      6          1           0        1.857613   -0.944682    0.000007
      7          1           0        1.693713    0.603838    0.892802
      8          1           0        1.693731    0.603831   -0.892806
 ---------------------------------------------------------------------
 Rotational constants (GHZ):          10.8006494           9.4937451           5.2202625

 **********************************************************************

            Population analysis using the SCF density.

 **********************************************************************

 Orbital symmetries:
       Occupied  (A) (A) (A) (A) (A) (A) (A) (A) (A) (A) (A) (A)
                 (A) (A) (A) (A)
       Virtual   (A) (A) (A) (A) (A) (A) (A) (A) (A) (A) (A) (A)
                 (A) (A) (A) (A) (A) (A) (A) (A) (A) (A) (A) (A)
                 (A) (A) (A) (A) (A) (A) (A) (A) (A) (A) (A) (A)
                 (A) (A) (A) (A) (A) (A) (A) (A) (A) (A) (A) (A)
                 (A) (A) (A) (A) (A) (A) (A) (A) (A) (A) (A) (A)
                 (A) (A) (A) (A) (A) (A) (A) (A) (A) (A) (A) (A)
[...]
                    cm^-1                     MHz
  D J  :    0.3193773472D-06         0.9574691993D-02
  D JK :   -0.4385801680D-06        -0.1314830266D-01
  D K  :    0.1464964919D-06         0.4391854341D-02
  d 1  :   -0.3505755457D-08        -0.1050999046D-03
  d 2  :    0.1957982171D-07         0.5869882878D-03


 Effective Rotational Constants
 (Include Terms due to Quartic Centrifugal Distortion Constants)
 ---------------------------------------------------------------
           Be in cm^-1             B(S) in cm^-1            B(S) in MHz
 a          0.360270884             0.360270900              10800.64986
 b          0.316677249             0.316677047               9493.73905
 c          0.174129214             0.174129360               5220.26689

 Wilson Centrifugal Distortion Constants
 ---------------------------------------
                cm^-1                    MHz
 DJ     0.2872292146D-06         0.8610915227D-02
 DJK   -0.4901325582D-06        -0.1469380444D-01
 DK     0.2301970147D-06         0.6901132885D-02

 Nielsen Centrifugal Distortion Constants
 ----------------------------------------
                cm^-1                    MHz
 DJ     0.3229739785D-06         0.9682516288D-02
 DJK   -0.4601599558D-06        -0.1379524842D-01
 DK     0.1644796485D-06         0.4930975812D-02
 dJ     0.3505755457D-08         0.1050999046D-03
 R5     0.2711841022D-07         0.8129894857D-03
 R6     0.2137813737D-07         0.6409004349D-03

     ==================================================
       Average Coordinates and Mean Square Amplitudes
     ==================================================

 NOTE: Temperature is given in K between parentheses
       For Cartesian and internal coords., units are given between
       parentheses next to each label

 Mean Square Amplitudes of Normal Coordinates (in amu.bohr^2)
 -----------------------------------------------------------
 Mode    <Q^2> (0)    <Q^2> (298.15)    <Q^2> (298.15) class.
    1     0.015852       0.015852          0.068298
    2     0.018725       0.018725          0.095292
    3     0.019042       0.019042          0.098552
    4     0.019578       0.019578          0.104176
    5     0.033190       0.033200          0.299397
    6     0.040730       0.040795          0.450887
    7     0.041161       0.041232          0.460469
    8     0.043459       0.043568          0.513335
    9     0.046370       0.046547          0.584406
   10     0.050139       0.050445          0.683253
   11     0.057338       0.058066          0.893557
   12     0.061088       0.062148          1.014247
   13     0.070064       0.072317          1.334233
   14     0.101599       0.113951          2.805513
   15     0.102331       0.115046          2.846122
   16     0.129371       0.160009          4.548949
   17     0.140194       0.180584          5.341907
   18     0.525220       1.947326         74.975596

 Mean Square Amplitudes of Cartesian Coordinates
 -----------------------------------------------
    Label        <(S-Se)^2>^1/2 (0)    <(S-Se)^2>^1/2 (298.15)
 X(1)  (Angs)        0.030613              0.031017
 Y(1)  (Angs)        0.030916              0.032301
 Z(1)  (Angs)        0.040905              0.044004
 X(2)  (Angs)        0.029319              0.031778
 Y(2)  (Angs)        0.027411              0.028497
 Z(2)  (Angs)        0.023447              0.039684
 X(3)  (Angs)        0.030154              0.033076
 Y(3)  (Angs)        0.028657              0.029645
 Z(3)  (Angs)        0.022674              0.033391
 X(4)  (Angs)        0.035968              0.037256
 Y(4)  (Angs)        0.030386              0.032728
 Z(4)  (Angs)        0.018458              0.018720
 X(5)  (Angs)        0.108078              0.111645
 Y(5)  (Angs)        0.090547              0.091279
 Z(5)  (Angs)        0.180933              0.209288
 X(6)  (Angs)        0.119835              0.123382
 Y(6)  (Angs)        0.089383              0.093164
 Z(6)  (Angs)        0.218934              0.393805
 X(7)  (Angs)        0.126275              0.130451
 Y(7)  (Angs)        0.205381              0.368170
 Z(7)  (Angs)        0.139807              0.236878
 X(8)  (Angs)        0.126275              0.130450
 Y(8)  (Angs)        0.205383              0.368175
 Z(8)  (Angs)        0.139806              0.236875
 ***** Axes restored to original set *****
 -------------------------------------------------------------------
 Center     Atomic                   Forces (Hartrees/Bohr)
 Number     Number              X              Y              Z
 -------------------------------------------------------------------
      1        6          -0.000051212    0.000132446    0.000008697
      2        8           0.000030385   -0.000092166   -0.000003265
      3        8           0.000011607   -0.000044269   -0.000002055
      4        6           0.000043464   -0.000116693   -0.000002738
      5        1           0.000009372    0.000032122   -0.000000452
      6        1          -0.000056973   -0.000000676   -0.000000149
      7        1           0.000007260    0.000044738    0.000025318
      8        1           0.000006098    0.000044497   -0.000025356
 -------------------------------------------------------------------
 Cartesian Forces:  Max     0.000132446 RMS     0.000048735
 FormGI is forming the generalized inverse of G from B-inverse, IUseBI=4.

 GradGradGradGradGradGradGradGradGradGradGradGradGradGradGradGradGradGrad
 Berny optimization.
 Internal  Forces:  Max     0.000101602 RMS     0.000036986
 Search for a local minimum.
 Step number   1 out of a maximum of    2
 All quantities printed in internal units (Hartrees-Bohrs-Radians)
 Second derivative matrix not updated -- analytic derivatives used.
 ITU=  0
     Eigenvalues ---    0.00089   0.01131   0.04529   0.05529   0.05630
     Eigenvalues ---    0.12182   0.12837   0.13999   0.16334   0.20762
     Eigenvalues ---    0.24574   0.33700   0.34785   0.34921   0.36201
     Eigenvalues ---    0.38643   0.52038   0.85013
 Angle between quadratic step and forces=  30.14 degrees.
 Linear search not attempted -- first point.
 Iteration  1 RMS(Cart)=  0.00041281 RMS(Int)=  0.00000012
 Iteration  2 RMS(Cart)=  0.00000012 RMS(Int)=  0.00000001
 Variable       Old X    -DE/DX   Delta X   Delta X   Delta X     New X
                                 (Linear)    (Quad)   (Total)
    R1        2.29383  -0.00007   0.00000  -0.00012  -0.00012   2.29371
    R2        2.60071   0.00002   0.00000   0.00020   0.00020   2.60091
    R3        2.86415   0.00000   0.00000  -0.00002  -0.00002   2.86413
    R4        1.83152  -0.00003   0.00000  -0.00006  -0.00006   1.83146
    R5        2.07078   0.00003   0.00000   0.00011   0.00011   2.07088
    R6        2.08178  -0.00000   0.00000  -0.00003  -0.00003   2.08175
    R7        2.08178  -0.00000   0.00000  -0.00003  -0.00003   2.08175
    A1        2.08556  -0.00005   0.00000  -0.00020  -0.00020   2.08536
    A2        2.18374   0.00010   0.00000   0.00058   0.00058   2.18433
    A3        2.01388  -0.00005   0.00000  -0.00038  -0.00038   2.01349
    A4        1.91088  -0.00002   0.00000  -0.00010  -0.00010   1.91078
    A5        1.90449   0.00007   0.00000   0.00048   0.00048   1.90497
    A6        1.92293  -0.00002   0.00000  -0.00015  -0.00015   1.92278
    A7        1.92292  -0.00002   0.00000  -0.00015  -0.00015   1.92278
    A8        1.91182  -0.00004   0.00000  -0.00041  -0.00041   1.91141
    A9        1.91182  -0.00004   0.00000  -0.00041  -0.00041   1.91141
   A10        1.88980   0.00005   0.00000   0.00063   0.00063   1.89043
    D1        3.14156   0.00000   0.00000   0.00003   0.00003   3.14159
    D2        0.00003  -0.00000   0.00000  -0.00003  -0.00003  -0.00000
    D3        0.00003  -0.00000   0.00000  -0.00003  -0.00003  -0.00000
    D4       -2.09956   0.00001   0.00000   0.00026   0.00026  -2.09930
    D5        2.09962  -0.00002   0.00000  -0.00032  -0.00032   2.09930
    D6        3.14156   0.00000   0.00000   0.00003   0.00003  -3.14159
    D7        1.04197   0.00002   0.00000   0.00033   0.00033   1.04230
    D8       -1.04204  -0.00001   0.00000  -0.00026  -0.00026  -1.04230
         Item               Value     Threshold  Converged?
 Maximum Force            0.000102     0.000450     YES
 RMS     Force            0.000037     0.000300     YES
 Maximum Displacement     0.001128     0.001800     YES
 RMS     Displacement     0.000413     0.001200     YES
 Predicted change in Energy=-1.119831D-07
 Optimization completed.
    -- Stationary point found.
                           ----------------------------
                           !   Optimized Parameters   !
                           ! (Angstroms and Degrees)  !
 --------------------------                            --------------------------
 ! Name  Definition              Value          Derivative Info.                !
 --------------------------------------------------------------------------------
 ! R1    R(1,2)                  1.2138         -DE/DX =   -0.0001              !
 ! R2    R(1,3)                  1.3762         -DE/DX =    0.0                 !
 ! R3    R(1,4)                  1.5156         -DE/DX =    0.0                 !
 ! R4    R(3,5)                  0.9692         -DE/DX =    0.0                 !
 ! R5    R(4,6)                  1.0958         -DE/DX =    0.0                 !
 ! R6    R(4,7)                  1.1016         -DE/DX =    0.0                 !
 ! R7    R(4,8)                  1.1016         -DE/DX =    0.0                 !
 ! A1    A(2,1,3)              119.494          -DE/DX =   -0.0001              !
 ! A2    A(2,1,4)              125.1193         -DE/DX =    0.0001              !
 ! A3    A(3,1,4)              115.3866         -DE/DX =    0.0                 !
 ! A4    A(1,3,5)              109.4853         -DE/DX =    0.0                 !
 ! A5    A(1,4,6)              109.1194         -DE/DX =    0.0001              !
 ! A6    A(1,4,7)              110.1756         -DE/DX =    0.0                 !
 ! A7    A(1,4,8)              110.1754         -DE/DX =    0.0                 !
 ! A8    A(6,4,7)              109.5389         -DE/DX =    0.0                 !
 ! A9    A(6,4,8)              109.539          -DE/DX =    0.0                 !
 ! A10   A(7,4,8)              108.2776         -DE/DX =    0.0                 !
 ! D1    D(2,1,3,5)            179.9981         -DE/DX =    0.0                 !
 ! D2    D(4,1,3,5)              0.0015         -DE/DX =    0.0                 !
 ! D3    D(2,1,4,6)              0.0018         -DE/DX =    0.0                 !
 ! D4    D(2,1,4,7)           -120.2958         -DE/DX =    0.0                 !
 ! D5    D(2,1,4,8)            120.2993         -DE/DX =    0.0                 !
 ! D6    D(3,1,4,6)           -180.0019         -DE/DX =    0.0                 !
 ! D7    D(3,1,4,7)             59.7006         -DE/DX =    0.0                 !
 ! D8    D(3,1,4,8)            -59.7043         -DE/DX =    0.0                 !
 --------------------------------------------------------------------------------
 GradGradGradGradGradGradGradGradGradGradGradGradGradGradGradGradGradGrad


 ----------------------------------------------------------------------

 Electric dipole moment (input orientation):
 (Debye = 10**-18 statcoulomb cm , SI units = C m)
                  (au)            (Debye)         (10**-30 SI)
   Tot        0.170373D+01      0.433045D+01      0.144448D+02
   x         -0.126083D+01     -0.320470D+01     -0.106897D+02
   y         -0.114587D+01     -0.291251D+01     -0.971510D+01
   z         -0.125167D-04     -0.318142D-04     -0.106121D-03

 Dipole polarizability, Alpha (input orientation).
 (esu units = cm**3 , SI units = C**2 m**2 J**-1)
 Alpha(0;0):
               (au)            (10**-24 esu)      (10**-40 SI)
   iso        0.345338D+02      0.511738D+01      0.569386D+01
   aniso      0.125621D+02      0.186151D+01      0.207121D+01
   xx         0.366245D+02      0.542718D+01      0.603856D+01
   yx         0.165073D+01      0.244613D+00      0.272169D+00
   yy         0.403149D+02      0.597405D+01      0.664702D+01
   zx         0.878482D-04      0.130178D-04      0.144842D-04
   zy         0.421883D-04      0.625167D-05      0.695592D-05
   zz         0.266621D+02      0.395092D+01      0.439599D+01

 ----------------------------------------------------------------------

 Dipole orientation:
     6         -2.64226226          2.90729490          1.37395376
     8         -3.21121551          3.53338119         -0.75817442
     8         -0.90947710          1.00075503          1.72924160
     6         -3.69809462          4.06912431          3.76952079
     1         -0.66106870          0.72745355          3.52313930
     1         -5.04874415          5.55529321          3.26438011
     1         -2.15966624          4.88491124          4.91037222
     1         -4.65680547          2.61549203          4.91041410

 Electric dipole moment (dipole orientation):
 (Debye = 10**-18 statcoulomb cm , SI units = C m)
                  (au)            (Debye)         (10**-30 SI)
   Tot        0.170373D+01      0.433045D+01      0.144448D+02
   x          0.000000D+00      0.000000D+00      0.000000D+00
   y          0.000000D+00      0.000000D+00      0.000000D+00
   z          0.170373D+01      0.433045D+01      0.144448D+02

 Dipole polarizability, Alpha (dipole orientation).
 (esu units = cm**3 , SI units = C**2 m**2 J**-1)
 Alpha(0;0):
               (au)            (10**-24 esu)      (10**-40 SI)
   iso        0.345338D+02      0.511738D+01      0.569386D+01
   aniso      0.125621D+02      0.186151D+01      0.207121D+01
   xx         0.313395D+02      0.464403D+01      0.516719D+01
   yx        -0.514655D+01     -0.762640D+00     -0.848552D+00
   yy         0.323250D+02      0.479006D+01      0.532967D+01
   zx         0.134119D+01      0.198744D+00      0.221133D+00
   zy        -0.147574D+01     -0.218682D+00     -0.243316D+00
   zz         0.399370D+02      0.591805D+01      0.658472D+01

 ----------------------------------------------------------------------
 1\1\GINC-N2108\Freq\RMP2-FC\Aug-CC-pVDZ\C2H4O2\GDS001\20-Mar-2023\0\\#
 N Geom=AllCheck Guess=TCheck SCRF=Check GenChk RMP2(FC)/Aug-CC-pVDZ Fr
 eq\\blah\\0,1\C,-1.9362694106,1.0494857212,-0.0000204659\O,-1.40239577
 74,2.139620797,0.0000073716\O,-1.1584748791,-0.0858801455,0.000006811\
 C,-3.4331422633,0.8116843662,-0.0000032293\H,-1.7295404331,-0.86897096
 36,0.0000096489\H,-3.9500618813,1.777908876,0.0000060261\H,-3.72652872
 91,0.2368671881,0.892801682\H,-3.726547145,0.236874007,-0.8928062659\\
 Version=ES64L-G16RevA.03\State=1-A\HF=-227.8374311\MP2=-228.515961\RMS
 D=2.393e-09\RMSF=4.874e-05\ZeroPoint=0.061447\Thermal=0.0660307\Dipole
 =-1.260826,-1.1458707,-0.0000125\DipoleDeriv=1.2109539,-0.183738,-0.00
 00022,-0.1297821,1.8404303,-0.0000137,0.0000006,-0.0000203,0.2124541,-
 0.6325206,-0.2770194,0.0000042,-0.0748946,-0.9809181,0.0000103,-0.0000
 044,-0.0000099,-0.3302726,-0.5976029,0.5641053,0.0000015,0.3354316,-1.
 1852326,0.0000035,-0.000007,0.0000219,-0.3633716,-0.2777198,-0.0269927
 ,0.0000014,-0.0882431,-0.0323755,0.0000021,0.0000154,0.0000063,0.10898
 08,0.2057405,-0.0698617,-0.0000018,-0.0887143,0.2988293,-0.0000012,-0.
 0000019,0.0000033,0.3128004,0.0281698,0.0159296,-0.0000003,0.071282,-0
 .0090997,-0.0000002,0.0000018,-0.0000005,0.0841219,0.0314883,-0.011210
 7,-0.0086138,-0.0125377,0.0341831,0.0639752,0.0336304,0.0753806,-0.012
 3545,0.0314908,-0.0112124,0.008611,-0.0125419,0.0341832,-0.063976,-0.0
 336349,-0.0753813,-0.0123585\Polar=36.6244556,1.6507337,40.3148682,0.0
 000878,0.0000422,26.6621435\PG=C01 [X(C2H4O2)]\NImag=0\\0.65297337,0.2
 0769507,0.86535595,0.00000776,0.00000862,0.21862898,-0.24565508,-0.256
 59249,-0.00000579,0.23725971,-0.26710210,-0.57697084,-0.00001095,0.285
 75054,0.69126933,-0.00000735,-0.00001239,-0.07386361,0.00000694,0.0000
 1253,0.02955950,-0.18711146,0.04154242,-0.00000135,0.03301950,-0.00694
 076,0.00000001,0.40132325,0.10843868,-0.16990969,0.00000247,0.01182518
 ,-0.09704841,0.00000010,0.12150477,0.60461753,-0.00000405,0.00000217,-
 0.04844476,0.00000029,-0.00000029,0.01320476,0.00000301,-0.00000436,0.
 02365477,-0.21301516,-0.00770576,-0.00000060,-0.01774369,-0.01750997,0
 .00000055,-0.02344032,0.00525505,0.00000073,0.49196200,-0.01196742,-0.
 07876757,0.00000011,-0.04225181,-0.01468956,-0.00000047,0.03827990,-0.
 00598297,0.00000066,-0.03168996,0.60833504,0.00000291,0.00000071,-0.08
 834368,-0.00000134,-0.00000119,0.02566778,-0.00000087,0.00000051,0.014
 48534,0.00000174,0.00000008,0.54255802,0.01446854,0.02086202,-0.000000
 14,-0.00030329,0.00850254,0.00000003,-0.21654511,-0.25095192,0.0000001
 0,-0.00188683,0.00190740,0.00000003,0.20647303,-0.03107423,-0.02889741
 ,-0.00000037,0.00711091,-0.00558204,0.00000024,-0.19429766,-0.33425193
 ,0.00000213,-0.00086393,0.00341173,0.00000003,0.21908278,0.36452010,0.
 00000089,0.00000099,-0.00717307,-0.00000018,-0.00000016,0.00696428,-0.
 00000060,0.00000126,-0.00729358,-0.00000004,-0.00000019,0.00148495,-0.
 00000009,-0.00000194,0.00826840,-0.01308976,0.03297752,0.00000020,0.00
 381562,-0.00044870,0.,-0.00860928,0.00085744,-0.00000009,-0.10722597,0
 .11628890,0.00000125,-0.00055676,-0.00157268,0.00000004,0.11791897,-0.
 00484414,0.00275677,0.00000016,-0.00092172,0.00118994,0.00000002,-0.00
 205373,0.00201119,-0.00000012,0.12394686,-0.27561877,-0.00000208,-0.00
 045442,0.00029730,0.,-0.12940061,0.29193203,0.00000004,-0.00000035,-0.
 00314237,-0.00000003,0.00000001,-0.00030414,-0.00000003,0.00000003,0.0
 0283047,0.00000128,-0.00000203,-0.04473603,0.00000002,-0.00000002,-0.0
 0098300,-0.00000131,0.00000223,0.04493143,-0.00428519,-0.01938948,0.03
 122567,-0.00519618,-0.00112554,-0.00453749,0.00068184,0.00153531,-0.00
 349139,-0.06432351,-0.03528243,0.06208800,-0.00082483,0.00080742,0.001
 00034,0.00387338,0.00686389,-0.01356710,0.06842811,-0.00057283,-0.0067
 8360,0.00287379,-0.00246022,0.00091583,-0.00084275,0.00098261,0.000282
 12,-0.00064182,-0.03571510,-0.11834489,0.11962456,0.00052583,0.0002511
 6,-0.00000642,-0.00935058,-0.01128430,0.02271897,0.04096040,0.12612040
 ,-0.00267848,0.00048887,0.00116895,-0.00089583,-0.00177777,-0.00061430
 ,0.00031249,-0.00099472,0.00078159,0.06033625,0.11860932,-0.22555865,0
 .00091105,-0.00030360,-0.00063398,-0.00049839,-0.00243417,0.00070206,-
 0.06510228,-0.12865715,0.24312767,-0.00428526,-0.01938929,-0.03122575,
 -0.00519659,-0.00112601,0.00453731,0.00068158,0.00153550,0.00349141,-0
 .06432650,-0.03528458,-0.06209171,-0.00082475,0.00080739,-0.00100035,0
 .00387379,0.00686386,0.01356712,0.00164638,0.00562990,0.00761520,0.068
 43135,-0.00057302,-0.00678360,-0.00287384,-0.00246038,0.00091576,0.000
 84273,0.00098243,0.00028217,0.00064162,-0.03571718,-0.11834302,-0.1196
 2262,0.00052578,0.00025109,0.00000645,-0.00935130,-0.01128415,-0.02271
 885,0.00563043,0.00884330,0.01506923,0.04096323,0.12611845,0.00267828,
 -0.00048861,0.00116955,0.00089595,0.00177781,-0.00061428,-0.00031266,0
 .00099471,0.00078140,-0.06033991,-0.11860749,-0.22555773,-0.00091100,0
 .00030353,-0.00063400,0.00049832,0.00243395,0.00070159,-0.00761575,-0.
 01506918,-0.01897335,0.06510677,0.12865527,0.24312682\\0.00005121,-0.0
 0013245,-0.00000870,-0.00003038,0.00009217,0.00000327,-0.00001161,0.00
 004427,0.00000205,-0.00004346,0.00011669,0.00000274,-0.00000937,-0.000
 03212,0.00000045,0.00005697,0.00000068,0.00000015,-0.00000726,-0.00004
 474,-0.00002532,-0.00000610,-0.00004450,0.00002536\\\@


 TO SEE A WORLD IN A GRAIN OF SAND
 AND A HEAVEN IN A WILD FLOWER
 HOLD INFINITY IN THE PALM OF YOUR HAND
 AND ETERNITY IN AN HOUR

                       -- WILLIAM BLAKE
 Job cpu time:       0 days  0 hours 27 minutes 33.6 seconds.
 Elapsed time:       0 days  0 hours  1 minutes  0.2 seconds.
 File lengths (MBytes):  RWF=   1460 Int=      0 D2E=      0 Chk=      8 Scr=      8
 Normal termination of Gaussian 16 at Mon Mar 20 10:52:48 2023.
