 Entering Gaussian System, Link 0=g16
 Input=acoht_mp2_avtz_opt_anharm.gjf
 Output=acoht_mp2_avtz_opt_anharm.log
 Initial command:
 /sw/contrib/chem-src/g16/c01/g16/l1.exe "/scr/Gau-30068.inp" -scrdir="/scr/"
 Entering Link 1 = /sw/contrib/chem-src/g16/c01/g16/l1.exe PID=     30069.
  
 Copyright (c) 1988-2019, Gaussian, Inc.  All Rights Reserved.
  
 This is part of the Gaussian(R) 16 program.  It is based on
 the Gaussian(R) 09 system (copyright 2009, Gaussian, Inc.),
 the Gaussian(R) 03 system (copyright 2003, Gaussian, Inc.),
 the Gaussian(R) 98 system (copyright 1998, Gaussian, Inc.),
 the Gaussian(R) 94 system (copyright 1995, Gaussian, Inc.),
 the Gaussian 92(TM) system (copyright 1992, Gaussian, Inc.),
 the Gaussian 90(TM) system (copyright 1990, Gaussian, Inc.),
 the Gaussian 88(TM) system (copyright 1988, Gaussian, Inc.),
 the Gaussian 86(TM) system (copyright 1986, Carnegie Mellon
 University), and the Gaussian 82(TM) system (copyright 1983,
 Carnegie Mellon University). Gaussian is a federally registered
 trademark of Gaussian, Inc.
  
 This software contains proprietary and confidential information,
 including trade secrets, belonging to Gaussian, Inc.
  
 This software is provided under written license and may be
 used, copied, transmitted, or stored only in accord with that
 written license.
  
 The following legend is applicable only to US Government
 contracts under FAR:
  
                    RESTRICTED RIGHTS LEGEND
  
 Use, reproduction and disclosure by the US Government is
 subject to restrictions as set forth in subparagraphs (a)
 and (c) of the Commercial Computer Software - Restricted
 Rights clause in FAR 52.227-19.
  
 Gaussian, Inc.
 340 Quinnipiac St., Bldg. 40, Wallingford CT 06492
  
  
 ---------------------------------------------------------------
 Warning -- This program may not be used in any manner that
 competes with the business of Gaussian, Inc. or will provide
 assistance to any competitor of Gaussian, Inc.  The licensee
 of this program is prohibited from giving any competitor of
 Gaussian, Inc. access to this program.  By using this program,
 the user acknowledges that Gaussian, Inc. is engaged in the
 business of creating and licensing software in the field of
 computational chemistry and represents and warrants to the
 licensee that it is not a competitor of Gaussian, Inc. and that
 it will not use this program in any manner prohibited above.
 ---------------------------------------------------------------
  

 Cite this work as:
 Gaussian 16, Revision C.01,
 M. J. Frisch, G. W. Trucks, H. B. Schlegel, G. E. Scuseria, 
 M. A. Robb, J. R. Cheeseman, G. Scalmani, V. Barone, 
 G. A. Petersson, H. Nakatsuji, X. Li, M. Caricato, A. V. Marenich, 
 J. Bloino, B. G. Janesko, R. Gomperts, B. Mennucci, H. P. Hratchian, 
 J. V. Ortiz, A. F. Izmaylov, J. L. Sonnenberg, D. Williams-Young, 
 F. Ding, F. Lipparini, F. Egidi, J. Goings, B. Peng, A. Petrone, 
 T. Henderson, D. Ranasinghe, V. G. Zakrzewski, J. Gao, N. Rega, 
 G. Zheng, W. Liang, M. Hada, M. Ehara, K. Toyota, R. Fukuda, 
 J. Hasegawa, M. Ishida, T. Nakajima, Y. Honda, O. Kitao, H. Nakai, 
 T. Vreven, K. Throssell, J. A. Montgomery, Jr., J. E. Peralta, 
 F. Ogliaro, M. J. Bearpark, J. J. Heyd, E. N. Brothers, K. N. Kudin, 
 V. N. Staroverov, T. A. Keith, R. Kobayashi, J. Normand, 
 K. Raghavachari, A. P. Rendell, J. C. Burant, S. S. Iyengar, 
 J. Tomasi, M. Cossi, J. M. Millam, M. Klene, C. Adamo, R. Cammi, 
 J. W. Ochterski, R. L. Martin, K. Morokuma, O. Farkas, 
 J. B. Foresman, and D. J. Fox, Gaussian, Inc., Wallingford CT, 2019.
 
 ******************************************
 Gaussian 16:  EM64L-G16RevC.01  3-Jul-2019
                21-Mar-2025 
 ******************************************
 %nprocshared=40
 Will use up to   40 processors via shared memory.
 %mem=50gb
 ----------------------------------------------
 # MP2/aug-cc-pVTZ opt freq=(vibrot,anharmonic)
 ----------------------------------------------
 1/18=20,19=15,38=1,80=1/1,3;
 2/9=110,12=2,17=6,18=5,40=1/2;
 3/5=16,6=1,7=10,11=9,25=1,30=1,71=1/1,2,3;
 4//1;
 5/5=2,38=5/2;
 8/6=4,10=1/1;
 9/15=2,16=-3/6;
 10/5=1/2;
 6/7=2,8=2,9=2,10=2/1;
 7/12=2/1,2,3,16;
 1/18=20,19=15,80=1/3(2);
 2/9=110/2;
 99//99;
 2/9=110/2;
 3/5=16,6=1,7=10,11=9,25=1,30=1,71=1/1,2,3;
 4/5=5,16=3,69=1/1;
 5/5=2,38=5/2;
 8/6=4,10=1/1;
 9/15=2,16=-3/6;
 10/5=1/2;
 7/12=2/1,2,3,16;
 1/18=20,19=15,80=1/3(-8);
 2/9=110/2;
 6/7=2,8=2,9=2,10=2/1;
 99/9=10/99;
 ----
 blah
 ----
 Symbolic Z-matrix:
 Charge =  0 Multiplicity = 1
 C                     1.00159  -0.09697   0.00001 
 O                     2.16805  -0.44763   0.00006 
 O                     0.00441  -1.02793  -0.00006 
 C                     0.54268   1.34931  -0.00003 
 H                    -0.8711   -0.58881   0.00001 
 H                     1.42093   2.005     0.00021 
 H                    -0.07535   1.55158   0.88837 
 H                    -0.07488   1.55163  -0.88874 
 

 GradGradGradGradGradGradGradGradGradGradGradGradGradGradGradGradGradGrad
 Berny optimization.
 Initialization pass.
                           ----------------------------
                           !    Initial Parameters    !
                           ! (Angstroms and Degrees)  !
 --------------------------                            --------------------------
 ! Name  Definition              Value          Derivative Info.                !
 --------------------------------------------------------------------------------
 ! R1    R(1,2)                  1.218          estimate D2E/DX2                !
 ! R2    R(1,3)                  1.3642         estimate D2E/DX2                !
 ! R3    R(1,4)                  1.5173         estimate D2E/DX2                !
 ! R4    R(3,5)                  0.9795         estimate D2E/DX2                !
 ! R5    R(4,6)                  1.096          estimate D2E/DX2                !
 ! R6    R(4,7)                  1.101          estimate D2E/DX2                !
 ! R7    R(4,8)                  1.101          estimate D2E/DX2                !
 ! A1    A(2,1,3)              120.2355         estimate D2E/DX2                !
 ! A2    A(2,1,4)              124.336          estimate D2E/DX2                !
 ! A3    A(3,1,4)              115.4285         estimate D2E/DX2                !
 ! A4    A(1,3,5)              110.3304         estimate D2E/DX2                !
 ! A5    A(1,4,6)              109.1401         estimate D2E/DX2                !
 ! A6    A(1,4,7)              110.1743         estimate D2E/DX2                !
 ! A7    A(1,4,8)              110.1712         estimate D2E/DX2                !
 ! A8    A(6,4,7)              109.8603         estimate D2E/DX2                !
 ! A9    A(6,4,8)              109.8592         estimate D2E/DX2                !
 ! A10   A(7,4,8)              107.6215         estimate D2E/DX2                !
 ! D1    D(2,1,3,5)            179.9936         estimate D2E/DX2                !
 ! D2    D(4,1,3,5)             -0.0079         estimate D2E/DX2                !
 ! D3    D(2,1,4,6)             -0.0113         estimate D2E/DX2                !
 ! D4    D(2,1,4,7)           -120.7171         estimate D2E/DX2                !
 ! D5    D(2,1,4,8)            120.6913         estimate D2E/DX2                !
 ! D6    D(3,1,4,6)            179.9902         estimate D2E/DX2                !
 ! D7    D(3,1,4,7)             59.2844         estimate D2E/DX2                !
 ! D8    D(3,1,4,8)            -59.3072         estimate D2E/DX2                !
 --------------------------------------------------------------------------------
 Trust Radius=3.00D-01 FncErr=1.00D-07 GrdErr=1.00D-07 EigMax=2.50D+02 EigMin=1.00D-04
 Number of steps in this run=     35 maximum allowed number of steps=    100.
 GradGradGradGradGradGradGradGradGradGradGradGradGradGradGradGradGradGrad

                          Input orientation:                          
 ---------------------------------------------------------------------
 Center     Atomic      Atomic             Coordinates (Angstroms)
 Number     Number       Type             X           Y           Z
 ---------------------------------------------------------------------
      1          6           0        1.001589   -0.096973    0.000006
      2          8           0        2.168054   -0.447631    0.000060
      3          8           0        0.004407   -1.027932   -0.000060
      4          6           0        0.542678    1.349310   -0.000029
      5          1           0       -0.871104   -0.588807    0.000005
      6          1           0        1.420933    2.005004    0.000206
      7          1           0       -0.075345    1.551583    0.888370
      8          1           0       -0.074881    1.551630   -0.888743
 ---------------------------------------------------------------------
                    Distance matrix (angstroms):
                    1          2          3          4          5
     1  C    0.000000
     2  O    1.218032   0.000000
     3  O    1.364205   2.240116   0.000000
     4  C    1.517344   2.422982   2.437420   0.000000
     5  H    1.936202   3.042435   0.979464   2.398974   0.000000
     6  H    2.143398   2.563905   3.347424   1.096023   3.461400
     7  H    2.160258   3.133495   2.729389   1.100963   2.450244
     8  H    2.160221   3.133333   2.729503   1.100966   2.450574
                    6          7          8
     6  H    0.000000
     7  H    1.798131   0.000000
     8  H    1.798121   1.777113   0.000000
 Stoichiometry    C2H4O2
 Framework group  C1[X(C2H4O2)]
 Deg. of freedom    18
 Full point group                 C1      NOp   1
 Largest Abelian subgroup         C1      NOp   1
 Largest concise Abelian subgroup C1      NOp   1
                         Standard orientation:                         
 ---------------------------------------------------------------------
 Center     Atomic      Atomic             Coordinates (Angstroms)
 Number     Number       Type             X           Y           Z
 ---------------------------------------------------------------------
      1          6           0        0.133576   -0.132182   -0.000015
      2          8           0        0.712595   -1.203788   -0.000069
      3          8           0        0.843953    1.032473    0.000051
      4          6           0       -1.375587    0.025171    0.000020
      5          1           0        0.237053    1.801253   -0.000014
      6          1           0       -1.840391   -0.967414   -0.000215
      7          1           0       -1.698512    0.589605   -0.888379
      8          1           0       -1.698464    0.589142    0.888734
 ---------------------------------------------------------------------
 Rotational constants (GHZ):          10.7792949           9.5528458           5.2314016
 Standard basis: Aug-CC-pVTZ (5D, 7F)
 There are   320 symmetry adapted cartesian basis functions of A   symmetry.
 There are   276 symmetry adapted basis functions of A   symmetry.
   276 basis functions,   396 primitive gaussians,   320 cartesian basis functions
    16 alpha electrons       16 beta electrons
       nuclear repulsion energy       120.0045348843 Hartrees.
 NAtoms=    8 NActive=    8 NUniq=    8 SFac= 1.00D+00 NAtFMM=   60 NAOKFM=F Big=F
 Integral buffers will be    131072 words long.
 Raffenetti 1 integral format.
 Two-electron integral symmetry is turned on.
 One-electron integrals computed using PRISM.
 NBasis=   276 RedAO= T EigKep=  2.76D-05  NBF=   276
 NBsUse=   276 1.00D-06 EigRej= -1.00D+00 NBFU=   276
 ExpMin= 2.53D-02 ExpMax= 1.53D+04 ExpMxC= 5.22D+02 IAcc=3 IRadAn=         5 AccDes= 0.00D+00
 Harris functional with IExCor=  205 and IRadAn=       5 diagonalized for initial guess.
 HarFok:  IExCor=  205 AccDes= 0.00D+00 IRadAn=         5 IDoV= 1 UseB2=F ITyADJ=14
 ICtDFT=  3500011 ScaDFX=  1.000000  1.000000  1.000000  1.000000
 FoFCou: FMM=F IPFlag=           0 FMFlag=      100000 FMFlg1=           0
         NFxFlg=           0 DoJE=T BraDBF=F KetDBF=T FulRan=T
         wScrn=  0.000000 ICntrl=       500 IOpCl=  0 I1Cent=   200000004 NGrid=           0
         NMat0=    1 NMatS0=      1 NMatT0=    0 NMatD0=    1 NMtDS0=    0 NMtDT0=    0
 Petite list used in FoFCou.
 Keep R1 ints in memory in canonical form, NReq=750703417.
 Requested convergence on RMS density matrix=1.00D-08 within 128 cycles.
 Requested convergence on MAX density matrix=1.00D-06.
 Requested convergence on             energy=1.00D-06.
 No special actions if energy rises.
 SCF Done:  E(RHF) =  -227.892576819     A.U. after   12 cycles
            NFock= 12  Conv=0.63D-08     -V/T= 2.0024
 ExpMin= 2.53D-02 ExpMax= 1.53D+04 ExpMxC= 5.22D+02 IAcc=3 IRadAn=         5 AccDes= 0.00D+00
 HarFok:  IExCor=  205 AccDes= 0.00D+00 IRadAn=         5 IDoV=-2 UseB2=F ITyADJ=14
 ICtDFT= 12500011 ScaDFX=  1.000000  1.000000  1.000000  1.000000
 Range of M.O.s used for correlation:     5   276
 NBasis=   276 NAE=    16 NBE=    16 NFC=     4 NFV=     0
 NROrb=    272 NOA=    12 NOB=    12 NVA=   260 NVB=   260

 **** Warning!!: The largest alpha MO coefficient is  0.43770747D+02

 Disk-based method using ON**2 memory for 12 occupieds at a time.
 Estimated scratch disk usage=   750088864 words.
 Actual    scratch disk usage=   686864032 words.
 JobTyp=1 Pass  1:  I=   5 to  16 NPSUse= 40 ParTrn=T ParDer=T DoDerP=T.
 (rs|ai) integrals will be sorted in core.
 Spin components of T(2) and E(2):
     alpha-alpha T2 =       0.2892429564D-01 E2=     -0.1020512191D+00
     alpha-beta  T2 =       0.1635262151D+00 E2=     -0.6167098492D+00
     beta-beta   T2 =       0.2892429564D-01 E2=     -0.1020512191D+00
 ANorm=    0.1105158272D+01
 E2 =    -0.8208122875D+00 EUMP2 =    -0.22871338910651D+03
          IDoAtm=11111111
          Differentiating once with respect to electric field.
                with respect to dipole field.
          Differentiating once with respect to nuclear coordinates.
 Keep R1 ints in memory in canonical form, NReq=750711548.
          There are     1 degrees of freedom in the 1st order CPHF.  IDoFFX=0 NUNeed=     1.
 LinEq1:  Iter=  0 NonCon=     1 RMS=3.77D-03 Max=9.98D-02 NDo=     1
 AX will form     1 AO Fock derivatives at one time.
 LinEq1:  Iter=  1 NonCon=     1 RMS=1.12D-03 Max=1.97D-02 NDo=     1
 LinEq1:  Iter=  2 NonCon=     1 RMS=3.86D-04 Max=7.03D-03 NDo=     1
 LinEq1:  Iter=  3 NonCon=     1 RMS=1.72D-04 Max=3.49D-03 NDo=     1
 LinEq1:  Iter=  4 NonCon=     1 RMS=4.37D-05 Max=7.26D-04 NDo=     1
 LinEq1:  Iter=  5 NonCon=     1 RMS=1.70D-05 Max=2.83D-04 NDo=     1
 LinEq1:  Iter=  6 NonCon=     1 RMS=5.32D-06 Max=6.92D-05 NDo=     1
 LinEq1:  Iter=  7 NonCon=     1 RMS=1.02D-06 Max=8.98D-06 NDo=     1
 LinEq1:  Iter=  8 NonCon=     1 RMS=2.15D-07 Max=1.70D-06 NDo=     1
 LinEq1:  Iter=  9 NonCon=     1 RMS=6.14D-08 Max=9.35D-07 NDo=     1
 LinEq1:  Iter= 10 NonCon=     1 RMS=1.78D-08 Max=4.12D-07 NDo=     1
 LinEq1:  Iter= 11 NonCon=     1 RMS=4.73D-09 Max=9.73D-08 NDo=     1
 LinEq1:  Iter= 12 NonCon=     1 RMS=9.64D-10 Max=1.15D-08 NDo=     1
 LinEq1:  Iter= 13 NonCon=     1 RMS=1.23D-10 Max=9.96D-10 NDo=     1
 LinEq1:  Iter= 14 NonCon=     0 RMS=1.84D-11 Max=1.96D-10 NDo=     1
 Linear equations converged to 1.000D-10 1.000D-09 after    14 iterations.
 End of Minotr F.D. properties file   721 does not exist.
 End of Minotr F.D. properties file   722 does not exist.
 End of Minotr F.D. properties file   788 does not exist.

 **********************************************************************

            Population analysis using the SCF Density.

 **********************************************************************

 Orbital symmetries:
       Occupied  (A) (A) (A) (A) (A) (A) (A) (A) (A) (A) (A) (A)
                 (A) (A) (A) (A)
       Virtual   (A) (A) (A) (A) (A) (A) (A) (A) (A) (A) (A) (A)
                 (A) (A) (A) (A) (A) (A) (A) (A) (A) (A) (A) (A)
                 (A) (A) (A) (A) (A) (A) (A) (A) (A) (A) (A) (A)
                 (A) (A) (A) (A) (A) (A) (A) (A) (A) (A) (A) (A)
                 (A) (A) (A) (A) (A) (A) (A) (A) (A) (A) (A) (A)
                 (A) (A) (A) (A) (A) (A) (A) (A) (A) (A) (A) (A)
                 (A) (A) (A) (A) (A) (A) (A) (A) (A) (A) (A) (A)
                 (A) (A) (A) (A) (A) (A) (A) (A) (A) (A) (A) (A)
                 (A) (A) (A) (A) (A) (A) (A) (A) (A) (A) (A) (A)
                 (A) (A) (A) (A) (A) (A) (A) (A) (A) (A) (A) (A)
                 (A) (A) (A) (A) (A) (A) (A) (A) (A) (A) (A) (A)
                 (A) (A) (A) (A) (A) (A) (A) (A) (A) (A) (A) (A)
                 (A) (A) (A) (A) (A) (A) (A) (A) (A) (A) (A) (A)
                 (A) (A) (A) (A) (A) (A) (A) (A) (A) (A) (A) (A)
                 (A) (A) (A) (A) (A) (A) (A) (A) (A) (A) (A) (A)
                 (A) (A) (A) (A) (A) (A) (A) (A) (A) (A) (A) (A)
                 (A) (A) (A) (A) (A) (A) (A) (A) (A) (A) (A) (A)
                 (A) (A) (A) (A) (A) (A) (A) (A) (A) (A) (A) (A)
                 (A) (A) (A) (A) (A) (A) (A) (A) (A) (A) (A) (A)
                 (A) (A) (A) (A) (A) (A) (A) (A) (A) (A) (A) (A)
                 (A) (A) (A) (A) (A) (A) (A) (A) (A) (A) (A) (A)
                 (A) (A) (A) (A) (A) (A) (A) (A)
 The electronic state is 1-A.
 Alpha  occ. eigenvalues --  -20.62088 -20.54877 -11.39530 -11.26472  -1.45564
 Alpha  occ. eigenvalues --   -1.35818  -1.02723  -0.83060  -0.71882  -0.66903
 Alpha  occ. eigenvalues --   -0.65061  -0.60124  -0.57041  -0.55929  -0.47821
 Alpha  occ. eigenvalues --   -0.45347
 Alpha virt. eigenvalues --    0.01839   0.03707   0.03883   0.05521   0.07722
 Alpha virt. eigenvalues --    0.09856   0.10204   0.10636   0.11454   0.12427
 Alpha virt. eigenvalues --    0.13379   0.15313   0.16859   0.17797   0.17896
 Alpha virt. eigenvalues --    0.20306   0.21295   0.21853   0.23445   0.25430
 Alpha virt. eigenvalues --    0.25985   0.26136   0.27435   0.29103   0.30363
 Alpha virt. eigenvalues --    0.32403   0.32710   0.32773   0.33675   0.35837
 Alpha virt. eigenvalues --    0.37090   0.38504   0.39680   0.40243   0.40390
 Alpha virt. eigenvalues --    0.41459   0.42650   0.42890   0.45714   0.47066
 Alpha virt. eigenvalues --    0.48215   0.48405   0.50638   0.52146   0.52411
 Alpha virt. eigenvalues --    0.54361   0.57077   0.59255   0.60662   0.60912
 Alpha virt. eigenvalues --    0.64908   0.68125   0.70590   0.72115   0.74648
 Alpha virt. eigenvalues --    0.76492   0.77578   0.78042   0.79384   0.80605
 Alpha virt. eigenvalues --    0.83255   0.83670   0.84964   0.86490   0.88728
 Alpha virt. eigenvalues --    0.88991   0.89854   0.90689   0.92702   0.93981
 Alpha virt. eigenvalues --    0.94280   0.96082   0.99679   0.99814   1.01058
 Alpha virt. eigenvalues --    1.03288   1.04283   1.06054   1.06579   1.07466
 Alpha virt. eigenvalues --    1.08549   1.11875   1.12264   1.12734   1.14870
 Alpha virt. eigenvalues --    1.17376   1.18380   1.18690   1.21164   1.23886
 Alpha virt. eigenvalues --    1.24419   1.29190   1.29422   1.30932   1.34728
 Alpha virt. eigenvalues --    1.37616   1.38018   1.39582   1.42217   1.45497
 Alpha virt. eigenvalues --    1.47410   1.48222   1.50191   1.51493   1.53173
 Alpha virt. eigenvalues --    1.56126   1.58496   1.60793   1.62304   1.63404
 Alpha virt. eigenvalues --    1.65486   1.70451   1.74881   1.75699   1.77688
 Alpha virt. eigenvalues --    1.77808   1.81704   1.83960   1.84973   1.88091
 Alpha virt. eigenvalues --    1.88918   1.91710   1.97224   2.00914   2.05026
 Alpha virt. eigenvalues --    2.05430   2.08676   2.12382   2.13915   2.17944
 Alpha virt. eigenvalues --    2.19137   2.22768   2.29117   2.29616   2.43278
 Alpha virt. eigenvalues --    2.43944   2.45396   2.47093   2.49450   2.49493
 Alpha virt. eigenvalues --    2.50999   2.54859   2.58539   2.59525   2.64512
 Alpha virt. eigenvalues --    2.68643   2.71589   2.78090   2.78557   2.80080
 Alpha virt. eigenvalues --    2.87900   2.90924   2.91445   2.93089   2.99653
 Alpha virt. eigenvalues --    3.00842   3.06879   3.17605   3.19850   3.23397
 Alpha virt. eigenvalues --    3.24207   3.31139   3.33183   3.42728   3.46802
 Alpha virt. eigenvalues --    3.47504   3.49223   3.58654   3.59054   3.60483
 Alpha virt. eigenvalues --    3.66399   3.73569   3.75623   3.80659   3.80817
 Alpha virt. eigenvalues --    3.86726   3.87441   3.90193   3.92697   3.94541
 Alpha virt. eigenvalues --    3.98018   4.02658   4.04097   4.04238   4.09404
 Alpha virt. eigenvalues --    4.10691   4.13839   4.23700   4.26706   4.29458
 Alpha virt. eigenvalues --    4.30530   4.30847   4.38570   4.39377   4.46545
 Alpha virt. eigenvalues --    4.47005   4.55977   4.57677   4.60766   4.69616
 Alpha virt. eigenvalues --    4.70406   4.72747   4.74378   4.77689   4.80231
 Alpha virt. eigenvalues --    4.85635   4.90707   4.98054   5.04429   5.09062
 Alpha virt. eigenvalues --    5.09742   5.13002   5.19059   5.26201   5.31502
 Alpha virt. eigenvalues --    5.36426   5.38250   5.40584   5.44403   5.57053
 Alpha virt. eigenvalues --    5.60872   5.63764   5.70618   5.84039   5.95197
 Alpha virt. eigenvalues --    6.05240   6.10573   6.21568   6.22552   6.52923
 Alpha virt. eigenvalues --    6.62653   6.65198   6.68822   6.70931   6.83346
 Alpha virt. eigenvalues --    6.85196   6.88534   6.97317   7.02012   7.15683
 Alpha virt. eigenvalues --    7.16925   7.22179   7.31541   7.31669   7.39700
 Alpha virt. eigenvalues --    7.40470   7.45132   7.59019   7.59205   7.65734
 Alpha virt. eigenvalues --    7.72471   7.84827   7.87573   7.88003   8.22441
 Alpha virt. eigenvalues --    8.46736  14.65238  15.26388  16.89046  18.91009
          Condensed to atoms (all electrons):
               1          2          3          4          5          6
     1  C    4.713831   0.421377   0.221541   0.099155   0.034046  -0.059413
     2  O    0.421377   8.347441  -0.105658  -0.067445   0.003476   0.029393
     3  O    0.221541  -0.105658   8.150939  -0.046082   0.193889   0.003206
     4  C    0.099155  -0.067445  -0.046082   5.587412  -0.031112   0.398942
     5  H    0.034046   0.003476   0.193889  -0.031112   0.535007  -0.003064
     6  H   -0.059413   0.029393   0.003206   0.398942  -0.003064   0.322811
     7  H    0.043381  -0.008823  -0.006823   0.350795   0.011396  -0.002309
     8  H    0.043391  -0.008817  -0.006812   0.350785   0.011392  -0.002286
               7          8
     1  C    0.043381   0.043391
     2  O   -0.008823  -0.008817
     3  O   -0.006823  -0.006812
     4  C    0.350795   0.350785
     5  H    0.011396   0.011392
     6  H   -0.002309  -0.002286
     7  H    0.287052   0.016716
     8  H    0.016716   0.287027
 Mulliken charges:
               1
     1  C    0.482691
     2  O   -0.610944
     3  O   -0.404202
     4  C   -0.642451
     5  H    0.244970
     6  H    0.312719
     7  H    0.308613
     8  H    0.308604
 Sum of Mulliken charges =  -0.00000
 Mulliken charges with hydrogens summed into heavy atoms:
               1
     1  C    0.482691
     2  O   -0.610944
     3  O   -0.159232
     4  C    0.287485
 Electronic spatial extent (au):  <R**2>=            257.7199
 Charge=             -0.0000 electrons
 Dipole moment (field-independent basis, Debye):
    X=             -3.7389    Y=              3.2395    Z=              0.0000  Tot=              4.9471
 Quadrupole moment (field-independent basis, Debye-Ang):
   XX=            -25.3299   YY=            -23.6975   ZZ=            -23.2676
   XY=              0.6321   XZ=             -0.0000   YZ=             -0.0004
 Traceless Quadrupole moment (field-independent basis, Debye-Ang):
   XX=             -1.2316   YY=              0.4008   ZZ=              0.8308
   XY=              0.6321   XZ=             -0.0000   YZ=             -0.0004
 Octapole moment (field-independent basis, Debye-Ang**2):
  XXX=             -0.8946  YYY=             14.7053  ZZZ=              0.0006  XYY=             -3.1665
  XXY=             -0.5386  XXZ=              0.0000  XZZ=              0.3548  YZZ=              0.9384
  YYZ=             -0.0006  XYZ=             -0.0003
 Hexadecapole moment (field-independent basis, Debye-Ang**3):
 XXXX=           -164.5315 YYYY=           -108.8005 ZZZZ=            -27.4902 XXXY=              1.6642
 XXXZ=              0.0013 YYYX=              5.0295 YYYZ=             -0.0032 ZZZX=             -0.0003
 ZZZY=             -0.0023 XXYY=            -49.2530 XXZZ=            -30.5872 YYZZ=            -25.7170
 XXYZ=             -0.0009 YYXZ=              0.0014 ZZXY=             -1.4048
 N-N= 1.200045348843D+02 E-N=-7.767299285586D+02  KE= 2.273405112330D+02
 Calling FoFJK, ICntrl=  10002127 FMM=F ISym2X=0 I1Cent= 0 IOpClX= 0 NMat=1 NMatS=1 NMatT=0.
 ***** Axes restored to original set *****
 -------------------------------------------------------------------
 Center     Atomic                   Forces (Hartrees/Bohr)
 Number     Number              X              Y              Z
 -------------------------------------------------------------------
      1        6           0.016105915    0.001024261    0.000002121
      2        8          -0.022549390    0.004331739   -0.000001938
      3        8          -0.008249396    0.005446385    0.000002344
      4        6          -0.001230403    0.001019423   -0.000002489
      5        1           0.013335601   -0.004430973   -0.000002320
      6        1          -0.006751906   -0.004649768   -0.000001354
      7        1           0.004671267   -0.001370536   -0.005230861
      8        1           0.004668312   -0.001370531    0.005234498
 -------------------------------------------------------------------
 Cartesian Forces:  Max     0.022549390 RMS     0.007230636

 GradGradGradGradGradGradGradGradGradGradGradGradGradGradGradGradGradGrad
 Berny optimization.
 FormGI is forming the generalized inverse of G from B-inverse, IUseBI=4.
 Internal  Forces:  Max     0.022841795 RMS     0.006244363
 Search for a local minimum.
 Step number   1 out of a maximum of   35
 All quantities printed in internal units (Hartrees-Bohrs-Radians)
 Mixed Optimization -- RFO/linear search
 Second derivative matrix not updated -- first step.
 ITU=  0
     Eigenvalues ---    0.00537   0.00917   0.02165   0.07333   0.07342
     Eigenvalues ---    0.16000   0.16000   0.16000   0.16000   0.25000
     Eigenvalues ---    0.25000   0.30624   0.33576   0.33576   0.34126
     Eigenvalues ---    0.51489   0.52106   0.96261
 RFO step:  Lambda=-1.74341080D-03 EMin= 5.36515259D-03
 Linear search not attempted -- first point.
 Iteration  1 RMS(Cart)=  0.01680806 RMS(Int)=  0.00010212
 Iteration  2 RMS(Cart)=  0.00011957 RMS(Int)=  0.00000059
 Iteration  3 RMS(Cart)=  0.00000002 RMS(Int)=  0.00000059
 Variable       Old X    -DE/DX   Delta X   Delta X   Delta X     New X
                                 (Linear)    (Quad)   (Total)
    R1        2.30175  -0.02284   0.00000  -0.02369  -0.02369   2.27806
    R2        2.57797  -0.00441   0.00000  -0.00844  -0.00844   2.56954
    R3        2.86737  -0.00648   0.00000  -0.02105  -0.02105   2.84631
    R4        1.85092  -0.01391   0.00000  -0.02692  -0.02692   1.82400
    R5        2.07118  -0.00819   0.00000  -0.02388  -0.02388   2.04730
    R6        2.08052  -0.00709   0.00000  -0.02102  -0.02102   2.05950
    R7        2.08052  -0.00710   0.00000  -0.02102  -0.02102   2.05950
    A1        2.09850  -0.00290   0.00000  -0.01151  -0.01151   2.08699
    A2        2.17007   0.00250   0.00000   0.00992   0.00992   2.17999
    A3        2.01461   0.00040   0.00000   0.00159   0.00159   2.01620
    A4        1.92563  -0.00374   0.00000  -0.02309  -0.02309   1.90253
    A5        1.90485   0.00036   0.00000   0.00071   0.00070   1.90556
    A6        1.92290  -0.00032   0.00000  -0.00124  -0.00124   1.92167
    A7        1.92285  -0.00032   0.00000  -0.00122  -0.00123   1.92163
    A8        1.91742  -0.00028   0.00000  -0.00322  -0.00323   1.91420
    A9        1.91741  -0.00028   0.00000  -0.00322  -0.00322   1.91419
   A10        1.87835   0.00085   0.00000   0.00820   0.00820   1.88655
    D1        3.14148   0.00000   0.00000   0.00007   0.00007   3.14155
    D2       -0.00014   0.00000   0.00000   0.00004   0.00004  -0.00009
    D3       -0.00020  -0.00000   0.00000  -0.00001  -0.00001  -0.00021
    D4       -2.10691   0.00032   0.00000   0.00429   0.00429  -2.10262
    D5        2.10646  -0.00032   0.00000  -0.00429  -0.00429   2.10217
    D6        3.14142  -0.00000   0.00000   0.00002   0.00002   3.14145
    D7        1.03471   0.00032   0.00000   0.00432   0.00432   1.03903
    D8       -1.03511  -0.00032   0.00000  -0.00426  -0.00426  -1.03936
         Item               Value     Threshold  Converged?
 Maximum Force            0.022842     0.000450     NO 
 RMS     Force            0.006244     0.000300     NO 
 Maximum Displacement     0.045594     0.001800     NO 
 RMS     Displacement     0.016769     0.001200     NO 
 Predicted change in Energy=-8.753537D-04
 GradGradGradGradGradGradGradGradGradGradGradGradGradGradGradGradGradGrad

                          Input orientation:                          
 ---------------------------------------------------------------------
 Center     Atomic      Atomic             Coordinates (Angstroms)
 Number     Number       Type             X           Y           Z
 ---------------------------------------------------------------------
      1          6           0        0.997854   -0.090259    0.000023
      2          8           0        2.149475   -0.446621    0.000061
      3          8           0        0.007128   -1.021580   -0.000048
      4          6           0        0.539672    1.344565   -0.000028
      5          1           0       -0.846977   -0.571964   -0.000035
      6          1           0        1.406148    1.994904    0.000186
      7          1           0       -0.068697    1.543555    0.882037
      8          1           0       -0.068271    1.543585   -0.882381
 ---------------------------------------------------------------------
                    Distance matrix (angstroms):
                    1          2          3          4          5
     1  C    0.000000
     2  O    1.205498   0.000000
     3  O    1.359741   2.218159   0.000000
     4  C    1.506204   2.408280   2.425334   0.000000
     5  H    1.906683   2.999072   0.965220   2.365561   0.000000
     6  H    2.124761   2.552172   3.325121   1.083384   3.415462
     7  H    2.141222   3.107888   2.713622   1.089839   2.420577
     8  H    2.141193   3.107735   2.713718   1.089840   2.420840
                    6          7          8
     6  H    0.000000
     7  H    1.776667   0.000000
     8  H    1.776661   1.764418   0.000000
 Stoichiometry    C2H4O2
 Framework group  C1[X(C2H4O2)]
 Deg. of freedom    18
 Full point group                 C1      NOp   1
 Largest Abelian subgroup         C1      NOp   1
 Largest concise Abelian subgroup C1      NOp   1
                         Standard orientation:                         
 ---------------------------------------------------------------------
 Center     Atomic      Atomic             Coordinates (Angstroms)
 Number     Number       Type             X           Y           Z
 ---------------------------------------------------------------------
      1          6           0        0.128703   -0.134244   -0.000027
      2          8           0        0.707668   -1.191610   -0.000065
      3          8           0        0.843631    1.022378    0.000045
      4          6           0       -1.368688    0.028454    0.000024
      5          1           0        0.232647    1.769604    0.000031
      6          1           0       -1.833075   -0.950355   -0.000189
      7          1           0       -1.685058    0.584889   -0.882041
      8          1           0       -1.685002    0.584465    0.882377
 ---------------------------------------------------------------------
 Rotational constants (GHZ):          11.0066760           9.6443704           5.3097409
 Standard basis: Aug-CC-pVTZ (5D, 7F)
 There are   320 symmetry adapted cartesian basis functions of A   symmetry.
 There are   276 symmetry adapted basis functions of A   symmetry.
   276 basis functions,   396 primitive gaussians,   320 cartesian basis functions
    16 alpha electrons       16 beta electrons
       nuclear repulsion energy       120.9736947278 Hartrees.
 NAtoms=    8 NActive=    8 NUniq=    8 SFac= 1.00D+00 NAtFMM=   60 NAOKFM=F Big=F
 Integral buffers will be    131072 words long.
 Raffenetti 1 integral format.
 Two-electron integral symmetry is turned on.
 One-electron integrals computed using PRISM.
 NBasis=   276 RedAO= T EigKep=  2.61D-05  NBF=   276
 NBsUse=   276 1.00D-06 EigRej= -1.00D+00 NBFU=   276
 Initial guess from the checkpoint file:  "/scr/Gau-30069.chk"
 B after Tr=    -0.000000   -0.000000   -0.000000
         Rot=    1.000000    0.000001   -0.000001    0.000916 Ang=   0.10 deg.
 ExpMin= 2.53D-02 ExpMax= 1.53D+04 ExpMxC= 5.22D+02 IAcc=3 IRadAn=         5 AccDes= 0.00D+00
 Harris functional with IExCor=  205 and IRadAn=       5 diagonalized for initial guess.
 HarFok:  IExCor=  205 AccDes= 0.00D+00 IRadAn=         5 IDoV= 1 UseB2=F ITyADJ=14
 ICtDFT=  3500011 ScaDFX=  1.000000  1.000000  1.000000  1.000000
 FoFCou: FMM=F IPFlag=           0 FMFlag=      100000 FMFlg1=           0
         NFxFlg=           0 DoJE=T BraDBF=F KetDBF=T FulRan=T
         wScrn=  0.000000 ICntrl=       500 IOpCl=  0 I1Cent=   200000004 NGrid=           0
         NMat0=    1 NMatS0=      1 NMatT0=    0 NMatD0=    1 NMtDS0=    0 NMtDT0=    0
 Petite list used in FoFCou.
 Keep R1 ints in memory in canonical form, NReq=750704420.
 Requested convergence on RMS density matrix=1.00D-08 within 128 cycles.
 Requested convergence on MAX density matrix=1.00D-06.
 Requested convergence on             energy=1.00D-06.
 No special actions if energy rises.
 SCF Done:  E(RHF) =  -227.895842083     A.U. after   10 cycles
            NFock= 10  Conv=0.51D-08     -V/T= 2.0017
 ExpMin= 2.53D-02 ExpMax= 1.53D+04 ExpMxC= 5.22D+02 IAcc=3 IRadAn=         5 AccDes= 0.00D+00
 HarFok:  IExCor=  205 AccDes= 0.00D+00 IRadAn=         5 IDoV=-2 UseB2=F ITyADJ=14
 ICtDFT= 12500011 ScaDFX=  1.000000  1.000000  1.000000  1.000000
 Range of M.O.s used for correlation:     5   276
 NBasis=   276 NAE=    16 NBE=    16 NFC=     4 NFV=     0
 NROrb=    272 NOA=    12 NOB=    12 NVA=   260 NVB=   260

 **** Warning!!: The largest alpha MO coefficient is  0.46350133D+02

 Disk-based method using ON**2 memory for 12 occupieds at a time.
 Estimated scratch disk usage=   750111076 words.
 Actual    scratch disk usage=   686902628 words.
 JobTyp=1 Pass  1:  I=   5 to  16 NPSUse= 40 ParTrn=T ParDer=T DoDerP=T.
 (rs|ai) integrals will be sorted in core.
 Spin components of T(2) and E(2):
     alpha-alpha T2 =       0.2858218236D-01 E2=     -0.1018081676D+00
     alpha-beta  T2 =       0.1613391327D+00 E2=     -0.6147899745D+00
     beta-beta   T2 =       0.2858218236D-01 E2=     -0.1018081676D+00
 ANorm=    0.1103858459D+01
 E2 =    -0.8184063097D+00 EUMP2 =    -0.22871424839254D+03
          IDoAtm=11111111
          Differentiating once with respect to electric field.
                with respect to dipole field.
          Differentiating once with respect to nuclear coordinates.
 Keep R1 ints in memory in canonical form, NReq=750712505.
          There are     1 degrees of freedom in the 1st order CPHF.  IDoFFX=0 NUNeed=     1.
 LinEq1:  Iter=  0 NonCon=     1 RMS=3.69D-03 Max=9.27D-02 NDo=     1
 AX will form     1 AO Fock derivatives at one time.
 LinEq1:  Iter=  1 NonCon=     1 RMS=1.08D-03 Max=1.86D-02 NDo=     1
 LinEq1:  Iter=  2 NonCon=     1 RMS=3.66D-04 Max=6.52D-03 NDo=     1
 LinEq1:  Iter=  3 NonCon=     1 RMS=1.62D-04 Max=3.46D-03 NDo=     1
 LinEq1:  Iter=  4 NonCon=     1 RMS=4.11D-05 Max=6.55D-04 NDo=     1
 LinEq1:  Iter=  5 NonCon=     1 RMS=1.59D-05 Max=2.98D-04 NDo=     1
 LinEq1:  Iter=  6 NonCon=     1 RMS=5.10D-06 Max=6.64D-05 NDo=     1
 LinEq1:  Iter=  7 NonCon=     1 RMS=1.02D-06 Max=1.00D-05 NDo=     1
 LinEq1:  Iter=  8 NonCon=     1 RMS=2.48D-07 Max=5.05D-06 NDo=     1
 LinEq1:  Iter=  9 NonCon=     1 RMS=8.34D-08 Max=1.75D-06 NDo=     1
 LinEq1:  Iter= 10 NonCon=     1 RMS=2.43D-08 Max=3.90D-07 NDo=     1
 LinEq1:  Iter= 11 NonCon=     1 RMS=5.43D-09 Max=5.92D-08 NDo=     1
 LinEq1:  Iter= 12 NonCon=     1 RMS=9.23D-10 Max=8.88D-09 NDo=     1
 LinEq1:  Iter= 13 NonCon=     1 RMS=1.10D-10 Max=7.67D-10 NDo=     1
 LinEq1:  Iter= 14 NonCon=     0 RMS=1.62D-11 Max=1.88D-10 NDo=     1
 Linear equations converged to 1.000D-10 1.000D-09 after    14 iterations.
 End of Minotr F.D. properties file   721 does not exist.
 End of Minotr F.D. properties file   722 does not exist.
 End of Minotr F.D. properties file   788 does not exist.
 Calling FoFJK, ICntrl=  10002127 FMM=F ISym2X=0 I1Cent= 0 IOpClX= 0 NMat=1 NMatS=1 NMatT=0.
 ***** Axes restored to original set *****
 -------------------------------------------------------------------
 Center     Atomic                   Forces (Hartrees/Bohr)
 Number     Number              X              Y              Z
 -------------------------------------------------------------------
      1        6           0.005739289   -0.000439408   -0.000004316
      2        8          -0.001636199    0.001029539    0.000001575
      3        8          -0.003068873    0.000263879    0.000001846
      4        6          -0.001099400   -0.000505576    0.000000881
      5        1          -0.000356526   -0.000967449   -0.000000621
      6        1           0.000118665    0.000337347    0.000000137
      7        1           0.000151532    0.000140991    0.000098211
      8        1           0.000151511    0.000140677   -0.000097713
 -------------------------------------------------------------------
 Cartesian Forces:  Max     0.005739289 RMS     0.001430578

 GradGradGradGradGradGradGradGradGradGradGradGradGradGradGradGradGradGrad
 Berny optimization.
 Using GEDIIS/GDIIS optimizer.
 FormGI is forming the generalized inverse of G from B-inverse, IUseBI=4.
 Internal  Forces:  Max     0.002977684 RMS     0.000901722
 Search for a local minimum.
 Step number   2 out of a maximum of   35
 All quantities printed in internal units (Hartrees-Bohrs-Radians)
 Mixed Optimization -- En-DIIS/RFO-DIIS
 Update second derivatives using D2CorX and points    1    2
 DE= -8.59D-04 DEPred=-8.75D-04 R= 9.82D-01
 TightC=F SS=  1.41D+00  RLast= 6.47D-02 DXNew= 5.0454D-01 1.9410D-01
 Trust test= 9.82D-01 RLast= 6.47D-02 DXMaxT set to 3.00D-01
 ITU=  1  0
 Use linear search instead of GDIIS.
     Eigenvalues ---    0.00537   0.00909   0.02165   0.07305   0.07359
     Eigenvalues ---    0.15972   0.16000   0.16000   0.16655   0.24675
     Eigenvalues ---    0.25450   0.30854   0.33519   0.33576   0.34378
     Eigenvalues ---    0.49797   0.55547   0.91344
 RFO step:  Lambda=-5.65251507D-05 EMin= 5.36515256D-03
 Quartic linear search produced a step of -0.02551.
 Iteration  1 RMS(Cart)=  0.00328460 RMS(Int)=  0.00000920
 Iteration  2 RMS(Cart)=  0.00001022 RMS(Int)=  0.00000046
 Iteration  3 RMS(Cart)=  0.00000000 RMS(Int)=  0.00000046
 Variable       Old X    -DE/DX   Delta X   Delta X   Delta X     New X
                                 (Linear)    (Quad)   (Total)
    R1        2.27806  -0.00187   0.00060  -0.00328  -0.00267   2.27539
    R2        2.56954   0.00298   0.00022   0.00507   0.00529   2.57482
    R3        2.84631   0.00031   0.00054  -0.00026   0.00028   2.84660
    R4        1.82400  -0.00014   0.00069  -0.00184  -0.00116   1.82284
    R5        2.04730   0.00030   0.00061  -0.00057   0.00004   2.04734
    R6        2.05950   0.00002   0.00054  -0.00119  -0.00065   2.05884
    R7        2.05950   0.00002   0.00054  -0.00119  -0.00066   2.05884
    A1        2.08699   0.00133   0.00029   0.00449   0.00478   2.09178
    A2        2.17999   0.00019  -0.00025   0.00133   0.00108   2.18107
    A3        2.01620  -0.00152  -0.00004  -0.00582  -0.00586   2.01034
    A4        1.90253   0.00186   0.00059   0.00994   0.01053   1.91307
    A5        1.90556   0.00018  -0.00002   0.00071   0.00069   1.90625
    A6        1.92167   0.00010   0.00003   0.00073   0.00076   1.92243
    A7        1.92163   0.00010   0.00003   0.00073   0.00076   1.92239
    A8        1.91420  -0.00022   0.00008  -0.00197  -0.00188   1.91232
    A9        1.91419  -0.00022   0.00008  -0.00196  -0.00188   1.91231
   A10        1.88655   0.00005  -0.00021   0.00172   0.00151   1.88806
    D1        3.14155  -0.00000  -0.00000  -0.00006  -0.00006   3.14150
    D2       -0.00009   0.00000  -0.00000   0.00011   0.00011   0.00001
    D3       -0.00021   0.00000   0.00000   0.00010   0.00010  -0.00010
    D4       -2.10262   0.00009  -0.00011   0.00162   0.00151  -2.10111
    D5        2.10217  -0.00009   0.00011  -0.00141  -0.00130   2.10087
    D6        3.14145  -0.00000  -0.00000  -0.00007  -0.00007   3.14137
    D7        1.03903   0.00009  -0.00011   0.00145   0.00134   1.04037
    D8       -1.03936  -0.00009   0.00011  -0.00159  -0.00148  -1.04084
         Item               Value     Threshold  Converged?
 Maximum Force            0.002978     0.000450     NO 
 RMS     Force            0.000902     0.000300     NO 
 Maximum Displacement     0.009522     0.001800     NO 
 RMS     Displacement     0.003280     0.001200     NO 
 Predicted change in Energy=-2.892416D-05
 GradGradGradGradGradGradGradGradGradGradGradGradGradGradGradGradGradGrad

                          Input orientation:                          
 ---------------------------------------------------------------------
 Center     Atomic      Atomic             Coordinates (Angstroms)
 Number     Number       Type             X           Y           Z
 ---------------------------------------------------------------------
      1          6           0        1.001002   -0.090169   -0.000026
      2          8           0        2.151513   -0.445328    0.000093
      3          8           0        0.004420   -1.019327   -0.000023
      4          6           0        0.540246    1.343988   -0.000037
      5          1           0       -0.852016   -0.575497   -0.000039
      6          1           0        1.405137    1.996466    0.000185
      7          1           0       -0.067189    1.542990    0.882242
      8          1           0       -0.066782    1.543063   -0.882579
 ---------------------------------------------------------------------
                    Distance matrix (angstroms):
                    1          2          3          4          5
     1  C    0.000000
     2  O    1.204082   0.000000
     3  O    1.362538   2.222495   0.000000
     4  C    1.506353   2.407869   2.423297   0.000000
     5  H    1.915520   3.006348   0.964607   2.371248   0.000000
     6  H    2.125411   2.553319   3.325210   1.083405   3.421949
     7  H    2.141643   3.107126   2.710902   1.089492   2.425358
     8  H    2.141613   3.107031   2.711055   1.089493   2.425648
                    6          7          8
     6  H    0.000000
     7  H    1.775221   0.000000
     8  H    1.775216   1.764821   0.000000
 Stoichiometry    C2H4O2
 Framework group  C1[X(C2H4O2)]
 Deg. of freedom    18
 Full point group                 C1      NOp   1
 Largest Abelian subgroup         C1      NOp   1
 Largest concise Abelian subgroup C1      NOp   1
                         Standard orientation:                         
 ---------------------------------------------------------------------
 Center     Atomic      Atomic             Coordinates (Angstroms)
 Number     Number       Type             X           Y           Z
 ---------------------------------------------------------------------
      1          6           0        0.129832   -0.136789    0.000026
      2          8           0        0.707326   -1.193347   -0.000093
      3          8           0        0.841552    1.025090    0.000023
      4          6           0       -1.367407    0.028665    0.000036
      5          1           0        0.235823    1.775796    0.000039
      6          1           0       -1.834273   -0.948987   -0.000185
      7          1           0       -1.683565    0.584204   -0.882242
      8          1           0       -1.683555    0.583790    0.882579
 ---------------------------------------------------------------------
 Rotational constants (GHZ):          10.9633000           9.6636993           5.3055368
 Standard basis: Aug-CC-pVTZ (5D, 7F)
 There are   320 symmetry adapted cartesian basis functions of A   symmetry.
 There are   276 symmetry adapted basis functions of A   symmetry.
   276 basis functions,   396 primitive gaussians,   320 cartesian basis functions
    16 alpha electrons       16 beta electrons
       nuclear repulsion energy       120.9311280492 Hartrees.
 NAtoms=    8 NActive=    8 NUniq=    8 SFac= 1.00D+00 NAtFMM=   60 NAOKFM=F Big=F
 Integral buffers will be    131072 words long.
 Raffenetti 1 integral format.
 Two-electron integral symmetry is turned on.
 One-electron integrals computed using PRISM.
 NBasis=   276 RedAO= T EigKep=  2.61D-05  NBF=   276
 NBsUse=   276 1.00D-06 EigRej= -1.00D+00 NBFU=   276
 Initial guess from the checkpoint file:  "/scr/Gau-30069.chk"
 B after Tr=    -0.000000   -0.000000    0.000000
         Rot=    1.000000   -0.000001   -0.000005   -0.000109 Ang=  -0.01 deg.
 Keep R1 ints in memory in canonical form, NReq=750704125.
 Requested convergence on RMS density matrix=1.00D-08 within 128 cycles.
 Requested convergence on MAX density matrix=1.00D-06.
 Requested convergence on             energy=1.00D-06.
 No special actions if energy rises.
 SCF Done:  E(RHF) =  -227.895967656     A.U. after    8 cycles
            NFock=  8  Conv=0.74D-08     -V/T= 2.0017
 ExpMin= 2.53D-02 ExpMax= 1.53D+04 ExpMxC= 5.22D+02 IAcc=3 IRadAn=         5 AccDes= 0.00D+00
 HarFok:  IExCor=  205 AccDes= 0.00D+00 IRadAn=         5 IDoV=-2 UseB2=F ITyADJ=14
 ICtDFT= 12500011 ScaDFX=  1.000000  1.000000  1.000000  1.000000
 Range of M.O.s used for correlation:     5   276
 NBasis=   276 NAE=    16 NBE=    16 NFC=     4 NFV=     0
 NROrb=    272 NOA=    12 NOB=    12 NVA=   260 NVB=   260

 **** Warning!!: The largest alpha MO coefficient is  0.46503220D+02

 Disk-based method using ON**2 memory for 12 occupieds at a time.
 Estimated scratch disk usage=   750111076 words.
 Actual    scratch disk usage=   686902628 words.
 JobTyp=1 Pass  1:  I=   5 to  16 NPSUse= 40 ParTrn=T ParDer=T DoDerP=T.
 (rs|ai) integrals will be sorted in core.
 Spin components of T(2) and E(2):
     alpha-alpha T2 =       0.2857582704D-01 E2=     -0.1017893686D+00
     alpha-beta  T2 =       0.1613064981D+00 E2=     -0.6147317384D+00
     beta-beta   T2 =       0.2857582704D-01 E2=     -0.1017893686D+00
 ANorm=    0.1103837919D+01
 E2 =    -0.8183104755D+00 EUMP2 =    -0.22871427813134D+03
          IDoAtm=11111111
          Differentiating once with respect to electric field.
                with respect to dipole field.
          Differentiating once with respect to nuclear coordinates.
 Keep R1 ints in memory in canonical form, NReq=750712505.
          There are     1 degrees of freedom in the 1st order CPHF.  IDoFFX=0 NUNeed=     1.
 LinEq1:  Iter=  0 NonCon=     1 RMS=3.68D-03 Max=9.26D-02 NDo=     1
 AX will form     1 AO Fock derivatives at one time.
 LinEq1:  Iter=  1 NonCon=     1 RMS=1.08D-03 Max=1.87D-02 NDo=     1
 LinEq1:  Iter=  2 NonCon=     1 RMS=3.66D-04 Max=6.50D-03 NDo=     1
 LinEq1:  Iter=  3 NonCon=     1 RMS=1.62D-04 Max=3.51D-03 NDo=     1
 LinEq1:  Iter=  4 NonCon=     1 RMS=4.11D-05 Max=6.49D-04 NDo=     1
 LinEq1:  Iter=  5 NonCon=     1 RMS=1.59D-05 Max=3.03D-04 NDo=     1
 LinEq1:  Iter=  6 NonCon=     1 RMS=5.15D-06 Max=6.64D-05 NDo=     1
 LinEq1:  Iter=  7 NonCon=     1 RMS=1.03D-06 Max=1.03D-05 NDo=     1
 LinEq1:  Iter=  8 NonCon=     1 RMS=2.56D-07 Max=5.44D-06 NDo=     1
 LinEq1:  Iter=  9 NonCon=     1 RMS=8.61D-08 Max=1.72D-06 NDo=     1
 LinEq1:  Iter= 10 NonCon=     1 RMS=2.46D-08 Max=3.60D-07 NDo=     1
 LinEq1:  Iter= 11 NonCon=     1 RMS=5.44D-09 Max=6.00D-08 NDo=     1
 LinEq1:  Iter= 12 NonCon=     1 RMS=9.22D-10 Max=8.83D-09 NDo=     1
 LinEq1:  Iter= 13 NonCon=     1 RMS=1.11D-10 Max=7.72D-10 NDo=     1
 LinEq1:  Iter= 14 NonCon=     0 RMS=1.64D-11 Max=1.87D-10 NDo=     1
 Linear equations converged to 1.000D-10 1.000D-09 after    14 iterations.
 End of Minotr F.D. properties file   721 does not exist.
 End of Minotr F.D. properties file   722 does not exist.
 End of Minotr F.D. properties file   788 does not exist.
 Calling FoFJK, ICntrl=  10002127 FMM=F ISym2X=0 I1Cent= 0 IOpClX= 0 NMat=1 NMatS=1 NMatT=0.
 ***** Axes restored to original set *****
 -------------------------------------------------------------------
 Center     Atomic                   Forces (Hartrees/Bohr)
 Number     Number              X              Y              Z
 -------------------------------------------------------------------
      1        6           0.001387845    0.000533239    0.000019010
      2        8          -0.000733287   -0.000206889   -0.000007083
      3        8          -0.000289961   -0.000851560   -0.000004278
      4        6          -0.000379238   -0.000095442   -0.000006275
      5        1          -0.000075529    0.000231895   -0.000001235
      6        1           0.000247873    0.000321043   -0.000000303
      7        1          -0.000078322    0.000032524    0.000187090
      8        1          -0.000079382    0.000035189   -0.000186926
 -------------------------------------------------------------------
 Cartesian Forces:  Max     0.001387845 RMS     0.000411414

 GradGradGradGradGradGradGradGradGradGradGradGradGradGradGradGradGradGrad
 Berny optimization.
 Using GEDIIS/GDIIS optimizer.
 FormGI is forming the generalized inverse of G from B-inverse, IUseBI=4.
 Internal  Forces:  Max     0.000689895 RMS     0.000276177
 Search for a local minimum.
 Step number   3 out of a maximum of   35
 All quantities printed in internal units (Hartrees-Bohrs-Radians)
 Mixed Optimization -- En-DIIS/RFO-DIIS
 Swapping is turned off.
 Update second derivatives using D2CorX and points    1    2    3
 DE= -2.97D-05 DEPred=-2.89D-05 R= 1.03D+00
 TightC=F SS=  1.41D+00  RLast= 1.50D-02 DXNew= 5.0454D-01 4.5070D-02
 Trust test= 1.03D+00 RLast= 1.50D-02 DXMaxT set to 3.00D-01
 ITU=  1  1  0
     Eigenvalues ---    0.00537   0.00910   0.02165   0.07275   0.07356
     Eigenvalues ---    0.15538   0.16000   0.16000   0.18004   0.22330
     Eigenvalues ---    0.29613   0.31027   0.33576   0.33681   0.35026
     Eigenvalues ---    0.46533   0.52557   0.88134
 En-DIIS/RFO-DIIS/Sim-DIIS IScMMF=       -3 using points:     3    2
 RFO step:  Lambda=-5.65912240D-06.
 DidBck=F Rises=F RFO-DIIS coefs:    1.04026   -0.04026
 Iteration  1 RMS(Cart)=  0.00134150 RMS(Int)=  0.00000128
 Iteration  2 RMS(Cart)=  0.00000126 RMS(Int)=  0.00000021
 Iteration  3 RMS(Cart)=  0.00000000 RMS(Int)=  0.00000021
 Variable       Old X    -DE/DX   Delta X   Delta X   Delta X     New X
                                 (Linear)    (Quad)   (Total)
    R1        2.27539  -0.00064  -0.00011  -0.00094  -0.00105   2.27434
    R2        2.57482   0.00069   0.00021   0.00163   0.00185   2.57667
    R3        2.84660   0.00037   0.00001   0.00117   0.00118   2.84777
    R4        1.82284   0.00017  -0.00005   0.00017   0.00012   1.82297
    R5        2.04734   0.00039   0.00000   0.00108   0.00109   2.04842
    R6        2.05884   0.00020  -0.00003   0.00049   0.00047   2.05931
    R7        2.05884   0.00020  -0.00003   0.00049   0.00047   2.05931
    A1        2.09178  -0.00039   0.00019  -0.00136  -0.00117   2.09061
    A2        2.18107   0.00056   0.00004   0.00240   0.00244   2.18351
    A3        2.01034  -0.00017  -0.00024  -0.00104  -0.00128   2.00906
    A4        1.91307  -0.00031   0.00042  -0.00150  -0.00108   1.91199
    A5        1.90625   0.00016   0.00003   0.00107   0.00110   1.90735
    A6        1.92243  -0.00004   0.00003  -0.00024  -0.00021   1.92222
    A7        1.92239  -0.00004   0.00003  -0.00020  -0.00017   1.92222
    A8        1.91232  -0.00006  -0.00008  -0.00050  -0.00057   1.91174
    A9        1.91231  -0.00006  -0.00008  -0.00050  -0.00057   1.91173
   A10        1.88806   0.00004   0.00006   0.00034   0.00041   1.88846
    D1        3.14150   0.00000  -0.00000   0.00040   0.00040  -3.14129
    D2        0.00001  -0.00000   0.00000  -0.00029  -0.00029  -0.00028
    D3       -0.00010  -0.00000   0.00000  -0.00033  -0.00032  -0.00043
    D4       -2.10111  -0.00000   0.00006  -0.00024  -0.00018  -2.10129
    D5        2.10087  -0.00000  -0.00005  -0.00039  -0.00045   2.10042
    D6        3.14137   0.00000  -0.00000   0.00041   0.00040  -3.14141
    D7        1.04037   0.00000   0.00005   0.00049   0.00054   1.04091
    D8       -1.04084   0.00001  -0.00006   0.00034   0.00028  -1.04056
         Item               Value     Threshold  Converged?
 Maximum Force            0.000690     0.000450     NO 
 RMS     Force            0.000276     0.000300     YES
 Maximum Displacement     0.003826     0.001800     NO 
 RMS     Displacement     0.001342     0.001200     NO 
 Predicted change in Energy=-2.829619D-06
 GradGradGradGradGradGradGradGradGradGradGradGradGradGradGradGradGradGrad

                          Input orientation:                          
 ---------------------------------------------------------------------
 Center     Atomic      Atomic             Coordinates (Angstroms)
 Number     Number       Type             X           Y           Z
 ---------------------------------------------------------------------
      1          6           0        1.002089   -0.090339    0.000211
      2          8           0        2.151446   -0.447353    0.000018
      3          8           0        0.004248   -1.019579   -0.000108
      4          6           0        0.540153    1.344093    0.000006
      5          1           0       -0.851505   -0.574294   -0.000167
      6          1           0        1.404334    1.998465    0.000098
      7          1           0       -0.067376    1.542674    0.882619
      8          1           0       -0.067058    1.542518   -0.882862
 ---------------------------------------------------------------------
                    Distance matrix (angstroms):
                    1          2          3          4          5
     1  C    0.000000
     2  O    1.203529   0.000000
     3  O    1.363516   2.222140   0.000000
     4  C    1.506976   2.409469   2.423662   0.000000
     5  H    1.915731   3.005633   0.964672   2.370005   0.000000
     6  H    2.127181   2.557382   3.326985   1.083979   3.421681
     7  H    2.142225   3.108434   2.710992   1.089739   2.423989
     8  H    2.142222   3.108187   2.710845   1.089741   2.423923
                    6          7          8
     6  H    0.000000
     7  H    1.775533   0.000000
     8  H    1.775528   1.765480   0.000000
 Stoichiometry    C2H4O2
 Framework group  C1[X(C2H4O2)]
 Deg. of freedom    18
 Full point group                 C1      NOp   1
 Largest Abelian subgroup         C1      NOp   1
 Largest concise Abelian subgroup C1      NOp   1
                         Standard orientation:                         
 ---------------------------------------------------------------------
 Center     Atomic      Atomic             Coordinates (Angstroms)
 Number     Number       Type             X           Y           Z
 ---------------------------------------------------------------------
      1          6           0        0.130101   -0.137439   -0.000202
      2          8           0        0.712280   -1.190791   -0.000010
      3          8           0        0.838230    1.027777    0.000117
      4          6           0       -1.368126    0.024714    0.000002
      5          1           0        0.229011    1.775736    0.000175
      6          1           0       -1.834115   -0.953992   -0.000089
      7          1           0       -1.685521    0.579500   -0.882610
      8          1           0       -1.685305    0.579220    0.882870
 ---------------------------------------------------------------------
 Rotational constants (GHZ):          10.9654842           9.6533496           5.3030571
 Standard basis: Aug-CC-pVTZ (5D, 7F)
 There are   320 symmetry adapted cartesian basis functions of A   symmetry.
 There are   276 symmetry adapted basis functions of A   symmetry.
   276 basis functions,   396 primitive gaussians,   320 cartesian basis functions
    16 alpha electrons       16 beta electrons
       nuclear repulsion energy       120.9074493109 Hartrees.
 NAtoms=    8 NActive=    8 NUniq=    8 SFac= 1.00D+00 NAtFMM=   60 NAOKFM=F Big=F
 Integral buffers will be    131072 words long.
 Raffenetti 1 integral format.
 Two-electron integral symmetry is turned on.
 One-electron integrals computed using PRISM.
 NBasis=   276 RedAO= T EigKep=  2.62D-05  NBF=   276
 NBsUse=   276 1.00D-06 EigRej= -1.00D+00 NBFU=   276
 Initial guess from the checkpoint file:  "/scr/Gau-30069.chk"
 B after Tr=     0.000000   -0.000000   -0.000000
         Rot=    0.999999   -0.000003    0.000016   -0.001631 Ang=  -0.19 deg.
 Keep R1 ints in memory in canonical form, NReq=750704125.
 Requested convergence on RMS density matrix=1.00D-08 within 128 cycles.
 Requested convergence on MAX density matrix=1.00D-06.
 Requested convergence on             energy=1.00D-06.
 No special actions if energy rises.
 SCF Done:  E(RHF) =  -227.895950296     A.U. after    8 cycles
            NFock=  8  Conv=0.44D-08     -V/T= 2.0017
 ExpMin= 2.53D-02 ExpMax= 1.53D+04 ExpMxC= 5.22D+02 IAcc=3 IRadAn=         5 AccDes= 0.00D+00
 HarFok:  IExCor=  205 AccDes= 0.00D+00 IRadAn=         5 IDoV=-2 UseB2=F ITyADJ=14
 ICtDFT= 12500011 ScaDFX=  1.000000  1.000000  1.000000  1.000000
 Range of M.O.s used for correlation:     5   276
 NBasis=   276 NAE=    16 NBE=    16 NFC=     4 NFV=     0
 NROrb=    272 NOA=    12 NOB=    12 NVA=   260 NVB=   260

 **** Warning!!: The largest alpha MO coefficient is  0.46690615D+02

 Disk-based method using ON**2 memory for 12 occupieds at a time.
 Estimated scratch disk usage=   750111076 words.
 Actual    scratch disk usage=   686902628 words.
 JobTyp=1 Pass  1:  I=   5 to  16 NPSUse= 40 ParTrn=T ParDer=T DoDerP=T.
 (rs|ai) integrals will be sorted in core.
 Spin components of T(2) and E(2):
     alpha-alpha T2 =       0.2857924765D-01 E2=     -0.1017879901D+00
     alpha-beta  T2 =       0.1613400542D+00 E2=     -0.6147552164D+00
     beta-beta   T2 =       0.2857924765D-01 E2=     -0.1017879901D+00
 ANorm=    0.1103856218D+01
 E2 =    -0.8183311967D+00 EUMP2 =    -0.22871428149228D+03
          IDoAtm=11111111
          Differentiating once with respect to electric field.
                with respect to dipole field.
          Differentiating once with respect to nuclear coordinates.
 Keep R1 ints in memory in canonical form, NReq=750712446.
          There are     1 degrees of freedom in the 1st order CPHF.  IDoFFX=0 NUNeed=     1.
 LinEq1:  Iter=  0 NonCon=     1 RMS=3.68D-03 Max=9.26D-02 NDo=     1
 AX will form     1 AO Fock derivatives at one time.
 LinEq1:  Iter=  1 NonCon=     1 RMS=1.08D-03 Max=1.87D-02 NDo=     1
 LinEq1:  Iter=  2 NonCon=     1 RMS=3.66D-04 Max=6.50D-03 NDo=     1
 LinEq1:  Iter=  3 NonCon=     1 RMS=1.62D-04 Max=3.53D-03 NDo=     1
 LinEq1:  Iter=  4 NonCon=     1 RMS=4.12D-05 Max=6.49D-04 NDo=     1
 LinEq1:  Iter=  5 NonCon=     1 RMS=1.59D-05 Max=3.05D-04 NDo=     1
 LinEq1:  Iter=  6 NonCon=     1 RMS=5.18D-06 Max=6.61D-05 NDo=     1
 LinEq1:  Iter=  7 NonCon=     1 RMS=1.04D-06 Max=1.04D-05 NDo=     1
 LinEq1:  Iter=  8 NonCon=     1 RMS=2.60D-07 Max=5.59D-06 NDo=     1
 LinEq1:  Iter=  9 NonCon=     1 RMS=8.71D-08 Max=1.70D-06 NDo=     1
 LinEq1:  Iter= 10 NonCon=     1 RMS=2.48D-08 Max=3.48D-07 NDo=     1
 LinEq1:  Iter= 11 NonCon=     1 RMS=5.45D-09 Max=6.04D-08 NDo=     1
 LinEq1:  Iter= 12 NonCon=     1 RMS=9.24D-10 Max=8.84D-09 NDo=     1
 LinEq1:  Iter= 13 NonCon=     1 RMS=1.11D-10 Max=7.66D-10 NDo=     1
 LinEq1:  Iter= 14 NonCon=     0 RMS=1.72D-11 Max=2.46D-10 NDo=     1
 Linear equations converged to 1.000D-10 1.000D-09 after    14 iterations.
 End of Minotr F.D. properties file   721 does not exist.
 End of Minotr F.D. properties file   722 does not exist.
 End of Minotr F.D. properties file   788 does not exist.
 Calling FoFJK, ICntrl=  10002127 FMM=F ISym2X=0 I1Cent= 0 IOpClX= 0 NMat=1 NMatS=1 NMatT=0.
 ***** Axes restored to original set *****
 -------------------------------------------------------------------
 Center     Atomic                   Forces (Hartrees/Bohr)
 Number     Number              X              Y              Z
 -------------------------------------------------------------------
      1        6           0.000210620    0.000327441   -0.000083196
      2        8          -0.000013647   -0.000059099    0.000031404
      3        8          -0.000093453   -0.000345053    0.000020173
      4        6          -0.000030578   -0.000021665    0.000026221
      5        1          -0.000077558    0.000135261    0.000003858
      6        1           0.000014985    0.000016781    0.000001238
      7        1          -0.000006996   -0.000021810    0.000031396
      8        1          -0.000003372   -0.000031856   -0.000031094
 -------------------------------------------------------------------
 Cartesian Forces:  Max     0.000345053 RMS     0.000115794

 GradGradGradGradGradGradGradGradGradGradGradGradGradGradGradGradGradGrad
 Berny optimization.
 Using GEDIIS/GDIIS optimizer.
 FormGI is forming the generalized inverse of G from B-inverse, IUseBI=4.
 Internal  Forces:  Max     0.000268119 RMS     0.000076144
 Search for a local minimum.
 Step number   4 out of a maximum of   35
 All quantities printed in internal units (Hartrees-Bohrs-Radians)
 Mixed Optimization -- En-DIIS/RFO-DIIS
 Swapping is turned off.
 Update second derivatives using D2CorX and points    1    2    3    4
 DE= -3.36D-06 DEPred=-2.83D-06 R= 1.19D+00
 TightC=F SS=  1.41D+00  RLast= 4.57D-03 DXNew= 5.0454D-01 1.3707D-02
 Trust test= 1.19D+00 RLast= 4.57D-03 DXMaxT set to 3.00D-01
 ITU=  1  1  1  0
     Eigenvalues ---    0.00537   0.00923   0.02166   0.07295   0.07351
     Eigenvalues ---    0.14629   0.16000   0.16158   0.17549   0.20302
     Eigenvalues ---    0.28892   0.31785   0.33575   0.33661   0.35433
     Eigenvalues ---    0.44150   0.51319   0.91019
 En-DIIS/RFO-DIIS/Sim-DIIS IScMMF=       -3 using points:     4    3    2
 RFO step:  Lambda=-9.00748664D-07.
 DidBck=F Rises=F RFO-DIIS coefs:    1.04407    0.09158   -0.13564
 Iteration  1 RMS(Cart)=  0.00089067 RMS(Int)=  0.00000126
 Iteration  2 RMS(Cart)=  0.00000116 RMS(Int)=  0.00000060
 Iteration  3 RMS(Cart)=  0.00000000 RMS(Int)=  0.00000060
 Variable       Old X    -DE/DX   Delta X   Delta X   Delta X     New X
                                 (Linear)    (Quad)   (Total)
    R1        2.27434   0.00000  -0.00041   0.00018  -0.00023   2.27411
    R2        2.57667   0.00027   0.00080   0.00013   0.00093   2.57760
    R3        2.84777  -0.00005   0.00009  -0.00011  -0.00002   2.84775
    R4        1.82297   0.00013  -0.00015   0.00038   0.00023   1.82319
    R5        2.04842   0.00002   0.00005   0.00014   0.00019   2.04861
    R6        2.05931   0.00003  -0.00007   0.00017   0.00010   2.05941
    R7        2.05931   0.00002  -0.00007   0.00016   0.00009   2.05940
    A1        2.09061  -0.00003   0.00060  -0.00073  -0.00013   2.09047
    A2        2.18351   0.00011   0.00025   0.00057   0.00082   2.18434
    A3        2.00906  -0.00008  -0.00085   0.00016  -0.00069   2.00837
    A4        1.91199  -0.00015   0.00138  -0.00225  -0.00087   1.91112
    A5        1.90735   0.00002   0.00014   0.00020   0.00034   1.90770
    A6        1.92222  -0.00004   0.00009  -0.00034  -0.00025   1.92198
    A7        1.92222  -0.00005   0.00010  -0.00047  -0.00037   1.92185
    A8        1.91174   0.00001  -0.00028   0.00026  -0.00002   1.91172
    A9        1.91173   0.00002  -0.00028   0.00027  -0.00001   1.91173
   A10        1.88846   0.00004   0.00022   0.00008   0.00030   1.88876
    D1       -3.14129  -0.00002   0.00001  -0.00172  -0.00171   3.14019
    D2       -0.00028   0.00001   0.00000   0.00140   0.00140   0.00112
    D3       -0.00043   0.00002  -0.00000   0.00159   0.00159   0.00116
    D4       -2.10129   0.00001   0.00020   0.00135   0.00155  -2.09975
    D5        2.10042   0.00002  -0.00020   0.00176   0.00156   2.10199
    D6       -3.14141  -0.00001   0.00001  -0.00172  -0.00171   3.14007
    D7        1.04091  -0.00002   0.00021  -0.00196  -0.00175   1.03916
    D8       -1.04056  -0.00001  -0.00019  -0.00154  -0.00173  -1.04229
         Item               Value     Threshold  Converged?
 Maximum Force            0.000268     0.000450     YES
 RMS     Force            0.000076     0.000300     YES
 Maximum Displacement     0.002201     0.001800     NO 
 RMS     Displacement     0.000891     0.001200     YES
 Predicted change in Energy=-4.438723D-07
 GradGradGradGradGradGradGradGradGradGradGradGradGradGradGradGradGradGrad

                          Input orientation:                          
 ---------------------------------------------------------------------
 Center     Atomic      Atomic             Coordinates (Angstroms)
 Number     Number       Type             X           Y           Z
 ---------------------------------------------------------------------
      1          6           0        1.002547   -0.090281   -0.000836
      2          8           0        2.151617   -0.447811    0.000424
      3          8           0        0.004024   -1.019508    0.000275
      4          6           0        0.540123    1.343980   -0.000185
      5          1           0       -0.851295   -0.573129    0.000296
      6          1           0        1.403934    1.999004    0.000405
      7          1           0       -0.067593    1.541543    0.882594
      8          1           0       -0.067027    1.542386   -0.883158
 ---------------------------------------------------------------------
                    Distance matrix (angstroms):
                    1          2          3          4          5
     1  C    0.000000
     2  O    1.203408   0.000000
     3  O    1.364006   2.222385   0.000000
     4  C    1.506964   2.409861   2.423526   0.000000
     5  H    1.915692   3.005526   0.964792   2.368830   0.000000
     6  H    2.127492   2.558502   3.327336   1.084079   3.420808
     7  H    2.142077   3.108158   2.709722   1.089793   2.421668
     8  H    2.141981   3.108695   2.710867   1.089788   2.423009
                    6          7          8
     6  H    0.000000
     7  H    1.775646   0.000000
     8  H    1.775644   1.765753   0.000000
 Stoichiometry    C2H4O2
 Framework group  C1[X(C2H4O2)]
 Deg. of freedom    18
 Full point group                 C1      NOp   1
 Largest Abelian subgroup         C1      NOp   1
 Largest concise Abelian subgroup C1      NOp   1
                         Standard orientation:                         
 ---------------------------------------------------------------------
 Center     Atomic      Atomic             Coordinates (Angstroms)
 Number     Number       Type             X           Y           Z
 ---------------------------------------------------------------------
      1          6           0        0.130222   -0.137688    0.000855
      2          8           0        0.714282   -1.189859   -0.000252
      3          8           0        0.836612    1.029157   -0.000140
      4          6           0       -1.368157    0.022939   -0.000117
      5          1           0        0.225392    1.775638   -0.000312
      6          1           0       -1.833526   -0.956172   -0.000778
      7          1           0       -1.685161    0.577657   -0.882979
      8          1           0       -1.686244    0.576981    0.882774
 ---------------------------------------------------------------------
 Rotational constants (GHZ):          10.9631862           9.6530164           5.3024741
 Standard basis: Aug-CC-pVTZ (5D, 7F)
 There are   320 symmetry adapted cartesian basis functions of A   symmetry.
 There are   276 symmetry adapted basis functions of A   symmetry.
   276 basis functions,   396 primitive gaussians,   320 cartesian basis functions
    16 alpha electrons       16 beta electrons
       nuclear repulsion energy       120.8998840778 Hartrees.
 NAtoms=    8 NActive=    8 NUniq=    8 SFac= 1.00D+00 NAtFMM=   60 NAOKFM=F Big=F
 Integral buffers will be    131072 words long.
 Raffenetti 1 integral format.
 Two-electron integral symmetry is turned on.
 One-electron integrals computed using PRISM.
 NBasis=   276 RedAO= T EigKep=  2.62D-05  NBF=   276
 NBsUse=   276 1.00D-06 EigRej= -1.00D+00 NBFU=   276
 Initial guess from the checkpoint file:  "/scr/Gau-30069.chk"
 B after Tr=    -0.000000    0.000000    0.000000
         Rot=    1.000000    0.000016    0.000028   -0.000727 Ang=   0.08 deg.
 Keep R1 ints in memory in canonical form, NReq=750704066.
 Requested convergence on RMS density matrix=1.00D-08 within 128 cycles.
 Requested convergence on MAX density matrix=1.00D-06.
 Requested convergence on             energy=1.00D-06.
 No special actions if energy rises.
 SCF Done:  E(RHF) =  -227.895922776     A.U. after    8 cycles
            NFock=  8  Conv=0.65D-08     -V/T= 2.0017
 ExpMin= 2.53D-02 ExpMax= 1.53D+04 ExpMxC= 5.22D+02 IAcc=3 IRadAn=         5 AccDes= 0.00D+00
 HarFok:  IExCor=  205 AccDes= 0.00D+00 IRadAn=         5 IDoV=-2 UseB2=F ITyADJ=14
 ICtDFT= 12500011 ScaDFX=  1.000000  1.000000  1.000000  1.000000
 Range of M.O.s used for correlation:     5   276
 NBasis=   276 NAE=    16 NBE=    16 NFC=     4 NFV=     0
 NROrb=    272 NOA=    12 NOB=    12 NVA=   260 NVB=   260

 **** Warning!!: The largest alpha MO coefficient is  0.46760181D+02

 Disk-based method using ON**2 memory for 12 occupieds at a time.
 Estimated scratch disk usage=   750111076 words.
 Actual    scratch disk usage=   686902628 words.
 JobTyp=1 Pass  1:  I=   5 to  16 NPSUse= 40 ParTrn=T ParDer=T DoDerP=T.
 (rs|ai) integrals will be sorted in core.
 Spin components of T(2) and E(2):
     alpha-alpha T2 =       0.2858242524D-01 E2=     -0.1017909278D+00
     alpha-beta  T2 =       0.1613589018D+00 E2=     -0.6147768340D+00
     beta-beta   T2 =       0.2858242524D-01 E2=     -0.1017909278D+00
 ANorm=    0.1103867633D+01
 E2 =    -0.8183586896D+00 EUMP2 =    -0.22871428146544D+03
          IDoAtm=11111111
          Differentiating once with respect to electric field.
                with respect to dipole field.
          Differentiating once with respect to nuclear coordinates.
 Keep R1 ints in memory in canonical form, NReq=750712446.
          There are     1 degrees of freedom in the 1st order CPHF.  IDoFFX=0 NUNeed=     1.
 LinEq1:  Iter=  0 NonCon=     1 RMS=3.69D-03 Max=9.27D-02 NDo=     1
 AX will form     1 AO Fock derivatives at one time.
 LinEq1:  Iter=  1 NonCon=     1 RMS=1.08D-03 Max=1.87D-02 NDo=     1
 LinEq1:  Iter=  2 NonCon=     1 RMS=3.66D-04 Max=6.50D-03 NDo=     1
 LinEq1:  Iter=  3 NonCon=     1 RMS=1.62D-04 Max=3.54D-03 NDo=     1
 LinEq1:  Iter=  4 NonCon=     1 RMS=4.12D-05 Max=6.49D-04 NDo=     1
 LinEq1:  Iter=  5 NonCon=     1 RMS=1.60D-05 Max=3.06D-04 NDo=     1
 LinEq1:  Iter=  6 NonCon=     1 RMS=5.19D-06 Max=6.60D-05 NDo=     1
 LinEq1:  Iter=  7 NonCon=     1 RMS=1.04D-06 Max=1.04D-05 NDo=     1
 LinEq1:  Iter=  8 NonCon=     1 RMS=2.61D-07 Max=5.64D-06 NDo=     1
 LinEq1:  Iter=  9 NonCon=     1 RMS=8.76D-08 Max=1.69D-06 NDo=     1
 LinEq1:  Iter= 10 NonCon=     1 RMS=2.49D-08 Max=3.44D-07 NDo=     1
 LinEq1:  Iter= 11 NonCon=     1 RMS=5.47D-09 Max=6.04D-08 NDo=     1
 LinEq1:  Iter= 12 NonCon=     1 RMS=9.37D-10 Max=8.82D-09 NDo=     1
 LinEq1:  Iter= 13 NonCon=     1 RMS=1.24D-10 Max=2.60D-09 NDo=     1
 LinEq1:  Iter= 14 NonCon=     0 RMS=2.67D-11 Max=8.81D-10 NDo=     1
 Linear equations converged to 1.000D-10 1.000D-09 after    14 iterations.
 End of Minotr F.D. properties file   721 does not exist.
 End of Minotr F.D. properties file   722 does not exist.
 End of Minotr F.D. properties file   788 does not exist.
 Calling FoFJK, ICntrl=  10002127 FMM=F ISym2X=0 I1Cent= 0 IOpClX= 0 NMat=1 NMatS=1 NMatT=0.
 ***** Axes restored to original set *****
 -------------------------------------------------------------------
 Center     Atomic                   Forces (Hartrees/Bohr)
 Number     Number              X              Y              Z
 -------------------------------------------------------------------
      1        6          -0.000114795    0.000101229    0.000376903
      2        8           0.000094099   -0.000023828   -0.000141131
      3        8           0.000000837   -0.000066933   -0.000091397
      4        6           0.000046993    0.000021539   -0.000120401
      5        1          -0.000009663    0.000026883   -0.000017984
      6        1          -0.000027777   -0.000031439   -0.000005922
      7        1           0.000013992   -0.000037019   -0.000012323
      8        1          -0.000003686    0.000009568    0.000012256
 -------------------------------------------------------------------
 Cartesian Forces:  Max     0.000376903 RMS     0.000097837

 GradGradGradGradGradGradGradGradGradGradGradGradGradGradGradGradGradGrad
 Berny optimization.
 Using GEDIIS/GDIIS optimizer.
 FormGI is forming the generalized inverse of G from B-inverse, IUseBI=4.
 Internal  Forces:  Max     0.000096782 RMS     0.000047306
 Search for a local minimum.
 Step number   5 out of a maximum of   35
 All quantities printed in internal units (Hartrees-Bohrs-Radians)
 Mixed Optimization -- En-DIIS/RFO-DIIS
 Swapping is turned off.
 Update second derivatives using D2CorX and points    1    2    3    4    5
 DE=  2.68D-08 DEPred=-4.44D-07 R=-6.05D-02
 Trust test=-6.05D-02 RLast= 4.96D-03 DXMaxT set to 1.50D-01
 ITU= -1  1  1  1  0
     Eigenvalues ---    0.00537   0.02082   0.02408   0.07270   0.07357
     Eigenvalues ---    0.10486   0.16117   0.16296   0.16760   0.19089
     Eigenvalues ---    0.28364   0.31855   0.33587   0.33674   0.35188
     Eigenvalues ---    0.41806   0.50826   0.90600
 En-DIIS/RFO-DIIS/Sim-DIIS IScMMF=       -3 using points:     5    4    3    2
 RFO step:  Lambda=-1.26733374D-06.
 DidBck=T Rises=F RFO-DIIS coefs:    0.27563    1.03678   -0.32937    0.01696
 Iteration  1 RMS(Cart)=  0.00048284 RMS(Int)=  0.00000035
 Iteration  2 RMS(Cart)=  0.00000047 RMS(Int)=  0.00000011
 Variable       Old X    -DE/DX   Delta X   Delta X   Delta X     New X
                                 (Linear)    (Quad)   (Total)
    R1        2.27411   0.00010  -0.00012   0.00020   0.00009   2.27420
    R2        2.57760   0.00003  -0.00018   0.00018  -0.00000   2.57760
    R3        2.84775  -0.00004   0.00038  -0.00049  -0.00011   2.84764
    R4        1.82319   0.00002  -0.00011   0.00016   0.00006   1.82325
    R5        2.04861  -0.00004   0.00020  -0.00026  -0.00006   2.04855
    R6        2.05941  -0.00002   0.00008  -0.00010  -0.00002   2.05939
    R7        2.05940  -0.00001   0.00009  -0.00010  -0.00001   2.05939
    A1        2.09047  -0.00000  -0.00035   0.00037   0.00002   2.09049
    A2        2.18434  -0.00002   0.00015  -0.00021  -0.00006   2.18428
    A3        2.00837   0.00002   0.00020  -0.00016   0.00004   2.00842
    A4        1.91112  -0.00004   0.00011  -0.00031  -0.00020   1.91093
    A5        1.90770  -0.00001   0.00008  -0.00011  -0.00003   1.90767
    A6        1.92198  -0.00005   0.00010  -0.00021  -0.00011   1.92186
    A7        1.92185   0.00003   0.00020  -0.00021  -0.00001   1.92184
    A8        1.91172   0.00002  -0.00013   0.00021   0.00008   1.91180
    A9        1.91173  -0.00000  -0.00014   0.00021   0.00007   1.91179
   A10        1.88876   0.00001  -0.00011   0.00012   0.00001   1.88877
    D1        3.14019   0.00008   0.00136   0.00003   0.00139   3.14158
    D2        0.00112  -0.00005  -0.00111  -0.00002  -0.00113  -0.00001
    D3        0.00116  -0.00007  -0.00125  -0.00001  -0.00126  -0.00010
    D4       -2.09975  -0.00006  -0.00120  -0.00007  -0.00127  -2.10102
    D5        2.10199  -0.00006  -0.00125   0.00005  -0.00120   2.10078
    D6        3.14007   0.00006   0.00137   0.00005   0.00141   3.14148
    D7        1.03916   0.00007   0.00141  -0.00001   0.00141   1.04057
    D8       -1.04229   0.00008   0.00137   0.00011   0.00147  -1.04082
         Item               Value     Threshold  Converged?
 Maximum Force            0.000097     0.000450     YES
 RMS     Force            0.000047     0.000300     YES
 Maximum Displacement     0.001613     0.001800     YES
 RMS     Displacement     0.000483     0.001200     YES
 Predicted change in Energy=-4.430154D-07
 Optimization completed.
    -- Stationary point found.
                           ----------------------------
                           !   Optimized Parameters   !
                           ! (Angstroms and Degrees)  !
 --------------------------                            --------------------------
 ! Name  Definition              Value          Derivative Info.                !
 --------------------------------------------------------------------------------
 ! R1    R(1,2)                  1.2034         -DE/DX =    0.0001              !
 ! R2    R(1,3)                  1.364          -DE/DX =    0.0                 !
 ! R3    R(1,4)                  1.507          -DE/DX =    0.0                 !
 ! R4    R(3,5)                  0.9648         -DE/DX =    0.0                 !
 ! R5    R(4,6)                  1.0841         -DE/DX =    0.0                 !
 ! R6    R(4,7)                  1.0898         -DE/DX =    0.0                 !
 ! R7    R(4,8)                  1.0898         -DE/DX =    0.0                 !
 ! A1    A(2,1,3)              119.7752         -DE/DX =    0.0                 !
 ! A2    A(2,1,4)              125.1533         -DE/DX =    0.0                 !
 ! A3    A(3,1,4)              115.0713         -DE/DX =    0.0                 !
 ! A4    A(1,3,5)              109.4993         -DE/DX =    0.0                 !
 ! A5    A(1,4,6)              109.3029         -DE/DX =    0.0                 !
 ! A6    A(1,4,7)              110.1211         -DE/DX =   -0.0001              !
 ! A7    A(1,4,8)              110.1137         -DE/DX =    0.0                 !
 ! A8    A(6,4,7)              109.5337         -DE/DX =    0.0                 !
 ! A9    A(6,4,8)              109.5339         -DE/DX =    0.0                 !
 ! A10   A(7,4,8)              108.2181         -DE/DX =    0.0                 !
 ! D1    D(2,1,3,5)            179.9194         -DE/DX =    0.0001              !
 ! D2    D(4,1,3,5)              0.0643         -DE/DX =    0.0                 !
 ! D3    D(2,1,4,6)              0.0664         -DE/DX =   -0.0001              !
 ! D4    D(2,1,4,7)           -120.3065         -DE/DX =   -0.0001              !
 ! D5    D(2,1,4,8)            120.4349         -DE/DX =   -0.0001              !
 ! D6    D(3,1,4,6)            179.9125         -DE/DX =    0.0001              !
 ! D7    D(3,1,4,7)             59.5396         -DE/DX =    0.0001              !
 ! D8    D(3,1,4,8)            -59.7189         -DE/DX =    0.0001              !
 --------------------------------------------------------------------------------
 GradGradGradGradGradGradGradGradGradGradGradGradGradGradGradGradGradGrad

                          Input orientation:                          
 ---------------------------------------------------------------------
 Center     Atomic      Atomic             Coordinates (Angstroms)
 Number     Number       Type             X           Y           Z
 ---------------------------------------------------------------------
      1          6           0        1.002547   -0.090281   -0.000836
[...]
   XX=             -1.3287   YY=              0.6113   ZZ=              0.7175
   XY=              0.3678   XZ=              0.0016   YZ=             -0.0016
 Octapole moment (field-independent basis, Debye-Ang**2):
  XXX=             -0.3175  YYY=             12.9193  ZZZ=             -0.0020  XYY=             -2.5686
  XXY=             -0.8016  XXZ=             -0.0017  XZZ=              0.3885  YZZ=              0.5536
  YYZ=             -0.0057  XYZ=             -0.0010
 Hexadecapole moment (field-independent basis, Debye-Ang**3):
 XXXX=           -167.3666 YYYY=           -110.9570 ZZZZ=            -28.5131 XXXY=              1.3322
 XXXZ=              0.0009 YYYX=              4.0748 YYYZ=             -0.0054 ZZZX=             -0.0010
 ZZZY=             -0.0006 XXYY=            -49.5642 XXZZ=            -30.9473 YYZZ=            -25.9371
 XXYZ=              0.0009 YYXZ=              0.0004 ZZXY=             -1.6250
 N-N= 1.208655834458D+02 E-N=-7.790524898936D+02  KE= 2.285020525190D+02
  Exact polarizability:      36.422      -1.681      39.515      -0.002       0.002      26.540
 Approx polarizability:      27.336      -2.202      32.176      -0.003       0.004      24.095
 Calling FoFJK, ICntrl=  10100127 FMM=F ISym2X=0 I1Cent= 0 IOpClX= 0 NMat=1 NMatS=1 NMatT=0.
 -------------------------------------------------------------------
 Center     Atomic                   Forces (Hartrees/Bohr)
 Number     Number              X              Y              Z
 -------------------------------------------------------------------
      1        6           0.001204566    0.001079939   -0.000378655
      2        8          -0.000612474    0.000830897    0.000142149
      3        8           0.000523142   -0.000869523    0.000091321
      4        6          -0.000375075   -0.000844768    0.000121047
      5        1          -0.000527900   -0.000498722    0.000018609
      6        1          -0.000319208    0.000122780    0.000005451
      7        1           0.000078275    0.000085661    0.000075733
      8        1           0.000028674    0.000093736   -0.000075655
 -------------------------------------------------------------------
 Cartesian Forces:  Max     0.001204566 RMS     0.000517715
 NDeriv=     18 NFrqRd=  0 NDerD0=      0 MskFDP=       0 MskDFD=       0 MskDF0=       0
 Re-enter D2Numr:  normal mode      9 step-down number 1
 Standard basis: Aug-CC-pVTZ (5D, 7F)
   276 basis functions,   396 primitive gaussians,   320 cartesian basis functions
    16 alpha electrons       16 beta electrons
       nuclear repulsion energy       120.9005204472 Hartrees.
 NAtoms=    8 NActive=    8 NUniq=    8 SFac= 1.00D+00 NAtFMM=   60 NAOKFM=F Big=F
 Integral buffers will be    131072 words long.
 Raffenetti 1 integral format.
 Two-electron integral symmetry is turned off.
 One-electron integrals computed using PRISM.
 NBasis=   276 RedAO= T EigKep=  2.60D-05  NBF=   276
 NBsUse=   276 1.00D-06 EigRej= -1.00D+00 NBFU=   276
 Initial guess from the checkpoint file:  "/scr/Gau-30069.chk"
 B after Tr=     0.000014   -0.000167    0.000000
         Rot=    1.000000   -0.000000   -0.000000   -0.000051 Ang=  -0.01 deg.
 Keep R1 ints in memory in canonical form, NReq=750703555.
 Requested convergence on RMS density matrix=1.00D-08 within 128 cycles.
 Requested convergence on MAX density matrix=1.00D-06.
 Requested convergence on             energy=1.00D-06.
 No special actions if energy rises.
 SCF Done:  E(RHF) =  -227.895792350     A.U. after    8 cycles
            NFock=  8  Conv=0.76D-08     -V/T= 2.0017
 ExpMin= 2.53D-02 ExpMax= 1.53D+04 ExpMxC= 5.22D+02 IAcc=3 IRadAn=         5 AccDes= 0.00D+00
 HarFok:  IExCor=  205 AccDes= 0.00D+00 IRadAn=         5 IDoV=-2 UseB2=F ITyADJ=14
 ICtDFT= 12500011 ScaDFX=  1.000000  1.000000  1.000000  1.000000
 Range of M.O.s used for correlation:     5   276
 NBasis=   276 NAE=    16 NBE=    16 NFC=     4 NFV=     0
 NROrb=    272 NOA=    12 NOB=    12 NVA=   260 NVB=   260

 **** Warning!!: The largest alpha MO coefficient is  0.46959574D+02

 Disk-based method using ON**2 memory for 12 occupieds at a time.
 Permanent disk used for amplitudes=    21346000 words.
 Estimated scratch disk usage=   710922120 words.
 Actual    scratch disk usage=   687048584 words.
 JobTyp=1 Pass  1:  I=   5 to  16 NPSUse= 40 ParTrn=T ParDer=T DoDerP=T.
 (rs|ai) integrals will be sorted in core.
 Spin components of T(2) and E(2):
     alpha-alpha T2 =       0.2859278444D-01 E2=     -0.1018082292D+00
     alpha-beta  T2 =       0.1614063372D+00 E2=     -0.6148616575D+00
     beta-beta   T2 =       0.2859278444D-01 E2=     -0.1018082292D+00
 ANorm=    0.1103898504D+01
 E2 =    -0.8184781159D+00 EUMP2 =    -0.22871427046570D+03
 G2DrvN: will do     9 centers at a time, making    1 passes.
 Calling FoFCou, ICntrl=  3107 FMM=F I1Cent=   0 AccDes= 0.00D+00.
 End of G2Drv F.D. properties file   721 does not exist.
 End of G2Drv F.D. properties file   722 does not exist.
 End of G2Drv F.D. properties file   788 does not exist.
          IDoAtm=11111111
          Differentiating once with respect to electric field.
                with respect to dipole field.
          Differentiating once with respect to nuclear coordinates.
 Keep R1 ints in memory in canonical form, NReq=750705255.
          There are    27 degrees of freedom in the 1st order CPHF.  IDoFFX=6 NUNeed=    27.
     24 vectors produced by pass  0 Test12= 1.54D-14 3.70D-09 XBig12= 9.07D+00 1.33D+00.
 AX will form    24 AO Fock derivatives at one time.
     24 vectors produced by pass  1 Test12= 1.54D-14 3.70D-09 XBig12= 5.58D-01 1.68D-01.
     24 vectors produced by pass  2 Test12= 1.54D-14 3.70D-09 XBig12= 1.71D-02 2.33D-02.
     24 vectors produced by pass  3 Test12= 1.54D-14 3.70D-09 XBig12= 2.43D-04 2.44D-03.
     24 vectors produced by pass  4 Test12= 1.54D-14 3.70D-09 XBig12= 2.29D-06 2.53D-04.
     24 vectors produced by pass  5 Test12= 1.54D-14 3.70D-09 XBig12= 2.12D-08 1.77D-05.
     24 vectors produced by pass  6 Test12= 1.54D-14 3.70D-09 XBig12= 1.35D-10 1.72D-06.
      7 vectors produced by pass  7 Test12= 1.54D-14 3.70D-09 XBig12= 8.97D-13 1.42D-07.
      3 vectors produced by pass  8 Test12= 1.54D-14 3.70D-09 XBig12= 6.06D-15 1.05D-08.
 InvSVY:  IOpt=1 It=  1 EMax= 2.66D-15
 Solved reduced A of dimension   178 with    27 vectors.
 End of Minotr F.D. properties file   721 does not exist.
 End of Minotr F.D. properties file   722 does not exist.
 End of Minotr F.D. properties file   788 does not exist.
 MDV=  6710886400.
 Form MO integral derivatives with frozen-active canonical formalism.
 Discarding MO integrals.
 Reordered first order wavefunction length =     34611200
 In DefCFB: NBatch=  1 ICI= 16 ICA=260 LFMax= 65
            Large arrays: LIAPS=  1469644800 LIARS=   512512000 words.
 Semi-Direct transformation.
 ModeAB=           2 MOrb=            16 LenV=    6708887219
 LASXX=    161919660 LTotXX=   161919660 LenRXX=   161919660
 LTotAB=   163653136 MaxLAS=   226805760 LenRXY=   226805760
 NonZer=   323839320 LenScr=   487664640 LnRSAI=           0
 LnScr1=           0 LExtra=           0 Total=    876390060
 MaxDsk=          -1 SrtSym=           F ITran=            4
 JobTyp=0 Pass  1:  I=   1 to  16.
 (rs|ai) integrals will be sorted in core.
 Spin components of T(2) and E(2):
     alpha-alpha T2 =       0.2859278444D-01 E2=     -0.1018082292D+00
     alpha-beta  T2 =       0.1614063372D+00 E2=     -0.6148616575D+00
     beta-beta   T2 =       0.2859278444D-01 E2=     -0.1018082292D+00
 ANorm=    0.1561148235D+01
 E2 =    -0.8184781159D+00 EUMP2 =    -0.22871427046570D+03
          IDoAtm=11111111
          Differentiating once with respect to electric field.
                with respect to dipole field.
          Differentiating once with respect to nuclear coordinates.
          There are     1 degrees of freedom in the 1st order CPHF.  IDoFFX=0 NUNeed=     1.
 LinEq1:  Iter=  0 NonCon=     1 RMS=3.69D-03 Max=9.27D-02 NDo=     1
 LinEq1:  Iter=  1 NonCon=     1 RMS=1.08D-03 Max=1.89D-02 NDo=     1
 LinEq1:  Iter=  2 NonCon=     1 RMS=3.66D-04 Max=6.50D-03 NDo=     1
 LinEq1:  Iter=  3 NonCon=     1 RMS=1.62D-04 Max=3.58D-03 NDo=     1
 LinEq1:  Iter=  4 NonCon=     1 RMS=4.13D-05 Max=6.51D-04 NDo=     1
 LinEq1:  Iter=  5 NonCon=     1 RMS=1.60D-05 Max=3.10D-04 NDo=     1
 LinEq1:  Iter=  6 NonCon=     1 RMS=5.24D-06 Max=6.64D-05 NDo=     1
 LinEq1:  Iter=  7 NonCon=     1 RMS=1.06D-06 Max=1.12D-05 NDo=     1
 LinEq1:  Iter=  8 NonCon=     1 RMS=2.69D-07 Max=5.86D-06 NDo=     1
 LinEq1:  Iter=  9 NonCon=     1 RMS=8.95D-08 Max=1.68D-06 NDo=     1
 LinEq1:  Iter= 10 NonCon=     1 RMS=2.52D-08 Max=3.30D-07 NDo=     1
 LinEq1:  Iter= 11 NonCon=     1 RMS=5.51D-09 Max=6.12D-08 NDo=     1
 LinEq1:  Iter= 12 NonCon=     1 RMS=9.41D-10 Max=8.85D-09 NDo=     1
 LinEq1:  Iter= 13 NonCon=     1 RMS=1.25D-10 Max=2.61D-09 NDo=     1
 LinEq1:  Iter= 14 NonCon=     0 RMS=2.68D-11 Max=8.83D-10 NDo=     1
 Linear equations converged to 1.000D-10 1.000D-09 after    14 iterations.
 End of Minotr F.D. properties file   721 does not exist.
 End of Minotr F.D. properties file   722 does not exist.
 End of Minotr F.D. properties file   788 does not exist.
 Symmetrizing basis deriv contribution to polar:
 IMax=3 JMax=2 DiffMx= 0.00D+00
 G2DrvN: will do     9 centers at a time, making    1 passes.
 Calling FoFCou, ICntrl=  3107 FMM=F I1Cent=   0 AccDes= 0.00D+00.
 End of G2Drv F.D. properties file   721 does not exist.
 End of G2Drv F.D. properties file   722 does not exist.
 End of G2Drv F.D. properties file   788 does not exist.
 R2 and R3 integrals will be kept in memory, NReq=  2654438880.
 DD1Dir will call FoFMem   1 times, MxPair=       272
 NAB=   136 NAA=     0 NBB=     0.
 Discarding MO integrals.

 **********************************************************************

            Population analysis using the MP2 Density.

 **********************************************************************

 Alpha  occ. eigenvalues --  -20.61629 -20.54853 -11.39090 -11.25999  -1.45985
 Alpha  occ. eigenvalues --   -1.36505  -1.03332  -0.82944  -0.72222  -0.67183
 Alpha  occ. eigenvalues --   -0.65469  -0.60580  -0.57271  -0.56173  -0.48174
 Alpha  occ. eigenvalues --   -0.45473
 Alpha virt. eigenvalues --    0.01891   0.03725   0.03882   0.05537   0.07687
 Alpha virt. eigenvalues --    0.09856   0.10181   0.10615   0.11548   0.12409
 Alpha virt. eigenvalues --    0.13350   0.15618   0.16967   0.17860   0.18031
 Alpha virt. eigenvalues --    0.20354   0.21352   0.21952   0.23460   0.25480
 Alpha virt. eigenvalues --    0.25947   0.26058   0.27629   0.29221   0.30444
 Alpha virt. eigenvalues --    0.32559   0.32715   0.32881   0.33672   0.35847
 Alpha virt. eigenvalues --    0.37142   0.38696   0.39768   0.40351   0.40613
 Alpha virt. eigenvalues --    0.41606   0.42648   0.43162   0.46092   0.47392
 Alpha virt. eigenvalues --    0.48460   0.48539   0.50836   0.52356   0.52484
 Alpha virt. eigenvalues --    0.54666   0.57058   0.59553   0.60608   0.61087
 Alpha virt. eigenvalues --    0.65250   0.68533   0.70648   0.72409   0.74723
 Alpha virt. eigenvalues --    0.76981   0.77621   0.78240   0.79410   0.80974
 Alpha virt. eigenvalues --    0.83251   0.83936   0.85393   0.86740   0.88735
 Alpha virt. eigenvalues --    0.89221   0.89957   0.90870   0.92832   0.94172
 Alpha virt. eigenvalues --    0.94629   0.96316   0.99923   1.00216   1.01753
 Alpha virt. eigenvalues --    1.03568   1.04448   1.06269   1.07031   1.07405
 Alpha virt. eigenvalues --    1.08947   1.12366   1.13082   1.13104   1.15247
 Alpha virt. eigenvalues --    1.17662   1.19026   1.19100   1.21503   1.24493
 Alpha virt. eigenvalues --    1.24681   1.29436   1.29666   1.31581   1.34876
 Alpha virt. eigenvalues --    1.38262   1.38349   1.39841   1.42262   1.45887
 Alpha virt. eigenvalues --    1.47702   1.48638   1.50192   1.51660   1.53682
 Alpha virt. eigenvalues --    1.56623   1.58580   1.61314   1.62787   1.64286
 Alpha virt. eigenvalues --    1.65527   1.70855   1.75401   1.76285   1.78525
 Alpha virt. eigenvalues --    1.78643   1.81653   1.84488   1.84886   1.88286
 Alpha virt. eigenvalues --    1.90001   1.92279   1.98842   2.02052   2.05439
 Alpha virt. eigenvalues --    2.06463   2.09889   2.13447   2.13937   2.18489
 Alpha virt. eigenvalues --    2.20028   2.24269   2.29679   2.29863   2.43991
 Alpha virt. eigenvalues --    2.44617   2.45858   2.48164   2.49920   2.50031
 Alpha virt. eigenvalues --    2.51660   2.55782   2.59060   2.60137   2.65358
 Alpha virt. eigenvalues --    2.68710   2.72447   2.78472   2.78562   2.81542
 Alpha virt. eigenvalues --    2.88276   2.90474   2.91258   2.94576   2.99736
 Alpha virt. eigenvalues --    2.99952   3.07432   3.17517   3.20869   3.23281
 Alpha virt. eigenvalues --    3.25427   3.31028   3.33253   3.43039   3.46826
 Alpha virt. eigenvalues --    3.47629   3.50261   3.59034   3.59892   3.61913
 Alpha virt. eigenvalues --    3.67073   3.74258   3.75867   3.81477   3.81890
 Alpha virt. eigenvalues --    3.87329   3.88422   3.91255   3.93580   3.96392
 Alpha virt. eigenvalues --    3.98591   4.04207   4.05336   4.06653   4.10775
 Alpha virt. eigenvalues --    4.12074   4.14700   4.25726   4.29301   4.30914
 Alpha virt. eigenvalues --    4.31366   4.33697   4.37555   4.40307   4.48494
 Alpha virt. eigenvalues --    4.49124   4.58661   4.59054   4.62720   4.71119
 Alpha virt. eigenvalues --    4.73379   4.74885   4.76243   4.79542   4.82570
 Alpha virt. eigenvalues --    4.89520   4.92606   5.00991   5.06629   5.11688
 Alpha virt. eigenvalues --    5.12081   5.16339   5.22906   5.29400   5.35515
 Alpha virt. eigenvalues --    5.40314   5.41431   5.44048   5.48287   5.60898
 Alpha virt. eigenvalues --    5.65680   5.66184   5.74986   5.85431   5.99624
 Alpha virt. eigenvalues --    6.10547   6.15303   6.23240   6.26190   6.53696
 Alpha virt. eigenvalues --    6.62937   6.65422   6.69537   6.71528   6.83762
 Alpha virt. eigenvalues --    6.85969   6.89972   6.98500   7.02667   7.16848
 Alpha virt. eigenvalues --    7.20387   7.24722   7.33020   7.33305   7.41630
 Alpha virt. eigenvalues --    7.42995   7.46958   7.59093   7.61508   7.66084
 Alpha virt. eigenvalues --    7.74541   7.86217   7.87669   7.89698   8.23675
 Alpha virt. eigenvalues --    8.50186  14.91868  15.62607  17.15202  19.15762
          Condensed to atoms (all electrons):
               1          2          3          4          5          6
     1  C    5.398974   0.253552   0.084411  -0.240411   0.059772  -0.026978
     2  O    0.253552   8.442996  -0.117404  -0.057713   0.002567   0.010630
     3  O    0.084411  -0.117404   8.339718  -0.031253   0.078864   0.000363
     4  C   -0.240411  -0.057713  -0.031253   6.668641  -0.055521   0.181120
     5  H    0.059772   0.002567   0.078864  -0.055521   0.671039  -0.000663
     6  H   -0.026978   0.010630   0.000363   0.181120  -0.000663   0.544371
     7  H    0.061478  -0.009941  -0.010401   0.115054   0.011851  -0.015871
     8  H    0.061321  -0.009924  -0.010350   0.115281   0.011822  -0.015859
               7          8
     1  C    0.061478   0.061321
     2  O   -0.009941  -0.009924
     3  O   -0.010401  -0.010350
     4  C    0.115054   0.115281
     5  H    0.011851   0.011822
     6  H   -0.015871  -0.015859
     7  H    0.492842   0.028527
     8  H    0.028527   0.492768
 Mulliken charges:
               1
     1  C    0.347880
     2  O   -0.514763
     3  O   -0.333948
     4  C   -0.695199
     5  H    0.220269
     6  H    0.322887
     7  H    0.326461
     8  H    0.326414
 Sum of Mulliken charges =  -0.00000
 Mulliken charges with hydrogens summed into heavy atoms:
               1
     1  C    0.347880
     2  O   -0.514763
     3  O   -0.113679
     4  C    0.280562
 APT charges:
               1
     1  C    1.097859
     2  O   -0.655599
     3  O   -0.718002
     4  C   -0.090645
     5  H    0.277534
     6  H    0.040356
     7  H    0.024251
     8  H    0.024247
 Sum of APT charges =  -0.00000
 APT charges with hydrogens summed into heavy atoms:
               1
     1  C    1.097859
     2  O   -0.655599
     3  O   -0.440469
     4  C   -0.001791
 Electronic spatial extent (au):  <R**2>=            255.1302
 Charge=              0.0000 electrons
 Dipole moment (field-independent basis, Debye):
    X=             -3.3428    Y=              2.7272    Z=              0.0009  Tot=              4.3141
 Quadrupole moment (field-independent basis, Debye-Ang):
   XX=            -25.5479   YY=            -23.6864   ZZ=            -23.5099
   XY=              0.3396   XZ=              0.0016   YZ=             -0.0015
 Traceless Quadrupole moment (field-independent basis, Debye-Ang):
   XX=             -1.2998   YY=              0.5616   ZZ=              0.7381
   XY=              0.3396   XZ=              0.0016   YZ=             -0.0015
 Octapole moment (field-independent basis, Debye-Ang**2):
  XXX=             -0.2951  YYY=             12.7172  ZZZ=             -0.0020  XYY=             -2.6434
  XXY=             -0.8281  XXZ=             -0.0017  XZZ=              0.3861  YZZ=              0.5499
  YYZ=             -0.0056  XYZ=             -0.0010
 Hexadecapole moment (field-independent basis, Debye-Ang**3):
 XXXX=           -167.2751 YYYY=           -111.2701 ZZZZ=            -28.4998 XXXY=              1.3568
 XXXZ=              0.0009 YYYX=              3.8997 YYYZ=             -0.0052 ZZZX=             -0.0010
 ZZZY=             -0.0006 XXYY=            -49.5394 XXZZ=            -30.9386 YYZZ=            -25.9081
 XXYZ=              0.0009 YYXZ=              0.0004 ZZXY=             -1.6356
 N-N= 1.209005204472D+02 E-N=-7.791235133448D+02  KE= 2.285075364064D+02
  Exact polarizability:      36.414      -1.671      39.447      -0.002       0.002      26.527
 Approx polarizability:      27.356      -2.194      32.127      -0.003       0.004      24.086
 Calling FoFJK, ICntrl=  10100127 FMM=F ISym2X=0 I1Cent= 0 IOpClX= 0 NMat=1 NMatS=1 NMatT=0.
 -------------------------------------------------------------------
 Center     Atomic                   Forces (Hartrees/Bohr)
 Number     Number              X              Y              Z
 -------------------------------------------------------------------
      1        6           0.002018618    0.001552079   -0.000376788
      2        8          -0.000055967   -0.000943871    0.000140672
      3        8          -0.001658566   -0.000853172    0.000092697
      4        6          -0.000283232   -0.000474817    0.000120342
      5        1           0.000496487    0.000422412    0.000017395
      6        1          -0.000249011    0.000118259    0.000005772
      7        1          -0.000109541    0.000085585    0.000125379
      8        1          -0.000158789    0.000093526   -0.000125468
 -------------------------------------------------------------------
 Cartesian Forces:  Max     0.002018618 RMS     0.000705131
 NDeriv=     18 NFrqRd=  0 NDerD0=      0 MskFDP=       0 MskDFD=       0 MskDF0=       0
 Re-enter D2Numr:  normal mode     10 step-up   number 1
 Standard basis: Aug-CC-pVTZ (5D, 7F)
   276 basis functions,   396 primitive gaussians,   320 cartesian basis functions
    16 alpha electrons       16 beta electrons
       nuclear repulsion energy       120.8991267061 Hartrees.
 NAtoms=    8 NActive=    8 NUniq=    8 SFac= 1.00D+00 NAtFMM=   60 NAOKFM=F Big=F
 Integral buffers will be    131072 words long.
 Raffenetti 1 integral format.
 Two-electron integral symmetry is turned off.
 One-electron integrals computed using PRISM.
 NBasis=   276 RedAO= T EigKep=  2.64D-05  NBF=   276
 NBsUse=   276 1.00D-06 EigRej= -1.00D+00 NBFU=   276
 Initial guess from the checkpoint file:  "/scr/Gau-30069.chk"
 B after Tr=    -0.000014    0.000167   -0.000000
         Rot=    1.000000    0.000000    0.000000    0.000051 Ang=   0.01 deg.
 Keep R1 ints in memory in canonical form, NReq=750703319.
