 Entering Gaussian System, Link 0=g16
 Input=acohc_mp2_avtz_opt_anharm.gjf
 Output=acohc_mp2_avtz_opt_anharm.log
 Initial command:
 /sw/contrib/chem-src/g16/c01/g16/l1.exe "/scr/Gau-51404.inp" -scrdir="/scr/"
 Entering Link 1 = /sw/contrib/chem-src/g16/c01/g16/l1.exe PID=     51407.
  
 Copyright (c) 1988-2019, Gaussian, Inc.  All Rights Reserved.
  
 This is part of the Gaussian(R) 16 program.  It is based on
 the Gaussian(R) 09 system (copyright 2009, Gaussian, Inc.),
 the Gaussian(R) 03 system (copyright 2003, Gaussian, Inc.),
 the Gaussian(R) 98 system (copyright 1998, Gaussian, Inc.),
 the Gaussian(R) 94 system (copyright 1995, Gaussian, Inc.),
 the Gaussian 92(TM) system (copyright 1992, Gaussian, Inc.),
 the Gaussian 90(TM) system (copyright 1990, Gaussian, Inc.),
 the Gaussian 88(TM) system (copyright 1988, Gaussian, Inc.),
 the Gaussian 86(TM) system (copyright 1986, Carnegie Mellon
 University), and the Gaussian 82(TM) system (copyright 1983,
 Carnegie Mellon University). Gaussian is a federally registered
 trademark of Gaussian, Inc.
  
 This software contains proprietary and confidential information,
 including trade secrets, belonging to Gaussian, Inc.
  
 This software is provided under written license and may be
 used, copied, transmitted, or stored only in accord with that
 written license.
  
 The following legend is applicable only to US Government
 contracts under FAR:
  
                    RESTRICTED RIGHTS LEGEND
  
 Use, reproduction and disclosure by the US Government is
 subject to restrictions as set forth in subparagraphs (a)
 and (c) of the Commercial Computer Software - Restricted
 Rights clause in FAR 52.227-19.
  
 Gaussian, Inc.
 340 Quinnipiac St., Bldg. 40, Wallingford CT 06492
  
  
 ---------------------------------------------------------------
 Warning -- This program may not be used in any manner that
 competes with the business of Gaussian, Inc. or will provide
 assistance to any competitor of Gaussian, Inc.  The licensee
 of this program is prohibited from giving any competitor of
 Gaussian, Inc. access to this program.  By using this program,
 the user acknowledges that Gaussian, Inc. is engaged in the
 business of creating and licensing software in the field of
 computational chemistry and represents and warrants to the
 licensee that it is not a competitor of Gaussian, Inc. and that
 it will not use this program in any manner prohibited above.
 ---------------------------------------------------------------
  

 Cite this work as:
 Gaussian 16, Revision C.01,
 M. J. Frisch, G. W. Trucks, H. B. Schlegel, G. E. Scuseria, 
 M. A. Robb, J. R. Cheeseman, G. Scalmani, V. Barone, 
 G. A. Petersson, H. Nakatsuji, X. Li, M. Caricato, A. V. Marenich, 
 J. Bloino, B. G. Janesko, R. Gomperts, B. Mennucci, H. P. Hratchian, 
 J. V. Ortiz, A. F. Izmaylov, J. L. Sonnenberg, D. Williams-Young, 
 F. Ding, F. Lipparini, F. Egidi, J. Goings, B. Peng, A. Petrone, 
 T. Henderson, D. Ranasinghe, V. G. Zakrzewski, J. Gao, N. Rega, 
 G. Zheng, W. Liang, M. Hada, M. Ehara, K. Toyota, R. Fukuda, 
 J. Hasegawa, M. Ishida, T. Nakajima, Y. Honda, O. Kitao, H. Nakai, 
 T. Vreven, K. Throssell, J. A. Montgomery, Jr., J. E. Peralta, 
 F. Ogliaro, M. J. Bearpark, J. J. Heyd, E. N. Brothers, K. N. Kudin, 
 V. N. Staroverov, T. A. Keith, R. Kobayashi, J. Normand, 
 K. Raghavachari, A. P. Rendell, J. C. Burant, S. S. Iyengar, 
 J. Tomasi, M. Cossi, J. M. Millam, M. Klene, C. Adamo, R. Cammi, 
 J. W. Ochterski, R. L. Martin, K. Morokuma, O. Farkas, 
 J. B. Foresman, and D. J. Fox, Gaussian, Inc., Wallingford CT, 2019.
 
 ******************************************
 Gaussian 16:  EM64L-G16RevC.01  3-Jul-2019
                21-Mar-2025 
 ******************************************
 %nprocshared=40
 Will use up to   40 processors via shared memory.
 %mem=50gb
 ----------------------------------------------
 # MP2/aug-cc-pVTZ opt freq=(vibrot,anharmonic)
 ----------------------------------------------
 1/18=20,19=15,38=1,80=1/1,3;
 2/9=110,12=2,17=6,18=5,40=1/2;
 3/5=16,6=1,7=10,11=9,25=1,30=1,71=1/1,2,3;
 4//1;
 5/5=2,38=5/2;
 8/6=4,10=1/1;
 9/15=2,16=-3/6;
 10/5=1/2;
 6/7=2,8=2,9=2,10=2/1;
 7/12=2/1,2,3,16;
 1/18=20,19=15,80=1/3(2);
 2/9=110/2;
 99//99;
 2/9=110/2;
 3/5=16,6=1,7=10,11=9,25=1,30=1,71=1/1,2,3;
 4/5=5,16=3,69=1/1;
 5/5=2,38=5/2;
 8/6=4,10=1/1;
 9/15=2,16=-3/6;
 10/5=1/2;
 7/12=2/1,2,3,16;
 1/18=20,19=15,80=1/3(-8);
 2/9=110/2;
 6/7=2,8=2,9=2,10=2/1;
 99/9=10/99;
 ----
 blah
 ----
 Symbolic Z-matrix:
 Charge =  0 Multiplicity = 1
 C                     0.97379  -0.11687   0.00001 
 O                     2.1618   -0.40176   0.00017 
 O                     0.04291  -1.09426  -0.00012 
 C                     0.54484   1.3166   -0.00005 
 H                     0.29336  -2.02933  -0.00006 
 H                     1.42769   1.99119   0.00014 
 H                    -0.06442   1.5242    0.90417 
 H                    -0.06408   1.52424  -0.90448 
 

 GradGradGradGradGradGradGradGradGradGradGradGradGradGradGradGradGradGrad
 Berny optimization.
 Initialization pass.
                           ----------------------------
                           !    Initial Parameters    !
                           ! (Angstroms and Degrees)  !
 --------------------------                            --------------------------
 ! Name  Definition              Value          Derivative Info.                !
 --------------------------------------------------------------------------------
 ! R1    R(1,2)                  1.2217         estimate D2E/DX2                !
 ! R2    R(1,3)                  1.3498         estimate D2E/DX2                !
 ! R3    R(1,4)                  1.4963         estimate D2E/DX2                !
 ! R4    R(3,5)                  0.968          estimate D2E/DX2                !
 ! R5    R(4,6)                  1.1111         estimate D2E/DX2                !
 ! R6    R(4,7)                  1.1099         estimate D2E/DX2                !
 ! R7    R(4,8)                  1.1099         estimate D2E/DX2                !
 ! A1    A(2,1,3)              120.1187         estimate D2E/DX2                !
 ! A2    A(2,1,4)              120.1446         estimate D2E/DX2                !
 ! A3    A(3,1,4)              119.7367         estimate D2E/DX2                !
 ! A4    A(1,3,5)              121.4016         estimate D2E/DX2                !
 ! A5    A(1,4,6)              110.7239         estimate D2E/DX2                !
 ! A6    A(1,4,7)              109.6653         estimate D2E/DX2                !
 ! A7    A(1,4,8)              109.6655         estimate D2E/DX2                !
 ! A8    A(6,4,7)              108.8128         estimate D2E/DX2                !
 ! A9    A(6,4,8)              108.813          estimate D2E/DX2                !
 ! A10   A(7,4,8)              109.1304         estimate D2E/DX2                !
 ! D1    D(2,1,3,5)              0.0015         estimate D2E/DX2                !
 ! D2    D(4,1,3,5)           -179.9979         estimate D2E/DX2                !
 ! D3    D(2,1,4,6)             -0.003          estimate D2E/DX2                !
 ! D4    D(2,1,4,7)           -120.0925         estimate D2E/DX2                !
 ! D5    D(2,1,4,8)            120.0868         estimate D2E/DX2                !
 ! D6    D(3,1,4,6)            179.9964         estimate D2E/DX2                !
 ! D7    D(3,1,4,7)             59.907          estimate D2E/DX2                !
 ! D8    D(3,1,4,8)            -59.9138         estimate D2E/DX2                !
 --------------------------------------------------------------------------------
 Trust Radius=3.00D-01 FncErr=1.00D-07 GrdErr=1.00D-07 EigMax=2.50D+02 EigMin=1.00D-04
 Number of steps in this run=     35 maximum allowed number of steps=    100.
 GradGradGradGradGradGradGradGradGradGradGradGradGradGradGradGradGradGrad

                          Input orientation:                          
 ---------------------------------------------------------------------
 Center     Atomic      Atomic             Coordinates (Angstroms)
 Number     Number       Type             X           Y           Z
 ---------------------------------------------------------------------
      1          6           0        0.973792   -0.116868    0.000006
      2          8           0        2.161804   -0.401762    0.000171
      3          8           0        0.042909   -1.094256   -0.000118
      4          6           0        0.544838    1.316605   -0.000045
      5          1           0        0.293363   -2.029329   -0.000058
      6          1           0        1.427687    1.991186    0.000137
      7          1           0       -0.064416    1.524200    0.904171
      8          1           0       -0.064078    1.524239   -0.904480
 ---------------------------------------------------------------------
                    Distance matrix (angstroms):
                    1          2          3          4          5
     1  C    0.000000
     2  O    1.221694   0.000000
     3  O    1.349751   2.229185   0.000000
     4  C    1.496278   2.359526   2.462556   0.000000
     5  H    2.029899   2.477912   0.968034   3.355371   0.000000
     6  H    2.156366   2.503023   3.381946   1.111072   4.177467
     7  H    2.142078   3.079384   2.772286   1.109907   3.684184
     8  H    2.142079   3.079354   2.772333   1.109907   3.684236
                    6          7          8
     6  H    0.000000
     7  H    1.806025   0.000000
     8  H    1.806027   1.808652   0.000000
 Stoichiometry    C2H4O2
 Framework group  C1[X(C2H4O2)]
 Deg. of freedom    18
 Full point group                 C1      NOp   1
 Largest Abelian subgroup         C1      NOp   1
 Largest concise Abelian subgroup C1      NOp   1
                         Standard orientation:                         
 ---------------------------------------------------------------------
 Center     Atomic      Atomic             Coordinates (Angstroms)
 Number     Number       Type             X           Y           Z
 ---------------------------------------------------------------------
      1          6           0       -0.062561    0.087625   -0.000008
      2          8           0       -0.356567    1.273415   -0.000172
      3          8           0       -1.032773   -0.850734    0.000116
      4          6           0        1.374163   -0.330310    0.000044
      5          1           0       -1.969742   -0.607466    0.000057
      6          1           0        2.041946    0.557692   -0.000138
      7          1           0        1.586430   -0.937953   -0.904172
      8          1           0        1.586466   -0.937614    0.904479
 ---------------------------------------------------------------------
 Rotational constants (GHZ):          11.7747258           8.9443282           5.2574327
 Standard basis: Aug-CC-pVTZ (5D, 7F)
 There are   320 symmetry adapted cartesian basis functions of A   symmetry.
 There are   276 symmetry adapted basis functions of A   symmetry.
   276 basis functions,   396 primitive gaussians,   320 cartesian basis functions
    16 alpha electrons       16 beta electrons
       nuclear repulsion energy       120.2613748212 Hartrees.
 NAtoms=    8 NActive=    8 NUniq=    8 SFac= 1.00D+00 NAtFMM=   60 NAOKFM=F Big=F
 Integral buffers will be    131072 words long.
 Raffenetti 1 integral format.
 Two-electron integral symmetry is turned on.
 One-electron integrals computed using PRISM.
 NBasis=   276 RedAO= T EigKep=  2.10D-05  NBF=   276
 NBsUse=   276 1.00D-06 EigRej= -1.00D+00 NBFU=   276
 ExpMin= 2.53D-02 ExpMax= 1.53D+04 ExpMxC= 5.22D+02 IAcc=3 IRadAn=         5 AccDes= 0.00D+00
 Harris functional with IExCor=  205 and IRadAn=       5 diagonalized for initial guess.
 HarFok:  IExCor=  205 AccDes= 0.00D+00 IRadAn=         5 IDoV= 1 UseB2=F ITyADJ=14
 ICtDFT=  3500011 ScaDFX=  1.000000  1.000000  1.000000  1.000000
 FoFCou: FMM=F IPFlag=           0 FMFlag=      100000 FMFlg1=           0
         NFxFlg=           0 DoJE=T BraDBF=F KetDBF=T FulRan=T
         wScrn=  0.000000 ICntrl=       500 IOpCl=  0 I1Cent=   200000004 NGrid=           0
         NMat0=    1 NMatS0=      1 NMatT0=    0 NMatD0=    1 NMtDS0=    0 NMtDT0=    0
 Petite list used in FoFCou.
 Keep R1 ints in memory in canonical form, NReq=750701693.
 Requested convergence on RMS density matrix=1.00D-08 within 128 cycles.
 Requested convergence on MAX density matrix=1.00D-06.
 Requested convergence on             energy=1.00D-06.
 No special actions if energy rises.
 SCF Done:  E(RHF) =  -227.893768753     A.U. after   12 cycles
            NFock= 12  Conv=0.85D-08     -V/T= 2.0024
 ExpMin= 2.53D-02 ExpMax= 1.53D+04 ExpMxC= 5.22D+02 IAcc=3 IRadAn=         5 AccDes= 0.00D+00
 HarFok:  IExCor=  205 AccDes= 0.00D+00 IRadAn=         5 IDoV=-2 UseB2=F ITyADJ=14
 ICtDFT= 12500011 ScaDFX=  1.000000  1.000000  1.000000  1.000000
 Range of M.O.s used for correlation:     5   276
 NBasis=   276 NAE=    16 NBE=    16 NFC=     4 NFV=     0
 NROrb=    272 NOA=    12 NOB=    12 NVA=   260 NVB=   260

 **** Warning!!: The largest alpha MO coefficient is  0.43096066D+02

 Disk-based method using ON**2 memory for 12 occupieds at a time.
 Estimated scratch disk usage=   749732832 words.
 Actual    scratch disk usage=   686652384 words.
 JobTyp=1 Pass  1:  I=   5 to  16 NPSUse= 40 ParTrn=T ParDer=T DoDerP=T.
 (rs|ai) integrals will be sorted in core.
 Spin components of T(2) and E(2):
     alpha-alpha T2 =       0.2856618226D-01 E2=     -0.1015647397D+00
     alpha-beta  T2 =       0.1617450273D+00 E2=     -0.6139676034D+00
     beta-beta   T2 =       0.2856618226D-01 E2=     -0.1015647397D+00
 ANorm=    0.1104027804D+01
 E2 =    -0.8170970827D+00 EUMP2 =    -0.22871086583537D+03
          IDoAtm=11111111
          Differentiating once with respect to electric field.
                with respect to dipole field.
          Differentiating once with respect to nuclear coordinates.
 Keep R1 ints in memory in canonical form, NReq=750710145.
          There are     1 degrees of freedom in the 1st order CPHF.  IDoFFX=0 NUNeed=     1.
 LinEq1:  Iter=  0 NonCon=     1 RMS=3.71D-03 Max=1.11D-01 NDo=     1
 AX will form     1 AO Fock derivatives at one time.
 LinEq1:  Iter=  1 NonCon=     1 RMS=1.05D-03 Max=1.72D-02 NDo=     1
 LinEq1:  Iter=  2 NonCon=     1 RMS=3.70D-04 Max=7.31D-03 NDo=     1
 LinEq1:  Iter=  3 NonCon=     1 RMS=1.65D-04 Max=3.00D-03 NDo=     1
 LinEq1:  Iter=  4 NonCon=     1 RMS=4.34D-05 Max=6.50D-04 NDo=     1
 LinEq1:  Iter=  5 NonCon=     1 RMS=1.59D-05 Max=2.60D-04 NDo=     1
 LinEq1:  Iter=  6 NonCon=     1 RMS=5.13D-06 Max=8.38D-05 NDo=     1
 LinEq1:  Iter=  7 NonCon=     1 RMS=1.02D-06 Max=2.53D-05 NDo=     1
 LinEq1:  Iter=  8 NonCon=     1 RMS=2.41D-07 Max=4.67D-06 NDo=     1
 LinEq1:  Iter=  9 NonCon=     1 RMS=7.19D-08 Max=8.68D-07 NDo=     1
 LinEq1:  Iter= 10 NonCon=     1 RMS=2.05D-08 Max=1.86D-07 NDo=     1
 LinEq1:  Iter= 11 NonCon=     1 RMS=4.13D-09 Max=4.79D-08 NDo=     1
 LinEq1:  Iter= 12 NonCon=     1 RMS=8.07D-10 Max=9.19D-09 NDo=     1
 LinEq1:  Iter= 13 NonCon=     1 RMS=1.18D-10 Max=1.30D-09 NDo=     1
 LinEq1:  Iter= 14 NonCon=     0 RMS=1.96D-11 Max=2.20D-10 NDo=     1
 Linear equations converged to 1.000D-10 1.000D-09 after    14 iterations.
 End of Minotr F.D. properties file   721 does not exist.
 End of Minotr F.D. properties file   722 does not exist.
 End of Minotr F.D. properties file   788 does not exist.

 **********************************************************************

            Population analysis using the SCF Density.

 **********************************************************************

 Orbital symmetries:
       Occupied  (A) (A) (A) (A) (A) (A) (A) (A) (A) (A) (A) (A)
                 (A) (A) (A) (A)
       Virtual   (A) (A) (A) (A) (A) (A) (A) (A) (A) (A) (A) (A)
                 (A) (A) (A) (A) (A) (A) (A) (A) (A) (A) (A) (A)
                 (A) (A) (A) (A) (A) (A) (A) (A) (A) (A) (A) (A)
                 (A) (A) (A) (A) (A) (A) (A) (A) (A) (A) (A) (A)
                 (A) (A) (A) (A) (A) (A) (A) (A) (A) (A) (A) (A)
                 (A) (A) (A) (A) (A) (A) (A) (A) (A) (A) (A) (A)
                 (A) (A) (A) (A) (A) (A) (A) (A) (A) (A) (A) (A)
                 (A) (A) (A) (A) (A) (A) (A) (A) (A) (A) (A) (A)
                 (A) (A) (A) (A) (A) (A) (A) (A) (A) (A) (A) (A)
                 (A) (A) (A) (A) (A) (A) (A) (A) (A) (A) (A) (A)
                 (A) (A) (A) (A) (A) (A) (A) (A) (A) (A) (A) (A)
                 (A) (A) (A) (A) (A) (A) (A) (A) (A) (A) (A) (A)
                 (A) (A) (A) (A) (A) (A) (A) (A) (A) (A) (A) (A)
                 (A) (A) (A) (A) (A) (A) (A) (A) (A) (A) (A) (A)
                 (A) (A) (A) (A) (A) (A) (A) (A) (A) (A) (A) (A)
                 (A) (A) (A) (A) (A) (A) (A) (A) (A) (A) (A) (A)
                 (A) (A) (A) (A) (A) (A) (A) (A) (A) (A) (A) (A)
                 (A) (A) (A) (A) (A) (A) (A) (A) (A) (A) (A) (A)
                 (A) (A) (A) (A) (A) (A) (A) (A) (A) (A) (A) (A)
                 (A) (A) (A) (A) (A) (A) (A) (A) (A) (A) (A) (A)
                 (A) (A) (A) (A) (A) (A) (A) (A) (A) (A) (A) (A)
                 (A) (A) (A) (A) (A) (A) (A) (A)
 The electronic state is 1-A.
 Alpha  occ. eigenvalues --  -20.61158 -20.54031 -11.39244 -11.25741  -1.45589
 Alpha  occ. eigenvalues --   -1.34895  -1.02413  -0.84590  -0.69548  -0.67553
 Alpha  occ. eigenvalues --   -0.64631  -0.57631  -0.56329  -0.56145  -0.47215
 Alpha  occ. eigenvalues --   -0.44725
 Alpha virt. eigenvalues --    0.02652   0.03754   0.04475   0.05206   0.08172
 Alpha virt. eigenvalues --    0.09797   0.09968   0.11953   0.12592   0.12743
 Alpha virt. eigenvalues --    0.13641   0.15911   0.16483   0.17193   0.17913
 Alpha virt. eigenvalues --    0.18767   0.21446   0.22387   0.24062   0.25120
 Alpha virt. eigenvalues --    0.26249   0.27303   0.28940   0.29339   0.31426
 Alpha virt. eigenvalues --    0.32634   0.33509   0.34111   0.34722   0.36057
 Alpha virt. eigenvalues --    0.37012   0.37135   0.39429   0.40404   0.40726
 Alpha virt. eigenvalues --    0.41118   0.42665   0.43245   0.44897   0.44916
 Alpha virt. eigenvalues --    0.47946   0.48054   0.49667   0.52144   0.52472
 Alpha virt. eigenvalues --    0.54257   0.56199   0.61247   0.61421   0.64204
 Alpha virt. eigenvalues --    0.67144   0.69610   0.72144   0.72504   0.75122
 Alpha virt. eigenvalues --    0.76957   0.78439   0.80047   0.80474   0.81241
 Alpha virt. eigenvalues --    0.82915   0.83603   0.86389   0.87107   0.88584
 Alpha virt. eigenvalues --    0.89123   0.89602   0.90390   0.93023   0.94053
 Alpha virt. eigenvalues --    0.96299   0.97461   0.97519   0.99322   1.00662
 Alpha virt. eigenvalues --    1.01150   1.02739   1.03783   1.04978   1.06284
 Alpha virt. eigenvalues --    1.10544   1.10645   1.10835   1.10880   1.14625
 Alpha virt. eigenvalues --    1.16769   1.18694   1.19338   1.19354   1.20832
 Alpha virt. eigenvalues --    1.22559   1.26119   1.26629   1.31874   1.33270
 Alpha virt. eigenvalues --    1.35403   1.36719   1.42809   1.44260   1.46290
 Alpha virt. eigenvalues --    1.47207   1.49131   1.51913   1.52449   1.57168
 Alpha virt. eigenvalues --    1.57729   1.58296   1.61384   1.63358   1.64977
 Alpha virt. eigenvalues --    1.65039   1.68479   1.70300   1.75697   1.76205
 Alpha virt. eigenvalues --    1.77548   1.79647   1.81562   1.81795   1.88785
 Alpha virt. eigenvalues --    1.89815   1.92559   1.95154   2.02005   2.05916
 Alpha virt. eigenvalues --    2.07760   2.10042   2.12510   2.17140   2.18953
 Alpha virt. eigenvalues --    2.21250   2.27018   2.28911   2.32224   2.32723
 Alpha virt. eigenvalues --    2.39155   2.42059   2.46862   2.48825   2.51304
 Alpha virt. eigenvalues --    2.54591   2.56376   2.59526   2.62546   2.66303
 Alpha virt. eigenvalues --    2.70565   2.73129   2.77204   2.80596   2.82231
 Alpha virt. eigenvalues --    2.86724   2.90038   2.90299   2.92885   2.96695
 Alpha virt. eigenvalues --    2.97837   3.08990   3.11236   3.16686   3.24036
 Alpha virt. eigenvalues --    3.25414   3.33951   3.36194   3.40282   3.45752
 Alpha virt. eigenvalues --    3.50961   3.54199   3.56803   3.58031   3.59997
 Alpha virt. eigenvalues --    3.68722   3.69060   3.77997   3.79819   3.83779
 Alpha virt. eigenvalues --    3.86636   3.89707   3.90115   3.94469   3.98557
 Alpha virt. eigenvalues --    4.00649   4.02513   4.04674   4.07123   4.09589
 Alpha virt. eigenvalues --    4.14239   4.14921   4.22614   4.28215   4.29418
 Alpha virt. eigenvalues --    4.30419   4.30714   4.39655   4.42125   4.47235
 Alpha virt. eigenvalues --    4.52097   4.52724   4.59991   4.64094   4.64933
 Alpha virt. eigenvalues --    4.73477   4.76154   4.78127   4.80237   4.81776
 Alpha virt. eigenvalues --    4.84542   4.91588   4.98042   5.00173   5.07160
 Alpha virt. eigenvalues --    5.07648   5.14149   5.23292   5.31633   5.31911
 Alpha virt. eigenvalues --    5.31977   5.39943   5.44441   5.56771   5.58455
 Alpha virt. eigenvalues --    5.60341   5.61089   5.76442   5.86379   5.98605
 Alpha virt. eigenvalues --    5.99578   6.03498   6.12428   6.27420   6.57342
 Alpha virt. eigenvalues --    6.64001   6.65342   6.69052   6.73850   6.77101
 Alpha virt. eigenvalues --    6.82329   6.83439   6.97274   7.02600   7.15331
 Alpha virt. eigenvalues --    7.18913   7.27503   7.28842   7.29246   7.36456
 Alpha virt. eigenvalues --    7.37778   7.48520   7.54132   7.61823   7.65105
 Alpha virt. eigenvalues --    7.74569   7.84851   7.91221   7.96414   8.17709
 Alpha virt. eigenvalues --    8.60826  15.03391  15.39990  16.95082  18.62131
          Condensed to atoms (all electrons):
               1          2          3          4          5          6
     1  C    4.868150   0.388685   0.249092  -0.006667   0.044582  -0.018264
     2  O    0.388685   8.408758  -0.070796  -0.063889  -0.019336   0.013613
     3  O    0.249092  -0.070796   8.038384  -0.047476   0.204799  -0.001881
     4  C   -0.006667  -0.063889  -0.047476   5.532797  -0.000452   0.371412
     5  H    0.044582  -0.019336   0.204799  -0.000452   0.553990   0.000963
     6  H   -0.018264   0.013613  -0.001881   0.371412   0.000963   0.306873
     7  H    0.007533  -0.007754   0.005244   0.388428  -0.002444   0.005866
     8  H    0.007533  -0.007752   0.005245   0.388424  -0.002444   0.005868
               7          8
     1  C    0.007533   0.007533
     2  O   -0.007754  -0.007752
     3  O    0.005244   0.005245
     4  C    0.388428   0.388424
     5  H   -0.002444  -0.002444
     6  H    0.005866   0.005868
     7  H    0.291557   0.015840
     8  H    0.015840   0.291555
 Mulliken charges:
               1
     1  C    0.459356
     2  O   -0.641527
     3  O   -0.382610
     4  C   -0.562575
     5  H    0.220344
     6  H    0.315549
     7  H    0.295732
     8  H    0.295732
 Sum of Mulliken charges =  -0.00000
 Mulliken charges with hydrogens summed into heavy atoms:
               1
     1  C    0.459356
     2  O   -0.641527
     3  O   -0.162266
     4  C    0.344438
 Electronic spatial extent (au):  <R**2>=            257.4642
 Charge=             -0.0000 electrons
 Dipole moment (field-independent basis, Debye):
    X=              0.4711    Y=             -2.2155    Z=              0.0003  Tot=              2.2650
 Quadrupole moment (field-independent basis, Debye-Ang):
   XX=            -17.1493   YY=            -29.6295   ZZ=            -23.2176
   XY=              1.0411   XZ=             -0.0000   YZ=              0.0009
 Traceless Quadrupole moment (field-independent basis, Debye-Ang):
   XX=              6.1828   YY=             -6.2974   ZZ=              0.1145
   XY=              1.0411   XZ=             -0.0000   YZ=              0.0009
 Octapole moment (field-independent basis, Debye-Ang**2):
  XXX=            -16.6337  YYY=             -3.5172  ZZZ=              0.0004  XYY=              1.6054
  XXY=             -2.9501  XXZ=              0.0001  XZZ=             -0.7707  YZZ=             -0.8327
  YYZ=              0.0001  XYZ=             -0.0005
 Hexadecapole moment (field-independent basis, Debye-Ang**3):
 XXXX=           -133.6608 YYYY=           -127.2859 ZZZZ=            -27.7222 XXXY=             14.2317
 XXXZ=             -0.0015 YYYX=              2.9850 YYYZ=              0.0077 ZZZX=              0.0007
 ZZZY=              0.0058 XXYY=            -46.4047 XXZZ=            -32.5939 YYZZ=            -23.7967
 XXYZ=              0.0018 YYXZ=             -0.0008 ZZXY=             -1.1014
 N-N= 1.202613748212D+02 E-N=-7.774349311574D+02  KE= 2.273534411404D+02
 Calling FoFJK, ICntrl=  10002127 FMM=F ISym2X=0 I1Cent= 0 IOpClX= 0 NMat=1 NMatS=1 NMatT=0.
 ***** Axes restored to original set *****
 -------------------------------------------------------------------
 Center     Atomic                   Forces (Hartrees/Bohr)
 Number     Number              X              Y              Z
 -------------------------------------------------------------------
      1        6           0.047936561   -0.026385389    0.000008249
      2        8          -0.005428223    0.001279422   -0.000001093
      3        8          -0.040775933    0.022863034   -0.000005802
      4        6          -0.019575303    0.010202753   -0.000001763
      5        1           0.020634488    0.011710166    0.000002279
      6        1          -0.011099471   -0.016219353   -0.000002955
      7        1           0.004156171   -0.001724983   -0.012631933
      8        1           0.004151709   -0.001725650    0.012633018
 -------------------------------------------------------------------
 Cartesian Forces:  Max     0.047936561 RMS     0.017086407

 GradGradGradGradGradGradGradGradGradGradGradGradGradGradGradGradGradGrad
 Berny optimization.
 FormGI is forming the generalized inverse of G from B-inverse, IUseBI=4.
 Internal  Forces:  Max     0.042004117 RMS     0.013978189
 Search for a local minimum.
 Step number   1 out of a maximum of   35
 All quantities printed in internal units (Hartrees-Bohrs-Radians)
 Mixed Optimization -- RFO/linear search
 Second derivative matrix not updated -- first step.
 ITU=  0
     Eigenvalues ---    0.00815   0.01200   0.02356   0.07402   0.07512
     Eigenvalues ---    0.16000   0.16000   0.16000   0.16000   0.25000
     Eigenvalues ---    0.25000   0.32487   0.32610   0.32610   0.32771
     Eigenvalues ---    0.53781   0.55074   0.94636
 RFO step:  Lambda=-2.06275962D-02 EMin= 8.15188048D-03
 Linear search not attempted -- first point.
 Maximum step size (   0.300) exceeded in Quadratic search.
    -- Step size scaled by   0.981
 Iteration  1 RMS(Cart)=  0.07618779 RMS(Int)=  0.00641990
 Iteration  2 RMS(Cart)=  0.01076969 RMS(Int)=  0.00013690
 Iteration  3 RMS(Cart)=  0.00009991 RMS(Int)=  0.00007268
 Iteration  4 RMS(Cart)=  0.00000001 RMS(Int)=  0.00007268
 Variable       Old X    -DE/DX   Delta X   Delta X   Delta X     New X
                                 (Linear)    (Quad)   (Total)
    R1        2.30867  -0.00558   0.00000  -0.00566  -0.00566   2.30301
    R2        2.55066  -0.01114   0.00000  -0.01914  -0.01914   2.53152
    R3        2.82755  -0.00266   0.00000  -0.00749  -0.00749   2.82007
    R4        1.82932  -0.00597   0.00000  -0.01049  -0.01049   1.81882
    R5        2.09962  -0.01867   0.00000  -0.05302  -0.05302   2.04661
    R6        2.09742  -0.01290   0.00000  -0.03649  -0.03649   2.06093
    R7        2.09742  -0.01289   0.00000  -0.03649  -0.03649   2.06093
    A1        2.09647   0.01866   0.00000   0.06764   0.06764   2.16410
    A2        2.09692   0.01871   0.00000   0.06782   0.06782   2.16474
    A3        2.08980  -0.03736   0.00000  -0.13546  -0.13546   1.95434
    A4        2.11886  -0.04200   0.00000  -0.22818  -0.22818   1.89068
    A5        1.93250  -0.00943   0.00000  -0.05009  -0.04992   1.88258
    A6        1.91402   0.00320   0.00000   0.01684   0.01688   1.93091
    A7        1.91402   0.00320   0.00000   0.01684   0.01688   1.93090
    A8        1.89914   0.00342   0.00000   0.01969   0.01985   1.91900
    A9        1.89915   0.00342   0.00000   0.01968   0.01985   1.91899
   A10        1.90469  -0.00379   0.00000  -0.02283  -0.02291   1.88177
    D1        0.00003  -0.00000   0.00000  -0.00000  -0.00000   0.00002
    D2       -3.14156  -0.00000   0.00000  -0.00002  -0.00002  -3.14158
    D3       -0.00005   0.00000   0.00000  -0.00000  -0.00000  -0.00006
    D4       -2.09601  -0.00035   0.00000  -0.00364  -0.00354  -2.09955
    D5        2.09591   0.00035   0.00000   0.00362   0.00353   2.09943
    D6        3.14153   0.00000   0.00000   0.00001   0.00001   3.14154
    D7        1.04557  -0.00035   0.00000  -0.00362  -0.00353   1.04205
    D8       -1.04569   0.00035   0.00000   0.00364   0.00354  -1.04215
         Item               Value     Threshold  Converged?
 Maximum Force            0.042004     0.000450     NO 
 RMS     Force            0.013978     0.000300     NO 
 Maximum Displacement     0.261971     0.001800     NO 
 RMS     Displacement     0.083602     0.001200     NO 
 Predicted change in Energy=-1.123871D-02
 GradGradGradGradGradGradGradGradGradGradGradGradGradGradGradGradGradGrad

                          Input orientation:                          
 ---------------------------------------------------------------------
 Center     Atomic      Atomic             Coordinates (Angstroms)
 Number     Number       Type             X           Y           Z
 ---------------------------------------------------------------------
      1          6           0        1.007976   -0.128844    0.000020
      2          8           0        2.182583   -0.453696    0.000174
      3          8           0       -0.009976   -0.999685   -0.000123
      4          6           0        0.532707    1.285768   -0.000045
      5          1           0        0.353975   -1.890700   -0.000059
      6          1           0        1.404034    1.928976    0.000128
      7          1           0       -0.077864    1.486084    0.881135
      8          1           0       -0.077534    1.486112   -0.881446
 ---------------------------------------------------------------------
                    Distance matrix (angstroms):
                    1          2          3          4          5
     1  C    0.000000
     2  O    1.218700   0.000000
     3  O    1.339624   2.259517   0.000000
     4  C    1.492316   2.397462   2.349000   0.000000
     5  H    1.879323   2.325680   0.962480   3.181493   0.000000
     6  H    2.095587   2.506645   3.252151   1.083018   3.961383
     7  H    2.136213   3.106197   2.638233   1.090597   3.516484
     8  H    2.136211   3.106161   2.638272   1.090596   3.516518
                    6          7          8
     6  H    0.000000
     7  H    1.779986   0.000000
     8  H    1.779985   1.762581   0.000000
 Stoichiometry    C2H4O2
 Framework group  C1[X(C2H4O2)]
 Deg. of freedom    18
 Full point group                 C1      NOp   1
 Largest Abelian subgroup         C1      NOp   1
 Largest concise Abelian subgroup C1      NOp   1
                         Standard orientation:                         
 ---------------------------------------------------------------------
 Center     Atomic      Atomic             Coordinates (Angstroms)
 Number     Number       Type             X           Y           Z
 ---------------------------------------------------------------------
      1          6           0       -0.093975    0.113414   -0.000019
      2          8           0       -0.586050    1.228354   -0.000174
      3          8           0       -0.807667   -1.020268    0.000123
      4          6           0        1.374681   -0.151269    0.000045
      5          1           0       -1.742109   -0.789643    0.000060
      6          1           0        1.884460    0.804269   -0.000127
      7          1           0        1.661586   -0.726255   -0.881134
      8          1           0        1.661566   -0.725925    0.881447
 ---------------------------------------------------------------------
 Rotational constants (GHZ):          11.2142042           9.6623903           5.3627547
 Standard basis: Aug-CC-pVTZ (5D, 7F)
 There are   320 symmetry adapted cartesian basis functions of A   symmetry.
 There are   276 symmetry adapted basis functions of A   symmetry.
   276 basis functions,   396 primitive gaussians,   320 cartesian basis functions
    16 alpha electrons       16 beta electrons
       nuclear repulsion energy       121.3689516179 Hartrees.
 NAtoms=    8 NActive=    8 NUniq=    8 SFac= 1.00D+00 NAtFMM=   60 NAOKFM=F Big=F
 Integral buffers will be    131072 words long.
 Raffenetti 1 integral format.
 Two-electron integral symmetry is turned on.
 One-electron integrals computed using PRISM.
 NBasis=   276 RedAO= T EigKep=  2.04D-05  NBF=   276
 NBsUse=   276 1.00D-06 EigRej= -1.00D+00 NBFU=   276
 Initial guess from the checkpoint file:  "/scr/Gau-51407.chk"
 B after Tr=     0.000000    0.000000   -0.000000
         Rot=    0.996795   -0.000000   -0.000001   -0.080000 Ang=  -9.18 deg.
 ExpMin= 2.53D-02 ExpMax= 1.53D+04 ExpMxC= 5.22D+02 IAcc=3 IRadAn=         5 AccDes= 0.00D+00
 Harris functional with IExCor=  205 and IRadAn=       5 diagonalized for initial guess.
 HarFok:  IExCor=  205 AccDes= 0.00D+00 IRadAn=         5 IDoV= 1 UseB2=F ITyADJ=14
 ICtDFT=  3500011 ScaDFX=  1.000000  1.000000  1.000000  1.000000
 FoFCou: FMM=F IPFlag=           0 FMFlag=      100000 FMFlg1=           0
         NFxFlg=           0 DoJE=T BraDBF=F KetDBF=T FulRan=T
         wScrn=  0.000000 ICntrl=       500 IOpCl=  0 I1Cent=   200000004 NGrid=           0
         NMat0=    1 NMatS0=      1 NMatT0=    0 NMatD0=    1 NMtDS0=    0 NMtDT0=    0
 Petite list used in FoFCou.
 Keep R1 ints in memory in canonical form, NReq=750703771.
 Requested convergence on RMS density matrix=1.00D-08 within 128 cycles.
 Requested convergence on MAX density matrix=1.00D-06.
 Requested convergence on             energy=1.00D-06.
 No special actions if energy rises.
 SCF Done:  E(RHF) =  -227.904874591     A.U. after   11 cycles
            NFock= 11  Conv=0.40D-08     -V/T= 2.0016
 ExpMin= 2.53D-02 ExpMax= 1.53D+04 ExpMxC= 5.22D+02 IAcc=3 IRadAn=         5 AccDes= 0.00D+00
 HarFok:  IExCor=  205 AccDes= 0.00D+00 IRadAn=         5 IDoV=-2 UseB2=F ITyADJ=14
 ICtDFT= 12500011 ScaDFX=  1.000000  1.000000  1.000000  1.000000
 Range of M.O.s used for correlation:     5   276
 NBasis=   276 NAE=    16 NBE=    16 NFC=     4 NFV=     0
 NROrb=    272 NOA=    12 NOB=    12 NVA=   260 NVB=   260

 **** Warning!!: The largest alpha MO coefficient is  0.45595703D+02

 Disk-based method using ON**2 memory for 12 occupieds at a time.
 Estimated scratch disk usage=   749806872 words.
 Actual    scratch disk usage=   686784792 words.
 JobTyp=1 Pass  1:  I=   5 to  16 NPSUse= 40 ParTrn=T ParDer=T DoDerP=T.
 (rs|ai) integrals will be sorted in core.
 Spin components of T(2) and E(2):
     alpha-alpha T2 =       0.2846532526D-01 E2=     -0.1017275746D+00
     alpha-beta  T2 =       0.1602436823D+00 E2=     -0.6135471498D+00
     beta-beta   T2 =       0.2846532526D-01 E2=     -0.1017275746D+00
 ANorm=    0.1103256241D+01
 E2 =    -0.8170022990D+00 EUMP2 =    -0.22872187688969D+03
          IDoAtm=11111111
          Differentiating once with respect to electric field.
                with respect to dipole field.
          Differentiating once with respect to nuclear coordinates.
 Keep R1 ints in memory in canonical form, NReq=750711574.
          There are     1 degrees of freedom in the 1st order CPHF.  IDoFFX=0 NUNeed=     1.
 LinEq1:  Iter=  0 NonCon=     1 RMS=3.71D-03 Max=1.11D-01 NDo=     1
 AX will form     1 AO Fock derivatives at one time.
 LinEq1:  Iter=  1 NonCon=     1 RMS=1.04D-03 Max=1.65D-02 NDo=     1
 LinEq1:  Iter=  2 NonCon=     1 RMS=3.67D-04 Max=7.21D-03 NDo=     1
 LinEq1:  Iter=  3 NonCon=     1 RMS=1.63D-04 Max=2.97D-03 NDo=     1
 LinEq1:  Iter=  4 NonCon=     1 RMS=4.21D-05 Max=6.31D-04 NDo=     1
 LinEq1:  Iter=  5 NonCon=     1 RMS=1.58D-05 Max=2.68D-04 NDo=     1
 LinEq1:  Iter=  6 NonCon=     1 RMS=4.83D-06 Max=6.10D-05 NDo=     1
 LinEq1:  Iter=  7 NonCon=     1 RMS=9.49D-07 Max=1.93D-05 NDo=     1
 LinEq1:  Iter=  8 NonCon=     1 RMS=2.23D-07 Max=4.65D-06 NDo=     1
 LinEq1:  Iter=  9 NonCon=     1 RMS=6.65D-08 Max=1.04D-06 NDo=     1
 LinEq1:  Iter= 10 NonCon=     1 RMS=1.95D-08 Max=1.93D-07 NDo=     1
 LinEq1:  Iter= 11 NonCon=     1 RMS=4.40D-09 Max=5.98D-08 NDo=     1
 LinEq1:  Iter= 12 NonCon=     1 RMS=8.51D-10 Max=8.02D-09 NDo=     1
 LinEq1:  Iter= 13 NonCon=     1 RMS=1.15D-10 Max=1.37D-09 NDo=     1
 LinEq1:  Iter= 14 NonCon=     0 RMS=1.80D-11 Max=1.76D-10 NDo=     1
 Linear equations converged to 1.000D-10 1.000D-09 after    14 iterations.
 End of Minotr F.D. properties file   721 does not exist.
 End of Minotr F.D. properties file   722 does not exist.
 End of Minotr F.D. properties file   788 does not exist.
 Calling FoFJK, ICntrl=  10002127 FMM=F ISym2X=0 I1Cent= 0 IOpClX= 0 NMat=1 NMatS=1 NMatT=0.
 ***** Axes restored to original set *****
 -------------------------------------------------------------------
 Center     Atomic                   Forces (Hartrees/Bohr)
 Number     Number              X              Y              Z
 -------------------------------------------------------------------
      1        6           0.019231157    0.004849062    0.000001390
      2        8          -0.011437953   -0.002622809   -0.000000947
      3        8          -0.011626868   -0.001132975   -0.000000872
      4        6          -0.002000891    0.005049156    0.000000666
      5        1           0.005175948   -0.005105291    0.000000270
      6        1          -0.000329820    0.001802532   -0.000000294
      7        1           0.000494458   -0.001419785   -0.001325355
      8        1           0.000493969   -0.001419889    0.001325142
 -------------------------------------------------------------------
 Cartesian Forces:  Max     0.019231157 RMS     0.005632004

 GradGradGradGradGradGradGradGradGradGradGradGradGradGradGradGradGradGrad
 Berny optimization.
 Using GEDIIS/GDIIS optimizer.
 FormGI is forming the generalized inverse of G from B-inverse, IUseBI=4.
 Internal  Forces:  Max     0.010324991 RMS     0.003927587
 Search for a local minimum.
 Step number   2 out of a maximum of   35
 All quantities printed in internal units (Hartrees-Bohrs-Radians)
 Mixed Optimization -- RFO/linear search
 Update second derivatives using D2CorX and points    1    2
 DE= -1.10D-02 DEPred=-1.12D-02 R= 9.80D-01
 TightC=F SS=  1.41D+00  RLast= 3.00D-01 DXNew= 5.0454D-01 9.0026D-01
 Trust test= 9.80D-01 RLast= 3.00D-01 DXMaxT set to 5.05D-01
 ITU=  1  0
 Use linear search instead of GDIIS.
     Eigenvalues ---    0.00815   0.01200   0.02356   0.07378   0.07623
     Eigenvalues ---    0.14790   0.16000   0.16000   0.16746   0.23723
     Eigenvalues ---    0.27603   0.32205   0.32580   0.32610   0.33679
     Eigenvalues ---    0.54078   0.57459   0.94799
 RFO step:  Lambda=-1.10886744D-03 EMin= 8.15188048D-03
 Quartic linear search produced a step of  0.03530.
 Iteration  1 RMS(Cart)=  0.02130832 RMS(Int)=  0.00035679
 Iteration  2 RMS(Cart)=  0.00035181 RMS(Int)=  0.00007354
 Iteration  3 RMS(Cart)=  0.00000004 RMS(Int)=  0.00007354
 Variable       Old X    -DE/DX   Delta X   Delta X   Delta X     New X
                                 (Linear)    (Quad)   (Total)
    R1        2.30301  -0.01032  -0.00020  -0.01136  -0.01156   2.29145
    R2        2.53152   0.00896  -0.00068   0.01653   0.01586   2.54738
    R3        2.82007   0.00423  -0.00026   0.01323   0.01297   2.83303
    R4        1.81882   0.00668  -0.00037   0.01269   0.01232   1.83114
    R5        2.04661   0.00081  -0.00187   0.00196   0.00009   2.04670
    R6        2.06093  -0.00161  -0.00129  -0.00550  -0.00679   2.05414
    R7        2.06093  -0.00161  -0.00129  -0.00550  -0.00679   2.05414
    A1        2.16410  -0.00648   0.00239  -0.02606  -0.02367   2.14044
    A2        2.16474   0.00637   0.00239   0.02688   0.02927   2.19401
    A3        1.95434   0.00011  -0.00478  -0.00082  -0.00560   1.94874
    A4        1.89068  -0.00520  -0.00805  -0.03458  -0.04263   1.84805
    A5        1.88258   0.00329  -0.00176   0.02504   0.02331   1.90589
    A6        1.93091  -0.00184   0.00060  -0.01384  -0.01334   1.91756
    A7        1.93090  -0.00184   0.00060  -0.01384  -0.01335   1.91756
    A8        1.91900  -0.00008   0.00070   0.00367   0.00441   1.92341
    A9        1.91899  -0.00008   0.00070   0.00367   0.00441   1.92340
   A10        1.88177   0.00051  -0.00081  -0.00479  -0.00584   1.87594
    D1        0.00002  -0.00000  -0.00000  -0.00003  -0.00003  -0.00001
    D2       -3.14158  -0.00000  -0.00000  -0.00001  -0.00001  -3.14159
    D3       -0.00006   0.00000  -0.00000   0.00002   0.00002  -0.00004
    D4       -2.09955  -0.00087  -0.00013  -0.01189  -0.01190  -2.11146
    D5        2.09943   0.00087   0.00012   0.01192   0.01193   2.11137
    D6        3.14154   0.00000   0.00000  -0.00001  -0.00001   3.14154
    D7        1.04205  -0.00087  -0.00012  -0.01192  -0.01193   1.03012
    D8       -1.04215   0.00087   0.00013   0.01190   0.01191  -1.03024
         Item               Value     Threshold  Converged?
 Maximum Force            0.010325     0.000450     NO 
 RMS     Force            0.003928     0.000300     NO 
 Maximum Displacement     0.067264     0.001800     NO 
 RMS     Displacement     0.021318     0.001200     NO 
 Predicted change in Energy=-5.805454D-04
 GradGradGradGradGradGradGradGradGradGradGradGradGradGradGradGradGradGrad

                          Input orientation:                          
 ---------------------------------------------------------------------
 Center     Atomic      Atomic             Coordinates (Angstroms)
 Number     Number       Type             X           Y           Z
 ---------------------------------------------------------------------
      1          6           0        1.011358   -0.128330    0.000016
      2          8           0        2.168967   -0.489291    0.000178
      3          8           0       -0.020621   -0.995605   -0.000119
      4          6           0        0.538412    1.294293   -0.000043
      5          1           0        0.375950   -1.879739   -0.000063
      6          1           0        1.396646    1.954947    0.000124
      7          1           0       -0.077568    1.478856    0.876361
      8          1           0       -0.077243    1.478884   -0.876671
 ---------------------------------------------------------------------
                    Distance matrix (angstroms):
                    1          2          3          4          5
     1  C    0.000000
     2  O    1.212581   0.000000
     3  O    1.348016   2.247365   0.000000
     4  C    1.499177   2.416584   2.357149   0.000000
     5  H    1.863109   2.268977   0.969000   3.178187   0.000000
     6  H    2.118605   2.563353   3.273286   1.083064   3.968203
     7  H    2.129973   3.112590   2.625722   1.087005   3.500565
     8  H    2.129969   3.112561   2.625766   1.087005   3.500596
                    6          7          8
     6  H    0.000000
     7  H    1.779820   0.000000
     8  H    1.779818   1.753031   0.000000
 Stoichiometry    C2H4O2
 Framework group  C1[X(C2H4O2)]
 Deg. of freedom    18
 Full point group                 C1      NOp   1
 Largest Abelian subgroup         C1      NOp   1
 Largest concise Abelian subgroup C1      NOp   1
                         Standard orientation:                         
 ---------------------------------------------------------------------
 Center     Atomic      Atomic             Coordinates (Angstroms)
 Number     Number       Type             X           Y           Z
 ---------------------------------------------------------------------
      1          6           0       -0.091624    0.119584   -0.000014
      2          8           0       -0.639727    1.201220   -0.000176
      3          8           0       -0.775572   -1.042036    0.000120
      4          6           0        1.389767   -0.110662    0.000045
      5          1           0       -1.713267   -0.797723    0.000065
      6          1           0        1.898800    0.845326   -0.000122
      7          1           0        1.674015   -0.687463   -0.876359
      8          1           0        1.673989   -0.687137    0.876672
 ---------------------------------------------------------------------
 Rotational constants (GHZ):          11.3419354           9.5226732           5.3460926
 Standard basis: Aug-CC-pVTZ (5D, 7F)
 There are   320 symmetry adapted cartesian basis functions of A   symmetry.
 There are   276 symmetry adapted basis functions of A   symmetry.
   276 basis functions,   396 primitive gaussians,   320 cartesian basis functions
    16 alpha electrons       16 beta electrons
       nuclear repulsion energy       121.2672431453 Hartrees.
 NAtoms=    8 NActive=    8 NUniq=    8 SFac= 1.00D+00 NAtFMM=   60 NAOKFM=F Big=F
 Integral buffers will be    131072 words long.
 Raffenetti 1 integral format.
 Two-electron integral symmetry is turned on.
 One-electron integrals computed using PRISM.
 NBasis=   276 RedAO= T EigKep=  2.05D-05  NBF=   276
 NBsUse=   276 1.00D-06 EigRej= -1.00D+00 NBFU=   276
 Initial guess from the checkpoint file:  "/scr/Gau-51407.chk"
 B after Tr=    -0.000000   -0.000000    0.000000
         Rot=    0.999885    0.000000    0.000000   -0.015151 Ang=   1.74 deg.
 ExpMin= 2.53D-02 ExpMax= 1.53D+04 ExpMxC= 5.22D+02 IAcc=3 IRadAn=         5 AccDes= 0.00D+00
 Harris functional with IExCor=  205 and IRadAn=       5 diagonalized for initial guess.
 HarFok:  IExCor=  205 AccDes= 0.00D+00 IRadAn=         5 IDoV= 1 UseB2=F ITyADJ=14
 ICtDFT=  3500011 ScaDFX=  1.000000  1.000000  1.000000  1.000000
 FoFCou: FMM=F IPFlag=           0 FMFlag=      100000 FMFlg1=           0
         NFxFlg=           0 DoJE=T BraDBF=F KetDBF=T FulRan=T
         wScrn=  0.000000 ICntrl=       500 IOpCl=  0 I1Cent=   200000004 NGrid=           0
         NMat0=    1 NMatS0=      1 NMatT0=    0 NMatD0=    1 NMtDS0=    0 NMtDT0=    0
 Petite list used in FoFCou.
 Keep R1 ints in memory in canonical form, NReq=750703594.
 Requested convergence on RMS density matrix=1.00D-08 within 128 cycles.
 Requested convergence on MAX density matrix=1.00D-06.
 Requested convergence on             energy=1.00D-06.
 No special actions if energy rises.
 SCF Done:  E(RHF) =  -227.905368475     A.U. after   10 cycles
            NFock= 10  Conv=0.62D-08     -V/T= 2.0016
 ExpMin= 2.53D-02 ExpMax= 1.53D+04 ExpMxC= 5.22D+02 IAcc=3 IRadAn=         5 AccDes= 0.00D+00
 HarFok:  IExCor=  205 AccDes= 0.00D+00 IRadAn=         5 IDoV=-2 UseB2=F ITyADJ=14
 ICtDFT= 12500011 ScaDFX=  1.000000  1.000000  1.000000  1.000000
 Range of M.O.s used for correlation:     5   276
 NBasis=   276 NAE=    16 NBE=    16 NFC=     4 NFV=     0
 NROrb=    272 NOA=    12 NOB=    12 NVA=   260 NVB=   260

 **** Warning!!: The largest alpha MO coefficient is  0.45427853D+02

 Disk-based method using ON**2 memory for 12 occupieds at a time.
 Estimated scratch disk usage=   749806872 words.
 Actual    scratch disk usage=   686784792 words.
 JobTyp=1 Pass  1:  I=   5 to  16 NPSUse= 40 ParTrn=T ParDer=T DoDerP=T.
 (rs|ai) integrals will be sorted in core.
 Spin components of T(2) and E(2):
     alpha-alpha T2 =       0.2847594367D-01 E2=     -0.1017335612D+00
     alpha-beta  T2 =       0.1603241255D+00 E2=     -0.6136999045D+00
     beta-beta   T2 =       0.2847594367D-01 E2=     -0.1017335612D+00
 ANorm=    0.1103302322D+01
 E2 =    -0.8171670269D+00 EUMP2 =    -0.22872253550222D+03
          IDoAtm=11111111
          Differentiating once with respect to electric field.
                with respect to dipole field.
          Differentiating once with respect to nuclear coordinates.
 Keep R1 ints in memory in canonical form, NReq=750711574.
          There are     1 degrees of freedom in the 1st order CPHF.  IDoFFX=0 NUNeed=     1.
 LinEq1:  Iter=  0 NonCon=     1 RMS=3.70D-03 Max=1.12D-01 NDo=     1
 AX will form     1 AO Fock derivatives at one time.
 LinEq1:  Iter=  1 NonCon=     1 RMS=1.04D-03 Max=1.71D-02 NDo=     1
 LinEq1:  Iter=  2 NonCon=     1 RMS=3.63D-04 Max=7.26D-03 NDo=     1
 LinEq1:  Iter=  3 NonCon=     1 RMS=1.62D-04 Max=3.22D-03 NDo=     1
 LinEq1:  Iter=  4 NonCon=     1 RMS=4.15D-05 Max=6.42D-04 NDo=     1
 LinEq1:  Iter=  5 NonCon=     1 RMS=1.59D-05 Max=2.76D-04 NDo=     1
 LinEq1:  Iter=  6 NonCon=     1 RMS=4.71D-06 Max=4.28D-05 NDo=     1
 LinEq1:  Iter=  7 NonCon=     1 RMS=8.43D-07 Max=9.45D-06 NDo=     1
 LinEq1:  Iter=  8 NonCon=     1 RMS=1.70D-07 Max=1.81D-06 NDo=     1
 LinEq1:  Iter=  9 NonCon=     1 RMS=4.76D-08 Max=5.31D-07 NDo=     1
 LinEq1:  Iter= 10 NonCon=     1 RMS=1.39D-08 Max=2.27D-07 NDo=     1
 LinEq1:  Iter= 11 NonCon=     1 RMS=3.65D-09 Max=7.82D-08 NDo=     1
 LinEq1:  Iter= 12 NonCon=     1 RMS=7.69D-10 Max=1.56D-08 NDo=     1
 LinEq1:  Iter= 13 NonCon=     1 RMS=1.14D-10 Max=1.22D-09 NDo=     1
 LinEq1:  Iter= 14 NonCon=     0 RMS=1.83D-11 Max=2.07D-10 NDo=     1
 Linear equations converged to 1.000D-10 1.000D-09 after    14 iterations.
 End of Minotr F.D. properties file   721 does not exist.
 End of Minotr F.D. properties file   722 does not exist.
 End of Minotr F.D. properties file   788 does not exist.
 Calling FoFJK, ICntrl=  10002127 FMM=F ISym2X=0 I1Cent= 0 IOpClX= 0 NMat=1 NMatS=1 NMatT=0.
 ***** Axes restored to original set *****
 -------------------------------------------------------------------
 Center     Atomic                   Forces (Hartrees/Bohr)
 Number     Number              X              Y              Z
 -------------------------------------------------------------------
      1        6           0.006783838    0.004401811    0.000003313
      2        8          -0.002279627    0.000188045   -0.000001131
      3        8          -0.004965404   -0.002803089   -0.000001271
      4        6           0.000588237   -0.000483822   -0.000000595
      5        1           0.000284771   -0.000974370   -0.000000070
      6        1           0.000305667    0.000430731   -0.000000038
      7        1          -0.000358815   -0.000379845    0.000851186
      8        1          -0.000358666   -0.000379460   -0.000851394
 -------------------------------------------------------------------
 Cartesian Forces:  Max     0.006783838 RMS     0.002111729

 GradGradGradGradGradGradGradGradGradGradGradGradGradGradGradGradGradGrad
 Berny optimization.
 Using GEDIIS/GDIIS optimizer.
 FormGI is forming the generalized inverse of G from B-inverse, IUseBI=4.
 Internal  Forces:  Max     0.006013594 RMS     0.001384783
 Search for a local minimum.
 Step number   3 out of a maximum of   35
 All quantities printed in internal units (Hartrees-Bohrs-Radians)
 Mixed Optimization -- RFO/linear search
 Update second derivatives using D2CorX and points    1    2    3
 DE= -6.59D-04 DEPred=-5.81D-04 R= 1.13D+00
 TightC=F SS=  1.41D+00  RLast= 7.49D-02 DXNew= 8.4853D-01 2.2457D-01
 Trust test= 1.13D+00 RLast= 7.49D-02 DXMaxT set to 5.05D-01
 ITU=  1  1  0
 Use linear search instead of GDIIS.
     Eigenvalues ---    0.00815   0.01180   0.02356   0.07409   0.07501
     Eigenvalues ---    0.14002   0.16000   0.16169   0.17368   0.22549
     Eigenvalues ---    0.27709   0.32578   0.32610   0.33112   0.34582
     Eigenvalues ---    0.51477   0.55461   0.92689
 RFO step:  Lambda=-9.46955030D-05 EMin= 8.15188047D-03
 Quartic linear search produced a step of  0.18000.
 Iteration  1 RMS(Cart)=  0.00614087 RMS(Int)=  0.00003832
 Iteration  2 RMS(Cart)=  0.00003503 RMS(Int)=  0.00002414
 Iteration  3 RMS(Cart)=  0.00000000 RMS(Int)=  0.00002414
 Variable       Old X    -DE/DX   Delta X   Delta X   Delta X     New X
                                 (Linear)    (Quad)   (Total)
    R1        2.29145  -0.00223  -0.00208  -0.00161  -0.00369   2.28775
    R2        2.54738   0.00601   0.00285   0.01077   0.01363   2.56101
    R3        2.83303  -0.00083   0.00233  -0.00442  -0.00208   2.83095
    R4        1.83114   0.00101   0.00222   0.00073   0.00294   1.83409
    R5        2.04670   0.00050   0.00002   0.00103   0.00105   2.04774
    R6        2.05414   0.00083  -0.00122   0.00314   0.00191   2.05606
    R7        2.05414   0.00083  -0.00122   0.00314   0.00192   2.05606
    A1        2.14044  -0.00019  -0.00426   0.00257  -0.00169   2.13875
    A2        2.19401   0.00095   0.00527   0.00231   0.00758   2.20159
    A3        1.94874  -0.00075  -0.00101  -0.00488  -0.00589   1.94285
    A4        1.84805   0.00025  -0.00767   0.00305  -0.00462   1.84343
    A5        1.90589   0.00053   0.00420   0.00128   0.00549   1.91138
    A6        1.91756  -0.00077  -0.00240  -0.00424  -0.00667   1.91089
    A7        1.91756  -0.00076  -0.00240  -0.00423  -0.00667   1.91089
    A8        1.92341   0.00021   0.00079   0.00193   0.00274   1.92614
    A9        1.92340   0.00021   0.00079   0.00193   0.00274   1.92614
   A10        1.87594   0.00057  -0.00105   0.00328   0.00215   1.87809
    D1       -0.00001   0.00000  -0.00001   0.00004   0.00003   0.00003
    D2       -3.14159  -0.00000  -0.00000  -0.00005  -0.00005   3.14155
    D3       -0.00004  -0.00000   0.00000  -0.00004  -0.00004  -0.00008
    D4       -2.11146  -0.00011  -0.00214  -0.00058  -0.00269  -2.11415
    D5        2.11137   0.00011   0.00215   0.00051   0.00262   2.11398
    D6        3.14154   0.00000  -0.00000   0.00005   0.00005   3.14159
    D7        1.03012  -0.00011  -0.00215  -0.00050  -0.00261   1.02752
    D8       -1.03024   0.00011   0.00214   0.00059   0.00270  -1.02754
         Item               Value     Threshold  Converged?
 Maximum Force            0.006014     0.000450     NO 
 RMS     Force            0.001385     0.000300     NO 
 Maximum Displacement     0.015009     0.001800     NO 
 RMS     Displacement     0.006154     0.001200     NO 
 Predicted change in Energy=-6.290414D-05
 GradGradGradGradGradGradGradGradGradGradGradGradGradGradGradGradGradGrad

                          Input orientation:                          
 ---------------------------------------------------------------------
 Center     Atomic      Atomic             Coordinates (Angstroms)
 Number     Number       Type             X           Y           Z
 ---------------------------------------------------------------------
      1          6           0        1.016166   -0.125061    0.000049
      2          8           0        2.169801   -0.492136    0.000179
      3          8           0       -0.024907   -0.992703   -0.000123
      4          6           0        0.541038    1.295673   -0.000039
      5          1           0        0.372752   -1.878056   -0.000088
      6          1           0        1.394885    1.962889    0.000110
      7          1           0       -0.077077    1.471708    0.877872
      8          1           0       -0.076759    1.471702   -0.878177
 ---------------------------------------------------------------------
                    Distance matrix (angstroms):
                    1          2          3          4          5
     1  C    0.000000
     2  O    1.210627   0.000000
     3  O    1.355226   2.251069   0.000000
     4  C    1.498075   2.418498   2.357320   0.000000
     5  H    1.867345   2.269397   0.970558   3.178187   0.000000
     6  H    2.122019   2.574422   3.278923   1.083620   3.974622
     7  H    2.124952   3.110545   2.616661   1.088018   3.492002
     8  H    2.124951   3.110499   2.616670   1.088019   3.491988
                    6          7          8
     6  H    0.000000
     7  H    1.782806   0.000000
     8  H    1.782803   1.756049   0.000000
 Stoichiometry    C2H4O2
 Framework group  C1[X(C2H4O2)]
 Deg. of freedom    18
 Full point group                 C1      NOp   1
 Largest Abelian subgroup         C1      NOp   1
 Largest concise Abelian subgroup C1      NOp   1
                         Standard orientation:                         
 ---------------------------------------------------------------------
 Center     Atomic      Atomic             Coordinates (Angstroms)
 Number     Number       Type             X           Y           Z
 ---------------------------------------------------------------------
      1          6           0       -0.089835    0.124362   -0.000042
      2          8           0       -0.643101    1.201170   -0.000172
      3          8           0       -0.772862   -1.046156    0.000130
      4          6           0        1.390010   -0.108636    0.000046
      5          1           0       -1.711892   -0.800790    0.000095
      6          1           0        1.906426    0.844017   -0.000102
      7          1           0        1.666091   -0.689009   -0.877865
      8          1           0        1.666032   -0.688696    0.878184
 ---------------------------------------------------------------------
 Rotational constants (GHZ):          11.3029690           9.5251374           5.3387954
 Standard basis: Aug-CC-pVTZ (5D, 7F)
 There are   320 symmetry adapted cartesian basis functions of A   symmetry.
 There are   276 symmetry adapted basis functions of A   symmetry.
   276 basis functions,   396 primitive gaussians,   320 cartesian basis functions
    16 alpha electrons       16 beta electrons
       nuclear repulsion energy       121.1653819818 Hartrees.
 NAtoms=    8 NActive=    8 NUniq=    8 SFac= 1.00D+00 NAtFMM=   60 NAOKFM=F Big=F
 Integral buffers will be    131072 words long.
 Raffenetti 1 integral format.
 Two-electron integral symmetry is turned on.
 One-electron integrals computed using PRISM.
 NBasis=   276 RedAO= T EigKep=  2.05D-05  NBF=   276
 NBsUse=   276 1.00D-06 EigRej= -1.00D+00 NBFU=   276
 Initial guess from the checkpoint file:  "/scr/Gau-51407.chk"
 B after Tr=     0.000000   -0.000000   -0.000000
         Rot=    1.000000    0.000001   -0.000001   -0.000690 Ang=   0.08 deg.
 Keep R1 ints in memory in canonical form, NReq=750703535.
 Requested convergence on RMS density matrix=1.00D-08 within 128 cycles.
 Requested convergence on MAX density matrix=1.00D-06.
 Requested convergence on             energy=1.00D-06.
 No special actions if energy rises.
 SCF Done:  E(RHF) =  -227.905147183     A.U. after   10 cycles
            NFock= 10  Conv=0.27D-08     -V/T= 2.0017
 ExpMin= 2.53D-02 ExpMax= 1.53D+04 ExpMxC= 5.22D+02 IAcc=3 IRadAn=         5 AccDes= 0.00D+00
 HarFok:  IExCor=  205 AccDes= 0.00D+00 IRadAn=         5 IDoV=-2 UseB2=F ITyADJ=14
 ICtDFT= 12500011 ScaDFX=  1.000000  1.000000  1.000000  1.000000
 Range of M.O.s used for correlation:     5   276
 NBasis=   276 NAE=    16 NBE=    16 NFC=     4 NFV=     0
 NROrb=    272 NOA=    12 NOB=    12 NVA=   260 NVB=   260

 **** Warning!!: The largest alpha MO coefficient is  0.45622284D+02

 Disk-based method using ON**2 memory for 12 occupieds at a time.
 Estimated scratch disk usage=   749806872 words.
 Actual    scratch disk usage=   686784792 words.
 JobTyp=1 Pass  1:  I=   5 to  16 NPSUse= 40 ParTrn=T ParDer=T DoDerP=T.
 (rs|ai) integrals will be sorted in core.
 Spin components of T(2) and E(2):
     alpha-alpha T2 =       0.2851169119D-01 E2=     -0.1017630399D+00
     alpha-beta  T2 =       0.1605400723D+00 E2=     -0.6139365991D+00
     beta-beta   T2 =       0.2851169119D-01 E2=     -0.1017630399D+00
 ANorm=    0.1103432578D+01
 E2 =    -0.8174626789D+00 EUMP2 =    -0.22872260986221D+03
          IDoAtm=11111111
          Differentiating once with respect to electric field.
                with respect to dipole field.
          Differentiating once with respect to nuclear coordinates.
 Keep R1 ints in memory in canonical form, NReq=750711574.
          There are     1 degrees of freedom in the 1st order CPHF.  IDoFFX=0 NUNeed=     1.
 LinEq1:  Iter=  0 NonCon=     1 RMS=3.70D-03 Max=1.12D-01 NDo=     1
 AX will form     1 AO Fock derivatives at one time.
 LinEq1:  Iter=  1 NonCon=     1 RMS=1.04D-03 Max=1.74D-02 NDo=     1
 LinEq1:  Iter=  2 NonCon=     1 RMS=3.64D-04 Max=7.29D-03 NDo=     1
 LinEq1:  Iter=  3 NonCon=     1 RMS=1.62D-04 Max=3.35D-03 NDo=     1
 LinEq1:  Iter=  4 NonCon=     1 RMS=4.17D-05 Max=6.46D-04 NDo=     1
 LinEq1:  Iter=  5 NonCon=     1 RMS=1.61D-05 Max=2.78D-04 NDo=     1
 LinEq1:  Iter=  6 NonCon=     1 RMS=4.78D-06 Max=4.23D-05 NDo=     1
 LinEq1:  Iter=  7 NonCon=     1 RMS=8.46D-07 Max=1.08D-05 NDo=     1
 LinEq1:  Iter=  8 NonCon=     1 RMS=1.67D-07 Max=1.57D-06 NDo=     1
 LinEq1:  Iter=  9 NonCon=     1 RMS=4.60D-08 Max=4.44D-07 NDo=     1
 LinEq1:  Iter= 10 NonCon=     1 RMS=1.17D-08 Max=1.94D-07 NDo=     1
 LinEq1:  Iter= 11 NonCon=     1 RMS=2.89D-09 Max=5.08D-08 NDo=     1
 LinEq1:  Iter= 12 NonCon=     1 RMS=6.19D-10 Max=1.34D-08 NDo=     1
 LinEq1:  Iter= 13 NonCon=     1 RMS=1.08D-10 Max=1.88D-09 NDo=     1
 LinEq1:  Iter= 14 NonCon=     0 RMS=1.84D-11 Max=2.14D-10 NDo=     1
 Linear equations converged to 1.000D-10 1.000D-09 after    14 iterations.
 End of Minotr F.D. properties file   721 does not exist.
 End of Minotr F.D. properties file   722 does not exist.
 End of Minotr F.D. properties file   788 does not exist.
 Calling FoFJK, ICntrl=  10002127 FMM=F ISym2X=0 I1Cent= 0 IOpClX= 0 NMat=1 NMatS=1 NMatT=0.
 ***** Axes restored to original set *****
 -------------------------------------------------------------------
 Center     Atomic                   Forces (Hartrees/Bohr)
 Number     Number              X              Y              Z
 -------------------------------------------------------------------
      1        6           0.001759784    0.001420134   -0.000009392
      2        8          -0.000474353   -0.000003216    0.000003394
      3        8          -0.000679006   -0.001478686    0.000002494
      4        6          -0.000086133   -0.000427615    0.000002978
      5        1          -0.000473799    0.000344040    0.000000093
      6        1           0.000017568    0.000032061    0.000000258
      7        1          -0.000032277    0.000057355    0.000122030
      8        1          -0.000031785    0.000055927   -0.000121855
 -------------------------------------------------------------------
 Cartesian Forces:  Max     0.001759784 RMS     0.000597180

 GradGradGradGradGradGradGradGradGradGradGradGradGradGradGradGradGradGrad
 Berny optimization.
 Using GEDIIS/GDIIS optimizer.
 FormGI is forming the generalized inverse of G from B-inverse, IUseBI=4.
 Internal  Forces:  Max     0.001611997 RMS     0.000378476
 Search for a local minimum.
 Step number   4 out of a maximum of   35
 All quantities printed in internal units (Hartrees-Bohrs-Radians)
 Mixed Optimization -- En-DIIS/RFO-DIIS
 Update second derivatives using D2CorX and points    1    2    3    4
 DE= -7.44D-05 DEPred=-6.29D-05 R= 1.18D+00
 TightC=F SS=  1.41D+00  RLast= 2.24D-02 DXNew= 8.4853D-01 6.7345D-02
 Trust test= 1.18D+00 RLast= 2.24D-02 DXMaxT set to 5.05D-01
 ITU=  1  1  1  0
 Use linear search instead of GDIIS.
     Eigenvalues ---    0.00815   0.01176   0.02356   0.07489   0.07580
     Eigenvalues ---    0.14747   0.16000   0.16185   0.17016   0.20597
     Eigenvalues ---    0.28233   0.32577   0.32610   0.32934   0.35131
     Eigenvalues ---    0.43574   0.56184   0.92626
 RFO step:  Lambda=-5.22765983D-06 EMin= 8.15188067D-03
 Quartic linear search produced a step of  0.23185.
 Iteration  1 RMS(Cart)=  0.00172145 RMS(Int)=  0.00000321
 Iteration  2 RMS(Cart)=  0.00000247 RMS(Int)=  0.00000262
 Iteration  3 RMS(Cart)=  0.00000000 RMS(Int)=  0.00000262
 Variable       Old X    -DE/DX   Delta X   Delta X   Delta X     New X
                                 (Linear)    (Quad)   (Total)
    R1        2.28775  -0.00045  -0.00086  -0.00014  -0.00099   2.28676
    R2        2.56101   0.00161   0.00316   0.00128   0.00444   2.56544
    R3        2.83095  -0.00023  -0.00048  -0.00019  -0.00067   2.83028
    R4        1.83409  -0.00051   0.00068  -0.00145  -0.00077   1.83332
    R5        2.04774   0.00003   0.00024  -0.00019   0.00005   2.04780
    R6        2.05606   0.00013   0.00044  -0.00012   0.00033   2.05638
    R7        2.05606   0.00013   0.00044  -0.00012   0.00033   2.05638
    A1        2.13875  -0.00005  -0.00039  -0.00025  -0.00064   2.13810
    A2        2.20159   0.00029   0.00176   0.00077   0.00253   2.20412
    A3        1.94285  -0.00024  -0.00137  -0.00052  -0.00189   1.94096
    A4        1.84343   0.00053  -0.00107   0.00335   0.00228   1.84571
    A5        1.91138  -0.00001   0.00127  -0.00085   0.00042   1.91180
    A6        1.91089   0.00004  -0.00155   0.00132  -0.00023   1.91066
    A7        1.91089   0.00003  -0.00155   0.00130  -0.00024   1.91064
    A8        1.92614  -0.00004   0.00063  -0.00077  -0.00014   1.92600
    A9        1.92614  -0.00004   0.00063  -0.00077  -0.00013   1.92600
   A10        1.87809   0.00001   0.00050  -0.00018   0.00031   1.87840
    D1        0.00003  -0.00000   0.00001  -0.00016  -0.00015  -0.00013
    D2        3.14155   0.00000  -0.00001   0.00018   0.00017  -3.14147
    D3       -0.00008   0.00000  -0.00001   0.00017   0.00017   0.00009
    D4       -2.11415   0.00003  -0.00062   0.00083   0.00021  -2.11394
    D5        2.11398  -0.00003   0.00061  -0.00049   0.00011   2.11410
    D6        3.14159  -0.00000   0.00001  -0.00018  -0.00017   3.14141
    D7        1.02752   0.00003  -0.00060   0.00047  -0.00013   1.02739
    D8       -1.02754  -0.00003   0.00063  -0.00085  -0.00022  -1.02776
         Item               Value     Threshold  Converged?
 Maximum Force            0.001612     0.000450     NO 
 RMS     Force            0.000378     0.000300     NO 
 Maximum Displacement     0.005141     0.001800     NO 
 RMS     Displacement     0.001721     0.001200     NO 
 Predicted change in Energy=-5.288116D-06
 GradGradGradGradGradGradGradGradGradGradGradGradGradGradGradGradGradGrad

                          Input orientation:                          
 ---------------------------------------------------------------------
 Center     Atomic      Atomic             Coordinates (Angstroms)
 Number     Number       Type             X           Y           Z
 ---------------------------------------------------------------------
      1          6           0        1.018313   -0.124011   -0.000077
      2          8           0        2.171026   -0.492246    0.000190
      3          8           0       -0.025000   -0.992636   -0.000109
      4          6           0        0.541329    1.295725   -0.000053
      5          1           0        0.370031   -1.878718   -0.000004
      6          1           0        1.393987    1.964503    0.000155
      7          1           0       -0.077062    1.470639    0.878104
      8          1           0       -0.076725    1.470758   -0.878422
 ---------------------------------------------------------------------
                    Distance matrix (angstroms):
                    1          2          3          4          5
     1  C    0.000000
     2  O    1.210101   0.000000
     3  O    1.357574   2.252314   0.000000
     4  C    1.497720   2.419246   2.357397   0.000000
     5  H    1.870633   2.272859   0.970151   3.179062   0.000000
     6  H    2.122033   2.576704   3.279969   1.083647   3.977291
     7  H    2.124607   3.110876   2.615662   1.088191   3.491298
     8  H    2.124591   3.110905   2.615802   1.088191   3.491447
                    6          7          8
     6  H    0.000000
     7  H    1.782885   0.000000
     8  H    1.782884   1.756526   0.000000
 Stoichiometry    C2H4O2
 Framework group  C1[X(C2H4O2)]
 Deg. of freedom    18
 Full point group                 C1      NOp   1
 Largest Abelian subgroup         C1      NOp   1
 Largest concise Abelian subgroup C1      NOp   1
                         Standard orientation:                         
 ---------------------------------------------------------------------
 Center     Atomic      Atomic             Coordinates (Angstroms)
 Number     Number       Type             X           Y           Z
 ---------------------------------------------------------------------
      1          6           0       -0.089233    0.125992    0.000068
      2          8           0       -0.643658    1.201612   -0.000199
      3          8           0       -0.772671   -1.047005    0.000099
      4          6           0        1.389974   -0.108767    0.000044
      5          1           0       -1.712024   -0.804500   -0.000005
      6          1           0        1.907977    0.843054   -0.000164
      7          1           0        1.665086   -0.689555   -0.878113
      8          1           0        1.665148   -0.689203    0.878413
 ---------------------------------------------------------------------
 Rotational constants (GHZ):          11.2888248           9.5240163           5.3353810
 Standard basis: Aug-CC-pVTZ (5D, 7F)
 There are   320 symmetry adapted cartesian basis functions of A   symmetry.
 There are   276 symmetry adapted basis functions of A   symmetry.
   276 basis functions,   396 primitive gaussians,   320 cartesian basis functions
    16 alpha electrons       16 beta electrons
       nuclear repulsion energy       121.1272102216 Hartrees.
 NAtoms=    8 NActive=    8 NUniq=    8 SFac= 1.00D+00 NAtFMM=   60 NAOKFM=F Big=F
 Integral buffers will be    131072 words long.
 Raffenetti 1 integral format.
 Two-electron integral symmetry is turned on.
 One-electron integrals computed using PRISM.
 NBasis=   276 RedAO= T EigKep=  2.05D-05  NBF=   276
 NBsUse=   276 1.00D-06 EigRej= -1.00D+00 NBFU=   276
 Initial guess from the checkpoint file:  "/scr/Gau-51407.chk"
 B after Tr=    -0.000000    0.000000    0.000000
         Rot=    1.000000   -0.000002    0.000002   -0.000069 Ang=  -0.01 deg.
 Keep R1 ints in memory in canonical form, NReq=750703535.
 Requested convergence on RMS density matrix=1.00D-08 within 128 cycles.
 Requested convergence on MAX density matrix=1.00D-06.
 Requested convergence on             energy=1.00D-06.
 No special actions if energy rises.
 SCF Done:  E(RHF) =  -227.905113739     A.U. after    8 cycles
            NFock=  8  Conv=0.98D-08     -V/T= 2.0017
 ExpMin= 2.53D-02 ExpMax= 1.53D+04 ExpMxC= 5.22D+02 IAcc=3 IRadAn=         5 AccDes= 0.00D+00
 HarFok:  IExCor=  205 AccDes= 0.00D+00 IRadAn=         5 IDoV=-2 UseB2=F ITyADJ=14
 ICtDFT= 12500011 ScaDFX=  1.000000  1.000000  1.000000  1.000000
 Range of M.O.s used for correlation:     5   276
 NBasis=   276 NAE=    16 NBE=    16 NFC=     4 NFV=     0
 NROrb=    272 NOA=    12 NOB=    12 NVA=   260 NVB=   260

 **** Warning!!: The largest alpha MO coefficient is  0.45658033D+02

 Disk-based method using ON**2 memory for 12 occupieds at a time.
 Estimated scratch disk usage=   749806872 words.
 Actual    scratch disk usage=   686784792 words.
 JobTyp=1 Pass  1:  I=   5 to  16 NPSUse= 40 ParTrn=T ParDer=T DoDerP=T.
 (rs|ai) integrals will be sorted in core.
 Spin components of T(2) and E(2):
     alpha-alpha T2 =       0.2851829057D-01 E2=     -0.1017633828D+00
     alpha-beta  T2 =       0.1605846180D+00 E2=     -0.6139751455D+00
     beta-beta   T2 =       0.2851829057D-01 E2=     -0.1017633828D+00
 ANorm=    0.1103458744D+01
 E2 =    -0.8175019110D+00 EUMP2 =    -0.22872261564998D+03
          IDoAtm=11111111
          Differentiating once with respect to electric field.
                with respect to dipole field.
          Differentiating once with respect to nuclear coordinates.
 Keep R1 ints in memory in canonical form, NReq=750711574.
          There are     1 degrees of freedom in the 1st order CPHF.  IDoFFX=0 NUNeed=     1.
 LinEq1:  Iter=  0 NonCon=     1 RMS=3.70D-03 Max=1.12D-01 NDo=     1
 AX will form     1 AO Fock derivatives at one time.
 LinEq1:  Iter=  1 NonCon=     1 RMS=1.04D-03 Max=1.76D-02 NDo=     1
 LinEq1:  Iter=  2 NonCon=     1 RMS=3.64D-04 Max=7.29D-03 NDo=     1
 LinEq1:  Iter=  3 NonCon=     1 RMS=1.62D-04 Max=3.39D-03 NDo=     1
 LinEq1:  Iter=  4 NonCon=     1 RMS=4.18D-05 Max=6.48D-04 NDo=     1
 LinEq1:  Iter=  5 NonCon=     1 RMS=1.62D-05 Max=2.79D-04 NDo=     1
 LinEq1:  Iter=  6 NonCon=     1 RMS=4.80D-06 Max=4.21D-05 NDo=     1
 LinEq1:  Iter=  7 NonCon=     1 RMS=8.50D-07 Max=1.11D-05 NDo=     1
 LinEq1:  Iter=  8 NonCon=     1 RMS=1.68D-07 Max=1.49D-06 NDo=     1
 LinEq1:  Iter=  9 NonCon=     1 RMS=4.79D-08 Max=6.94D-07 NDo=     1
 LinEq1:  Iter= 10 NonCon=     1 RMS=1.29D-08 Max=2.89D-07 NDo=     1
 LinEq1:  Iter= 11 NonCon=     1 RMS=3.40D-09 Max=6.74D-08 NDo=     1
 LinEq1:  Iter= 12 NonCon=     1 RMS=7.64D-10 Max=1.24D-08 NDo=     1
 LinEq1:  Iter= 13 NonCon=     1 RMS=1.17D-10 Max=1.47D-09 NDo=     1
 LinEq1:  Iter= 14 NonCon=     0 RMS=1.89D-11 Max=2.19D-10 NDo=     1
 Linear equations converged to 1.000D-10 1.000D-09 after    14 iterations.
 End of Minotr F.D. properties file   721 does not exist.
 End of Minotr F.D. properties file   722 does not exist.
 End of Minotr F.D. properties file   788 does not exist.
 Calling FoFJK, ICntrl=  10002127 FMM=F ISym2X=0 I1Cent= 0 IOpClX= 0 NMat=1 NMatS=1 NMatT=0.
 ***** Axes restored to original set *****
 -------------------------------------------------------------------
 Center     Atomic                   Forces (Hartrees/Bohr)
 Number     Number              X              Y              Z
 -------------------------------------------------------------------
      1        6           0.000217823    0.000045071    0.000039005
      2        8          -0.000067147    0.000089345   -0.000013855
      3        8          -0.000015230   -0.000214830   -0.000010883
      4        6          -0.000097750   -0.000217764   -0.000012368
      5        1          -0.000112272    0.000205252   -0.000000462
      6        1           0.000029932    0.000022971   -0.000000956
      7        1           0.000023330    0.000032117    0.000001603
      8        1           0.000021315    0.000037839   -0.000002085
 -------------------------------------------------------------------
 Cartesian Forces:  Max     0.000217823 RMS     0.000097241

 GradGradGradGradGradGradGradGradGradGradGradGradGradGradGradGradGradGrad
 Berny optimization.
 Using GEDIIS/GDIIS optimizer.
 FormGI is forming the generalized inverse of G from B-inverse, IUseBI=4.
 Internal  Forces:  Max     0.000233185 RMS     0.000070089
 Search for a local minimum.
 Step number   5 out of a maximum of   35
 All quantities printed in internal units (Hartrees-Bohrs-Radians)
 Mixed Optimization -- En-DIIS/RFO-DIIS
 Swapping is turned off.
 Update second derivatives using D2CorX and points    1    2    3    4    5
 DE= -5.79D-06 DEPred=-5.29D-06 R= 1.09D+00
 TightC=F SS=  1.41D+00  RLast= 6.18D-03 DXNew= 8.4853D-01 1.8533D-02
 Trust test= 1.09D+00 RLast= 6.18D-03 DXMaxT set to 5.05D-01
 ITU=  1  1  1  1  0
     Eigenvalues ---    0.00815   0.01177   0.02356   0.07487   0.07554
     Eigenvalues ---    0.14131   0.15999   0.16197   0.17035   0.20046
     Eigenvalues ---    0.28475   0.32510   0.32610   0.33191   0.34567
     Eigenvalues ---    0.42403   0.55473   0.92083
 En-DIIS/RFO-DIIS/Sim-DIIS IScMMF=       -3 using points:     5    4
 RFO step:  Lambda=-3.96196374D-07.
 DidBck=F Rises=F RFO-DIIS coefs:    1.07406   -0.07406
 Iteration  1 RMS(Cart)=  0.00039584 RMS(Int)=  0.00000018
 Iteration  2 RMS(Cart)=  0.00000022 RMS(Int)=  0.00000009
 Variable       Old X    -DE/DX   Delta X   Delta X   Delta X     New X
                                 (Linear)    (Quad)   (Total)
    R1        2.28676  -0.00009  -0.00007  -0.00009  -0.00017   2.28660
    R2        2.56544   0.00010   0.00033   0.00005   0.00038   2.56583
    R3        2.83028  -0.00011  -0.00005  -0.00028  -0.00033   2.82995
    R4        1.83332  -0.00023  -0.00006  -0.00038  -0.00044   1.83288
    R5        2.04780   0.00004   0.00000   0.00016   0.00016   2.04796
    R6        2.05638  -0.00001   0.00002  -0.00004  -0.00001   2.05637
    R7        2.05638  -0.00000   0.00002  -0.00003  -0.00001   2.05638
    A1        2.13810   0.00012  -0.00005   0.00044   0.00039   2.13850
    A2        2.20412  -0.00002   0.00019  -0.00016   0.00002   2.20414
    A3        1.94096  -0.00010  -0.00014  -0.00028  -0.00042   1.94054
    A4        1.84571   0.00003   0.00017   0.00012   0.00029   1.84600
    A5        1.91180  -0.00003   0.00003  -0.00019  -0.00015   1.91165
    A6        1.91066   0.00004  -0.00002   0.00026   0.00025   1.91091
    A7        1.91064   0.00005  -0.00002   0.00033   0.00032   1.91096
    A8        1.92600  -0.00002  -0.00001  -0.00025  -0.00026   1.92574
    A9        1.92600  -0.00003  -0.00001  -0.00027  -0.00028   1.92573
   A10        1.87840  -0.00001   0.00002   0.00013   0.00015   1.87855
    D1       -0.00013   0.00001  -0.00001   0.00059   0.00057   0.00045
    D2       -3.14147  -0.00001   0.00001  -0.00062  -0.00061   3.14111
    D3        0.00009  -0.00001   0.00001  -0.00061  -0.00060  -0.00051
    D4       -2.11394   0.00001   0.00002  -0.00034  -0.00033  -2.11426
    D5        2.11410  -0.00003   0.00001  -0.00084  -0.00084   2.11326
    D6        3.14141   0.00001  -0.00001   0.00066   0.00064  -3.14113
    D7        1.02739   0.00003  -0.00001   0.00092   0.00091   1.02830
    D8       -1.02776  -0.00001  -0.00002   0.00042   0.00040  -1.02736
         Item               Value     Threshold  Converged?
 Maximum Force            0.000233     0.000450     YES
 RMS     Force            0.000070     0.000300     YES
 Maximum Displacement     0.000890     0.001800     YES
 RMS     Displacement     0.000396     0.001200     YES
 Predicted change in Energy=-1.981008D-07
 Optimization completed.
    -- Stationary point found.
                           ----------------------------
                           !   Optimized Parameters   !
                           ! (Angstroms and Degrees)  !
 --------------------------                            --------------------------
 ! Name  Definition              Value          Derivative Info.                !
 --------------------------------------------------------------------------------
 ! R1    R(1,2)                  1.2101         -DE/DX =   -0.0001              !
 ! R2    R(1,3)                  1.3576         -DE/DX =    0.0001              !
 ! R3    R(1,4)                  1.4977         -DE/DX =   -0.0001              !
 ! R4    R(3,5)                  0.9702         -DE/DX =   -0.0002              !
 ! R5    R(4,6)                  1.0836         -DE/DX =    0.0                 !
 ! R6    R(4,7)                  1.0882         -DE/DX =    0.0                 !
 ! R7    R(4,8)                  1.0882         -DE/DX =    0.0                 !
 ! A1    A(2,1,3)              122.5044         -DE/DX =    0.0001              !
 ! A2    A(2,1,4)              126.2867         -DE/DX =    0.0                 !
 ! A3    A(3,1,4)              111.2089         -DE/DX =   -0.0001              !
 ! A4    A(1,3,5)              105.7514         -DE/DX =    0.0                 !
 ! A5    A(1,4,6)              109.5381         -DE/DX =    0.0                 !
 ! A6    A(1,4,7)              109.473          -DE/DX =    0.0                 !
 ! A7    A(1,4,8)              109.4717         -DE/DX =    0.0                 !
 ! A8    A(6,4,7)              110.352          -DE/DX =    0.0                 !
 ! A9    A(6,4,8)              110.3518         -DE/DX =    0.0                 !
 ! A10   A(7,4,8)              107.6242         -DE/DX =    0.0                 !
 ! D1    D(2,1,3,5)             -0.0073         -DE/DX =    0.0                 !
 ! D2    D(4,1,3,5)            180.0072         -DE/DX =    0.0                 !
 ! D3    D(2,1,4,6)              0.005          -DE/DX =    0.0                 !
 ! D4    D(2,1,4,7)           -121.1196         -DE/DX =    0.0                 !
 ! D5    D(2,1,4,8)            121.1287         -DE/DX =    0.0                 !
[...]
 Calling FoFJK, ICntrl=  10100127 FMM=F ISym2X=0 I1Cent= 0 IOpClX= 0 NMat=1 NMatS=1 NMatT=0.
 -------------------------------------------------------------------
 Center     Atomic                   Forces (Hartrees/Bohr)
 Number     Number              X              Y              Z
 -------------------------------------------------------------------
      1        6           0.000207418    0.000232142   -0.000039085
      2        8          -0.000380286   -0.000411752    0.000013924
      3        8          -0.000383020    0.000343194    0.000010860
      4        6           0.000158771   -0.000222813    0.000012390
      5        1           0.000227834    0.000007454    0.000000447
      6        1           0.000061786    0.000018238    0.000000968
      7        1           0.000050770    0.000017289   -0.000001699
      8        1           0.000056727    0.000016248    0.000002195
 -------------------------------------------------------------------
 Cartesian Forces:  Max     0.000411752 RMS     0.000184265
 NDeriv=     18 NFrqRd=  0 NDerD0=      0 MskFDP=       0 MskDFD=       0 MskDF0=       0
 Re-enter D2Numr:  normal mode      4 step-down number 1
 Standard basis: Aug-CC-pVTZ (5D, 7F)
   276 basis functions,   396 primitive gaussians,   320 cartesian basis functions
    16 alpha electrons       16 beta electrons
       nuclear repulsion energy       121.1269662886 Hartrees.
 NAtoms=    8 NActive=    8 NUniq=    8 SFac= 1.00D+00 NAtFMM=   60 NAOKFM=F Big=F
 Integral buffers will be    131072 words long.
 Raffenetti 1 integral format.
 Two-electron integral symmetry is turned off.
 One-electron integrals computed using PRISM.
 NBasis=   276 RedAO= T EigKep=  2.05D-05  NBF=   276
 NBsUse=   276 1.00D-06 EigRej= -1.00D+00 NBFU=   276
 Initial guess from the checkpoint file:  "/scr/Gau-51407.chk"
 B after Tr=     0.000000   -0.000000   -0.000149
         Rot=    1.000000   -0.000052    0.000149   -0.000000 Ang=  -0.02 deg.
 Keep R1 ints in memory in canonical form, NReq=750702847.
 Requested convergence on RMS density matrix=1.00D-08 within 128 cycles.
 Requested convergence on MAX density matrix=1.00D-06.
 Requested convergence on             energy=1.00D-06.
 No special actions if energy rises.
 SCF Done:  E(RHF) =  -227.905108766     A.U. after    9 cycles
            NFock=  9  Conv=0.42D-08     -V/T= 2.0017
 ExpMin= 2.53D-02 ExpMax= 1.53D+04 ExpMxC= 5.22D+02 IAcc=3 IRadAn=         5 AccDes= 0.00D+00
 HarFok:  IExCor=  205 AccDes= 0.00D+00 IRadAn=         5 IDoV=-2 UseB2=F ITyADJ=14
 ICtDFT= 12500011 ScaDFX=  1.000000  1.000000  1.000000  1.000000
 Range of M.O.s used for correlation:     5   276
 NBasis=   276 NAE=    16 NBE=    16 NFC=     4 NFV=     0
 NROrb=    272 NOA=    12 NOB=    12 NVA=   260 NVB=   260

 **** Warning!!: The largest alpha MO coefficient is  0.45355425D+02

 Disk-based method using ON**2 memory for 12 occupieds at a time.
 Permanent disk used for amplitudes=    21346000 words.
 Estimated scratch disk usage=   710922120 words.
 Actual    scratch disk usage=   687048584 words.
 JobTyp=1 Pass  1:  I=   5 to  16 NPSUse= 40 ParTrn=T ParDer=T DoDerP=T.
 (rs|ai) integrals will be sorted in core.
 Spin components of T(2) and E(2):
     alpha-alpha T2 =       0.2851850773D-01 E2=     -0.1017636544D+00
     alpha-beta  T2 =       0.1605859353D+00 E2=     -0.6139766667D+00
     beta-beta   T2 =       0.2851850773D-01 E2=     -0.1017636544D+00
 ANorm=    0.1103459537D+01
 E2 =    -0.8175039755D+00 EUMP2 =    -0.22872261274190D+03
 G2DrvN: will do     9 centers at a time, making    1 passes.
 Calling FoFCou, ICntrl=  3107 FMM=F I1Cent=   0 AccDes= 0.00D+00.
 End of G2Drv F.D. properties file   721 does not exist.
 End of G2Drv F.D. properties file   722 does not exist.
 End of G2Drv F.D. properties file   788 does not exist.
          IDoAtm=11111111
          Differentiating once with respect to electric field.
                with respect to dipole field.
          Differentiating once with respect to nuclear coordinates.
 Keep R1 ints in memory in canonical form, NReq=750704547.
          There are    27 degrees of freedom in the 1st order CPHF.  IDoFFX=6 NUNeed=    27.
     24 vectors produced by pass  0 Test12= 1.54D-14 3.70D-09 XBig12= 8.63D+00 1.44D+00.
 AX will form    24 AO Fock derivatives at one time.
     24 vectors produced by pass  1 Test12= 1.54D-14 3.70D-09 XBig12= 5.56D-01 1.24D-01.
     24 vectors produced by pass  2 Test12= 1.54D-14 3.70D-09 XBig12= 1.16D-02 1.68D-02.
     24 vectors produced by pass  3 Test12= 1.54D-14 3.70D-09 XBig12= 2.01D-04 1.91D-03.
     24 vectors produced by pass  4 Test12= 1.54D-14 3.70D-09 XBig12= 1.64D-06 1.49D-04.
     24 vectors produced by pass  5 Test12= 1.54D-14 3.70D-09 XBig12= 1.74D-08 2.34D-05.
     24 vectors produced by pass  6 Test12= 1.54D-14 3.70D-09 XBig12= 1.29D-10 1.66D-06.
      8 vectors produced by pass  7 Test12= 1.54D-14 3.70D-09 XBig12= 8.27D-13 1.22D-07.
      3 vectors produced by pass  8 Test12= 1.54D-14 3.70D-09 XBig12= 4.10D-15 8.70D-09.
 InvSVY:  IOpt=1 It=  1 EMax= 2.22D-15
 Solved reduced A of dimension   179 with    27 vectors.
 End of Minotr F.D. properties file   721 does not exist.
 End of Minotr F.D. properties file   722 does not exist.
 End of Minotr F.D. properties file   788 does not exist.
 MDV=  6710886400.
 Form MO integral derivatives with frozen-active canonical formalism.
 Discarding MO integrals.
 Reordered first order wavefunction length =     34611200
 In DefCFB: NBatch=  1 ICI= 16 ICA=260 LFMax= 65
            Large arrays: LIAPS=  1469644800 LIARS=   512512000 words.
 Semi-Direct transformation.
 ModeAB=           2 MOrb=            16 LenV=    6708887383
 LASXX=    161919660 LTotXX=   161919660 LenRXX=   161919660
 LTotAB=   163653136 MaxLAS=   226805760 LenRXY=   226805760
 NonZer=   323839320 LenScr=   487664640 LnRSAI=           0
 LnScr1=           0 LExtra=           0 Total=    876390060
 MaxDsk=          -1 SrtSym=           F ITran=            4
 JobTyp=0 Pass  1:  I=   1 to  16.
 (rs|ai) integrals will be sorted in core.
 Spin components of T(2) and E(2):
     alpha-alpha T2 =       0.2851850773D-01 E2=     -0.1017636544D+00
     alpha-beta  T2 =       0.1605859353D+00 E2=     -0.6139766667D+00
     beta-beta   T2 =       0.2851850773D-01 E2=     -0.1017636544D+00
 ANorm=    0.1560527443D+01
 E2 =    -0.8175039755D+00 EUMP2 =    -0.22872261274190D+03
          IDoAtm=11111111
          Differentiating once with respect to electric field.
                with respect to dipole field.
          Differentiating once with respect to nuclear coordinates.
          There are     1 degrees of freedom in the 1st order CPHF.  IDoFFX=0 NUNeed=     1.
 LinEq1:  Iter=  0 NonCon=     1 RMS=3.70D-03 Max=1.12D-01 NDo=     1
 LinEq1:  Iter=  1 NonCon=     1 RMS=1.04D-03 Max=1.76D-02 NDo=     1
 LinEq1:  Iter=  2 NonCon=     1 RMS=3.64D-04 Max=7.29D-03 NDo=     1
 LinEq1:  Iter=  3 NonCon=     1 RMS=1.62D-04 Max=3.39D-03 NDo=     1
 LinEq1:  Iter=  4 NonCon=     1 RMS=4.18D-05 Max=6.48D-04 NDo=     1
 LinEq1:  Iter=  5 NonCon=     1 RMS=1.62D-05 Max=2.79D-04 NDo=     1
 LinEq1:  Iter=  6 NonCon=     1 RMS=4.80D-06 Max=4.21D-05 NDo=     1
 LinEq1:  Iter=  7 NonCon=     1 RMS=8.50D-07 Max=1.11D-05 NDo=     1
 LinEq1:  Iter=  8 NonCon=     1 RMS=1.69D-07 Max=1.48D-06 NDo=     1
 LinEq1:  Iter=  9 NonCon=     1 RMS=4.80D-08 Max=6.94D-07 NDo=     1
 LinEq1:  Iter= 10 NonCon=     1 RMS=1.30D-08 Max=2.87D-07 NDo=     1
 LinEq1:  Iter= 11 NonCon=     1 RMS=3.45D-09 Max=6.50D-08 NDo=     1
 LinEq1:  Iter= 12 NonCon=     1 RMS=7.87D-10 Max=1.11D-08 NDo=     1
 LinEq1:  Iter= 13 NonCon=     1 RMS=1.24D-10 Max=1.86D-09 NDo=     1
 LinEq1:  Iter= 14 NonCon=     0 RMS=2.25D-11 Max=5.60D-10 NDo=     1
 Linear equations converged to 1.000D-10 1.000D-09 after    14 iterations.
 End of Minotr F.D. properties file   721 does not exist.
 End of Minotr F.D. properties file   722 does not exist.
 End of Minotr F.D. properties file   788 does not exist.
 Symmetrizing basis deriv contribution to polar:
 IMax=3 JMax=2 DiffMx= 0.00D+00
 G2DrvN: will do     9 centers at a time, making    1 passes.
 Calling FoFCou, ICntrl=  3107 FMM=F I1Cent=   0 AccDes= 0.00D+00.
 End of G2Drv F.D. properties file   721 does not exist.
 End of G2Drv F.D. properties file   722 does not exist.
 End of G2Drv F.D. properties file   788 does not exist.
 R2 and R3 integrals will be kept in memory, NReq=  2654438880.
 DD1Dir will call FoFMem   1 times, MxPair=       272
 NAB=   136 NAA=     0 NBB=     0.
 Discarding MO integrals.

 **********************************************************************

            Population analysis using the MP2 Density.

 **********************************************************************

 Alpha  occ. eigenvalues --  -20.61586 -20.55304 -11.39162 -11.24684  -1.46580
 Alpha  occ. eigenvalues --   -1.36221  -1.03134  -0.82328  -0.70781  -0.68175
 Alpha  occ. eigenvalues --   -0.65231  -0.58662  -0.57646  -0.56359  -0.48541
 Alpha  occ. eigenvalues --   -0.45740
 Alpha virt. eigenvalues --    0.02737   0.03882   0.04483   0.05094   0.08182
 Alpha virt. eigenvalues --    0.09869   0.09940   0.11946   0.12529   0.12755
 Alpha virt. eigenvalues --    0.13546   0.15882   0.17020   0.17375   0.18091
 Alpha virt. eigenvalues --    0.18749   0.21409   0.22920   0.24000   0.24907
 Alpha virt. eigenvalues --    0.25993   0.27424   0.28905   0.30085   0.31086
 Alpha virt. eigenvalues --    0.32752   0.33183   0.34447   0.34704   0.36309
 Alpha virt. eigenvalues --    0.37164   0.37860   0.40272   0.40337   0.41200
 Alpha virt. eigenvalues --    0.41355   0.42500   0.43733   0.45437   0.45706
 Alpha virt. eigenvalues --    0.47761   0.48592   0.50862   0.51669   0.51950
 Alpha virt. eigenvalues --    0.54755   0.55178   0.59878   0.62048   0.63978
 Alpha virt. eigenvalues --    0.66084   0.70188   0.71321   0.72069   0.76148
 Alpha virt. eigenvalues --    0.77392   0.78630   0.80327   0.80556   0.81470
 Alpha virt. eigenvalues --    0.83403   0.84120   0.87489   0.87856   0.88876
 Alpha virt. eigenvalues --    0.89795   0.90489   0.91292   0.92056   0.94214
 Alpha virt. eigenvalues --    0.96582   0.97393   0.97449   1.00250   1.00944
 Alpha virt. eigenvalues --    1.02335   1.02442   1.04215   1.04412   1.07045
 Alpha virt. eigenvalues --    1.10189   1.10757   1.11423   1.13488   1.15971
 Alpha virt. eigenvalues --    1.19140   1.19284   1.19402   1.20411   1.21412
 Alpha virt. eigenvalues --    1.21907   1.26105   1.29106   1.31771   1.32612
 Alpha virt. eigenvalues --    1.34761   1.40112   1.41310   1.44866   1.46002
 Alpha virt. eigenvalues --    1.46251   1.49010   1.51051   1.52051   1.55135
 Alpha virt. eigenvalues --    1.59108   1.60734   1.63736   1.64529   1.65792
 Alpha virt. eigenvalues --    1.65859   1.69415   1.70367   1.75624   1.76639
 Alpha virt. eigenvalues --    1.77640   1.79402   1.81719   1.84105   1.89051
 Alpha virt. eigenvalues --    1.91040   1.93119   1.96200   2.05725   2.06786
 Alpha virt. eigenvalues --    2.07882   2.12951   2.16627   2.17240   2.20873
 Alpha virt. eigenvalues --    2.21583   2.26448   2.28595   2.32554   2.33302
 Alpha virt. eigenvalues --    2.41913   2.43044   2.44682   2.46190   2.52519
 Alpha virt. eigenvalues --    2.55427   2.57224   2.59058   2.60904   2.68026
 Alpha virt. eigenvalues --    2.73100   2.73252   2.75562   2.77393   2.81115
 Alpha virt. eigenvalues --    2.85110   2.89591   2.92044   2.96039   2.99134
 Alpha virt. eigenvalues --    2.99780   3.01383   3.14252   3.20798   3.23205
 Alpha virt. eigenvalues --    3.25173   3.35540   3.37128   3.41401   3.45579
 Alpha virt. eigenvalues --    3.52926   3.55524   3.58694   3.60127   3.60701
 Alpha virt. eigenvalues --    3.65658   3.70786   3.77511   3.82069   3.83191
 Alpha virt. eigenvalues --    3.87703   3.91301   3.93056   3.94325   3.98021
 Alpha virt. eigenvalues --    3.99810   4.00667   4.05581   4.05715   4.10702
 Alpha virt. eigenvalues --    4.13383   4.16360   4.25724   4.28825   4.31577
 Alpha virt. eigenvalues --    4.32329   4.37006   4.37520   4.43330   4.46321
 Alpha virt. eigenvalues --    4.49214   4.55463   4.62735   4.65630   4.66063
 Alpha virt. eigenvalues --    4.70716   4.75527   4.78472   4.80298   4.86426
 Alpha virt. eigenvalues --    4.91274   4.98325   5.02284   5.04453   5.10412
 Alpha virt. eigenvalues --    5.12028   5.14301   5.26458   5.30713   5.34139
 Alpha virt. eigenvalues --    5.35220   5.42429   5.49830   5.53302   5.62607
 Alpha virt. eigenvalues --    5.66513   5.68754   5.74945   5.90273   6.03215
 Alpha virt. eigenvalues --    6.07446   6.11332   6.19417   6.35024   6.55243
 Alpha virt. eigenvalues --    6.63447   6.67136   6.68590   6.71985   6.82361
 Alpha virt. eigenvalues --    6.83433   6.86799   6.97480   7.02430   7.20308
 Alpha virt. eigenvalues --    7.23709   7.27420   7.30629   7.33234   7.34263
 Alpha virt. eigenvalues --    7.37567   7.49630   7.53444   7.58791   7.65041
 Alpha virt. eigenvalues --    7.68648   7.83639   7.90039   8.00756   8.20605
 Alpha virt. eigenvalues --    8.50868  15.18550  15.63707  17.09270  18.86826
          Condensed to atoms (all electrons):
               1          2          3          4          5          6
     1  C    5.627585   0.209067   0.137577  -0.424260   0.051225   0.026676
     2  O    0.209067   8.496361  -0.071463  -0.038481  -0.027726  -0.002148
     3  O    0.137577  -0.071463   8.265998  -0.090111   0.088914  -0.002203
     4  C   -0.424260  -0.038481  -0.090111   6.763007   0.006928   0.142073
     5  H    0.051225  -0.027726   0.088914   0.006928   0.646261   0.001294
     6  H    0.026676  -0.002148  -0.002203   0.142073   0.001294   0.493751
     7  H    0.045025  -0.009653   0.001486   0.131072  -0.002663   0.000650
     8  H    0.045720  -0.009716   0.001312   0.129402  -0.002686   0.000832
               7          8
     1  C    0.045025   0.045720
     2  O   -0.009653  -0.009716
     3  O    0.001486   0.001312
     4  C    0.131072   0.129402
     5  H   -0.002663  -0.002686
     6  H    0.000650   0.000832
     7  H    0.491296   0.023663
     8  H    0.023663   0.492127
 Mulliken charges:
               1
     1  C    0.281385
     2  O   -0.546241
     3  O   -0.331510
     4  C   -0.619630
     5  H    0.238453
     6  H    0.339076
     7  H    0.319122
     8  H    0.319345
 Sum of Mulliken charges =  -0.00000
 Mulliken charges with hydrogens summed into heavy atoms:
               1
     1  C    0.281385
     2  O   -0.546241
     3  O   -0.093057
     4  C    0.357913
 APT charges:
               1
     1  C    1.095304
     2  O   -0.684172
     3  O   -0.720912
     4  C   -0.074672
     5  H    0.282807
     6  H    0.033703
     7  H    0.033989
     8  H    0.033951
 Sum of APT charges =  -0.00000
 APT charges with hydrogens summed into heavy atoms:
               1
     1  C    1.095304
     2  O   -0.684172
     3  O   -0.438105
     4  C    0.026972
 Electronic spatial extent (au):  <R**2>=            254.0226
 Charge=             -0.0000 electrons
 Dipole moment (field-independent basis, Debye):
    X=              0.7812    Y=             -1.4701    Z=             -0.0143  Tot=              1.6649
 Quadrupole moment (field-independent basis, Debye-Ang):
   XX=            -19.5537   YY=            -28.7210   ZZ=            -23.5250
   XY=              2.1671   XZ=              0.0295   YZ=              0.0122
 Traceless Quadrupole moment (field-independent basis, Debye-Ang):
   XX=              4.3795   YY=             -4.7877   ZZ=              0.4082
   XY=              2.1671   XZ=              0.0295   YZ=              0.0122
 Octapole moment (field-independent basis, Debye-Ang**2):
  XXX=            -11.2835  YYY=             -1.7953  ZZZ=              0.0090  XYY=              1.4806
  XXY=             -4.6688  XXZ=             -0.0560  XZZ=             -0.6387  YZZ=             -0.6045
  YYZ=             -0.0024  XYZ=             -0.0206
 Hexadecapole moment (field-independent basis, Debye-Ang**3):
 XXXX=           -150.3284 YYYY=           -129.7917 ZZZZ=            -28.4733 XXXY=             11.9235
 XXXZ=              0.0791 YYYX=              3.7113 YYYZ=              0.0109 ZZZX=              0.0060
 ZZZY=              0.0012 XXYY=            -44.8487 XXZZ=            -31.7976 YYZZ=            -24.9797
 XXYZ=              0.0544 YYXZ=              0.0158 ZZXY=             -1.3705
 N-N= 1.211269662886D+02 E-N=-7.796506099237D+02  KE= 2.285135837027D+02
  Exact polarizability:      38.264      -0.851      37.519       0.007       0.003      26.489
 Approx polarizability:      28.174      -1.463      30.759       0.008       0.001      24.038
 Calling FoFJK, ICntrl=  10100127 FMM=F ISym2X=0 I1Cent= 0 IOpClX= 0 NMat=1 NMatS=1 NMatT=0.
 -------------------------------------------------------------------
 Center     Atomic                   Forces (Hartrees/Bohr)
 Number     Number              X              Y              Z
 -------------------------------------------------------------------
      1        6           0.000009215    0.000224925    0.000417373
      2        8           0.000100400   -0.000052817   -0.000272108
      3        8          -0.000241144   -0.000043540   -0.000429631
      4        6          -0.000197352   -0.000132774    0.000121027
      5        1           0.000250610   -0.000085599    0.000232828
      6        1           0.000017562    0.000033001   -0.000028844
      7        1          -0.000037195    0.000040815   -0.000020927
      8        1           0.000097905    0.000015988   -0.000019719
 -------------------------------------------------------------------
 Cartesian Forces:  Max     0.000429631 RMS     0.000178877
 NDeriv=     18 NFrqRd=  0 NDerD0=      0 MskFDP=       0 MskDFD=       0 MskDF0=       0
 Re-enter D2Numr:  normal mode      5 step-up   number 1
 Standard basis: Aug-CC-pVTZ (5D, 7F)
   276 basis functions,   396 primitive gaussians,   320 cartesian basis functions
    16 alpha electrons       16 beta electrons
       nuclear repulsion energy       121.1269666796 Hartrees.
 NAtoms=    8 NActive=    8 NUniq=    8 SFac= 1.00D+00 NAtFMM=   60 NAOKFM=F Big=F
 Integral buffers will be    131072 words long.
 Raffenetti 1 integral format.
 Two-electron integral symmetry is turned off.
 One-electron integrals computed using PRISM.
 NBasis=   276 RedAO= T EigKep=  2.05D-05  NBF=   276
 NBsUse=   276 1.00D-06 EigRej= -1.00D+00 NBFU=   276
 Initial guess from the checkpoint file:  "/scr/Gau-51407.chk"
 B after Tr=    -0.000000    0.000000    0.000149
         Rot=    1.000000    0.000052   -0.000149    0.000000 Ang=   0.02 deg.
 Keep R1 ints in memory in canonical form, NReq=750702847.
 Requested convergence on RMS density matrix=1.00D-08 within 128 cycles.
 Requested convergence on MAX density matrix=1.00D-06.
 Requested convergence on             energy=1.00D-06.
 No special actions if energy rises.
 SCF Done:  E(RHF) =  -227.905108552     A.U. after    9 cycles
            NFock=  9  Conv=0.42D-08     -V/T= 2.0017
 ExpMin= 2.53D-02 ExpMax= 1.53D+04 ExpMxC= 5.22D+02 IAcc=3 IRadAn=         5 AccDes= 0.00D+00
 HarFok:  IExCor=  205 AccDes= 0.00D+00 IRadAn=         5 IDoV=-2 UseB2=F ITyADJ=14
 ICtDFT= 12500011 ScaDFX=  1.000000  1.000000  1.000000  1.000000
 Range of M.O.s used for correlation:     5   276
 NBasis=   276 NAE=    16 NBE=    16 NFC=     4 NFV=     0
 NROrb=    272 NOA=    12 NOB=    12 NVA=   260 NVB=   260

 **** Warning!!: The largest alpha MO coefficient is  0.45181466D+02

 Disk-based method using ON**2 memory for 12 occupieds at a time.
 Permanent disk used for amplitudes=    21346000 words.
 Estimated scratch disk usage=   710922120 words.
 Actual    scratch disk usage=   687048584 words.
 JobTyp=1 Pass  1:  I=   5 to  16 NPSUse= 40 ParTrn=T ParDer=T DoDerP=T.
 (rs|ai) integrals will be sorted in core.
