 Entering Gaussian System, Link 0=g16
 Input=acohc_mp2_avdz_opt_anharm.gjf
 Output=acohc_mp2_avdz_opt_anharm.log
 Initial command:
 /sw/contrib/chem-src/g16/c01/g16/l1.exe "/scr/Gau-85872.inp" -scrdir="/scr/"
 Entering Link 1 = /sw/contrib/chem-src/g16/c01/g16/l1.exe PID=     85873.
  
 Copyright (c) 1988-2019, Gaussian, Inc.  All Rights Reserved.
  
 This is part of the Gaussian(R) 16 program.  It is based on
 the Gaussian(R) 09 system (copyright 2009, Gaussian, Inc.),
 the Gaussian(R) 03 system (copyright 2003, Gaussian, Inc.),
 the Gaussian(R) 98 system (copyright 1998, Gaussian, Inc.),
 the Gaussian(R) 94 system (copyright 1995, Gaussian, Inc.),
 the Gaussian 92(TM) system (copyright 1992, Gaussian, Inc.),
 the Gaussian 90(TM) system (copyright 1990, Gaussian, Inc.),
 the Gaussian 88(TM) system (copyright 1988, Gaussian, Inc.),
 the Gaussian 86(TM) system (copyright 1986, Carnegie Mellon
 University), and the Gaussian 82(TM) system (copyright 1983,
 Carnegie Mellon University). Gaussian is a federally registered
 trademark of Gaussian, Inc.
  
 This software contains proprietary and confidential information,
 including trade secrets, belonging to Gaussian, Inc.
  
 This software is provided under written license and may be
 used, copied, transmitted, or stored only in accord with that
 written license.
  
 The following legend is applicable only to US Government
 contracts under FAR:
  
                    RESTRICTED RIGHTS LEGEND
  
 Use, reproduction and disclosure by the US Government is
 subject to restrictions as set forth in subparagraphs (a)
 and (c) of the Commercial Computer Software - Restricted
 Rights clause in FAR 52.227-19.
  
 Gaussian, Inc.
 340 Quinnipiac St., Bldg. 40, Wallingford CT 06492
  
  
 ---------------------------------------------------------------
 Warning -- This program may not be used in any manner that
 competes with the business of Gaussian, Inc. or will provide
 assistance to any competitor of Gaussian, Inc.  The licensee
 of this program is prohibited from giving any competitor of
 Gaussian, Inc. access to this program.  By using this program,
 the user acknowledges that Gaussian, Inc. is engaged in the
 business of creating and licensing software in the field of
 computational chemistry and represents and warrants to the
 licensee that it is not a competitor of Gaussian, Inc. and that
 it will not use this program in any manner prohibited above.
 ---------------------------------------------------------------
  

 Cite this work as:
 Gaussian 16, Revision C.01,
 M. J. Frisch, G. W. Trucks, H. B. Schlegel, G. E. Scuseria, 
 M. A. Robb, J. R. Cheeseman, G. Scalmani, V. Barone, 
 G. A. Petersson, H. Nakatsuji, X. Li, M. Caricato, A. V. Marenich, 
 J. Bloino, B. G. Janesko, R. Gomperts, B. Mennucci, H. P. Hratchian, 
 J. V. Ortiz, A. F. Izmaylov, J. L. Sonnenberg, D. Williams-Young, 
 F. Ding, F. Lipparini, F. Egidi, J. Goings, B. Peng, A. Petrone, 
 T. Henderson, D. Ranasinghe, V. G. Zakrzewski, J. Gao, N. Rega, 
 G. Zheng, W. Liang, M. Hada, M. Ehara, K. Toyota, R. Fukuda, 
 J. Hasegawa, M. Ishida, T. Nakajima, Y. Honda, O. Kitao, H. Nakai, 
 T. Vreven, K. Throssell, J. A. Montgomery, Jr., J. E. Peralta, 
 F. Ogliaro, M. J. Bearpark, J. J. Heyd, E. N. Brothers, K. N. Kudin, 
 V. N. Staroverov, T. A. Keith, R. Kobayashi, J. Normand, 
 K. Raghavachari, A. P. Rendell, J. C. Burant, S. S. Iyengar, 
 J. Tomasi, M. Cossi, J. M. Millam, M. Klene, C. Adamo, R. Cammi, 
 J. W. Ochterski, R. L. Martin, K. Morokuma, O. Farkas, 
 J. B. Foresman, and D. J. Fox, Gaussian, Inc., Wallingford CT, 2019.
 
 ******************************************
 Gaussian 16:  EM64L-G16RevC.01  3-Jul-2019
                21-Mar-2025 
 ******************************************
 %nprocshared=40
 Will use up to   40 processors via shared memory.
 %mem=50gb
 ----------------------------------------------
 # MP2/aug-cc-pVDZ opt freq=(vibrot,anharmonic)
 ----------------------------------------------
 1/18=20,19=15,38=1,80=1/1,3;
 2/9=110,12=2,17=6,18=5,40=1/2;
 3/5=16,7=10,11=9,25=1,30=1,71=1/1,2,3;
 4//1;
 5/5=2,38=5/2;
 8/6=4,10=1/1;
 9/15=2,16=-3/6;
 10/5=1/2;
 6/7=2,8=2,9=2,10=2/1;
 7/12=2/1,2,3,16;
 1/18=20,19=15,80=1/3(2);
 2/9=110/2;
 99//99;
 2/9=110/2;
 3/5=16,7=10,11=9,25=1,30=1,71=1/1,2,3;
 4/5=5,16=3,69=1/1;
 5/5=2,38=5/2;
 8/6=4,10=1/1;
 9/15=2,16=-3/6;
 10/5=1/2;
 7/12=2/1,2,3,16;
 1/18=20,19=15,80=1/3(-8);
 2/9=110/2;
 6/7=2,8=2,9=2,10=2/1;
 99/9=10/99;
 ----
 blah
 ----
 Symbolic Z-matrix:
 Charge =  0 Multiplicity = 1
 C                     0.97379  -0.11687   0.00001 
 O                     2.1618   -0.40176   0.00017 
 O                     0.04291  -1.09426  -0.00012 
 C                     0.54484   1.3166   -0.00005 
 H                     0.29336  -2.02933  -0.00006 
 H                     1.42769   1.99119   0.00014 
 H                    -0.06442   1.5242    0.90417 
 H                    -0.06408   1.52424  -0.90448 
 

 GradGradGradGradGradGradGradGradGradGradGradGradGradGradGradGradGradGrad
 Berny optimization.
 Initialization pass.
                           ----------------------------
                           !    Initial Parameters    !
                           ! (Angstroms and Degrees)  !
 --------------------------                            --------------------------
 ! Name  Definition              Value          Derivative Info.                !
 --------------------------------------------------------------------------------
 ! R1    R(1,2)                  1.2217         estimate D2E/DX2                !
 ! R2    R(1,3)                  1.3498         estimate D2E/DX2                !
 ! R3    R(1,4)                  1.4963         estimate D2E/DX2                !
 ! R4    R(3,5)                  0.968          estimate D2E/DX2                !
 ! R5    R(4,6)                  1.1111         estimate D2E/DX2                !
 ! R6    R(4,7)                  1.1099         estimate D2E/DX2                !
 ! R7    R(4,8)                  1.1099         estimate D2E/DX2                !
 ! A1    A(2,1,3)              120.1187         estimate D2E/DX2                !
 ! A2    A(2,1,4)              120.1446         estimate D2E/DX2                !
 ! A3    A(3,1,4)              119.7367         estimate D2E/DX2                !
 ! A4    A(1,3,5)              121.4016         estimate D2E/DX2                !
 ! A5    A(1,4,6)              110.7239         estimate D2E/DX2                !
 ! A6    A(1,4,7)              109.6653         estimate D2E/DX2                !
 ! A7    A(1,4,8)              109.6655         estimate D2E/DX2                !
 ! A8    A(6,4,7)              108.8128         estimate D2E/DX2                !
 ! A9    A(6,4,8)              108.813          estimate D2E/DX2                !
 ! A10   A(7,4,8)              109.1304         estimate D2E/DX2                !
 ! D1    D(2,1,3,5)              0.0015         estimate D2E/DX2                !
 ! D2    D(4,1,3,5)           -179.9979         estimate D2E/DX2                !
 ! D3    D(2,1,4,6)             -0.003          estimate D2E/DX2                !
 ! D4    D(2,1,4,7)           -120.0925         estimate D2E/DX2                !
 ! D5    D(2,1,4,8)            120.0868         estimate D2E/DX2                !
 ! D6    D(3,1,4,6)            179.9964         estimate D2E/DX2                !
 ! D7    D(3,1,4,7)             59.907          estimate D2E/DX2                !
 ! D8    D(3,1,4,8)            -59.9138         estimate D2E/DX2                !
 --------------------------------------------------------------------------------
 Trust Radius=3.00D-01 FncErr=1.00D-07 GrdErr=1.00D-07 EigMax=2.50D+02 EigMin=1.00D-04
 Number of steps in this run=     35 maximum allowed number of steps=    100.
 GradGradGradGradGradGradGradGradGradGradGradGradGradGradGradGradGradGrad

                          Input orientation:                          
 ---------------------------------------------------------------------
 Center     Atomic      Atomic             Coordinates (Angstroms)
 Number     Number       Type             X           Y           Z
 ---------------------------------------------------------------------
      1          6           0        0.973792   -0.116868    0.000006
      2          8           0        2.161804   -0.401762    0.000171
      3          8           0        0.042909   -1.094256   -0.000118
      4          6           0        0.544838    1.316605   -0.000045
      5          1           0        0.293363   -2.029329   -0.000058
      6          1           0        1.427687    1.991186    0.000137
      7          1           0       -0.064416    1.524200    0.904171
      8          1           0       -0.064078    1.524239   -0.904480
 ---------------------------------------------------------------------
                    Distance matrix (angstroms):
                    1          2          3          4          5
     1  C    0.000000
     2  O    1.221694   0.000000
     3  O    1.349751   2.229185   0.000000
     4  C    1.496278   2.359526   2.462556   0.000000
     5  H    2.029899   2.477912   0.968034   3.355371   0.000000
     6  H    2.156366   2.503023   3.381946   1.111072   4.177467
     7  H    2.142078   3.079384   2.772286   1.109907   3.684184
     8  H    2.142079   3.079354   2.772333   1.109907   3.684236
                    6          7          8
     6  H    0.000000
     7  H    1.806025   0.000000
     8  H    1.806027   1.808652   0.000000
 Stoichiometry    C2H4O2
 Framework group  C1[X(C2H4O2)]
 Deg. of freedom    18
 Full point group                 C1      NOp   1
 Largest Abelian subgroup         C1      NOp   1
 Largest concise Abelian subgroup C1      NOp   1
                         Standard orientation:                         
 ---------------------------------------------------------------------
 Center     Atomic      Atomic             Coordinates (Angstroms)
 Number     Number       Type             X           Y           Z
 ---------------------------------------------------------------------
      1          6           0       -0.062561    0.087625   -0.000008
      2          8           0       -0.356567    1.273415   -0.000172
      3          8           0       -1.032773   -0.850734    0.000116
      4          6           0        1.374163   -0.330310    0.000044
      5          1           0       -1.969742   -0.607466    0.000057
      6          1           0        2.041946    0.557692   -0.000138
      7          1           0        1.586430   -0.937953   -0.904172
      8          1           0        1.586466   -0.937614    0.904479
 ---------------------------------------------------------------------
 Rotational constants (GHZ):          11.7747258           8.9443282           5.2574327
 Standard basis: Aug-CC-pVDZ (5D, 7F)
 There are   136 symmetry adapted cartesian basis functions of A   symmetry.
 There are   128 symmetry adapted basis functions of A   symmetry.
   128 basis functions,   216 primitive gaussians,   136 cartesian basis functions
    16 alpha electrons       16 beta electrons
       nuclear repulsion energy       120.2613748212 Hartrees.
 NAtoms=    8 NActive=    8 NUniq=    8 SFac= 1.00D+00 NAtFMM=   60 NAOKFM=F Big=F
 Integral buffers will be    131072 words long.
 Raffenetti 1 integral format.
 Two-electron integral symmetry is turned on.
 One-electron integrals computed using PRISM.
 NBasis=   128 RedAO= T EigKep=  1.11D-04  NBF=   128
 NBsUse=   128 1.00D-06 EigRej= -1.00D+00 NBFU=   128
 ExpMin= 2.97D-02 ExpMax= 1.17D+04 ExpMxC= 4.01D+02 IAcc=3 IRadAn=         5 AccDes= 0.00D+00
 Harris functional with IExCor=  205 and IRadAn=       5 diagonalized for initial guess.
 HarFok:  IExCor=  205 AccDes= 0.00D+00 IRadAn=         5 IDoV= 1 UseB2=F ITyADJ=14
 ICtDFT=  3500011 ScaDFX=  1.000000  1.000000  1.000000  1.000000
 FoFCou: FMM=F IPFlag=           0 FMFlag=      100000 FMFlg1=           0
         NFxFlg=           0 DoJE=T BraDBF=F KetDBF=T FulRan=T
         wScrn=  0.000000 ICntrl=       500 IOpCl=  0 I1Cent=   200000004 NGrid=           0
         NMat0=    1 NMatS0=      1 NMatT0=    0 NMatD0=    1 NMtDS0=    0 NMtDT0=    0
 Petite list used in FoFCou.
 Keep R1 ints in memory in canonical form, NReq=42669340.
 Requested convergence on RMS density matrix=1.00D-08 within 128 cycles.
 Requested convergence on MAX density matrix=1.00D-06.
 Requested convergence on             energy=1.00D-06.
 No special actions if energy rises.
 SCF Done:  E(RHF) =  -227.838165334     A.U. after   13 cycles
            NFock= 13  Conv=0.45D-08     -V/T= 2.0022
 ExpMin= 2.97D-02 ExpMax= 1.17D+04 ExpMxC= 4.01D+02 IAcc=3 IRadAn=         5 AccDes= 0.00D+00
 HarFok:  IExCor=  205 AccDes= 0.00D+00 IRadAn=         5 IDoV=-2 UseB2=F ITyADJ=14
 ICtDFT= 12500011 ScaDFX=  1.000000  1.000000  1.000000  1.000000
 Range of M.O.s used for correlation:     5   128
 NBasis=   128 NAE=    16 NBE=    16 NFC=     4 NFV=     0
 NROrb=    124 NOA=    12 NOB=    12 NVA=   112 NVB=   112

 **** Warning!!: The largest alpha MO coefficient is  0.33480312D+02

 Fully direct method using O(ONN) memory.
 JobTyp=1 Pass  1:  I=   5 to  16 NPSUse= 40 ParTrn=T ParDer=T DoDerP=T.
 Spin components of T(2) and E(2):
     alpha-alpha T2 =       0.2707507977D-01 E2=     -0.8784879050D-01
     alpha-beta  T2 =       0.1497337601D+00 E2=     -0.4993616585D+00
     beta-beta   T2 =       0.2707507977D-01 E2=     -0.8784879050D-01
 ANorm=    0.1097216442D+01
 E2 =    -0.6750592395D+00 EUMP2 =    -0.22851322457352D+03
          IDoAtm=11111111
          Differentiating once with respect to electric field.
                with respect to dipole field.
          Differentiating once with respect to nuclear coordinates.
 Keep R1 ints in memory in canonical form, NReq=42674149.
          There are     1 degrees of freedom in the 1st order CPHF.  IDoFFX=0 NUNeed=     1.
 LinEq1:  Iter=  0 NonCon=     1 RMS=5.80D-03 Max=1.22D-01 NDo=     1
 AX will form     1 AO Fock derivatives at one time.
 LinEq1:  Iter=  1 NonCon=     1 RMS=1.69D-03 Max=2.16D-02 NDo=     1
 LinEq1:  Iter=  2 NonCon=     1 RMS=5.67D-04 Max=8.27D-03 NDo=     1
 LinEq1:  Iter=  3 NonCon=     1 RMS=1.98D-04 Max=2.35D-03 NDo=     1
 LinEq1:  Iter=  4 NonCon=     1 RMS=6.67D-05 Max=6.40D-04 NDo=     1
 LinEq1:  Iter=  5 NonCon=     1 RMS=1.92D-05 Max=2.15D-04 NDo=     1
 LinEq1:  Iter=  6 NonCon=     1 RMS=5.57D-06 Max=4.85D-05 NDo=     1
 LinEq1:  Iter=  7 NonCon=     1 RMS=1.11D-06 Max=1.71D-05 NDo=     1
 LinEq1:  Iter=  8 NonCon=     1 RMS=2.36D-07 Max=3.97D-06 NDo=     1
 LinEq1:  Iter=  9 NonCon=     1 RMS=5.83D-08 Max=5.90D-07 NDo=     1
 LinEq1:  Iter= 10 NonCon=     1 RMS=1.56D-08 Max=9.49D-08 NDo=     1
 LinEq1:  Iter= 11 NonCon=     1 RMS=3.88D-09 Max=2.33D-08 NDo=     1
 LinEq1:  Iter= 12 NonCon=     1 RMS=8.14D-10 Max=5.28D-09 NDo=     1
 LinEq1:  Iter= 13 NonCon=     1 RMS=1.11D-10 Max=1.02D-09 NDo=     1
 LinEq1:  Iter= 14 NonCon=     0 RMS=1.83D-11 Max=1.48D-10 NDo=     1
 Linear equations converged to 1.000D-10 1.000D-09 after    14 iterations.
 End of Minotr F.D. properties file   721 does not exist.
 End of Minotr F.D. properties file   722 does not exist.
 End of Minotr F.D. properties file   788 does not exist.

 **********************************************************************

            Population analysis using the SCF Density.

 **********************************************************************

 Orbital symmetries:
       Occupied  (A) (A) (A) (A) (A) (A) (A) (A) (A) (A) (A) (A)
                 (A) (A) (A) (A)
       Virtual   (A) (A) (A) (A) (A) (A) (A) (A) (A) (A) (A) (A)
                 (A) (A) (A) (A) (A) (A) (A) (A) (A) (A) (A) (A)
                 (A) (A) (A) (A) (A) (A) (A) (A) (A) (A) (A) (A)
                 (A) (A) (A) (A) (A) (A) (A) (A) (A) (A) (A) (A)
                 (A) (A) (A) (A) (A) (A) (A) (A) (A) (A) (A) (A)
                 (A) (A) (A) (A) (A) (A) (A) (A) (A) (A) (A) (A)
                 (A) (A) (A) (A) (A) (A) (A) (A) (A) (A) (A) (A)
                 (A) (A) (A) (A) (A) (A) (A) (A) (A) (A) (A) (A)
                 (A) (A) (A) (A) (A) (A) (A) (A) (A) (A) (A) (A)
                 (A) (A) (A) (A)
 The electronic state is 1-A.
 Alpha  occ. eigenvalues --  -20.62012 -20.55089 -11.40120 -11.26418  -1.46030
 Alpha  occ. eigenvalues --   -1.35342  -1.02551  -0.84817  -0.69724  -0.67642
 Alpha  occ. eigenvalues --   -0.64616  -0.57585  -0.56240  -0.56163  -0.47173
 Alpha  occ. eigenvalues --   -0.44646
 Alpha virt. eigenvalues --    0.03203   0.04533   0.05568   0.06402   0.09814
 Alpha virt. eigenvalues --    0.11772   0.11852   0.14189   0.15244   0.15493
 Alpha virt. eigenvalues --    0.16547   0.16673   0.19728   0.20491   0.23436
 Alpha virt. eigenvalues --    0.23488   0.27055   0.28571   0.29115   0.32442
 Alpha virt. eigenvalues --    0.32569   0.33879   0.36182   0.38397   0.39714
 Alpha virt. eigenvalues --    0.39935   0.42485   0.43170   0.44069   0.46876
 Alpha virt. eigenvalues --    0.48699   0.52005   0.54016   0.54220   0.56944
 Alpha virt. eigenvalues --    0.57710   0.58549   0.61568   0.64042   0.64822
 Alpha virt. eigenvalues --    0.65841   0.68474   0.69356   0.70838   0.72932
 Alpha virt. eigenvalues --    0.73357   0.79549   0.84746   0.88201   0.90980
 Alpha virt. eigenvalues --    0.93837   0.95271   0.98940   1.03329   1.06985
 Alpha virt. eigenvalues --    1.08198   1.12823   1.16082   1.16717   1.18130
 Alpha virt. eigenvalues --    1.19824   1.26697   1.31659   1.37158   1.39375
 Alpha virt. eigenvalues --    1.41573   1.45621   1.46590   1.53781   1.65649
 Alpha virt. eigenvalues --    1.68687   1.73860   1.75804   1.77609   1.82902
 Alpha virt. eigenvalues --    1.85657   1.87421   1.93315   1.96454   2.00353
 Alpha virt. eigenvalues --    2.00465   2.11202   2.15472   2.17305   2.22103
 Alpha virt. eigenvalues --    2.22972   2.26376   2.32775   2.33538   2.40732
 Alpha virt. eigenvalues --    2.47240   2.50710   2.62526   2.62662   2.73064
 Alpha virt. eigenvalues --    2.80230   2.90577   2.91842   2.94970   2.97476
 Alpha virt. eigenvalues --    3.21853   3.35718   3.66798   3.69905   3.72251
 Alpha virt. eigenvalues --    3.76019   3.78435   3.80047   3.90635   4.03733
 Alpha virt. eigenvalues --    4.11987   4.34723
          Condensed to atoms (all electrons):
               1          2          3          4          5          6
     1  C    4.531308   0.342283   0.064165   0.373593  -0.070222  -0.026761
     2  O    0.342283   8.486390  -0.074381  -0.019509  -0.029330   0.004421
     3  O    0.064165  -0.074381   8.344113  -0.025372   0.360872   0.015791
     4  C    0.373593  -0.019509  -0.025372   4.428342   0.011592   0.344325
     5  H   -0.070222  -0.029330   0.360872   0.011592   0.559230   0.003007
     6  H   -0.026761   0.004421   0.015791   0.344325   0.003007   0.750467
     7  H   -0.039532  -0.000627   0.000722   0.359831  -0.003389  -0.061373
     8  H   -0.039531  -0.000628   0.000725   0.359826  -0.003389  -0.061372
               7          8
     1  C   -0.039532  -0.039531
     2  O   -0.000627  -0.000628
     3  O    0.000722   0.000725
     4  C    0.359831   0.359826
     5  H   -0.003389  -0.003389
     6  H   -0.061373  -0.061372
     7  H    0.724910  -0.060566
     8  H   -0.060566   0.724903
 Mulliken charges:
               1
     1  C    0.864696
     2  O   -0.708619
     3  O   -0.686634
     4  C    0.167373
     5  H    0.171630
     6  H    0.031495
     7  H    0.080025
     8  H    0.080033
 Sum of Mulliken charges =  -0.00000
 Mulliken charges with hydrogens summed into heavy atoms:
               1
     1  C    0.864696
     2  O   -0.708619
     3  O   -0.515004
     4  C    0.358926
 Electronic spatial extent (au):  <R**2>=            257.6641
 Charge=             -0.0000 electrons
 Dipole moment (field-independent basis, Debye):
    X=              0.4701    Y=             -2.2084    Z=              0.0003  Tot=              2.2578
 Quadrupole moment (field-independent basis, Debye-Ang):
   XX=            -17.2132   YY=            -29.7617   ZZ=            -23.2903
   XY=              1.0532   XZ=             -0.0000   YZ=              0.0009
 Traceless Quadrupole moment (field-independent basis, Debye-Ang):
   XX=              6.2085   YY=             -6.3399   ZZ=              0.1314
   XY=              1.0532   XZ=             -0.0000   YZ=              0.0009
 Octapole moment (field-independent basis, Debye-Ang**2):
  XXX=            -16.5702  YYY=             -3.5078  ZZZ=              0.0004  XYY=              1.6012
  XXY=             -2.9968  XXZ=              0.0001  XZZ=             -0.7384  YZZ=             -0.8062
  YYZ=              0.0001  XYZ=             -0.0005
 Hexadecapole moment (field-independent basis, Debye-Ang**3):
 XXXX=           -134.0299 YYYY=           -128.1573 ZZZZ=            -27.8790 XXXY=             14.3803
 XXXZ=             -0.0015 YYYX=              2.9264 YYYZ=              0.0077 ZZZX=              0.0007
 ZZZY=              0.0059 XXYY=            -46.6060 XXZZ=            -32.6700 YYZZ=            -24.0036
 XXYZ=              0.0019 YYXZ=             -0.0008 ZZXY=             -1.1445
 N-N= 1.202613748212D+02 E-N=-7.772138876340D+02  KE= 2.273381376055D+02
 Calling FoFJK, ICntrl=  10002127 FMM=F ISym2X=0 I1Cent= 0 IOpClX= 0 NMat=1 NMatS=1 NMatT=0.
 ***** Axes restored to original set *****
 -------------------------------------------------------------------
 Center     Atomic                   Forces (Hartrees/Bohr)
 Number     Number              X              Y              Z
 -------------------------------------------------------------------
      1        6           0.040969357   -0.020947817    0.000007320
      2        8           0.011949170   -0.002917089    0.000001291
      3        8          -0.050054587    0.019164519   -0.000007141
      4        6          -0.019621686    0.009178864   -0.000001862
      5        1           0.021898443    0.007931286    0.000002514
      6        1          -0.005462220   -0.011875845   -0.000001792
      7        1           0.000161873   -0.000266750   -0.006623318
      8        1           0.000159651   -0.000267167    0.006622988
 -------------------------------------------------------------------
 Cartesian Forces:  Max     0.050054587 RMS     0.016345029

 GradGradGradGradGradGradGradGradGradGradGradGradGradGradGradGradGradGrad
 Berny optimization.
 FormGI is forming the generalized inverse of G from B-inverse, IUseBI=4.
 Internal  Forces:  Max     0.042449066 RMS     0.013421401
 Search for a local minimum.
 Step number   1 out of a maximum of   35
 All quantities printed in internal units (Hartrees-Bohrs-Radians)
 Mixed Optimization -- RFO/linear search
 Second derivative matrix not updated -- first step.
 ITU=  0
     Eigenvalues ---    0.00815   0.01200   0.02356   0.07402   0.07512
     Eigenvalues ---    0.16000   0.16000   0.16000   0.16000   0.25000
     Eigenvalues ---    0.25000   0.32487   0.32610   0.32610   0.32771
     Eigenvalues ---    0.53781   0.55074   0.94636
 RFO step:  Lambda=-1.97363754D-02 EMin= 8.15188048D-03
 Linear search not attempted -- first point.
 Maximum step size (   0.300) exceeded in Quadratic search.
    -- Step size scaled by   0.987
 Iteration  1 RMS(Cart)=  0.07116489 RMS(Int)=  0.00746536
 Iteration  2 RMS(Cart)=  0.01245988 RMS(Int)=  0.00018081
 Iteration  3 RMS(Cart)=  0.00013990 RMS(Int)=  0.00007814
 Iteration  4 RMS(Cart)=  0.00000001 RMS(Int)=  0.00007814
 Variable       Old X    -DE/DX   Delta X   Delta X   Delta X     New X
                                 (Linear)    (Quad)   (Total)
    R1        2.30867   0.01230   0.00000   0.01257   0.01257   2.32123
    R2        2.55066  -0.00020   0.00000  -0.00035  -0.00035   2.55031
    R3        2.82755   0.00400   0.00000   0.01137   0.01137   2.83893
    R4        1.82932  -0.00200   0.00000  -0.00353  -0.00353   1.82579
    R5        2.09962  -0.01155   0.00000  -0.03308  -0.03308   2.06654
    R6        2.09742  -0.00553   0.00000  -0.01580  -0.01580   2.08163
    R7        2.09742  -0.00553   0.00000  -0.01580  -0.01580   2.08162
    A1        2.09647   0.01903   0.00000   0.06965   0.06965   2.16612
    A2        2.09692   0.01915   0.00000   0.07007   0.07007   2.16699
    A3        2.08980  -0.03819   0.00000  -0.13973  -0.13973   1.95007
    A4        2.11886  -0.04245   0.00000  -0.23311  -0.23311   1.88575
    A5        1.93250  -0.00944   0.00000  -0.05085  -0.05067   1.88182
    A6        1.91402   0.00330   0.00000   0.01761   0.01764   1.93166
    A7        1.91402   0.00330   0.00000   0.01760   0.01764   1.93166
    A8        1.89914   0.00335   0.00000   0.01936   0.01954   1.91868
    A9        1.89915   0.00335   0.00000   0.01936   0.01954   1.91868
   A10        1.90469  -0.00382   0.00000  -0.02296  -0.02305   1.88164
    D1        0.00003  -0.00000   0.00000  -0.00000  -0.00000   0.00002
    D2       -3.14156  -0.00000   0.00000  -0.00002  -0.00002  -3.14158
    D3       -0.00005   0.00000   0.00000  -0.00001  -0.00001  -0.00006
    D4       -2.09601  -0.00031   0.00000  -0.00325  -0.00314  -2.09915
    D5        2.09591   0.00031   0.00000   0.00323   0.00312   2.09903
    D6        3.14153   0.00000   0.00000   0.00001   0.00001   3.14155
    D7        1.04557  -0.00031   0.00000  -0.00323  -0.00312   1.04245
    D8       -1.04569   0.00031   0.00000   0.00325   0.00314  -1.04255
         Item               Value     Threshold  Converged?
 Maximum Force            0.042449     0.000450     NO 
 RMS     Force            0.013421     0.000300     NO 
 Maximum Displacement     0.242458     0.001800     NO 
 RMS     Displacement     0.079470     0.001200     NO 
 Predicted change in Energy=-1.075484D-02
 GradGradGradGradGradGradGradGradGradGradGradGradGradGradGradGradGradGrad

                          Input orientation:                          
 ---------------------------------------------------------------------
 Center     Atomic      Atomic             Coordinates (Angstroms)
 Number     Number       Type             X           Y           Z
 ---------------------------------------------------------------------
      1          6           0        1.012159   -0.132891    0.000021
      2          8           0        2.195832   -0.461142    0.000176
      3          8           0       -0.015723   -1.007412   -0.000123
      4          6           0        0.531495    1.290434   -0.000045
      5          1           0        0.351603   -1.901026   -0.000061
      6          1           0        1.410785    1.940615    0.000129
      7          1           0       -0.085291    1.492705    0.889939
      8          1           0       -0.084959    1.492732   -0.890252
 ---------------------------------------------------------------------
                    Distance matrix (angstroms):
                    1          2          3          4          5
     1  C    0.000000
     2  O    1.228344   0.000000
     3  O    1.349566   2.278023   0.000000
     4  C    1.502296   2.416203   2.362106   0.000000
     5  H    1.887494   2.339753   0.966165   3.196526   0.000000
     6  H    2.111476   2.526803   3.275025   1.093566   3.984980
     7  H    2.153814   3.132526   2.654739   1.101549   3.535588
     8  H    2.153812   3.132489   2.654777   1.101548   3.535621
                    6          7          8
     6  H    0.000000
     7  H    1.797395   0.000000
     8  H    1.797394   1.780191   0.000000
 Stoichiometry    C2H4O2
 Framework group  C1[X(C2H4O2)]
 Deg. of freedom    18
 Full point group                 C1      NOp   1
 Largest Abelian subgroup         C1      NOp   1
 Largest concise Abelian subgroup C1      NOp   1
                         Standard orientation:                         
 ---------------------------------------------------------------------
 Center     Atomic      Atomic             Coordinates (Angstroms)
 Number     Number       Type             X           Y           Z
 ---------------------------------------------------------------------
      1          6           0       -0.095848    0.114723   -0.000020
      2          8           0       -0.599959    1.234858   -0.000175
      3          8           0       -0.804219   -1.033989    0.000124
      4          6           0        1.383944   -0.144331    0.000046
      5          1           0       -1.743233   -0.806556    0.000062
      6          1           0        1.893128    0.823458   -0.000127
      7          1           0        1.677490   -0.723269   -0.889938
      8          1           0        1.677466   -0.722936    0.890254
 ---------------------------------------------------------------------
 Rotational constants (GHZ):          11.0281222           9.5412260           5.2863669
 Standard basis: Aug-CC-pVDZ (5D, 7F)
 There are   136 symmetry adapted cartesian basis functions of A   symmetry.
 There are   128 symmetry adapted basis functions of A   symmetry.
   128 basis functions,   216 primitive gaussians,   136 cartesian basis functions
    16 alpha electrons       16 beta electrons
       nuclear repulsion energy       120.4787193161 Hartrees.
 NAtoms=    8 NActive=    8 NUniq=    8 SFac= 1.00D+00 NAtFMM=   60 NAOKFM=F Big=F
 Integral buffers will be    131072 words long.
 Raffenetti 1 integral format.
 Two-electron integral symmetry is turned on.
 One-electron integrals computed using PRISM.
 NBasis=   128 RedAO= T EigKep=  1.13D-04  NBF=   128
 NBsUse=   128 1.00D-06 EigRej= -1.00D+00 NBFU=   128
 Initial guess from the checkpoint file:  "/scr/Gau-85873.chk"
 B after Tr=     0.000000    0.000000   -0.000000
         Rot=    0.996511   -0.000000   -0.000001   -0.083464 Ang=  -9.58 deg.
 ExpMin= 2.97D-02 ExpMax= 1.17D+04 ExpMxC= 4.01D+02 IAcc=3 IRadAn=         5 AccDes= 0.00D+00
 Harris functional with IExCor=  205 and IRadAn=       5 diagonalized for initial guess.
 HarFok:  IExCor=  205 AccDes= 0.00D+00 IRadAn=         5 IDoV= 1 UseB2=F ITyADJ=14
 ICtDFT=  3500011 ScaDFX=  1.000000  1.000000  1.000000  1.000000
 FoFCou: FMM=F IPFlag=           0 FMFlag=      100000 FMFlg1=           0
         NFxFlg=           0 DoJE=T BraDBF=F KetDBF=T FulRan=T
         wScrn=  0.000000 ICntrl=       500 IOpCl=  0 I1Cent=   200000004 NGrid=           0
         NMat0=    1 NMatS0=      1 NMatT0=    0 NMatD0=    1 NMtDS0=    0 NMtDT0=    0
 Petite list used in FoFCou.
 Keep R1 ints in memory in canonical form, NReq=42669694.
 Requested convergence on RMS density matrix=1.00D-08 within 128 cycles.
 Requested convergence on MAX density matrix=1.00D-06.
 Requested convergence on             energy=1.00D-06.
 No special actions if energy rises.
 SCF Done:  E(RHF) =  -227.846882767     A.U. after   12 cycles
            NFock= 12  Conv=0.23D-08     -V/T= 2.0021
 ExpMin= 2.97D-02 ExpMax= 1.17D+04 ExpMxC= 4.01D+02 IAcc=3 IRadAn=         5 AccDes= 0.00D+00
 HarFok:  IExCor=  205 AccDes= 0.00D+00 IRadAn=         5 IDoV=-2 UseB2=F ITyADJ=14
 ICtDFT= 12500011 ScaDFX=  1.000000  1.000000  1.000000  1.000000
 Range of M.O.s used for correlation:     5   128
 NBasis=   128 NAE=    16 NBE=    16 NFC=     4 NFV=     0
 NROrb=    124 NOA=    12 NOB=    12 NVA=   112 NVB=   112

 **** Warning!!: The largest alpha MO coefficient is  0.32468222D+02

 Fully direct method using O(ONN) memory.
 JobTyp=1 Pass  1:  I=   5 to  16 NPSUse= 40 ParTrn=T ParDer=T DoDerP=T.
 Spin components of T(2) and E(2):
     alpha-alpha T2 =       0.2725669595D-01 E2=     -0.8818984288D-01
     alpha-beta  T2 =       0.1500600943D+00 E2=     -0.5003793272D+00
     beta-beta   T2 =       0.2725669595D-01 E2=     -0.8818984288D-01
 ANorm=    0.1097530631D+01
 E2 =    -0.6767590129D+00 EUMP2 =    -0.22852364177959D+03
          IDoAtm=11111111
          Differentiating once with respect to electric field.
                with respect to dipole field.
          Differentiating once with respect to nuclear coordinates.
 Keep R1 ints in memory in canonical form, NReq=42674562.
          There are     1 degrees of freedom in the 1st order CPHF.  IDoFFX=0 NUNeed=     1.
 LinEq1:  Iter=  0 NonCon=     1 RMS=5.90D-03 Max=1.24D-01 NDo=     1
 AX will form     1 AO Fock derivatives at one time.
 LinEq1:  Iter=  1 NonCon=     1 RMS=1.72D-03 Max=2.02D-02 NDo=     1
 LinEq1:  Iter=  2 NonCon=     1 RMS=5.89D-04 Max=8.56D-03 NDo=     1
 LinEq1:  Iter=  3 NonCon=     1 RMS=2.08D-04 Max=2.65D-03 NDo=     1
 LinEq1:  Iter=  4 NonCon=     1 RMS=6.97D-05 Max=6.29D-04 NDo=     1
 LinEq1:  Iter=  5 NonCon=     1 RMS=2.08D-05 Max=2.51D-04 NDo=     1
 LinEq1:  Iter=  6 NonCon=     1 RMS=5.90D-06 Max=5.34D-05 NDo=     1
 LinEq1:  Iter=  7 NonCon=     1 RMS=1.19D-06 Max=1.77D-05 NDo=     1
 LinEq1:  Iter=  8 NonCon=     1 RMS=2.47D-07 Max=4.16D-06 NDo=     1
 LinEq1:  Iter=  9 NonCon=     1 RMS=5.95D-08 Max=5.55D-07 NDo=     1
 LinEq1:  Iter= 10 NonCon=     1 RMS=1.60D-08 Max=1.09D-07 NDo=     1
 LinEq1:  Iter= 11 NonCon=     1 RMS=3.97D-09 Max=3.44D-08 NDo=     1
 LinEq1:  Iter= 12 NonCon=     1 RMS=8.98D-10 Max=6.19D-09 NDo=     1
 LinEq1:  Iter= 13 NonCon=     1 RMS=1.21D-10 Max=1.13D-09 NDo=     1
 LinEq1:  Iter= 14 NonCon=     0 RMS=1.87D-11 Max=1.26D-10 NDo=     1
 Linear equations converged to 1.000D-10 1.000D-09 after    14 iterations.
 End of Minotr F.D. properties file   721 does not exist.
 End of Minotr F.D. properties file   722 does not exist.
 End of Minotr F.D. properties file   788 does not exist.
 Calling FoFJK, ICntrl=  10002127 FMM=F ISym2X=0 I1Cent= 0 IOpClX= 0 NMat=1 NMatS=1 NMatT=0.
 ***** Axes restored to original set *****
 -------------------------------------------------------------------
 Center     Atomic                   Forces (Hartrees/Bohr)
 Number     Number              X              Y              Z
 -------------------------------------------------------------------
      1        6           0.018212545    0.007122092    0.000001089
      2        8          -0.010437129   -0.003002392   -0.000000745
      3        8          -0.011846656   -0.002298658   -0.000000855
      4        6          -0.001754771    0.004390166    0.000000682
      5        1           0.004879115   -0.005530025    0.000000229
      6        1           0.000426002    0.002201086   -0.000000127
      7        1           0.000260595   -0.001441083   -0.000798280
      8        1           0.000260297   -0.001441185    0.000798006
 -------------------------------------------------------------------
 Cartesian Forces:  Max     0.018212545 RMS     0.005527679

 GradGradGradGradGradGradGradGradGradGradGradGradGradGradGradGradGradGrad
 Berny optimization.
 Using GEDIIS/GDIIS optimizer.
 FormGI is forming the generalized inverse of G from B-inverse, IUseBI=4.
 Internal  Forces:  Max     0.010379748 RMS     0.003952097
 Search for a local minimum.
 Step number   2 out of a maximum of   35
 All quantities printed in internal units (Hartrees-Bohrs-Radians)
 Mixed Optimization -- RFO/linear search
 Update second derivatives using D2CorX and points    1    2
 DE= -1.04D-02 DEPred=-1.08D-02 R= 9.69D-01
 TightC=F SS=  1.41D+00  RLast= 3.00D-01 DXNew= 5.0454D-01 9.0021D-01
 Trust test= 9.69D-01 RLast= 3.00D-01 DXMaxT set to 5.05D-01
 ITU=  1  0
 Use linear search instead of GDIIS.
     Eigenvalues ---    0.00815   0.01200   0.02356   0.07371   0.07626
     Eigenvalues ---    0.14781   0.16000   0.16000   0.16757   0.23696
     Eigenvalues ---    0.28120   0.32425   0.32610   0.32620   0.33203
     Eigenvalues ---    0.54072   0.56311   0.96520
 RFO step:  Lambda=-1.10487800D-03 EMin= 8.15188048D-03
 Quartic linear search produced a step of  0.02110.
 Iteration  1 RMS(Cart)=  0.02048324 RMS(Int)=  0.00033845
 Iteration  2 RMS(Cart)=  0.00033093 RMS(Int)=  0.00007585
 Iteration  3 RMS(Cart)=  0.00000004 RMS(Int)=  0.00007585
 Variable       Old X    -DE/DX   Delta X   Delta X   Delta X     New X
                                 (Linear)    (Quad)   (Total)
    R1        2.32123  -0.00926   0.00027  -0.00956  -0.00930   2.31194
    R2        2.55031   0.01038  -0.00001   0.01919   0.01918   2.56949
    R3        2.83893   0.00377   0.00024   0.01206   0.01230   2.85122
    R4        1.82579   0.00697  -0.00007   0.01309   0.01301   1.83880
    R5        2.06654   0.00165  -0.00070   0.00416   0.00347   2.07001
    R6        2.08163  -0.00106  -0.00033  -0.00377  -0.00411   2.07752
    R7        2.08162  -0.00106  -0.00033  -0.00377  -0.00411   2.07752
    A1        2.16612  -0.00709   0.00147  -0.02679  -0.02532   2.14080
    A2        2.16699   0.00610   0.00148   0.02684   0.02831   2.19531
    A3        1.95007   0.00100  -0.00295  -0.00005  -0.00299   1.94708
    A4        1.88575  -0.00440  -0.00492  -0.03415  -0.03907   1.84668
    A5        1.88182   0.00317  -0.00107   0.02277   0.02174   1.90357
    A6        1.93166  -0.00200   0.00037  -0.01426  -0.01399   1.91768
    A7        1.93166  -0.00200   0.00037  -0.01426  -0.01399   1.91767
    A8        1.91868   0.00004   0.00041   0.00471   0.00517   1.92385
    A9        1.91868   0.00004   0.00041   0.00471   0.00517   1.92385
   A10        1.88164   0.00072  -0.00049  -0.00370  -0.00444   1.87720
    D1        0.00002  -0.00000  -0.00000  -0.00003  -0.00003  -0.00001
    D2       -3.14158  -0.00000  -0.00000  -0.00001  -0.00001  -3.14159
    D3       -0.00006   0.00000  -0.00000   0.00002   0.00002  -0.00004
    D4       -2.09915  -0.00084  -0.00007  -0.01152  -0.01147  -2.11062
    D5        2.09903   0.00084   0.00007   0.01155   0.01150   2.11053
    D6        3.14155   0.00000   0.00000  -0.00001  -0.00001   3.14154
    D7        1.04245  -0.00084  -0.00007  -0.01154  -0.01149   1.03096
    D8       -1.04255   0.00084   0.00007   0.01152   0.01147  -1.03108
         Item               Value     Threshold  Converged?
 Maximum Force            0.010380     0.000450     NO 
 RMS     Force            0.003952     0.000300     NO 
 Maximum Displacement     0.064784     0.001800     NO 
 RMS     Displacement     0.020495     0.001200     NO 
 Predicted change in Energy=-5.642320D-04
 GradGradGradGradGradGradGradGradGradGradGradGradGradGradGradGradGradGrad

                          Input orientation:                          
 ---------------------------------------------------------------------
 Center     Atomic      Atomic             Coordinates (Angstroms)
 Number     Number       Type             X           Y           Z
 ---------------------------------------------------------------------
      1          6           0        1.014841   -0.131228    0.000016
      2          8           0        2.182801   -0.495424    0.000181
      3          8           0       -0.026416   -1.005649   -0.000119
      4          6           0        0.537008    1.299912   -0.000044
      5          1           0        0.372704   -1.893079   -0.000063
      6          1           0        1.405702    1.967200    0.000126
      7          1           0       -0.085534    1.486127    0.886744
      8          1           0       -0.085205    1.486156   -0.887056
 ---------------------------------------------------------------------
                    Distance matrix (angstroms):
                    1          2          3          4          5
     1  C    0.000000
     2  O    1.223425   0.000000
     3  O    1.359715   2.267370   0.000000
     4  C    1.508803   2.435542   2.373406   0.000000
     5  H    1.875222   2.286896   0.973051   3.197216   0.000000
     6  H    2.134519   2.582324   3.299816   1.095400   3.996102
     7  H    2.147777   3.139726   2.645556   1.099376   3.523555
     8  H    2.147773   3.139697   2.645601   1.099376   3.523587
                    6          7          8
     6  H    0.000000
     7  H    1.800364   0.000000
     8  H    1.800361   1.773800   0.000000
 Stoichiometry    C2H4O2
 Framework group  C1[X(C2H4O2)]
 Deg. of freedom    18
 Full point group                 C1      NOp   1
 Largest Abelian subgroup         C1      NOp   1
 Largest concise Abelian subgroup C1      NOp   1
                         Standard orientation:                         
 ---------------------------------------------------------------------
 Center     Atomic      Atomic             Coordinates (Angstroms)
 Number     Number       Type             X           Y           Z
 ---------------------------------------------------------------------
      1          6           0       -0.091921    0.120789   -0.000013
      2          8           0       -0.647434    1.210824   -0.000178
      3          8           0       -0.778686   -1.052744    0.000121
      4          6           0        1.399212   -0.109443    0.000046
      5          1           0       -1.720617   -0.808624    0.000065
      6          1           0        1.910830    0.859138   -0.000123
      7          1           0        1.687515   -0.691780   -0.886742
      8          1           0        1.687488   -0.691451    0.887059
 ---------------------------------------------------------------------
 Rotational constants (GHZ):          11.1381064           9.3893890           5.2628644
 Standard basis: Aug-CC-pVDZ (5D, 7F)
 There are   136 symmetry adapted cartesian basis functions of A   symmetry.
 There are   128 symmetry adapted basis functions of A   symmetry.
   128 basis functions,   216 primitive gaussians,   136 cartesian basis functions
    16 alpha electrons       16 beta electrons
       nuclear repulsion energy       120.2819344964 Hartrees.
 NAtoms=    8 NActive=    8 NUniq=    8 SFac= 1.00D+00 NAtFMM=   60 NAOKFM=F Big=F
 Integral buffers will be    131072 words long.
 Raffenetti 1 integral format.
 Two-electron integral symmetry is turned on.
 One-electron integrals computed using PRISM.
 NBasis=   128 RedAO= T EigKep=  1.10D-04  NBF=   128
 NBsUse=   128 1.00D-06 EigRej= -1.00D+00 NBFU=   128
 Initial guess from the checkpoint file:  "/scr/Gau-85873.chk"
 B after Tr=    -0.000000   -0.000000    0.000000
         Rot=    0.999919    0.000000    0.000000   -0.012732 Ang=   1.46 deg.
 ExpMin= 2.97D-02 ExpMax= 1.17D+04 ExpMxC= 4.01D+02 IAcc=3 IRadAn=         5 AccDes= 0.00D+00
 Harris functional with IExCor=  205 and IRadAn=       5 diagonalized for initial guess.
 HarFok:  IExCor=  205 AccDes= 0.00D+00 IRadAn=         5 IDoV= 1 UseB2=F ITyADJ=14
 ICtDFT=  3500011 ScaDFX=  1.000000  1.000000  1.000000  1.000000
 FoFCou: FMM=F IPFlag=           0 FMFlag=      100000 FMFlg1=           0
         NFxFlg=           0 DoJE=T BraDBF=F KetDBF=T FulRan=T
         wScrn=  0.000000 ICntrl=       500 IOpCl=  0 I1Cent=   200000004 NGrid=           0
         NMat0=    1 NMatS0=      1 NMatT0=    0 NMatD0=    1 NMtDS0=    0 NMtDT0=    0
 Petite list used in FoFCou.
 Keep R1 ints in memory in canonical form, NReq=42669576.
 Requested convergence on RMS density matrix=1.00D-08 within 128 cycles.
 Requested convergence on MAX density matrix=1.00D-06.
 Requested convergence on             energy=1.00D-06.
 No special actions if energy rises.
 SCF Done:  E(RHF) =  -227.847111016     A.U. after   11 cycles
            NFock= 11  Conv=0.29D-08     -V/T= 2.0022
 ExpMin= 2.97D-02 ExpMax= 1.17D+04 ExpMxC= 4.01D+02 IAcc=3 IRadAn=         5 AccDes= 0.00D+00
 HarFok:  IExCor=  205 AccDes= 0.00D+00 IRadAn=         5 IDoV=-2 UseB2=F ITyADJ=14
 ICtDFT= 12500011 ScaDFX=  1.000000  1.000000  1.000000  1.000000
 Range of M.O.s used for correlation:     5   128
 NBasis=   128 NAE=    16 NBE=    16 NFC=     4 NFV=     0
 NROrb=    124 NOA=    12 NOB=    12 NVA=   112 NVB=   112

 **** Warning!!: The largest alpha MO coefficient is  0.32729566D+02

 Fully direct method using O(ONN) memory.
 JobTyp=1 Pass  1:  I=   5 to  16 NPSUse= 40 ParTrn=T ParDer=T DoDerP=T.
 Spin components of T(2) and E(2):
     alpha-alpha T2 =       0.2729882163D-01 E2=     -0.8822091949D-01
     alpha-beta  T2 =       0.1503496236D+00 E2=     -0.5007445213D+00
     beta-beta   T2 =       0.2729882163D-01 E2=     -0.8822091949D-01
 ANorm=    0.1097700900D+01
 E2 =    -0.6771863603D+00 EUMP2 =    -0.22852429737647D+03
          IDoAtm=11111111
          Differentiating once with respect to electric field.
                with respect to dipole field.
          Differentiating once with respect to nuclear coordinates.
 Keep R1 ints in memory in canonical form, NReq=42674503.
          There are     1 degrees of freedom in the 1st order CPHF.  IDoFFX=0 NUNeed=     1.
 LinEq1:  Iter=  0 NonCon=     1 RMS=5.91D-03 Max=1.24D-01 NDo=     1
 AX will form     1 AO Fock derivatives at one time.
 LinEq1:  Iter=  1 NonCon=     1 RMS=1.73D-03 Max=2.06D-02 NDo=     1
 LinEq1:  Iter=  2 NonCon=     1 RMS=5.86D-04 Max=8.58D-03 NDo=     1
 LinEq1:  Iter=  3 NonCon=     1 RMS=2.05D-04 Max=2.48D-03 NDo=     1
 LinEq1:  Iter=  4 NonCon=     1 RMS=6.94D-05 Max=6.45D-04 NDo=     1
 LinEq1:  Iter=  5 NonCon=     1 RMS=2.11D-05 Max=2.59D-04 NDo=     1
 LinEq1:  Iter=  6 NonCon=     1 RMS=5.74D-06 Max=4.96D-05 NDo=     1
 LinEq1:  Iter=  7 NonCon=     1 RMS=1.03D-06 Max=8.07D-06 NDo=     1
 LinEq1:  Iter=  8 NonCon=     1 RMS=1.75D-07 Max=2.38D-06 NDo=     1
 LinEq1:  Iter=  9 NonCon=     1 RMS=4.77D-08 Max=6.13D-07 NDo=     1
 LinEq1:  Iter= 10 NonCon=     1 RMS=1.51D-08 Max=1.87D-07 NDo=     1
 LinEq1:  Iter= 11 NonCon=     1 RMS=3.82D-09 Max=3.36D-08 NDo=     1
 LinEq1:  Iter= 12 NonCon=     1 RMS=8.75D-10 Max=6.55D-09 NDo=     1
 LinEq1:  Iter= 13 NonCon=     1 RMS=1.23D-10 Max=1.16D-09 NDo=     1
 LinEq1:  Iter= 14 NonCon=     0 RMS=1.92D-11 Max=1.27D-10 NDo=     1
 Linear equations converged to 1.000D-10 1.000D-09 after    14 iterations.
 End of Minotr F.D. properties file   721 does not exist.
 End of Minotr F.D. properties file   722 does not exist.
 End of Minotr F.D. properties file   788 does not exist.
 Calling FoFJK, ICntrl=  10002127 FMM=F ISym2X=0 I1Cent= 0 IOpClX= 0 NMat=1 NMatS=1 NMatT=0.
 ***** Axes restored to original set *****
 -------------------------------------------------------------------
 Center     Atomic                   Forces (Hartrees/Bohr)
 Number     Number              X              Y              Z
 -------------------------------------------------------------------
      1        6           0.007205664    0.004714914    0.000003660
      2        8          -0.003212447    0.000364325   -0.000001360
      3        8          -0.004509077   -0.003083570   -0.000001294
      4        6           0.000643020   -0.000406172   -0.000000674
      5        1           0.000107183   -0.000828935   -0.000000092
      6        1           0.000016092    0.000183405   -0.000000107
      7        1          -0.000125222   -0.000472196    0.000532944
      8        1          -0.000125213   -0.000471771   -0.000533077
 -------------------------------------------------------------------
 Cartesian Forces:  Max     0.007205664 RMS     0.002206060

 GradGradGradGradGradGradGradGradGradGradGradGradGradGradGradGradGradGrad
 Berny optimization.
 Using GEDIIS/GDIIS optimizer.
 FormGI is forming the generalized inverse of G from B-inverse, IUseBI=4.
 Internal  Forces:  Max     0.005887022 RMS     0.001426770
 Search for a local minimum.
 Step number   3 out of a maximum of   35
 All quantities printed in internal units (Hartrees-Bohrs-Radians)
 Mixed Optimization -- RFO/linear search
 Update second derivatives using D2CorX and points    1    2    3
 DE= -6.56D-04 DEPred=-5.64D-04 R= 1.16D+00
 TightC=F SS=  1.41D+00  RLast= 7.25D-02 DXNew= 8.4853D-01 2.1765D-01
 Trust test= 1.16D+00 RLast= 7.25D-02 DXMaxT set to 5.05D-01
 ITU=  1  1  0
 Use linear search instead of GDIIS.
     Eigenvalues ---    0.00815   0.01179   0.02356   0.07412   0.07518
     Eigenvalues ---    0.14028   0.16000   0.16171   0.17457   0.22490
     Eigenvalues ---    0.28071   0.32610   0.32615   0.32708   0.34734
     Eigenvalues ---    0.49101   0.55416   0.93470
 RFO step:  Lambda=-9.18637540D-05 EMin= 8.15188046D-03
 Quartic linear search produced a step of  0.21453.
 Iteration  1 RMS(Cart)=  0.00624327 RMS(Int)=  0.00004278
 Iteration  2 RMS(Cart)=  0.00003474 RMS(Int)=  0.00002881
 Iteration  3 RMS(Cart)=  0.00000000 RMS(Int)=  0.00002881
 Variable       Old X    -DE/DX   Delta X   Delta X   Delta X     New X
                                 (Linear)    (Quad)   (Total)
    R1        2.31194  -0.00318  -0.00199  -0.00253  -0.00452   2.30742
    R2        2.56949   0.00589   0.00411   0.01018   0.01429   2.58378
    R3        2.85122  -0.00124   0.00264  -0.00605  -0.00341   2.84782
    R4        1.83880   0.00080   0.00279  -0.00008   0.00271   1.84151
    R5        2.07001   0.00012   0.00074  -0.00058   0.00017   2.07017
    R6        2.07752   0.00042  -0.00088   0.00185   0.00097   2.07849
    R7        2.07752   0.00042  -0.00088   0.00185   0.00097   2.07849
    A1        2.14080  -0.00046  -0.00543   0.00246  -0.00297   2.13782
    A2        2.19531   0.00094   0.00607   0.00181   0.00788   2.20319
    A3        1.94708  -0.00048  -0.00064  -0.00426  -0.00490   1.94217
    A4        1.84668   0.00045  -0.00838   0.00477  -0.00361   1.84307
    A5        1.90357   0.00052   0.00466   0.00070   0.00538   1.90895
    A6        1.91768  -0.00080  -0.00300  -0.00415  -0.00718   1.91049
    A7        1.91767  -0.00080  -0.00300  -0.00414  -0.00718   1.91049
    A8        1.92385   0.00023   0.00111   0.00202   0.00314   1.92699
    A9        1.92385   0.00023   0.00111   0.00202   0.00314   1.92699
   A10        1.87720   0.00061  -0.00095   0.00350   0.00245   1.87965
    D1       -0.00001   0.00000  -0.00001   0.00005   0.00004   0.00003
    D2       -3.14159  -0.00000  -0.00000  -0.00005  -0.00005   3.14155
    D3       -0.00004  -0.00000   0.00000  -0.00005  -0.00004  -0.00008
    D4       -2.11062  -0.00011  -0.00246  -0.00040  -0.00282  -2.11344
    D5        2.11053   0.00011   0.00247   0.00031   0.00274   2.11326
    D6        3.14154   0.00000  -0.00000   0.00006   0.00005   3.14159
    D7        1.03096  -0.00011  -0.00247  -0.00030  -0.00272   1.02824
    D8       -1.03108   0.00011   0.00246   0.00042   0.00283  -1.02825
         Item               Value     Threshold  Converged?
 Maximum Force            0.005887     0.000450     NO 
 RMS     Force            0.001427     0.000300     NO 
 Maximum Displacement     0.014644     0.001800     NO 
 RMS     Displacement     0.006255     0.001200     NO 
 Predicted change in Energy=-6.662641D-05
 GradGradGradGradGradGradGradGradGradGradGradGradGradGradGradGradGradGrad

                          Input orientation:                          
 ---------------------------------------------------------------------
 Center     Atomic      Atomic             Coordinates (Angstroms)
 Number     Number       Type             X           Y           Z
 ---------------------------------------------------------------------
      1          6           0        1.019396   -0.127122    0.000054
      2          8           0        2.182779   -0.497875    0.000181
      3          8           0       -0.030520   -1.002979   -0.000124
      4          6           0        0.539796    1.301525   -0.000039
      5          1           0        0.369489   -1.891583   -0.000092
      6          1           0        1.403853    1.974949    0.000109
      7          1           0       -0.084606    1.478555    0.887960
      8          1           0       -0.084286    1.478545   -0.888266
 ---------------------------------------------------------------------
                    Distance matrix (angstroms):
                    1          2          3          4          5
     1  C    0.000000
     2  O    1.221031   0.000000
     3  O    1.367278   2.270203   0.000000
     4  C    1.506999   2.436644   2.374026   0.000000
     5  H    1.880346   2.287016   0.974487   3.197646   0.000000
     6  H    2.136939   2.592602   3.305372   1.095488   4.002497
     7  H    2.141354   3.136154   2.636215   1.099891   3.514637
     8  H    2.141353   3.136106   2.636219   1.099892   3.514616
                    6          7          8
     6  H    0.000000
     7  H    1.802830   0.000000
     8  H    1.802827   1.776225   0.000000
 Stoichiometry    C2H4O2
 Framework group  C1[X(C2H4O2)]
 Deg. of freedom    18
 Full point group                 C1      NOp   1
 Largest Abelian subgroup         C1      NOp   1
 Largest concise Abelian subgroup C1      NOp   1
                         Standard orientation:                         
 ---------------------------------------------------------------------
 Center     Atomic      Atomic             Coordinates (Angstroms)
 Number     Number       Type             X           Y           Z
 ---------------------------------------------------------------------
      1          6           0       -0.089306    0.125728   -0.000046
      2          8           0       -0.648607    1.211131   -0.000173
      3          8           0       -0.778106   -1.055375    0.000132
      4          6           0        1.399256   -0.109281    0.000047
      5          1           0       -1.720912   -0.808918    0.000100
      6          1           0        1.919398    0.854849   -0.000101
      7          1           0        1.677789   -0.695488   -0.887951
      8          1           0        1.677726   -0.695174    0.888274
 ---------------------------------------------------------------------
 Rotational constants (GHZ):          11.1084211           9.3928527           5.2577872
 Standard basis: Aug-CC-pVDZ (5D, 7F)
 There are   136 symmetry adapted cartesian basis functions of A   symmetry.
 There are   128 symmetry adapted basis functions of A   symmetry.
   128 basis functions,   216 primitive gaussians,   136 cartesian basis functions
    16 alpha electrons       16 beta electrons
       nuclear repulsion energy       120.2063838500 Hartrees.
 NAtoms=    8 NActive=    8 NUniq=    8 SFac= 1.00D+00 NAtFMM=   60 NAOKFM=F Big=F
 Integral buffers will be    131072 words long.
 Raffenetti 1 integral format.
 Two-electron integral symmetry is turned on.
 One-electron integrals computed using PRISM.
 NBasis=   128 RedAO= T EigKep=  1.09D-04  NBF=   128
 NBsUse=   128 1.00D-06 EigRej= -1.00D+00 NBFU=   128
 Initial guess from the checkpoint file:  "/scr/Gau-85873.chk"
 B after Tr=     0.000000    0.000000   -0.000000
         Rot=    1.000000    0.000001   -0.000001    0.000122 Ang=   0.01 deg.
 Keep R1 ints in memory in canonical form, NReq=42669694.
 Requested convergence on RMS density matrix=1.00D-08 within 128 cycles.
 Requested convergence on MAX density matrix=1.00D-06.
 Requested convergence on             energy=1.00D-06.
 No special actions if energy rises.
 SCF Done:  E(RHF) =  -227.846937302     A.U. after   10 cycles
            NFock= 10  Conv=0.61D-08     -V/T= 2.0022
 ExpMin= 2.97D-02 ExpMax= 1.17D+04 ExpMxC= 4.01D+02 IAcc=3 IRadAn=         5 AccDes= 0.00D+00
 HarFok:  IExCor=  205 AccDes= 0.00D+00 IRadAn=         5 IDoV=-2 UseB2=F ITyADJ=14
 ICtDFT= 12500011 ScaDFX=  1.000000  1.000000  1.000000  1.000000
 Range of M.O.s used for correlation:     5   128
 NBasis=   128 NAE=    16 NBE=    16 NFC=     4 NFV=     0
 NROrb=    124 NOA=    12 NOB=    12 NVA=   112 NVB=   112

 **** Warning!!: The largest alpha MO coefficient is  0.32844906D+02

 Fully direct method using O(ONN) memory.
 JobTyp=1 Pass  1:  I=   5 to  16 NPSUse= 40 ParTrn=T ParDer=T DoDerP=T.
 Spin components of T(2) and E(2):
     alpha-alpha T2 =       0.2732495947D-01 E2=     -0.8824642426D-01
     alpha-beta  T2 =       0.1505035765D+00 E2=     -0.5009453691D+00
     beta-beta   T2 =       0.2732495947D-01 E2=     -0.8824642426D-01
 ANorm=    0.1097794833D+01
 E2 =    -0.6774382176D+00 EUMP2 =    -0.22852437551939D+03
          IDoAtm=11111111
          Differentiating once with respect to electric field.
                with respect to dipole field.
          Differentiating once with respect to nuclear coordinates.
 Keep R1 ints in memory in canonical form, NReq=42674326.
          There are     1 degrees of freedom in the 1st order CPHF.  IDoFFX=0 NUNeed=     1.
 LinEq1:  Iter=  0 NonCon=     1 RMS=5.91D-03 Max=1.23D-01 NDo=     1
 AX will form     1 AO Fock derivatives at one time.
 LinEq1:  Iter=  1 NonCon=     1 RMS=1.73D-03 Max=2.11D-02 NDo=     1
 LinEq1:  Iter=  2 NonCon=     1 RMS=5.86D-04 Max=8.58D-03 NDo=     1
 LinEq1:  Iter=  3 NonCon=     1 RMS=2.04D-04 Max=2.57D-03 NDo=     1
 LinEq1:  Iter=  4 NonCon=     1 RMS=6.95D-05 Max=6.53D-04 NDo=     1
 LinEq1:  Iter=  5 NonCon=     1 RMS=2.14D-05 Max=2.59D-04 NDo=     1
 LinEq1:  Iter=  6 NonCon=     1 RMS=5.78D-06 Max=4.83D-05 NDo=     1
 LinEq1:  Iter=  7 NonCon=     1 RMS=9.99D-07 Max=6.86D-06 NDo=     1
 LinEq1:  Iter=  8 NonCon=     1 RMS=1.52D-07 Max=1.41D-06 NDo=     1
 LinEq1:  Iter=  9 NonCon=     1 RMS=3.84D-08 Max=3.97D-07 NDo=     1
 LinEq1:  Iter= 10 NonCon=     1 RMS=1.03D-08 Max=7.96D-08 NDo=     1
 LinEq1:  Iter= 11 NonCon=     1 RMS=2.59D-09 Max=2.66D-08 NDo=     1
 LinEq1:  Iter= 12 NonCon=     1 RMS=5.62D-10 Max=8.97D-09 NDo=     1
 LinEq1:  Iter= 13 NonCon=     1 RMS=1.02D-10 Max=1.41D-09 NDo=     1
 LinEq1:  Iter= 14 NonCon=     0 RMS=1.86D-11 Max=1.57D-10 NDo=     1
 Linear equations converged to 1.000D-10 1.000D-09 after    14 iterations.
 End of Minotr F.D. properties file   721 does not exist.
 End of Minotr F.D. properties file   722 does not exist.
 End of Minotr F.D. properties file   788 does not exist.
 Calling FoFJK, ICntrl=  10002127 FMM=F ISym2X=0 I1Cent= 0 IOpClX= 0 NMat=1 NMatS=1 NMatT=0.
 ***** Axes restored to original set *****
 -------------------------------------------------------------------
 Center     Atomic                   Forces (Hartrees/Bohr)
 Number     Number              X              Y              Z
 -------------------------------------------------------------------
      1        6           0.001942738    0.001153054   -0.000010666
      2        8          -0.000677202    0.000138711    0.000003802
      3        8          -0.000601629   -0.001472205    0.000002780
      4        6          -0.000128100   -0.000404180    0.000003331
      5        1          -0.000512658    0.000466008    0.000000187
      6        1          -0.000030564   -0.000013362    0.000000316
      7        1           0.000003431    0.000066791    0.000054497
      8        1           0.000003985    0.000065182   -0.000054247
 -------------------------------------------------------------------
 Cartesian Forces:  Max     0.001942738 RMS     0.000605069

 GradGradGradGradGradGradGradGradGradGradGradGradGradGradGradGradGradGrad
 Berny optimization.
 Using GEDIIS/GDIIS optimizer.
 FormGI is forming the generalized inverse of G from B-inverse, IUseBI=4.
 Internal  Forces:  Max     0.001500201 RMS     0.000379730
 Search for a local minimum.
 Step number   4 out of a maximum of   35
 All quantities printed in internal units (Hartrees-Bohrs-Radians)
 Mixed Optimization -- En-DIIS/RFO-DIIS
 Update second derivatives using D2CorX and points    1    2    3    4
 DE= -7.81D-05 DEPred=-6.66D-05 R= 1.17D+00
 TightC=F SS=  1.41D+00  RLast= 2.33D-02 DXNew= 8.4853D-01 6.9870D-02
 Trust test= 1.17D+00 RLast= 2.33D-02 DXMaxT set to 5.05D-01
 ITU=  1  1  1  0
 Use linear search instead of GDIIS.
     Eigenvalues ---    0.00815   0.01175   0.02356   0.07509   0.07574
     Eigenvalues ---    0.14724   0.16000   0.16187   0.17035   0.20619
     Eigenvalues ---    0.28683   0.32610   0.32613   0.32675   0.35166
     Eigenvalues ---    0.42320   0.56418   0.92598
 RFO step:  Lambda=-5.37998948D-06 EMin= 8.15188077D-03
 Quartic linear search produced a step of  0.21284.
 Iteration  1 RMS(Cart)=  0.00167212 RMS(Int)=  0.00000326
 Iteration  2 RMS(Cart)=  0.00000245 RMS(Int)=  0.00000273
 Iteration  3 RMS(Cart)=  0.00000000 RMS(Int)=  0.00000273
 Variable       Old X    -DE/DX   Delta X   Delta X   Delta X     New X
                                 (Linear)    (Quad)   (Total)
    R1        2.30742  -0.00069  -0.00096  -0.00029  -0.00125   2.30616
    R2        2.58378   0.00150   0.00304   0.00127   0.00431   2.58809
    R3        2.84782  -0.00022  -0.00073   0.00007  -0.00065   2.84716
    R4        1.84151  -0.00064   0.00058  -0.00156  -0.00099   1.84053
    R5        2.07017  -0.00003   0.00004  -0.00013  -0.00009   2.07008
    R6        2.07849   0.00005   0.00021  -0.00010   0.00011   2.07860
    R7        2.07849   0.00005   0.00021  -0.00010   0.00011   2.07860
    A1        2.13782   0.00006  -0.00063   0.00034  -0.00030   2.13753
    A2        2.20319   0.00023   0.00168   0.00059   0.00226   2.20545
    A3        1.94217  -0.00029  -0.00104  -0.00092  -0.00197   1.94021
    A4        1.84307   0.00051  -0.00077   0.00295   0.00218   1.84525
    A5        1.90895  -0.00003   0.00115  -0.00086   0.00028   1.90924
    A6        1.91049   0.00007  -0.00153   0.00148  -0.00005   1.91045
    A7        1.91049   0.00007  -0.00153   0.00146  -0.00007   1.91042
    A8        1.92699  -0.00005   0.00067  -0.00086  -0.00019   1.92681
    A9        1.92699  -0.00005   0.00067  -0.00085  -0.00018   1.92681
   A10        1.87965  -0.00001   0.00052  -0.00032   0.00020   1.87985
    D1        0.00003  -0.00000   0.00001  -0.00018  -0.00017  -0.00014
    D2        3.14155   0.00000  -0.00001   0.00020   0.00019  -3.14145
    D3       -0.00008   0.00000  -0.00001   0.00019   0.00019   0.00010
    D4       -2.11344   0.00004  -0.00060   0.00086   0.00027  -2.11317
    D5        2.11326  -0.00003   0.00058  -0.00048   0.00010   2.11336
    D6        3.14159  -0.00000   0.00001  -0.00021  -0.00020   3.14140
    D7        1.02824   0.00003  -0.00058   0.00046  -0.00012   1.02812
    D8       -1.02825  -0.00004   0.00060  -0.00088  -0.00028  -1.02853
         Item               Value     Threshold  Converged?
 Maximum Force            0.001500     0.000450     NO 
 RMS     Force            0.000380     0.000300     NO 
 Maximum Displacement     0.005186     0.001800     NO 
 RMS     Displacement     0.001672     0.001200     NO 
 Predicted change in Energy=-5.123695D-06
 GradGradGradGradGradGradGradGradGradGradGradGradGradGradGradGradGradGrad

                          Input orientation:                          
 ---------------------------------------------------------------------
 Center     Atomic      Atomic             Coordinates (Angstroms)
 Number     Number       Type             X           Y           Z
 ---------------------------------------------------------------------
      1          6           0        1.021553   -0.126179   -0.000091
      2          8           0        2.183985   -0.497732    0.000192
      3          8           0       -0.030610   -1.002903   -0.000108
      4          6           0        0.540058    1.301466   -0.000055
      5          1           0        0.366745   -1.892126    0.000006
      6          1           0        1.402939    1.976318    0.000162
      7          1           0       -0.084556    1.477518    0.888061
      8          1           0       -0.084213    1.477653   -0.888385
 ---------------------------------------------------------------------
                    Distance matrix (angstroms):
                    1          2          3          4          5
     1  C    0.000000
     2  O    1.220369   0.000000
     3  O    1.369559   2.271482   0.000000
     4  C    1.506655   2.437131   2.373980   0.000000
     5  H    1.883438   2.290566   0.973965   3.198291   0.000000
     6  H    2.136808   2.594409   3.306179   1.095439   4.004816
     7  H    2.141060   3.136273   2.635194   1.099949   3.513804
     8  H    2.141043   3.136310   2.635350   1.099949   3.513974
                    6          7          8
     6  H    0.000000
     7  H    1.802722   0.000000
     8  H    1.802721   1.776446   0.000000
 Stoichiometry    C2H4O2
 Framework group  C1[X(C2H4O2)]
 Deg. of freedom    18
 Full point group                 C1      NOp   1
 Largest Abelian subgroup         C1      NOp   1
 Largest concise Abelian subgroup C1      NOp   1
                         Standard orientation:                         
 ---------------------------------------------------------------------
 Center     Atomic      Atomic             Coordinates (Angstroms)
 Number     Number       Type             X           Y           Z
 ---------------------------------------------------------------------
      1          6           0       -0.088815    0.127368    0.000080
      2          8           0       -0.648737    1.211705   -0.000203
      3          8           0       -0.778104   -1.056089    0.000097
      4          6           0        1.399074   -0.109688    0.000044
      5          1           0       -1.721076   -0.812345   -0.000017
      6          1           0        1.920827    0.853515   -0.000173
      7          1           0        1.676673   -0.696269   -0.888072
      8          1           0        1.676749   -0.695908    0.888373
 ---------------------------------------------------------------------
 Rotational constants (GHZ):          11.0944912           9.3935807           5.2549355
 Standard basis: Aug-CC-pVDZ (5D, 7F)
 There are   136 symmetry adapted cartesian basis functions of A   symmetry.
 There are   128 symmetry adapted basis functions of A   symmetry.
   128 basis functions,   216 primitive gaussians,   136 cartesian basis functions
    16 alpha electrons       16 beta electrons
       nuclear repulsion energy       120.1757362046 Hartrees.
 NAtoms=    8 NActive=    8 NUniq=    8 SFac= 1.00D+00 NAtFMM=   60 NAOKFM=F Big=F
 Integral buffers will be    131072 words long.
 Raffenetti 1 integral format.
 Two-electron integral symmetry is turned on.
 One-electron integrals computed using PRISM.
 NBasis=   128 RedAO= T EigKep=  1.09D-04  NBF=   128
 NBsUse=   128 1.00D-06 EigRej= -1.00D+00 NBFU=   128
 Initial guess from the checkpoint file:  "/scr/Gau-85873.chk"
 B after Tr=    -0.000000   -0.000000   -0.000000
         Rot=    1.000000   -0.000002    0.000003    0.000037 Ang=  -0.00 deg.
 Keep R1 ints in memory in canonical form, NReq=42669694.
 Requested convergence on RMS density matrix=1.00D-08 within 128 cycles.
 Requested convergence on MAX density matrix=1.00D-06.
 Requested convergence on             energy=1.00D-06.
 No special actions if energy rises.
 SCF Done:  E(RHF) =  -227.846913824     A.U. after    9 cycles
            NFock=  9  Conv=0.87D-08     -V/T= 2.0022
 ExpMin= 2.97D-02 ExpMax= 1.17D+04 ExpMxC= 4.01D+02 IAcc=3 IRadAn=         5 AccDes= 0.00D+00
 HarFok:  IExCor=  205 AccDes= 0.00D+00 IRadAn=         5 IDoV=-2 UseB2=F ITyADJ=14
 ICtDFT= 12500011 ScaDFX=  1.000000  1.000000  1.000000  1.000000
 Range of M.O.s used for correlation:     5   128
 NBasis=   128 NAE=    16 NBE=    16 NFC=     4 NFV=     0
 NROrb=    124 NOA=    12 NOB=    12 NVA=   112 NVB=   112

 **** Warning!!: The largest alpha MO coefficient is  0.32860194D+02

 Fully direct method using O(ONN) memory.
 JobTyp=1 Pass  1:  I=   5 to  16 NPSUse= 40 ParTrn=T ParDer=T DoDerP=T.
 Spin components of T(2) and E(2):
     alpha-alpha T2 =       0.2732888285D-01 E2=     -0.8824630901D-01
     alpha-beta  T2 =       0.1505311868D+00 E2=     -0.5009748191D+00
     beta-beta   T2 =       0.2732888285D-01 E2=     -0.8824630901D-01
 ANorm=    0.1097810982D+01
 E2 =    -0.6774674371D+00 EUMP2 =    -0.22852438126155D+03
          IDoAtm=11111111
          Differentiating once with respect to electric field.
                with respect to dipole field.
          Differentiating once with respect to nuclear coordinates.
 Keep R1 ints in memory in canonical form, NReq=42674267.
          There are     1 degrees of freedom in the 1st order CPHF.  IDoFFX=0 NUNeed=     1.
 LinEq1:  Iter=  0 NonCon=     1 RMS=5.91D-03 Max=1.23D-01 NDo=     1
 AX will form     1 AO Fock derivatives at one time.
 LinEq1:  Iter=  1 NonCon=     1 RMS=1.73D-03 Max=2.12D-02 NDo=     1
 LinEq1:  Iter=  2 NonCon=     1 RMS=5.86D-04 Max=8.57D-03 NDo=     1
 LinEq1:  Iter=  3 NonCon=     1 RMS=2.04D-04 Max=2.60D-03 NDo=     1
 LinEq1:  Iter=  4 NonCon=     1 RMS=6.96D-05 Max=6.54D-04 NDo=     1
 LinEq1:  Iter=  5 NonCon=     1 RMS=2.15D-05 Max=2.59D-04 NDo=     1
 LinEq1:  Iter=  6 NonCon=     1 RMS=5.80D-06 Max=4.81D-05 NDo=     1
 LinEq1:  Iter=  7 NonCon=     1 RMS=1.00D-06 Max=6.51D-06 NDo=     1
 LinEq1:  Iter=  8 NonCon=     1 RMS=1.52D-07 Max=1.28D-06 NDo=     1
 LinEq1:  Iter=  9 NonCon=     1 RMS=3.83D-08 Max=4.07D-07 NDo=     1
 LinEq1:  Iter= 10 NonCon=     1 RMS=9.81D-09 Max=6.51D-08 NDo=     1
 LinEq1:  Iter= 11 NonCon=     1 RMS=2.38D-09 Max=2.41D-08 NDo=     1
 LinEq1:  Iter= 12 NonCon=     1 RMS=4.66D-10 Max=5.72D-09 NDo=     1
 LinEq1:  Iter= 13 NonCon=     1 RMS=8.36D-11 Max=1.41D-09 NDo=     1
 LinEq1:  Iter= 14 NonCon=     0 RMS=1.73D-11 Max=1.90D-10 NDo=     1
 Linear equations converged to 1.000D-10 1.000D-09 after    14 iterations.
 End of Minotr F.D. properties file   721 does not exist.
 End of Minotr F.D. properties file   722 does not exist.
 End of Minotr F.D. properties file   788 does not exist.
 Calling FoFJK, ICntrl=  10002127 FMM=F ISym2X=0 I1Cent= 0 IOpClX= 0 NMat=1 NMatS=1 NMatT=0.
 ***** Axes restored to original set *****
 -------------------------------------------------------------------
 Center     Atomic                   Forces (Hartrees/Bohr)
 Number     Number              X              Y              Z
 -------------------------------------------------------------------
      1        6           0.000289354    0.000006461    0.000043130
      2        8          -0.000103287    0.000106615   -0.000015212
      3        8          -0.000020871   -0.000215629   -0.000011770
      4        6          -0.000110308   -0.000204127   -0.000013485
      5        1          -0.000119851    0.000205017   -0.000000777
      6        1           0.000023622    0.000016404   -0.000001191
      7        1           0.000021827    0.000039487    0.000002243
      8        1           0.000019515    0.000045772   -0.000002938
 -------------------------------------------------------------------
 Cartesian Forces:  Max     0.000289354 RMS     0.000106210

 GradGradGradGradGradGradGradGradGradGradGradGradGradGradGradGradGradGrad
 Berny optimization.
 Using GEDIIS/GDIIS optimizer.
 FormGI is forming the generalized inverse of G from B-inverse, IUseBI=4.
 Internal  Forces:  Max     0.000236076 RMS     0.000075369
 Search for a local minimum.
 Step number   5 out of a maximum of   35
 All quantities printed in internal units (Hartrees-Bohrs-Radians)
 Mixed Optimization -- En-DIIS/RFO-DIIS
 Swapping is turned off.
 Update second derivatives using D2CorX and points    1    2    3    4    5
 DE= -5.74D-06 DEPred=-5.12D-06 R= 1.12D+00
 TightC=F SS=  1.41D+00  RLast= 5.99D-03 DXNew= 8.4853D-01 1.7983D-02
 Trust test= 1.12D+00 RLast= 5.99D-03 DXMaxT set to 5.05D-01
 ITU=  1  1  1  1  0
     Eigenvalues ---    0.00815   0.01177   0.02356   0.07507   0.07556
     Eigenvalues ---    0.14193   0.15998   0.16172   0.17132   0.19813
     Eigenvalues ---    0.28638   0.32552   0.32610   0.32753   0.34668
     Eigenvalues ---    0.41406   0.54658   0.91915
 En-DIIS/RFO-DIIS/Sim-DIIS IScMMF=       -3 using points:     5    4
 RFO step:  Lambda=-4.88621041D-07.
 DidBck=F Rises=F RFO-DIIS coefs:    1.10302   -0.10302
 Iteration  1 RMS(Cart)=  0.00045943 RMS(Int)=  0.00000025
 Iteration  2 RMS(Cart)=  0.00000031 RMS(Int)=  0.00000013
 Variable       Old X    -DE/DX   Delta X   Delta X   Delta X     New X
                                 (Linear)    (Quad)   (Total)
    R1        2.30616  -0.00013  -0.00013  -0.00011  -0.00024   2.30592
    R2        2.58809   0.00011   0.00044   0.00000   0.00045   2.58854
    R3        2.84716  -0.00008  -0.00007  -0.00019  -0.00026   2.84691
    R4        1.84053  -0.00024  -0.00010  -0.00035  -0.00046   1.84007
    R5        2.07008   0.00003  -0.00001   0.00014   0.00013   2.07021
    R6        2.07860  -0.00000   0.00001  -0.00003  -0.00002   2.07859
    R7        2.07860  -0.00000   0.00001  -0.00002  -0.00001   2.07859
    A1        2.13753   0.00014  -0.00003   0.00049   0.00046   2.13798
    A2        2.20545  -0.00002   0.00023  -0.00018   0.00005   2.20550
    A3        1.94021  -0.00012  -0.00020  -0.00030  -0.00051   1.93970
    A4        1.84525   0.00005   0.00022   0.00016   0.00038   1.84564
    A5        1.90924  -0.00003   0.00003  -0.00023  -0.00020   1.90903
    A6        1.91045   0.00005  -0.00001   0.00032   0.00031   1.91076
    A7        1.91042   0.00006  -0.00001   0.00040   0.00039   1.91082
    A8        1.92681  -0.00003  -0.00002  -0.00028  -0.00030   1.92651
    A9        1.92681  -0.00003  -0.00002  -0.00030  -0.00032   1.92649
   A10        1.87985  -0.00001   0.00002   0.00012   0.00014   1.87998
    D1       -0.00014   0.00001  -0.00002   0.00067   0.00065   0.00051
    D2       -3.14145  -0.00001   0.00002  -0.00073  -0.00071   3.14103
    D3        0.00010  -0.00001   0.00002  -0.00070  -0.00068  -0.00058
    D4       -2.11317   0.00002   0.00003  -0.00040  -0.00037  -2.11354
    D5        2.11336  -0.00003   0.00001  -0.00097  -0.00096   2.11241
    D6        3.14140   0.00001  -0.00002   0.00077   0.00075  -3.14104
    D7        1.02812   0.00003  -0.00001   0.00106   0.00105   1.02917
    D8       -1.02853  -0.00001  -0.00003   0.00050   0.00047  -1.02806
         Item               Value     Threshold  Converged?
 Maximum Force            0.000236     0.000450     YES
 RMS     Force            0.000075     0.000300     YES
 Maximum Displacement     0.001065     0.001800     YES
 RMS     Displacement     0.000460     0.001200     YES
 Predicted change in Energy=-2.443155D-07
 Optimization completed.
    -- Stationary point found.
                           ----------------------------
                           !   Optimized Parameters   !
                           ! (Angstroms and Degrees)  !
 --------------------------                            --------------------------
 ! Name  Definition              Value          Derivative Info.                !
 --------------------------------------------------------------------------------
 ! R1    R(1,2)                  1.2204         -DE/DX =   -0.0001              !
 ! R2    R(1,3)                  1.3696         -DE/DX =    0.0001              !
 ! R3    R(1,4)                  1.5067         -DE/DX =   -0.0001              !
 ! R4    R(3,5)                  0.974          -DE/DX =   -0.0002              !
 ! R5    R(4,6)                  1.0954         -DE/DX =    0.0                 !
 ! R6    R(4,7)                  1.0999         -DE/DX =    0.0                 !
 ! R7    R(4,8)                  1.0999         -DE/DX =    0.0                 !
 ! A1    A(2,1,3)              122.4713         -DE/DX =    0.0001              !
 ! A2    A(2,1,4)              126.3631         -DE/DX =    0.0                 !
 ! A3    A(3,1,4)              111.1656         -DE/DX =   -0.0001              !
 ! A4    A(1,3,5)              105.7252         -DE/DX =    0.0                 !
 ! A5    A(1,4,6)              109.3912         -DE/DX =    0.0                 !
 ! A6    A(1,4,7)              109.4605         -DE/DX =    0.0                 !
 ! A7    A(1,4,8)              109.4592         -DE/DX =    0.0001              !
 ! A8    A(6,4,7)              110.3981         -DE/DX =    0.0                 !
 ! A9    A(6,4,8)              110.398          -DE/DX =    0.0                 !
 ! A10   A(7,4,8)              107.7073         -DE/DX =    0.0                 !
 ! D1    D(2,1,3,5)             -0.0081         -DE/DX =    0.0                 !
 ! D2    D(4,1,3,5)            180.0083         -DE/DX =    0.0                 !
 ! D3    D(2,1,4,6)              0.0059         -DE/DX =    0.0                 !
 ! D4    D(2,1,4,7)           -121.0757         -DE/DX =    0.0                 !
 ! D5    D(2,1,4,8)            121.0867         -DE/DX =    0.0                 !
 ! D6    D(3,1,4,6)           -180.0113         -DE/DX =    0.0                 !
 ! D7    D(3,1,4,7)             58.907          -DE/DX =    0.0                 !
 ! D8    D(3,1,4,8)            -58.9305         -DE/DX =    0.0                 !
 --------------------------------------------------------------------------------
 GradGradGradGradGradGradGradGradGradGradGradGradGradGradGradGradGradGrad

                          Input orientation:                          
 ---------------------------------------------------------------------
 Center     Atomic      Atomic             Coordinates (Angstroms)
 Number     Number       Type             X           Y           Z
 ---------------------------------------------------------------------
      1          6           0        1.021553   -0.126179   -0.000091
      2          8           0        2.183985   -0.497732    0.000192
      3          8           0       -0.030610   -1.002903   -0.000108
      4          6           0        0.540058    1.301466   -0.000055
      5          1           0        0.366745   -1.892126    0.000006
      6          1           0        1.402939    1.976318    0.000162
      7          1           0       -0.084556    1.477518    0.888061
      8          1           0       -0.084213    1.477653   -0.888385
 ---------------------------------------------------------------------
                    Distance matrix (angstroms):
                    1          2          3          4          5
     1  C    0.000000
     2  O    1.220369   0.000000
     3  O    1.369559   2.271482   0.000000
     4  C    1.506655   2.437131   2.373980   0.000000
     5  H    1.883438   2.290566   0.973965   3.198291   0.000000
     6  H    2.136808   2.594409   3.306179   1.095439   4.004816
     7  H    2.141060   3.136273   2.635194   1.099949   3.513804
     8  H    2.141043   3.136310   2.635350   1.099949   3.513974
                    6          7          8
     6  H    0.000000
     7  H    1.802722   0.000000
     8  H    1.802721   1.776446   0.000000
 Stoichiometry    C2H4O2
 Framework group  C1[X(C2H4O2)]
 Deg. of freedom    18
 Full point group                 C1      NOp   1
 Largest Abelian subgroup         C1      NOp   1
 Largest concise Abelian subgroup C1      NOp   1
                         Standard orientation:                         
 ---------------------------------------------------------------------
 Center     Atomic      Atomic             Coordinates (Angstroms)
 Number     Number       Type             X           Y           Z
 ---------------------------------------------------------------------
      1          6           0       -0.088815    0.127368    0.000080
      2          8           0       -0.648737    1.211705   -0.000203
      3          8           0       -0.778104   -1.056089    0.000097
      4          6           0        1.399074   -0.109688    0.000044
      5          1           0       -1.721076   -0.812345   -0.000017
      6          1           0        1.920827    0.853515   -0.000173
      7          1           0        1.676673   -0.696269   -0.888072
      8          1           0        1.676749   -0.695908    0.888373
 ---------------------------------------------------------------------
 Rotational constants (GHZ):          11.0944912           9.3935807           5.2549355

 **********************************************************************

            Population analysis using the SCF Density.

 **********************************************************************

 Orbital symmetries:
       Occupied  (A) (A) (A) (A) (A) (A) (A) (A) (A) (A) (A) (A)
                 (A) (A) (A) (A)
       Virtual   (A) (A) (A) (A) (A) (A) (A) (A) (A) (A) (A) (A)
                 (A) (A) (A) (A) (A) (A) (A) (A) (A) (A) (A) (A)
                 (A) (A) (A) (A) (A) (A) (A) (A) (A) (A) (A) (A)
                 (A) (A) (A) (A) (A) (A) (A) (A) (A) (A) (A) (A)
                 (A) (A) (A) (A) (A) (A) (A) (A) (A) (A) (A) (A)
[...]
 00005873,-0.00025964,-0.00032451,0.00000020,-0.16752232,-0.11794372,-0
 .00000153,-0.00000182,0.00243831,-0.00000024,0.00000015,-0.00079370,0.
 ,-0.00000085,-0.00022282,0.00005421,0.00004262,-0.04759582,-0.00000003
 ,-0.00000027,-0.00002422,-0.00005306,-0.00004629,0.04843462,-0.0008672
 9,-0.00071897,0.00223811,-0.00057168,0.00045041,-0.00090703,0.00004622
 ,-0.00019123,-0.00005540,0.04175987,-0.01087654,-0.04624750,-0.0000959
 9,-0.00013610,0.00037511,-0.00988362,-0.00875344,-0.01474309,-0.027145
 29,0.00101631,0.00060811,0.00279908,-0.00053183,0.00048673,-0.00045241
 ,0.00027345,-0.00077168,-0.00038898,-0.02645904,-0.00583673,0.03228076
 ,-0.00011468,0.00009193,0.00006713,0.00558891,-0.00006646,-0.01491418,
 0.02007162,0.00646672,0.00221415,-0.00246325,-0.00016660,0.00056025,-0
 .00011574,0.00008330,-0.00017997,0.00009372,0.00001682,-0.07140189,0.0
 1617649,0.09961344,0.00004246,0.00007529,-0.00004349,0.01095388,0.0064
 8142,-0.00111770,0.05857777,-0.01981662,-0.09770098,-0.00087093,-0.000
 72050,-0.00224261,-0.00057173,0.00045196,0.00090687,0.00004698,-0.0001
 9218,0.00005491,0.04172477,-0.01088151,0.04627271,-0.00009603,-0.00013
 645,-0.00037471,-0.00988235,-0.00875997,0.01474372,-0.00324222,0.00015
 526,-0.00076664,-0.02710849,0.00101859,0.00060867,-0.00279781,-0.00053
 049,0.00048719,0.00045301,0.00027274,-0.00077070,0.00038845,-0.0264723
 6,-0.00583340,-0.03231162,-0.00011448,0.00009205,-0.00006738,0.0055883
 6,-0.00006702,0.01492063,0.00015425,-0.00097862,-0.00043130,0.02008339
 ,0.00646182,-0.00221585,0.00246075,-0.00017093,-0.00056104,0.00011675,
 0.00008407,0.00018005,-0.00009424,0.00001749,0.07143786,-0.01618863,0.
 09972131,-0.00004245,-0.00007536,-0.00004377,-0.01096637,-0.00649051,-
 0.00111867,0.00076204,0.00042522,-0.00068479,-0.05859424,0.01984602,-0
 .09780471,1.03572989,-0.34942669,-0.00501063,0.00027904,-0.00012195,-0
 .21284964,-1.06987636,0.36231019,-0.00029833,1.07347167,0.36524169,0.0
 7859740,0.00009943,-0.36742562,-0.07153007,-0.00030588,0.00010466,0.18
 511340,0.00030490,-0.00009815,-0.18549568,0.02614411,-0.02027023,0.000
 01515,-0.00203539,0.00255146,0.00000713,-0.03976316,-0.01717615,-0.016
 83655,0.00001936,0.00162908,-0.00268114,-0.00000462,0.03601801,-0.0082
 9611,0.00002244,0.00001373,0.01396376,-0.00000504,0.00000194,-0.001647
 24,-0.00002238,-0.00000970,-0.01279181,0.01501924,0.00065239,0.0000066
 6,-0.00184108,0.00279116,-0.00000526,0.00281787,0.00307030,0.00000127,
 -0.02477719,0.00333718,-0.05714177,0.00000156,0.00373492,-0.00368735,-
 0.00000102,-0.00287817,-0.00243183,0.00000038,-0.00896935,0.05667360,0
 .00000457,0.00000417,0.01674762,-0.00000137,-0.00000258,0.00154264,-0.
 00000317,-0.00000108,-0.00089031,-0.00000637,-0.00000229,-0.02251227,-
 0.00659864,0.00515537,-0.00000242,-0.00009533,-0.00276888,0.00000021,0
 .01211149,-0.02330540,0.00000425,0.00093743,0.00058874,0.00000029,-0.0
 0626018,-0.00508819,-0.00040919,0.00000077,-0.00146701,0.00056978,-0.0
 0000234,-0.01310692,0.02945117,-0.00000631,0.00015975,0.00008450,0.000
 00073,0.01970720,-0.02991752,-0.00000174,-0.00000179,-0.00098655,0.000
 00039,-0.00000053,0.00072660,0.00000363,-0.00000447,0.00140853,-0.0000
 0015,0.00000010,-0.00057013,-0.00000246,0.00000704,-0.00075813,0.00007
 916,0.00042131,-0.00000008,0.00061269,-0.00067750,-0.00000013,-0.00024
 933,-0.00027115,0.00000032,0.00556273,0.00475373,0.00000157,-0.0000936
 2,-0.00016147,0.00000015,-0.00548980,0.00200375,-0.00042726,0.00000027
 ,0.00044339,-0.00003340,0.00000002,-0.00029640,0.00103774,-0.00000010,
 0.00127784,0.00369787,0.00000242,0.00039955,-0.00010410,-0.00000011,-0
 .00376827,-0.00357217,0.00000178,0.00000018,-0.00037297,-0.00000032,-0
 .00000019,-0.00007492,-0.00000025,0.00000031,-0.00000392,0.00000065,0.
 00000125,0.00118019,0.00000005,0.,0.00000174,-0.00000149,-0.00000213,-
 0.00054366,-0.00024745,0.00057812,0.00018931,-0.00011854,0.00014346,0.
 00012350,0.00048678,0.00001764,0.00000138,0.00114055,-0.00028339,-0.00
 030912,-0.00000050,-0.00002170,-0.00003112,-0.00021086,-0.00003024,-0.
 00019501,-0.00101940,0.00055346,0.00061412,0.00019766,0.00038708,-0.00
 061802,0.00034938,-0.00100858,-0.00012153,0.00000558,0.00050952,0.0014
 0427,-0.00171539,0.00011160,0.00016266,-0.00007166,-0.00014849,-0.0002
 9964,-0.00023686,-0.00029792,-0.00134893,0.00085631,-0.00183232,-0.000
 80810,0.00001498,0.00005031,-0.00008234,0.00022167,0.00051163,-0.00001
 938,-0.00116858,0.00031366,0.00224923,0.00004398,-0.00004282,0.0000890
 1,0.00011186,-0.00013182,-0.00009322,0.00007046,0.00130114,-0.00142129
 ,-0.00024994,0.00057954,-0.00018933,-0.00011764,0.00014424,-0.00012445
 ,0.00048762,0.00001767,-0.00000224,0.00114045,-0.00028366,0.00031362,-
 0.00000066,-0.00002166,0.00003129,-0.00021097,-0.00002961,0.00019460,-
 0.00003058,-0.00010667,-0.00015069,-0.00101827,0.00055496,0.00061388,-
 0.00019711,0.00038796,-0.00061721,-0.00034795,-0.00100917,-0.00012175,
 -0.00000552,0.00050839,0.00140070,0.00171403,0.00011183,0.00016271,0.0
 0007141,-0.00014815,-0.00029904,0.00023744,-0.00010598,0.00020708,-0.0
 0016978,-0.00029984,-0.00134637,-0.00085652,0.00183332,-0.00080752,-0.
 00001520,-0.00005023,-0.00008245,-0.00022178,-0.00051144,-0.00001965,0
 .00117179,-0.00031365,0.00225302,-0.00004389,0.00004292,0.00008892,-0.
 00011220,0.00013145,-0.00009324,0.00015060,0.00017015,0.00008609,-0.00
 007280,-0.00130253,-0.00142518,-0.00652446,0.00335558,-0.00478295,-0.0
 0002988,-0.00003290,-0.00521281,0.00135621,-0.00493477,0.00001550,-0.0
 0145174,0.00046411,0.00363091,0.00000621,0.00212209,-0.00277186,0.0000
 0777,0.00001155,0.00078383,-0.00000843,-0.00000521,0.00024079,-0.00002
 683,0.00119121,0.00001048,0.00049964,-0.00063587,0.00000676,-0.0002102
 9,-0.00208958,0.00205291,0.00001797,0.00100074,-0.00076567,-0.00000495
 ,-0.00051328,-0.00305078,0.00001887,0.00001083,0.00011267,-0.00000597,
 0.00000209,0.00005678,-0.00001475,-0.00001134,-0.00011560,0.00083012,-
 0.00235070,0.00000481,-0.00030164,0.00045903,-0.00000482,0.00033803,0.
 00148454,0.00000099,0.77796736,-0.00961549,0.01012120,0.00000780,0.003
 17467,-0.00227332,-0.00000031,-0.00027873,-0.00349306,0.00000097,0.120
 38292,-0.28925897,0.00000402,0.00001395,-0.00553116,-0.00000148,-0.000
 00248,-0.00003508,-0.00000356,-0.00000153,0.00061579,-0.00013261,-0.00
 009622,1.31186130,-0.00044675,-0.00016322,-0.00000081,0.00005716,-0.00
 013276,0.00000005,0.00038935,0.00035019,0.00000111,0.00012108,0.000018
 99,0.00000006,-0.00001457,-0.00036845,0.00032761,0.00000120,0.00006582
 ,0.00000772,-0.00000194,0.00022779,0.00011665,-0.00000268,0.00044938,-
 0.00063635,0.00000073,-0.00015394,-0.00030012,-0.00000206,-0.00000190,
 0.00020620,0.00000078,-0.00000028,0.00009026,0.00000147,-0.00000027,0.
 00044423,0.00000037,0.00000003,-0.00009507,-0.00000045,0.00000254,-0.0
 0044815,0.00211455,0.00705605,0.00000179,-0.00039436,-0.00128340,-0.00
 000062,-0.00008078,0.00106488,0.00000019,-0.34517158,-0.33389941,-0.00
 011143,0.00004677,0.00024140,-0.00000004,0.34580611,-0.00095788,-0.001
 55839,-0.00000014,-0.00113072,0.00163070,-0.00000062,0.00011158,0.0007
 9170,-0.00000005,-0.34521955,-0.13003224,-0.00008089,0.00002713,0.0000
 0293,-0.00000008,0.33666381,0.12006806,0.00000205,0.00000128,0.0000753
 3,-0.00000061,-0.00000025,-0.00009208,-0.00000015,0.00000043,-0.000255
 44,-0.00011300,-0.00008179,0.10548266,0.00000006,0.00000012,0.00004238
 ,0.00011365,0.00008109,-0.11725764,0.00135134,-0.00207910,-0.00126191,
 0.00011705,-0.00049713,0.00015637,-0.00045499,-0.00064852,0.00007511,-
 0.21714599,0.11009519,0.64711425,-0.00007647,-0.00023108,0.00014035,-0
 .00116071,0.00525149,0.01103891,0.20440967,0.00460711,-0.00489554,-0.0
 0651795,-0.00014950,0.00027032,0.00068947,-0.00005116,0.00217481,0.000
 39033,0.11238696,0.20781774,-0.16799497,0.00002670,0.00024087,0.000303
 86,-0.00492345,0.00454729,0.01155286,-0.10824856,-0.21288541,-0.005673
 97,0.00686353,0.00478244,-0.00094135,0.00101846,-0.00052265,0.00047427
 ,-0.00029369,-0.00042929,0.63759623,-0.16268378,-0.70594502,0.00011891
 ,0.00015637,-0.00011984,-0.00886631,-0.00091909,0.00600372,-0.63998794
 ,0.15871722,0.69767429,0.00134582,-0.00207505,0.00126002,0.00011769,-0
 .00049607,-0.00015707,-0.00045414,-0.00064896,-0.00007554,-0.21663737,
 0.11012187,-0.64686926,-0.00007655,-0.00023093,-0.00014043,-0.00116000
 ,0.00525413,-0.01104091,0.01296011,-0.00364810,0.01728015,0.20390444,0
 .00460460,-0.00489574,0.00651782,-0.00014832,0.00027119,-0.00068800,-0
 .00005154,0.00217343,-0.00039016,0.11240742,0.20775500,0.16816142,0.00
 002690,0.00024069,-0.00030391,-0.00491988,0.00454996,-0.01155372,-0.00
 364229,0.00272992,-0.00285902,-0.10827689,-0.21282445,0.00567320,-0.00
 686634,0.00478349,0.00094155,-0.00101854,-0.00052186,-0.00047452,0.000
 29337,-0.00042916,-0.63735195,0.16285331,-0.70635343,-0.00011894,-0.00
 015633,-0.00012001,0.00886277,0.00091978,0.00600107,-0.01727514,0.0028
 5919,-0.00144366,0.63974303,-0.15888443,0.69808355,-0.00190820,0.00645
 651,-0.01161634,-0.00002969,-0.00003406,-0.00340503,0.00180260,-0.0053
 9891,0.00001494,-0.00095215,0.00042928,0.00297042,0.00000665,0.0008364
 3,-0.00133132,0.00000798,0.00001154,0.00170092,-0.00000808,-0.00000569
 ,-0.00029024,-0.00087785,0.00035564,0.00001065,0.00060438,-0.00067863,
 0.00000680,0.00074074,-0.00293942,0.00030080,0.00001841,0.00112823,-0.
 00044414,-0.00000503,0.00035222,-0.00191914,0.00001910,0.00001116,-0.0
 0006181,-0.00000591,0.00000195,0.00004250,-0.00001495,-0.00001155,0.00
 053222,-0.00935333,0.00406577,0.00000869,-0.00433123,0.00296897,-0.000
 00680,0.00064544,0.00048165,0.00000058,0.66349554,-0.01848467,0.020189
 96,0.00000732,0.00252804,-0.00012667,-0.00000035,-0.00028311,-0.002460
 76,0.00000085,-0.37509599,-0.58353287,0.00000322,0.00001707,-0.0194551
 7,-0.00000271,-0.00000125,0.00045699,-0.00000349,-0.00000069,0.0012099
 3,-0.00023003,-0.00026596,1.83345002,-0.00047480,-0.00013329,-0.000000
 63,0.00009229,-0.00010986,0.00000003,0.00027705,0.00033538,0.00000107,
 0.00025752,-0.00020922,0.00000008,0.00006611,-0.00017851,0.00039465,0.
 00000111,0.00006938,-0.00000486,-0.00000195,0.00008279,-0.00016382,-0.
 00000274,0.00033458,-0.00071652,0.00000086,-0.00015287,0.00004785,-0.0
 0000208,-0.00000188,0.00029248,0.00000081,-0.00000030,0.00006746,0.000
 00154,-0.00000038,0.00008588,0.00000008,0.00000004,0.00065269,-0.00000
 050,0.00000262,-0.00026699,0.00076126,0.00025709,-0.00000009,-0.000266
 06,-0.00037756,-0.00000036,-0.00013852,-0.00000870,0.00000040,-0.00444
 275,0.01745511,0.00000133,-0.00001514,-0.00004050,0.00000009,0.0014034
 6,0.00086763,0.00001586,-0.00000022,0.00004881,-0.00004299,-0.00000030
 ,0.00007701,0.00068720,0.00000006,-0.00150842,-0.00108008,0.00000254,0
 .00005451,0.00018124,-0.00000010,-0.00075694,-0.00069913,0.00000096,0.
 00000022,0.00311338,-0.00000043,-0.00000015,-0.00013038,-0.00000011,-0
 .00000022,-0.00027032,-0.00000003,0.00000427,-0.01410333,-0.00000001,0
 .,-0.00027682,0.00000157,-0.00000043,-0.00036887,0.00502820,-0.0028029
 6,-0.00443035,0.00152434,-0.00153472,0.00094278,-0.00062615,0.00032553
 ,0.00064970,-0.32348191,0.18702427,0.91656844,-0.00010149,-0.00005751,
 0.00025653,0.00134964,0.00060863,0.00109489,0.32447646,0.00692509,-0.0
 0612725,-0.00569047,0.00039353,-0.00051068,0.00019319,0.00004733,0.002
 00049,0.00032095,0.18435763,0.28389964,-0.25588857,0.00010755,0.000130
 83,0.00036969,-0.00826501,0.00046808,0.00471183,-0.18541827,-0.2771506
 6,-0.00526335,0.00551749,0.00890556,-0.00025516,0.00115628,-0.00092358
 ,0.00058354,0.00023532,-0.00076920,0.90770042,-0.25566291,-0.90078073,
 0.00015799,0.00017283,-0.00027714,-0.00465583,-0.00274260,0.00601729,-
 0.90667271,0.25365354,0.88117433,0.00502213,-0.00279985,0.00442648,0.0
 0152584,-0.00153392,-0.00094235,-0.00062510,0.00032511,-0.00064998,-0.
 32278928,0.18706557,-0.91633685,-0.00010153,-0.00005735,-0.00025647,0.
 00134812,0.00060877,-0.00109685,-0.00816909,0.00185214,0.00840509,0.32
 378892,0.00692408,-0.00612810,0.00569127,0.00039448,-0.00050975,-0.000
 19141,0.00004675,0.00199936,-0.00032067,0.18439581,0.28382731,0.256135
 99,0.00010780,0.00013063,-0.00036970,-0.00826349,0.00046982,-0.0047155
 2,0.00185503,-0.00271045,-0.00232996,-0.18546047,-0.27707882,0.0052638
 5,-0.00552153,0.00890969,0.00025656,-0.00115749,-0.00092364,-0.0005839
 7,-0.00023587,-0.00076920,-0.90747293,0.25591674,-0.90143039,-0.000158
 03,-0.00017274,-0.00027756,0.00465288,0.00274105,0.00601906,-0.0084092
 9,0.00232984,0.00665348,0.90645094,-0.25390001,0.88181856,-0.00638966,
 0.00221479,-0.00708474,-0.00003133,-0.00003359,0.00318912,0.00113270,-
 0.00218713,0.00001662,-0.00100603,0.00137646,0.00116220,0.00000633,0.0
 0159581,-0.00283388,0.00000810,0.00001235,-0.00107856,-0.00000870,-0.0
 0000545,0.00098314,0.00061757,0.00158529,0.00001120,-0.00001254,-0.000
 50871,0.00000654,-0.00041627,-0.00360634,0.00100893,0.00001747,0.00064
 278,0.00015249,-0.00000511,-0.00037367,-0.00362127,0.00001928,0.000010
 74,0.00005906,-0.00000622,0.00000212,0.00031883,-0.00001507,-0.0000113
 1,-0.00051011,-0.01312642,-0.02822432,-0.00000296,0.00148876,0.0048555
 7,-0.00000315,0.00003102,-0.00186807,0.00000174,1.48442194,-0.00362766
 ,0.00981040,0.00000806,0.00453536,-0.00111076,0.00000037,0.00035850,0.
 00058497,0.00000095,1.47202677,0.56284568,0.00000320,0.00000867,-0.009
 23968,-0.00000175,-0.00000127,0.00044844,-0.00000362,-0.00000171,-0.00
 013999,0.00043282,0.00032049,-0.11359947,-0.00051185,-0.00029352,-0.00
 000123,0.00002288,0.00000802,0.00000010,0.00066212,0.00037122,0.000001
 30,-0.00092431,0.00015890,-0.00000013,-0.00023515,-0.00064505,0.000671
 45,0.00000112,0.00008479,-0.00005170,-0.00000188,0.00039560,-0.0001034
 9,-0.00000260,-0.00048148,-0.00057354,0.00000068,-0.00035838,-0.000077
 40,-0.00000211,-0.00000215,-0.00052393,0.00000070,-0.00000025,0.000144
 43,0.00000152,-0.00000008,0.00048200,0.00000086,0.00000036,0.00001414,
 -0.00000039,0.00000247,-0.00016840,0.01237024,0.02215531,0.00000747,-0
 .00172300,-0.00452412,-0.00000189,-0.00054672,0.00462193,-0.00000047,-
 1.38837145,-1.54620507,-0.00049320,0.00084150,0.00079607,-0.00000053,1
 .36911609,0.00192452,-0.00388848,0.00000032,-0.00404784,0.00245887,-0.
 00000137,-0.00147702,0.00097911,-0.00000012,-1.53983177,-0.67364653,-0
 .00038882,0.00024087,-0.00002761,-0.00000018,1.52286768,0.67177940,0.0
 0000301,0.00000360,0.00105540,-0.00000090,-0.00000083,-0.00024094,-0.0
 0000045,0.00000110,0.00046633,-0.00049176,-0.00039097,0.56187714,0.000
 00030,0.00000013,0.00022323,0.00048483,0.00038569,-0.55384915,0.002954
 76,0.00237342,0.00126453,0.00004832,-0.00140187,-0.00005450,-0.0001679
 5,0.00010598,0.00007375,-0.04182525,0.03637397,0.17024790,0.00007246,0
 .00010412,-0.00007427,0.00415669,0.01016247,0.00607779,0.03063028,0.00
 118088,-0.00083989,0.00028525,-0.00031220,0.00011100,-0.00029371,0.000
 01027,0.00049974,0.00016650,0.04676077,0.05105404,-0.07210446,-0.00006
 367,0.00008109,-0.00008570,0.00014419,0.00117284,0.00154249,-0.0481708
 5,-0.05641224,-0.00211814,0.00235240,0.00326921,-0.00008762,0.00034031
 ,-0.00028782,0.00048181,-0.00009596,-0.00033805,0.17963157,-0.05902422
 ,-0.21961437,0.00001570,0.00006379,-0.00008573,-0.00564014,-0.00862304
 ,-0.00476653,-0.17490993,0.06773770,0.22069044,0.00295266,0.00237617,-
 0.00126430,0.00004891,-0.00140115,0.00005349,-0.00016724,0.00010618,-0
 .00007432,-0.04169429,0.03637922,-0.17018523,0.00007235,0.00010432,0.0
 0007422,0.00415665,0.01016109,-0.00607281,0.00413068,0.00045060,0.0026
 2675,0.03050028,0.00118240,-0.00083988,-0.00028497,-0.00031156,0.00011
 176,0.00029480,0.00000973,0.00049950,-0.00016628,0.04676253,0.05103575
 ,0.07216642,-0.00006344,0.00008119,0.00008553,0.00014401,0.00117239,-0
 .00154121,0.00045276,0.00433342,-0.00275100,-0.04817643,-0.05639412,0.
 00211799,-0.00235201,0.00326939,0.00008787,-0.00034097,-0.00028754,-0.
 00048192,0.00009560,-0.00033809,-0.17956912,0.05908495,-0.21974620,-0.
 00001566,-0.00006371,-0.00008575,0.00564392,0.00862753,-0.00476549,-0.
 00262527,0.00275192,0.00113285,0.17484220,-0.06780330,0.22082084,-0.03
 047669,-0.01023575,-0.02962816,-0.00003379,-0.00003535,-0.00172052,0.0
 0786344,-0.00101962,0.00001646,-0.00725918,-0.00382712,0.00497548,0.00
 000541,-0.00192889,-0.00614177,0.00000974,0.00001280,0.00015221,-0.000
 00949,-0.00000527,0.00158572,0.02571648,0.06877809,0.00000880,-0.01023
 154,-0.00446616,0.00000505,0.05763402,0.01592603,0.02330415,0.00001928
 ,-0.00552131,-0.00405466,-0.00000610,-3.01712978,5.15813255,0.00002132
 ,0.00001348,-0.01211040,-0.00000779,0.00000169,0.00346184,0.00037440,-
 0.00085235,-1.33765470,0.00404786,-0.00532657,0.00000532,-0.00106466,0
 .00100944,-0.00000521,0.00562690,0.00330392,0.00000120,-0.00432646,0.0
 0519952,0.00640727,0.00000885,0.00033211,-0.00064512,-0.00000081,-0.00
 058835,-0.00624884,0.00000240,-0.00003371,-0.00614577,0.00000536,0.000
 01290,0.00313034,-0.00000168,-0.00000236,-0.00088107,-0.00000350,-0.00
 000258,-0.00314747,-0.00000407,-0.00000966,-0.00058429,-0.00749131,-0.
 05440251,0.00000369,0.01050867,0.00953410,0.00000106,-0.07790130,3.005
 12530,-0.00038881,-0.00414829,-0.00428087,-0.00000089,0.07912134,-0.00
 782856,-0.00201364,0.00000162,0.00866061,0.00529184,-0.00000122,2.9518
 0846,-5.17073518,0.00083487,0.00243238,0.00506251,0.00000147,-2.955150
 82,5.16128941,-0.00000355,-0.00000434,0.01024563,0.00000299,0.00000060
 ,-0.00430179,-0.00038454,0.00084195,1.34959387,-0.00000018,-0.00000181
 ,0.00155651,0.00038507,-0.00083658,-1.35723449,-0.00033481,0.00112002,
 -0.00000024,0.00024025,-0.00010027,-0.00000014,-0.00087738,-0.00112099
 ,0.00000053,0.00026243,-0.00037984,0.00000015,0.00026752,0.00018965,-0
 .00000006,0.00035071,0.00118722,-0.00173484,0.00000006,-0.00032457,0.0
 0036307,-0.00000048,0.00143370,0.00077480,-0.00000023,-0.00139309,0.00
 091466,0.00000192,-0.00114552,0.00042545,0.00000013,0.00018076,-0.0008
 6074,0.00000146,0.00000043,0.00010714,-0.00000043,-0.00000012,0.000019
 65,-0.00000017,-0.00000029,-0.00032330,-0.00000042,0.00000036,0.000290
 04,-0.00000017,0.00000001,0.00018804,-0.00000003,-0.00000109,-0.000321
 26,0.00033904,0.00054235,-0.00044423,-0.00002890,-0.00011089,0.0000515
 3,0.00001600,-0.00029143,0.00020462,-0.00019906,-0.00012430,0.00013562
 ,-0.00017825,-0.00005584,-0.00001447,0.00004563,0.00003039,0.00009125,
 -0.00005635,-0.00021094,-0.00065478,0.00036449,-0.00009967,0.00010516,
 -0.00017714,0.00008218,-0.00058653,-0.00054866,0.00000409,0.00032934,0
 .00032505,0.00015999,0.00033980,0.00016802,0.00005518,0.00005851,-0.00
 017199,0.00005693,0.00031219,-0.00033152,-0.00059156,0.00009751,0.0000
 9344,0.00009860,-0.00001832,0.00004096,0.00025430,0.00009004,0.0000392
 7,0.00011872,-0.00018329,0.00013863,0.00002674,-0.00002383,-0.00003817
 ,0.00000386,0.00001988,0.00001656,0.00006463,-0.00004210,0.00033599,0.
 00054399,0.00044398,-0.00002806,-0.00011020,-0.00005254,0.00001682,-0.
 00029174,-0.00020547,-0.00019873,-0.00012456,-0.00013099,-0.00017838,-
 0.00005588,0.00001474,0.00004563,0.00003110,-0.00009148,0.00006189,-0.
 00004776,0.00004083,-0.00005517,-0.00021040,-0.00065549,-0.00036435,-0
 .00009865,0.00010598,0.00017822,0.00008187,-0.00058630,0.00054881,0.00
 000354,0.00032594,-0.00032674,0.00016032,0.00033981,-0.00016798,0.0000
 5550,0.00005908,0.00017270,-0.00004721,0.00009631,0.00002470,0.0000550
 4,0.00031467,0.00033099,0.00059165,0.00009810,-0.00009349,-0.00009855,
 -0.00001825,-0.00004102,-0.00025421,0.00009010,-0.00003591,-0.00011804
 ,-0.00018076,-0.00013858,-0.00002692,-0.00002394,0.00003797,-0.0000041
 8,0.00001981,-0.00004089,-0.00002440,0.00006011,-0.00001907,-0.0000653
 6,-0.00004517\\@
 The archive entry for this job was punched.


 Happiness is a conscious choice, not an automatic response.
 -- Mildred Barthel
 Job cpu time:       0 days 21 hours 30 minutes 54.2 seconds.
 Elapsed time:       0 days  0 hours 32 minutes 56.8 seconds.
 File lengths (MBytes):  RWF=   1446 Int=      0 D2E=      0 Chk=     42 Scr=      1
 Normal termination of Gaussian 16 at Fri Mar 21 00:50:38 2025.
