 Entering Gaussian System, Link 0=g16
 Input=aconmehc_mp2_avdz_opt_anharm.gjf
 Output=aconmehc_mp2_avdz_opt_anharm.log
 Initial command:
 /sw/contrib/chem-src/g16/c01/g16/l1.exe "/scr/Gau-50250.inp" -scrdir="/scr/"
 Entering Link 1 = /sw/contrib/chem-src/g16/c01/g16/l1.exe PID=     50251.
  
 Copyright (c) 1988-2019, Gaussian, Inc.  All Rights Reserved.
  
 This is part of the Gaussian(R) 16 program.  It is based on
 the Gaussian(R) 09 system (copyright 2009, Gaussian, Inc.),
 the Gaussian(R) 03 system (copyright 2003, Gaussian, Inc.),
 the Gaussian(R) 98 system (copyright 1998, Gaussian, Inc.),
 the Gaussian(R) 94 system (copyright 1995, Gaussian, Inc.),
 the Gaussian 92(TM) system (copyright 1992, Gaussian, Inc.),
 the Gaussian 90(TM) system (copyright 1990, Gaussian, Inc.),
 the Gaussian 88(TM) system (copyright 1988, Gaussian, Inc.),
 the Gaussian 86(TM) system (copyright 1986, Carnegie Mellon
 University), and the Gaussian 82(TM) system (copyright 1983,
 Carnegie Mellon University). Gaussian is a federally registered
 trademark of Gaussian, Inc.
  
 This software contains proprietary and confidential information,
 including trade secrets, belonging to Gaussian, Inc.
  
 This software is provided under written license and may be
 used, copied, transmitted, or stored only in accord with that
 written license.
  
 The following legend is applicable only to US Government
 contracts under FAR:
  
                    RESTRICTED RIGHTS LEGEND
  
 Use, reproduction and disclosure by the US Government is
 subject to restrictions as set forth in subparagraphs (a)
 and (c) of the Commercial Computer Software - Restricted
 Rights clause in FAR 52.227-19.
  
 Gaussian, Inc.
 340 Quinnipiac St., Bldg. 40, Wallingford CT 06492
  
  
 ---------------------------------------------------------------
 Warning -- This program may not be used in any manner that
 competes with the business of Gaussian, Inc. or will provide
 assistance to any competitor of Gaussian, Inc.  The licensee
 of this program is prohibited from giving any competitor of
 Gaussian, Inc. access to this program.  By using this program,
 the user acknowledges that Gaussian, Inc. is engaged in the
 business of creating and licensing software in the field of
 computational chemistry and represents and warrants to the
 licensee that it is not a competitor of Gaussian, Inc. and that
 it will not use this program in any manner prohibited above.
 ---------------------------------------------------------------
  

 Cite this work as:
 Gaussian 16, Revision C.01,
 M. J. Frisch, G. W. Trucks, H. B. Schlegel, G. E. Scuseria, 
 M. A. Robb, J. R. Cheeseman, G. Scalmani, V. Barone, 
 G. A. Petersson, H. Nakatsuji, X. Li, M. Caricato, A. V. Marenich, 
 J. Bloino, B. G. Janesko, R. Gomperts, B. Mennucci, H. P. Hratchian, 
 J. V. Ortiz, A. F. Izmaylov, J. L. Sonnenberg, D. Williams-Young, 
 F. Ding, F. Lipparini, F. Egidi, J. Goings, B. Peng, A. Petrone, 
 T. Henderson, D. Ranasinghe, V. G. Zakrzewski, J. Gao, N. Rega, 
 G. Zheng, W. Liang, M. Hada, M. Ehara, K. Toyota, R. Fukuda, 
 J. Hasegawa, M. Ishida, T. Nakajima, Y. Honda, O. Kitao, H. Nakai, 
 T. Vreven, K. Throssell, J. A. Montgomery, Jr., J. E. Peralta, 
 F. Ogliaro, M. J. Bearpark, J. J. Heyd, E. N. Brothers, K. N. Kudin, 
 V. N. Staroverov, T. A. Keith, R. Kobayashi, J. Normand, 
 K. Raghavachari, A. P. Rendell, J. C. Burant, S. S. Iyengar, 
 J. Tomasi, M. Cossi, J. M. Millam, M. Klene, C. Adamo, R. Cammi, 
 J. W. Ochterski, R. L. Martin, K. Morokuma, O. Farkas, 
 J. B. Foresman, and D. J. Fox, Gaussian, Inc., Wallingford CT, 2019.
 
 ******************************************
 Gaussian 16:  EM64L-G16RevC.01  3-Jul-2019
                29-Mar-2025 
 ******************************************
 %nprocshared=40
 Will use up to   40 processors via shared memory.
 %mem=50gb
 ----------------------------------------------
 # MP2/aug-cc-pVDZ opt freq=(vibrot,anharmonic)
 ----------------------------------------------
 1/18=20,19=15,38=1,80=1/1,3;
 2/9=110,12=2,17=6,18=5,40=1/2;
 3/5=16,7=10,11=9,25=1,30=1,71=1/1,2,3;
 4//1;
 5/5=2,38=5/2;
 8/6=4,10=1/1;
 9/15=2,16=-3/6;
 10/5=1/2;
 6/7=2,8=2,9=2,10=2/1;
 7/12=2/1,2,3,16;
 1/18=20,19=15,80=1/3(2);
 2/9=110/2;
 99//99;
 2/9=110/2;
 3/5=16,7=10,11=9,25=1,30=1,71=1/1,2,3;
 4/5=5,16=3,69=1/1;
 5/5=2,38=5/2;
 8/6=4,10=1/1;
 9/15=2,16=-3/6;
 10/5=1/2;
 7/12=2/1,2,3,16;
 1/18=20,19=15,80=1/3(-8);
 2/9=110/2;
 6/7=2,8=2,9=2,10=2/1;
 99/9=10/99;
 ----
 blah
 ----
 Symbolic Z-matrix:
 Charge =  0 Multiplicity = 1
 C                     0.72608   0.10943   0.00019 
 O                     0.20815   1.22568   0.00008 
 N                     0.02358  -1.04217   0.00013 
 C                     2.21537  -0.13883  -0.00017 
 H                     2.74947   0.81815  -0.00045 
 H                     2.48818  -0.72889  -0.88766 
 H                     2.48863  -0.7286    0.88736 
 C                     0.51483  -2.41845   0.00022 
 H                    -0.96063  -1.01839  -0.00002 
 H                     1.61184  -2.54243   0.00046 
 H                     0.1285   -2.94094  -0.90023 
 H                     0.12817  -2.94092   0.90054 
 

 GradGradGradGradGradGradGradGradGradGradGradGradGradGradGradGradGradGrad
 Berny optimization.
 Initialization pass.
                           ----------------------------
                           !    Initial Parameters    !
                           ! (Angstroms and Degrees)  !
 --------------------------                            --------------------------
 ! Name  Definition              Value          Derivative Info.                !
 --------------------------------------------------------------------------------
 ! R1    R(1,2)                  1.2306         estimate D2E/DX2                !
 ! R2    R(1,3)                  1.349          estimate D2E/DX2                !
 ! R3    R(1,4)                  1.5098         estimate D2E/DX2                !
 ! R4    R(3,8)                  1.4613         estimate D2E/DX2                !
 ! R5    R(3,9)                  0.9845         estimate D2E/DX2                !
 ! R6    R(4,5)                  1.0959         estimate D2E/DX2                !
 ! R7    R(4,6)                  1.1001         estimate D2E/DX2                !
 ! R8    R(4,7)                  1.1001         estimate D2E/DX2                !
 ! R9    R(8,10)                 1.104          estimate D2E/DX2                !
 ! R10   R(8,11)                 1.1104         estimate D2E/DX2                !
 ! R11   R(8,12)                 1.1104         estimate D2E/DX2                !
 ! A1    A(2,1,3)              123.7251         estimate D2E/DX2                !
 ! A2    A(2,1,4)              124.3548         estimate D2E/DX2                !
 ! A3    A(3,1,4)              111.92           estimate D2E/DX2                !
 ! A4    A(1,3,8)              128.9725         estimate D2E/DX2                !
 ! A5    A(1,3,9)              120.0            estimate D2E/DX2                !
 ! A6    A(8,3,9)              111.0275         estimate D2E/DX2                !
 ! A7    A(1,4,5)              109.7021         estimate D2E/DX2                !
 ! A8    A(1,4,6)              109.4512         estimate D2E/DX2                !
 ! A9    A(1,4,7)              109.4491         estimate D2E/DX2                !
 ! A10   A(5,4,6)              110.3221         estimate D2E/DX2                !
 ! A11   A(5,4,7)              110.3215         estimate D2E/DX2                !
 ! A12   A(6,4,7)              107.5599         estimate D2E/DX2                !
 ! A13   A(3,8,10)             116.091          estimate D2E/DX2                !
 ! A14   A(3,8,11)             109.0347         estimate D2E/DX2                !
 ! A15   A(3,8,12)             109.0334         estimate D2E/DX2                !
 ! A16   A(10,8,11)            107.0406         estimate D2E/DX2                !
 ! A17   A(10,8,12)            107.0372         estimate D2E/DX2                !
 ! A18   A(11,8,12)            108.357          estimate D2E/DX2                !
 ! D1    D(2,1,3,8)            179.9985         estimate D2E/DX2                !
 ! D2    D(2,1,3,9)              0.0            estimate D2E/DX2                !
 ! D3    D(4,1,3,8)              0.0229         estimate D2E/DX2                !
 ! D4    D(4,1,3,9)           -179.9757         estimate D2E/DX2                !
 ! D5    D(2,1,4,5)              0.0053         estimate D2E/DX2                !
 ! D6    D(2,1,4,6)           -121.1718         estimate D2E/DX2                !
 ! D7    D(2,1,4,7)            121.1805         estimate D2E/DX2                !
 ! D8    D(3,1,4,5)            179.9808         estimate D2E/DX2                !
 ! D9    D(3,1,4,6)             58.8037         estimate D2E/DX2                !
 ! D10   D(3,1,4,7)            -58.844          estimate D2E/DX2                !
 ! D11   D(1,3,8,10)             0.0058         estimate D2E/DX2                !
 ! D12   D(1,3,8,11)          -120.9331         estimate D2E/DX2                !
 ! D13   D(1,3,8,12)           120.9392         estimate D2E/DX2                !
 ! D14   D(9,3,8,10)          -179.9956         estimate D2E/DX2                !
 ! D15   D(9,3,8,11)            59.0656         estimate D2E/DX2                !
 ! D16   D(9,3,8,12)           -59.0622         estimate D2E/DX2                !
 --------------------------------------------------------------------------------
 Trust Radius=3.00D-01 FncErr=1.00D-07 GrdErr=1.00D-07 EigMax=2.50D+02 EigMin=1.00D-04
 Number of steps in this run=     55 maximum allowed number of steps=    100.
 GradGradGradGradGradGradGradGradGradGradGradGradGradGradGradGradGradGrad

                          Input orientation:                          
 ---------------------------------------------------------------------
 Center     Atomic      Atomic             Coordinates (Angstroms)
 Number     Number       Type             X           Y           Z
 ---------------------------------------------------------------------
      1          6           0        0.726082    0.109430    0.000192
      2          8           0        0.208154    1.225682    0.000077
      3          7           0        0.023582   -1.042168    0.000126
      4          6           0        2.215370   -0.138831   -0.000172
      5          1           0        2.749466    0.818147   -0.000452
      6          1           0        2.488184   -0.728887   -0.887656
      7          1           0        2.488627   -0.728604    0.887364
      8          6           0        0.514831   -2.418454    0.000217
      9          1           0       -0.960631   -1.018388   -0.000022
     10          1           0        1.611841   -2.542425    0.000459
     11          1           0        0.128503   -2.940941   -0.900229
     12          1           0        0.128171   -2.940917    0.900536
 ---------------------------------------------------------------------
                    Distance matrix (angstroms):
                    1          2          3          4          5
     1  C    0.000000
     2  O    1.230556   0.000000
     3  N    1.348957   2.275348   0.000000
     4  C    1.509839   2.427099   2.370644   0.000000
     5  H    2.143913   2.573782   3.300184   1.095931   0.000000
     6  H    2.143841   3.131604   2.638288   1.100101   1.802419
     7  H    2.143814   3.131624   2.638553   1.100101   1.802413
     8  C    2.536695   3.657017   1.461331   2.844031   3.933088
     9  H    2.029032   2.530199   0.984500   3.295543   4.139768
    10  H    2.795873   4.021066   2.184797   2.478207   3.547906
    11  H    3.236143   4.263525   2.104041   3.607899   4.670095
    12  H    3.236161   4.263540   2.104026   3.608235   4.670496
                    6          7          8          9         10
     6  H    0.000000
     7  H    1.775020   0.000000
     8  C    2.745374   2.745632   0.000000
     9  H    3.572958   3.573347   2.034004   0.000000
    10  H    2.201283   2.201204   1.103994   2.990034   0.000000
    11  H    3.234414   3.695959   1.110425   2.385959   1.780547
    12  H    3.695994   3.235160   1.110427   2.385920   1.780509
                   11         12
    11  H    0.000000
    12  H    1.800765   0.000000
 Stoichiometry    C3H7NO
 Framework group  C1[X(C3H7NO)]
 Deg. of freedom    30
 Full point group                 C1      NOp   1
 Largest Abelian subgroup         C1      NOp   1
 Largest concise Abelian subgroup C1      NOp   1
                         Standard orientation:                         
 ---------------------------------------------------------------------
 Center     Atomic      Atomic             Coordinates (Angstroms)
 Number     Number       Type             X           Y           Z
 ---------------------------------------------------------------------
      1          6           0        0.651623   -0.147393   -0.000119
      2          8           0        1.683626   -0.817647   -0.000004
      3          7           0       -0.587578   -0.680370   -0.000053
      4          6           0        0.615991    1.362025    0.000245
      5          1           0        1.638757    1.755744    0.000525
      6          1           0        0.070333    1.715368    0.887729
      7          1           0        0.070676    1.715767   -0.887291
      8          6           0       -1.880777    0.000163   -0.000144
      9          1           0       -0.702912   -1.658091    0.000095
     10          1           0       -1.848715    1.103691   -0.000386
     11          1           0       -2.452549   -0.308574    0.900302
     12          1           0       -2.452572   -0.308907   -0.900463
 ---------------------------------------------------------------------
 Rotational constants (GHZ):           9.0633609           4.0751859           2.9156888
 Standard basis: Aug-CC-pVDZ (5D, 7F)
 There are   188 symmetry adapted cartesian basis functions of A   symmetry.
 There are   178 symmetry adapted basis functions of A   symmetry.
   178 basis functions,   292 primitive gaussians,   188 cartesian basis functions
    20 alpha electrons       20 beta electrons
       nuclear repulsion energy       180.2762093806 Hartrees.
 NAtoms=   12 NActive=   12 NUniq=   12 SFac= 1.00D+00 NAtFMM=   60 NAOKFM=F Big=F
 Integral buffers will be    131072 words long.
 Raffenetti 1 integral format.
 Two-electron integral symmetry is turned on.
 One-electron integrals computed using PRISM.
 NBasis=   178 RedAO= T EigKep=  4.98D-05  NBF=   178
 NBsUse=   178 1.00D-06 EigRej= -1.00D+00 NBFU=   178
 ExpMin= 2.97D-02 ExpMax= 1.17D+04 ExpMxC= 4.01D+02 IAcc=3 IRadAn=         5 AccDes= 0.00D+00
 Harris functional with IExCor=  205 and IRadAn=       5 diagonalized for initial guess.
 HarFok:  IExCor=  205 AccDes= 0.00D+00 IRadAn=         5 IDoV= 1 UseB2=F ITyADJ=14
 ICtDFT=  3500011 ScaDFX=  1.000000  1.000000  1.000000  1.000000
 FoFCou: FMM=F IPFlag=           0 FMFlag=      100000 FMFlg1=           0
         NFxFlg=           0 DoJE=T BraDBF=F KetDBF=T FulRan=T
         wScrn=  0.000000 ICntrl=       500 IOpCl=  0 I1Cent=   200000004 NGrid=           0
         NMat0=    1 NMatS0=      1 NMatT0=    0 NMatD0=    1 NMtDS0=    0 NMtDT0=    0
 Petite list used in FoFCou.
 Keep R1 ints in memory in canonical form, NReq=135806423.
 Requested convergence on RMS density matrix=1.00D-08 within 128 cycles.
 Requested convergence on MAX density matrix=1.00D-06.
 Requested convergence on             energy=1.00D-06.
 No special actions if energy rises.
 SCF Done:  E(RHF) =  -247.030486429     A.U. after   13 cycles
            NFock= 13  Conv=0.64D-08     -V/T= 2.0016
 ExpMin= 2.97D-02 ExpMax= 1.17D+04 ExpMxC= 4.01D+02 IAcc=3 IRadAn=         5 AccDes= 0.00D+00
 HarFok:  IExCor=  205 AccDes= 0.00D+00 IRadAn=         5 IDoV=-2 UseB2=F ITyADJ=14
 ICtDFT= 12500011 ScaDFX=  1.000000  1.000000  1.000000  1.000000
 Range of M.O.s used for correlation:     6   178
 NBasis=   178 NAE=    20 NBE=    20 NFC=     5 NFV=     0
 NROrb=    173 NOA=    15 NOB=    15 NVA=   158 NVB=   158

 **** Warning!!: The largest alpha MO coefficient is  0.43189779D+02

 Fully direct method using O(ONN) memory.
 JobTyp=1 Pass  1:  I=   6 to  20 NPSUse= 40 ParTrn=T ParDer=T DoDerP=T.
 Spin components of T(2) and E(2):
     alpha-alpha T2 =       0.3334778128D-01 E2=     -0.1012844758D+00
     alpha-beta  T2 =       0.1912950223D+00 E2=     -0.6042748052D+00
     beta-beta   T2 =       0.3334778128D-01 E2=     -0.1012844758D+00
 ANorm=    0.1121601794D+01
 E2 =    -0.8068437568D+00 EUMP2 =    -0.24783733018589D+03
          IDoAtm=111111111111
          Differentiating once with respect to electric field.
                with respect to dipole field.
          Differentiating once with respect to nuclear coordinates.
 Keep R1 ints in memory in canonical form, NReq=135815381.
          There are     1 degrees of freedom in the 1st order CPHF.  IDoFFX=0 NUNeed=     1.
 LinEq1:  Iter=  0 NonCon=     1 RMS=4.56D-03 Max=1.03D-01 NDo=     1
 AX will form     1 AO Fock derivatives at one time.
 LinEq1:  Iter=  1 NonCon=     1 RMS=1.35D-03 Max=2.35D-02 NDo=     1
 LinEq1:  Iter=  2 NonCon=     1 RMS=4.83D-04 Max=7.80D-03 NDo=     1
 LinEq1:  Iter=  3 NonCon=     1 RMS=1.68D-04 Max=3.09D-03 NDo=     1
 LinEq1:  Iter=  4 NonCon=     1 RMS=5.02D-05 Max=6.91D-04 NDo=     1
 LinEq1:  Iter=  5 NonCon=     1 RMS=1.42D-05 Max=1.98D-04 NDo=     1
 LinEq1:  Iter=  6 NonCon=     1 RMS=4.24D-06 Max=4.57D-05 NDo=     1
 LinEq1:  Iter=  7 NonCon=     1 RMS=8.60D-07 Max=1.24D-05 NDo=     1
 LinEq1:  Iter=  8 NonCon=     1 RMS=1.95D-07 Max=3.59D-06 NDo=     1
 LinEq1:  Iter=  9 NonCon=     1 RMS=5.72D-08 Max=1.23D-06 NDo=     1
 LinEq1:  Iter= 10 NonCon=     1 RMS=1.61D-08 Max=1.40D-07 NDo=     1
 LinEq1:  Iter= 11 NonCon=     1 RMS=4.33D-09 Max=4.20D-08 NDo=     1
 LinEq1:  Iter= 12 NonCon=     1 RMS=9.31D-10 Max=7.18D-09 NDo=     1
 LinEq1:  Iter= 13 NonCon=     1 RMS=2.36D-10 Max=1.75D-09 NDo=     1
 LinEq1:  Iter= 14 NonCon=     0 RMS=5.86D-11 Max=4.69D-10 NDo=     1
 Linear equations converged to 1.000D-10 1.000D-09 after    14 iterations.
 End of Minotr F.D. properties file   721 does not exist.
 End of Minotr F.D. properties file   722 does not exist.
 End of Minotr F.D. properties file   788 does not exist.

 **********************************************************************

            Population analysis using the SCF Density.

 **********************************************************************

 Orbital symmetries:
       Occupied  (A) (A) (A) (A) (A) (A) (A) (A) (A) (A) (A) (A)
                 (A) (A) (A) (A) (A) (A) (A) (A)
       Virtual   (A) (A) (A) (A) (A) (A) (A) (A) (A) (A) (A) (A)
                 (A) (A) (A) (A) (A) (A) (A) (A) (A) (A) (A) (A)
                 (A) (A) (A) (A) (A) (A) (A) (A) (A) (A) (A) (A)
                 (A) (A) (A) (A) (A) (A) (A) (A) (A) (A) (A) (A)
                 (A) (A) (A) (A) (A) (A) (A) (A) (A) (A) (A) (A)
                 (A) (A) (A) (A) (A) (A) (A) (A) (A) (A) (A) (A)
                 (A) (A) (A) (A) (A) (A) (A) (A) (A) (A) (A) (A)
                 (A) (A) (A) (A) (A) (A) (A) (A) (A) (A) (A) (A)
                 (A) (A) (A) (A) (A) (A) (A) (A) (A) (A) (A) (A)
                 (A) (A) (A) (A) (A) (A) (A) (A) (A) (A) (A) (A)
                 (A) (A) (A) (A) (A) (A) (A) (A) (A) (A) (A) (A)
                 (A) (A) (A) (A) (A) (A) (A) (A) (A) (A) (A) (A)
                 (A) (A) (A) (A) (A) (A) (A) (A) (A) (A) (A) (A)
                 (A) (A)
 The electronic state is 1-A.
 Alpha  occ. eigenvalues --  -20.52201 -15.59195 -11.35728 -11.29079 -11.24408
 Alpha  occ. eigenvalues --   -1.37258  -1.23992  -1.01024  -0.95740  -0.79604
 Alpha  occ. eigenvalues --   -0.67476  -0.66635  -0.64038  -0.58370  -0.57683
 Alpha  occ. eigenvalues --   -0.56181  -0.55099  -0.50996  -0.41696  -0.38938
 Alpha virt. eigenvalues --    0.02763   0.04260   0.04512   0.05144   0.06772
 Alpha virt. eigenvalues --    0.07209   0.08176   0.09894   0.12617   0.12833
 Alpha virt. eigenvalues --    0.14018   0.14903   0.15188   0.15412   0.15793
 Alpha virt. eigenvalues --    0.17422   0.18073   0.18528   0.20153   0.21232
 Alpha virt. eigenvalues --    0.22559   0.22828   0.26133   0.26564   0.28960
 Alpha virt. eigenvalues --    0.30006   0.32178   0.33191   0.33980   0.34801
 Alpha virt. eigenvalues --    0.36030   0.36268   0.38282   0.39109   0.40260
 Alpha virt. eigenvalues --    0.41369   0.41798   0.43448   0.44929   0.45487
 Alpha virt. eigenvalues --    0.46204   0.47536   0.47798   0.49429   0.52547
 Alpha virt. eigenvalues --    0.53052   0.54579   0.54732   0.57988   0.58789
 Alpha virt. eigenvalues --    0.59425   0.60225   0.61048   0.61923   0.63176
 Alpha virt. eigenvalues --    0.64469   0.64493   0.65383   0.68332   0.68459
 Alpha virt. eigenvalues --    0.69170   0.71141   0.72142   0.72829   0.74455
 Alpha virt. eigenvalues --    0.75633   0.77937   0.80212   0.82027   0.83017
 Alpha virt. eigenvalues --    0.85043   0.85392   0.86749   0.88681   0.95348
 Alpha virt. eigenvalues --    0.99151   0.99706   1.01126   1.02991   1.04361
 Alpha virt. eigenvalues --    1.05657   1.09184   1.12392   1.13409   1.13702
 Alpha virt. eigenvalues --    1.14903   1.20782   1.22118   1.27682   1.28522
 Alpha virt. eigenvalues --    1.37500   1.38560   1.41230   1.42625   1.44432
 Alpha virt. eigenvalues --    1.49156   1.52361   1.58538   1.59795   1.61589
 Alpha virt. eigenvalues --    1.64974   1.71939   1.73870   1.74686   1.75880
 Alpha virt. eigenvalues --    1.78031   1.83759   1.85876   1.89312   1.91192
 Alpha virt. eigenvalues --    1.92586   1.92986   2.03116   2.04392   2.06320
 Alpha virt. eigenvalues --    2.07683   2.09001   2.12420   2.18561   2.19570
 Alpha virt. eigenvalues --    2.23930   2.24937   2.29511   2.30041   2.30612
 Alpha virt. eigenvalues --    2.33953   2.34570   2.37400   2.41482   2.44437
 Alpha virt. eigenvalues --    2.50296   2.54683   2.57720   2.59519   2.64735
 Alpha virt. eigenvalues --    2.65285   2.68656   2.70799   2.78312   2.79638
 Alpha virt. eigenvalues --    2.84528   2.89488   2.92106   2.97082   2.97993
 Alpha virt. eigenvalues --    3.03077   3.03295   3.06987   3.16029   3.20765
 Alpha virt. eigenvalues --    3.33413   3.52863   3.69520   3.79565   3.84110
 Alpha virt. eigenvalues --    3.88376   4.03815   4.18707
          Condensed to atoms (all electrons):
               1          2          3          4          5          6
     1  C    4.657734   0.299406   0.363906   0.267680  -0.026392  -0.027641
     2  O    0.299406   8.659073  -0.130701  -0.019318   0.020810  -0.001400
     3  N    0.363906  -0.130701   6.835127  -0.064095   0.038803  -0.021335
     4  C    0.267680  -0.019318  -0.064095   4.620746   0.374722   0.333274
     5  H   -0.026392   0.020810   0.038803   0.374722   1.025963  -0.128410
     6  H   -0.027641  -0.001400  -0.021335   0.333274  -0.128410   0.759289
     7  H   -0.027769  -0.001405  -0.021281   0.333336  -0.128342  -0.066986
     8  C   -0.038711   0.011581   0.197773  -0.025988  -0.019495   0.007647
     9  H   -0.191416  -0.041851   0.396242   0.013543   0.003078   0.000900
    10  H   -0.042845   0.001241  -0.139031   0.042782  -0.003594   0.016891
    11  H    0.002690   0.000673  -0.025380   0.006926   0.000962  -0.008772
    12  H    0.002680   0.000674  -0.025463   0.006943   0.000962   0.000493
               7          8          9         10         11         12
     1  C   -0.027769  -0.038711  -0.191416  -0.042845   0.002690   0.002680
     2  O   -0.001405   0.011581  -0.041851   0.001241   0.000673   0.000674
     3  N   -0.021281   0.197773   0.396242  -0.139031  -0.025380  -0.025463
     4  C    0.333336  -0.025988   0.013543   0.042782   0.006926   0.006943
     5  H   -0.128342  -0.019495   0.003078  -0.003594   0.000962   0.000962
     6  H   -0.066986   0.007647   0.000900   0.016891  -0.008772   0.000493
     7  H    0.759190   0.007659   0.000883   0.016927   0.000480  -0.008766
     8  C    0.007659   4.106458  -0.123204   0.463557   0.345998   0.346050
     9  H    0.000883  -0.123204   1.130094   0.017103  -0.013182  -0.013184
    10  H    0.016927   0.463557   0.017103   1.038915  -0.105813  -0.105923
    11  H    0.000480   0.345998  -0.013182  -0.105813   0.943037  -0.086994
    12  H   -0.008766   0.346050  -0.013184  -0.105923  -0.086994   0.943198
 Mulliken charges:
               1
     1  C    0.760679
     2  O   -0.798784
     3  N   -0.404567
     4  C    0.109450
     5  H   -0.159068
     6  H    0.136049
     7  H    0.136075
     8  C    0.720675
     9  H   -0.179007
    10  H   -0.200210
    11  H   -0.060624
    12  H   -0.060669
 Sum of Mulliken charges =  -0.00000
 Mulliken charges with hydrogens summed into heavy atoms:
               1
     1  C    0.760679
     2  O   -0.798784
     3  N   -0.583574
     4  C    0.222506
     8  C    0.399172
 Electronic spatial extent (au):  <R**2>=            450.1488
 Charge=             -0.0000 electrons
 Dipole moment (field-independent basis, Debye):
    X=             -4.4400    Y=              1.8363    Z=              0.0000  Tot=              4.8047
 Quadrupole moment (field-independent basis, Debye-Ang):
   XX=            -35.5741   YY=            -29.6222   ZZ=            -31.3572
   XY=              5.0123   XZ=              0.0001   YZ=             -0.0003
 Traceless Quadrupole moment (field-independent basis, Debye-Ang):
   XX=             -3.3896   YY=              2.5623   ZZ=              0.8273
   XY=              5.0123   XZ=              0.0001   YZ=             -0.0003
 Octapole moment (field-independent basis, Debye-Ang**2):
  XXX=            -14.4160  YYY=             -5.9306  ZZZ=              0.0005  XYY=             -4.8595
  XXY=              5.9076  XXZ=              0.0006  XZZ=             -0.1576  YZZ=             -0.2075
  YYZ=              0.0007  XYZ=              0.0006
 Hexadecapole moment (field-independent basis, Debye-Ang**3):
 XXXX=           -375.6938 YYYY=           -175.6634 ZZZZ=            -44.2955 XXXY=             13.8736
 XXXZ=             -0.0069 YYYX=              6.3259 YYYZ=             -0.0110 ZZZX=             -0.0105
 ZZZY=             -0.0086 XXYY=            -90.8066 XXZZ=            -65.9489 YYZZ=            -37.7810
 XXYZ=             -0.0019 YYXZ=             -0.0016 ZZXY=             -0.1529
 N-N= 1.802762093806D+02 E-N=-9.393345894140D+02  KE= 2.466280179492D+02
 Calling FoFJK, ICntrl=  10002127 FMM=F ISym2X=0 I1Cent= 0 IOpClX= 0 NMat=1 NMatS=1 NMatT=0.
 ***** Axes restored to original set *****
 -------------------------------------------------------------------
 Center     Atomic                   Forces (Hartrees/Bohr)
 Number     Number              X              Y              Z
 -------------------------------------------------------------------
      1        6           0.013994334    0.002476628   -0.000058382
      2        8          -0.004878523    0.007047655    0.000017801
      3        7           0.012120474   -0.029144963    0.000015630
      4        6           0.007203152    0.005099358    0.000020373
      5        1          -0.000117489   -0.000020703    0.000001985
      6        1           0.002861290    0.001778639   -0.000968901
      7        1           0.002871123    0.001776899    0.000968003
      8        6          -0.002823313   -0.011622886    0.000006380
      9        1          -0.029458477    0.013156922    0.000002234
     10        1          -0.006418715    0.008004079   -0.000003490
     11        1           0.002323604    0.000724622    0.004818850
     12        1           0.002322540    0.000723751   -0.004820484
 -------------------------------------------------------------------
 Cartesian Forces:  Max     0.029458477 RMS     0.008695223

 GradGradGradGradGradGradGradGradGradGradGradGradGradGradGradGradGradGrad
 Berny optimization.
 FormGI is forming the generalized inverse of G from B-inverse, IUseBI=4.
 Internal  Forces:  Max     0.029767685 RMS     0.008922228
 Search for a local minimum.
 Step number   1 out of a maximum of   55
 All quantities printed in internal units (Hartrees-Bohrs-Radians)
 Mixed Optimization -- RFO/linear search
 Second derivative matrix not updated -- first step.
 ITU=  0
     Eigenvalues ---    0.00636   0.00880   0.01322   0.01529   0.02367
     Eigenvalues ---    0.06804   0.07366   0.07533   0.07598   0.16000
     Eigenvalues ---    0.16000   0.16000   0.16000   0.16000   0.16000
     Eigenvalues ---    0.16000   0.22000   0.25000   0.25000   0.31367
     Eigenvalues ---    0.32555   0.32555   0.33244   0.33671   0.33671
     Eigenvalues ---    0.34136   0.36798   0.50521   0.55244   0.90855
 RFO step:  Lambda=-1.14739936D-02 EMin= 6.35802562D-03
 Linear search not attempted -- first point.
 Iteration  1 RMS(Cart)=  0.10355641 RMS(Int)=  0.00312328
 Iteration  2 RMS(Cart)=  0.00379842 RMS(Int)=  0.00026027
 Iteration  3 RMS(Cart)=  0.00000962 RMS(Int)=  0.00026015
 Iteration  4 RMS(Cart)=  0.00000000 RMS(Int)=  0.00026015
 Variable       Old X    -DE/DX   Delta X   Delta X   Delta X     New X
                                 (Linear)    (Quad)   (Total)
    R1        2.32541   0.00845   0.00000   0.00918   0.00918   2.33459
    R2        2.54916   0.02692   0.00000   0.04775   0.04775   2.59690
    R3        2.85318   0.01122   0.00000   0.03452   0.03452   2.88770
    R4        2.76152   0.00050   0.00000   0.00132   0.00132   2.76283
    R5        1.86044   0.02977   0.00000   0.05761   0.05761   1.91805
    R6        2.07101  -0.00008   0.00000  -0.00021  -0.00021   2.07080
    R7        2.07889   0.00054   0.00000   0.00154   0.00154   2.08043
    R8        2.07889   0.00054   0.00000   0.00156   0.00156   2.08044
    R9        2.08625  -0.00728   0.00000  -0.02116  -0.02116   2.06509
   R10        2.09840  -0.00506   0.00000  -0.01500  -0.01500   2.08340
   R11        2.09840  -0.00506   0.00000  -0.01501  -0.01501   2.08340
    A1        2.15941  -0.01517   0.00000  -0.05802  -0.05802   2.10139
    A2        2.17040  -0.01178   0.00000  -0.04505  -0.04505   2.12535
    A3        1.95337   0.02695   0.00000   0.10307   0.10307   2.05645
    A4        2.25099   0.00462   0.00000   0.01994   0.01994   2.27093
    A5        2.09440  -0.01388   0.00000  -0.07746  -0.07746   2.01693
    A6        1.93780   0.00927   0.00000   0.05752   0.05752   1.99532
    A7        1.91466  -0.00238   0.00000  -0.02048  -0.02038   1.89429
    A8        1.91028   0.00375   0.00000   0.02510   0.02474   1.93502
    A9        1.91025   0.00377   0.00000   0.02519   0.02483   1.93508
   A10        1.92548  -0.00214   0.00000  -0.01898  -0.01888   1.90660
   A11        1.92547  -0.00215   0.00000  -0.01900  -0.01890   1.90657
   A12        1.87727  -0.00069   0.00000   0.00952   0.00874   1.88601
   A13        2.02617  -0.01224   0.00000  -0.07652  -0.07633   1.94984
   A14        1.90301   0.00454   0.00000   0.02892   0.02859   1.93161
   A15        1.90299   0.00455   0.00000   0.02894   0.02861   1.93160
   A16        1.86821   0.00269   0.00000   0.01081   0.01100   1.87921
   A17        1.86815   0.00269   0.00000   0.01085   0.01103   1.87918
   A18        1.89119  -0.00195   0.00000  -0.00023  -0.00106   1.89013
    D1        3.14157   0.00001   0.00000   0.00037   0.00037  -3.14125
    D2        0.00000   0.00001   0.00000   0.00027   0.00027   0.00027
    D3        0.00040  -0.00001   0.00000  -0.00036  -0.00036   0.00003
    D4       -3.14117  -0.00001   0.00000  -0.00047  -0.00046   3.14155
    D5        0.00009  -0.00001   0.00000  -0.00035  -0.00035  -0.00026
    D6       -2.11485   0.00177   0.00000   0.02010   0.02045  -2.09439
    D7        2.11500  -0.00178   0.00000  -0.02077  -0.02112   2.09388
    D8        3.14126   0.00001   0.00000   0.00039   0.00039  -3.14154
    D9        1.02632   0.00178   0.00000   0.02084   0.02120   1.04751
   D10       -1.02702  -0.00176   0.00000  -0.02003  -0.02038  -1.04740
   D11        0.00010  -0.00000   0.00000  -0.00004  -0.00004   0.00006
   D12       -2.11068   0.00144   0.00000   0.01650   0.01690  -2.09378
   D13        2.11079  -0.00144   0.00000  -0.01652  -0.01693   2.09386
   D14       -3.14152   0.00000   0.00000   0.00005   0.00006  -3.14146
   D15        1.03089   0.00145   0.00000   0.01660   0.01700   1.04789
   D16       -1.03083  -0.00144   0.00000  -0.01643  -0.01683  -1.04766
         Item               Value     Threshold  Converged?
 Maximum Force            0.029768     0.000450     NO 
 RMS     Force            0.008922     0.000300     NO 
 Maximum Displacement     0.263054     0.001800     NO 
 RMS     Displacement     0.103861     0.001200     NO 
 Predicted change in Energy=-6.012345D-03
 GradGradGradGradGradGradGradGradGradGradGradGradGradGradGradGradGradGrad

                          Input orientation:                          
 ---------------------------------------------------------------------
 Center     Atomic      Atomic             Coordinates (Angstroms)
 Number     Number       Type             X           Y           Z
 ---------------------------------------------------------------------
      1          6           0        0.762424    0.059391   -0.000123
      2          8           0        0.211025    1.164926    0.000106
      3          7           0        0.012137   -1.091937    0.000042
      4          6           0        2.284081   -0.080843   -0.000175
      5          1           0        2.726296    0.921785   -0.000250
      6          1           0        2.627386   -0.628833   -0.891167
      7          1           0        2.627518   -0.628726    0.890841
      8          6           0        0.434564   -2.491608    0.000223
      9          1           0       -0.994100   -0.958939    0.000109
     10          1           0        1.523328   -2.585401    0.000279
     11          1           0        0.053784   -3.013195   -0.893324
     12          1           0        0.053737   -3.012976    0.893879
 ---------------------------------------------------------------------
                    Distance matrix (angstroms):
                    1          2          3          4          5
     1  C    0.000000
     2  O    1.235414   0.000000
     3  N    1.374223   2.265610   0.000000
     4  C    1.528106   2.418575   2.486774   0.000000
     5  H    2.144882   2.526996   3.379606   1.095818   0.000000
     6  H    2.178462   3.138589   2.801473   1.100917   1.791070
     7  H    2.178509   3.138477   2.801483   1.100924   1.791057
     8  C    2.571981   3.663360   1.462027   3.038503   4.111361
     9  H    2.030362   2.441951   1.014988   3.393747   4.168749
    10  H    2.752072   3.973297   2.124649   2.617548   3.707760
    11  H    3.277311   4.275470   2.119215   3.790862   4.839832
    12  H    3.277334   4.275329   2.119214   3.790933   4.839875
                    6          7          8          9         10
     6  H    0.000000
     7  H    1.782008   0.000000
     8  C    3.012138   3.012073   0.000000
     9  H    3.744129   3.744137   2.095269   0.000000
    10  H    2.416977   2.416799   1.092797   2.997135   0.000000
    11  H    3.508364   3.936122   1.102485   2.473106   1.772314
    12  H    3.936267   3.508420   1.102486   2.473026   1.772298
                   11         12
    11  H    0.000000
    12  H    1.787203   0.000000
 Stoichiometry    C3H7NO
 Framework group  C1[X(C3H7NO)]
 Deg. of freedom    30
 Full point group                 C1      NOp   1
 Largest Abelian subgroup         C1      NOp   1
 Largest concise Abelian subgroup C1      NOp   1
                         Standard orientation:                         
 ---------------------------------------------------------------------
 Center     Atomic      Atomic             Coordinates (Angstroms)
 Number     Number       Type             X           Y           Z
 ---------------------------------------------------------------------
      1          6           0        0.619748   -0.169116    0.000150
      2          8           0        1.565703   -0.963733   -0.000079
      3          7           0       -0.675101   -0.629392   -0.000016
      4          6           0        0.839205    1.343149    0.000201
      5          1           0        1.917441    1.538663    0.000277
      6          1           0        0.386681    1.805072    0.891194
      7          1           0        0.386816    1.805175   -0.890815
      8          6           0       -1.937196    0.108605   -0.000196
      9          1           0       -0.781075   -1.638832   -0.000082
     10          1           0       -1.773806    1.189118   -0.000253
     11          1           0       -2.533360   -0.139658    0.893351
     12          1           0       -2.533158   -0.139754   -0.893852
 ---------------------------------------------------------------------
 Rotational constants (GHZ):           8.6554393           3.9632456           2.8157084
 Standard basis: Aug-CC-pVDZ (5D, 7F)
 There are   188 symmetry adapted cartesian basis functions of A   symmetry.
 There are   178 symmetry adapted basis functions of A   symmetry.
   178 basis functions,   292 primitive gaussians,   188 cartesian basis functions
    20 alpha electrons       20 beta electrons
       nuclear repulsion energy       178.0791349662 Hartrees.
 NAtoms=   12 NActive=   12 NUniq=   12 SFac= 1.00D+00 NAtFMM=   60 NAOKFM=F Big=F
 Integral buffers will be    131072 words long.
 Raffenetti 1 integral format.
 Two-electron integral symmetry is turned on.
 One-electron integrals computed using PRISM.
 NBasis=   178 RedAO= T EigKep=  5.19D-05  NBF=   178
 NBsUse=   178 1.00D-06 EigRej= -1.00D+00 NBFU=   178
 Initial guess from the checkpoint file:  "/scr/Gau-50251.chk"
 B after Tr=     0.000000    0.000000    0.000000
         Rot=    0.998905    0.000007    0.000002    0.046784 Ang=   5.36 deg.
 ExpMin= 2.97D-02 ExpMax= 1.17D+04 ExpMxC= 4.01D+02 IAcc=3 IRadAn=         5 AccDes= 0.00D+00
 Harris functional with IExCor=  205 and IRadAn=       5 diagonalized for initial guess.
 HarFok:  IExCor=  205 AccDes= 0.00D+00 IRadAn=         5 IDoV= 1 UseB2=F ITyADJ=14
 ICtDFT=  3500011 ScaDFX=  1.000000  1.000000  1.000000  1.000000
 FoFCou: FMM=F IPFlag=           0 FMFlag=      100000 FMFlg1=           0
         NFxFlg=           0 DoJE=T BraDBF=F KetDBF=T FulRan=T
         wScrn=  0.000000 ICntrl=       500 IOpCl=  0 I1Cent=   200000004 NGrid=           0
         NMat0=    1 NMatS0=      1 NMatT0=    0 NMatD0=    1 NMtDS0=    0 NMtDT0=    0
 Petite list used in FoFCou.
 Keep R1 ints in memory in canonical form, NReq=135803532.
 Requested convergence on RMS density matrix=1.00D-08 within 128 cycles.
 Requested convergence on MAX density matrix=1.00D-06.
 Requested convergence on             energy=1.00D-06.
 No special actions if energy rises.
 SCF Done:  E(RHF) =  -247.034988064     A.U. after   12 cycles
            NFock= 12  Conv=0.32D-08     -V/T= 2.0023
 ExpMin= 2.97D-02 ExpMax= 1.17D+04 ExpMxC= 4.01D+02 IAcc=3 IRadAn=         5 AccDes= 0.00D+00
 HarFok:  IExCor=  205 AccDes= 0.00D+00 IRadAn=         5 IDoV=-2 UseB2=F ITyADJ=14
 ICtDFT= 12500011 ScaDFX=  1.000000  1.000000  1.000000  1.000000
 Range of M.O.s used for correlation:     6   178
 NBasis=   178 NAE=    20 NBE=    20 NFC=     5 NFV=     0
 NROrb=    173 NOA=    15 NOB=    15 NVA=   158 NVB=   158

 **** Warning!!: The largest alpha MO coefficient is  0.41772065D+02

 Fully direct method using O(ONN) memory.
 JobTyp=1 Pass  1:  I=   6 to  20 NPSUse= 40 ParTrn=T ParDer=T DoDerP=T.
 Spin components of T(2) and E(2):
     alpha-alpha T2 =       0.3353760147D-01 E2=     -0.1011993707D+00
     alpha-beta  T2 =       0.1928061783D+00 E2=     -0.6052719651D+00
     beta-beta   T2 =       0.3353760147D-01 E2=     -0.1011993707D+00
 ANorm=    0.1122444378D+01
 E2 =    -0.8076707066D+00 EUMP2 =    -0.24784265877017D+03
          IDoAtm=111111111111
          Differentiating once with respect to electric field.
                with respect to dipole field.
          Differentiating once with respect to nuclear coordinates.
 Keep R1 ints in memory in canonical form, NReq=135813657.
          There are     1 degrees of freedom in the 1st order CPHF.  IDoFFX=0 NUNeed=     1.
 LinEq1:  Iter=  0 NonCon=     1 RMS=4.62D-03 Max=1.05D-01 NDo=     1
 AX will form     1 AO Fock derivatives at one time.
 LinEq1:  Iter=  1 NonCon=     1 RMS=1.39D-03 Max=2.43D-02 NDo=     1
 LinEq1:  Iter=  2 NonCon=     1 RMS=5.01D-04 Max=8.05D-03 NDo=     1
 LinEq1:  Iter=  3 NonCon=     1 RMS=1.76D-04 Max=3.23D-03 NDo=     1
 LinEq1:  Iter=  4 NonCon=     1 RMS=5.34D-05 Max=6.46D-04 NDo=     1
 LinEq1:  Iter=  5 NonCon=     1 RMS=1.61D-05 Max=2.28D-04 NDo=     1
 LinEq1:  Iter=  6 NonCon=     1 RMS=4.59D-06 Max=4.92D-05 NDo=     1
 LinEq1:  Iter=  7 NonCon=     1 RMS=8.68D-07 Max=7.40D-06 NDo=     1
 LinEq1:  Iter=  8 NonCon=     1 RMS=1.75D-07 Max=2.19D-06 NDo=     1
 LinEq1:  Iter=  9 NonCon=     1 RMS=5.47D-08 Max=1.21D-06 NDo=     1
 LinEq1:  Iter= 10 NonCon=     1 RMS=1.81D-08 Max=2.31D-07 NDo=     1
 LinEq1:  Iter= 11 NonCon=     1 RMS=4.81D-09 Max=5.76D-08 NDo=     1
 LinEq1:  Iter= 12 NonCon=     1 RMS=1.04D-09 Max=9.63D-09 NDo=     1
 LinEq1:  Iter= 13 NonCon=     1 RMS=2.45D-10 Max=1.85D-09 NDo=     1
 LinEq1:  Iter= 14 NonCon=     0 RMS=6.26D-11 Max=5.32D-10 NDo=     1
 Linear equations converged to 1.000D-10 1.000D-09 after    14 iterations.
 End of Minotr F.D. properties file   721 does not exist.
 End of Minotr F.D. properties file   722 does not exist.
 End of Minotr F.D. properties file   788 does not exist.
 Calling FoFJK, ICntrl=  10002127 FMM=F ISym2X=0 I1Cent= 0 IOpClX= 0 NMat=1 NMatS=1 NMatT=0.
 ***** Axes restored to original set *****
 -------------------------------------------------------------------
 Center     Atomic                   Forces (Hartrees/Bohr)
 Number     Number              X              Y              Z
 -------------------------------------------------------------------
      1        6           0.003047427   -0.000876129    0.000049652
      2        8          -0.000961007    0.003576332   -0.000019801
      3        7          -0.000140311   -0.010945421   -0.000008613
      4        6          -0.004600536   -0.003690527   -0.000011263
      5        1          -0.001697627    0.000606377   -0.000001439
      6        1           0.000194627   -0.000465924   -0.000430537
      7        1           0.000183943   -0.000464123    0.000427741
      8        6          -0.000629377    0.001258221   -0.000005666
      9        1           0.000973272    0.006977988    0.000001563
     10        1           0.003187955    0.002916238   -0.000001574
     11        1           0.000221890    0.000551753    0.000117271
     12        1           0.000219742    0.000555216   -0.000117333
 -------------------------------------------------------------------
 Cartesian Forces:  Max     0.010945421 RMS     0.002653741

 GradGradGradGradGradGradGradGradGradGradGradGradGradGradGradGradGradGrad
 Berny optimization.
 Using GEDIIS/GDIIS optimizer.
 FormGI is forming the generalized inverse of G from B-inverse, IUseBI=4.
 Internal  Forces:  Max     0.010622869 RMS     0.002898351
 Search for a local minimum.
 Step number   2 out of a maximum of   55
 All quantities printed in internal units (Hartrees-Bohrs-Radians)
 Mixed Optimization -- RFO/linear search
 Update second derivatives using D2CorX and points    1    2
 DE= -5.33D-03 DEPred=-6.01D-03 R= 8.86D-01
 TightC=F SS=  1.41D+00  RLast= 2.16D-01 DXNew= 5.0454D-01 6.4706D-01
 Trust test= 8.86D-01 RLast= 2.16D-01 DXMaxT set to 5.05D-01
 ITU=  1  0
 Use linear search instead of GDIIS.
     Eigenvalues ---    0.00636   0.00880   0.01316   0.01482   0.02367
     Eigenvalues ---    0.07127   0.07251   0.07294   0.07449   0.12650
     Eigenvalues ---    0.16000   0.16000   0.16000   0.16000   0.16000
     Eigenvalues ---    0.16129   0.22069   0.24997   0.28956   0.32359
     Eigenvalues ---    0.32555   0.32750   0.33655   0.33671   0.34136
     Eigenvalues ---    0.35144   0.37553   0.51008   0.58125   0.90486
 RFO step:  Lambda=-1.66197928D-03 EMin= 6.35802573D-03
 Quartic linear search produced a step of -0.02328.
 Iteration  1 RMS(Cart)=  0.04119959 RMS(Int)=  0.00077575
 Iteration  2 RMS(Cart)=  0.00082439 RMS(Int)=  0.00003544
 Iteration  3 RMS(Cart)=  0.00000028 RMS(Int)=  0.00003544
 Variable       Old X    -DE/DX   Delta X   Delta X   Delta X     New X
                                 (Linear)    (Quad)   (Total)
    R1        2.33459   0.00363  -0.00021   0.00539   0.00517   2.33977
    R2        2.59690  -0.00319  -0.00111   0.00213   0.00102   2.59793
    R3        2.88770  -0.00553  -0.00080  -0.01153  -0.01233   2.87537
    R4        2.76283  -0.00419  -0.00003  -0.01084  -0.01087   2.75196
    R5        1.91805  -0.00005  -0.00134   0.00925   0.00791   1.92596
    R6        2.07080  -0.00013   0.00000  -0.00040  -0.00040   2.07040
    R7        2.08043   0.00064  -0.00004   0.00210   0.00206   2.08249
    R8        2.08044   0.00063  -0.00004   0.00208   0.00204   2.08249
    R9        2.06509   0.00293   0.00049   0.00513   0.00562   2.07071
   R10        2.08340  -0.00043   0.00035  -0.00371  -0.00336   2.08003
   R11        2.08340  -0.00043   0.00035  -0.00371  -0.00337   2.08003
    A1        2.10139   0.00435   0.00135   0.00752   0.00887   2.11026
    A2        2.12535   0.00263   0.00105   0.00295   0.00400   2.12935
    A3        2.05645  -0.00697  -0.00240  -0.01047  -0.01287   2.04358
    A4        2.27093  -0.00773  -0.00046  -0.03083  -0.03130   2.23963
    A5        2.01693  -0.00289   0.00180  -0.03607  -0.03427   1.98267
    A6        1.99532   0.01062  -0.00134   0.06690   0.06556   2.06088
    A7        1.89429  -0.00272   0.00047  -0.02083  -0.02035   1.87393
    A8        1.93502   0.00046  -0.00058   0.00726   0.00666   1.94168
    A9        1.93508   0.00044  -0.00058   0.00717   0.00657   1.94165
   A10        1.90660   0.00097   0.00044   0.00172   0.00216   1.90877
   A11        1.90657   0.00097   0.00044   0.00174   0.00218   1.90875
   A12        1.88601  -0.00007  -0.00020   0.00305   0.00280   1.88881
   A13        1.94984  -0.00479   0.00178  -0.04412  -0.04241   1.90743
   A14        1.93161   0.00051  -0.00067   0.00916   0.00840   1.94000
   A15        1.93160   0.00051  -0.00067   0.00913   0.00836   1.93996
   A16        1.87921   0.00169  -0.00026   0.00898   0.00866   1.88786
   A17        1.87918   0.00169  -0.00026   0.00900   0.00868   1.88786
   A18        1.89013   0.00058   0.00002   0.00924   0.00914   1.89926
    D1       -3.14125  -0.00001  -0.00001  -0.00056  -0.00056   3.14137
    D2        0.00027  -0.00001  -0.00001  -0.00052  -0.00053  -0.00026
    D3        0.00003   0.00000   0.00001   0.00024   0.00025   0.00029
    D4        3.14155   0.00000   0.00001   0.00028   0.00029  -3.14134
    D5       -0.00026   0.00001   0.00001   0.00039   0.00040   0.00014
    D6       -2.09439   0.00026  -0.00048   0.00706   0.00660  -2.08779
    D7        2.09388  -0.00025   0.00049  -0.00631  -0.00584   2.08804
    D8       -3.14154  -0.00001  -0.00001  -0.00042  -0.00043   3.14122
    D9        1.04751   0.00025  -0.00049   0.00625   0.00577   1.05329
   D10       -1.04740  -0.00026   0.00047  -0.00713  -0.00667  -1.05407
   D11        0.00006   0.00000   0.00000   0.00000   0.00000   0.00006
   D12       -2.09378   0.00070  -0.00039   0.01178   0.01141  -2.08237
   D13        2.09386  -0.00070   0.00039  -0.01177  -0.01139   2.08247
   D14       -3.14146  -0.00000  -0.00000  -0.00003  -0.00003  -3.14149
   D15        1.04789   0.00069  -0.00040   0.01175   0.01137   1.05926
   D16       -1.04766  -0.00070   0.00039  -0.01180  -0.01143  -1.05909
         Item               Value     Threshold  Converged?
 Maximum Force            0.010623     0.000450     NO 
 RMS     Force            0.002898     0.000300     NO 
 Maximum Displacement     0.165180     0.001800     NO 
 RMS     Displacement     0.041220     0.001200     NO 
 Predicted change in Energy=-8.515690D-04
 GradGradGradGradGradGradGradGradGradGradGradGradGradGradGradGradGradGrad

                          Input orientation:                          
 ---------------------------------------------------------------------
 Center     Atomic      Atomic             Coordinates (Angstroms)
 Number     Number       Type             X           Y           Z
 ---------------------------------------------------------------------
      1          6           0        0.753294    0.053329    0.000184
      2          8           0        0.218651    1.170099   -0.000080
      3          7           0       -0.005661   -1.092952    0.000154
      4          6           0        2.265331   -0.116817   -0.000133
      5          1           0        2.707262    0.885705   -0.000454
      6          1           0        2.605252   -0.666270   -0.892869
      7          1           0        2.605636   -0.665851    0.892711
      8          6           0        0.448454   -2.476611    0.000183
      9          1           0       -1.009628   -0.917548    0.000141
     10          1           0        1.544016   -2.497992    0.000300
     11          1           0        0.094880   -3.010733   -0.894944
     12          1           0        0.094693   -3.010714    0.895246
 ---------------------------------------------------------------------
                    Distance matrix (angstroms):
                    1          2          3          4          5
     1  C    0.000000
     2  O    1.238151   0.000000
     3  N    1.374763   2.274141   0.000000
     4  C    1.521581   2.417654   2.471891   0.000000
     5  H    2.123875   2.504808   3.357832   1.095607   0.000000
     6  H    2.178328   3.140889   2.792206   1.102008   1.793164
     7  H    2.178301   3.140937   2.792480   1.102006   1.793153
     8  C    2.548239   3.653943   1.456273   2.978199   4.050603
     9  H    2.012584   2.422176   1.019174   3.371428   4.131221
    10  H    2.671044   3.900190   2.091802   2.488029   3.578065
    11  H    3.259331   4.277319   2.118772   3.726432   4.775656
    12  H    3.259333   4.277402   2.118743   3.726662   4.775969
                    6          7          8          9         10
     6  H    0.000000
     7  H    1.785580   0.000000
     8  C    2.954090   2.954469   0.000000
     9  H    3.732018   3.732313   2.134638   0.000000
    10  H    2.297646   2.297862   1.095770   3.003148   0.000000
    11  H    3.434891   3.872735   1.100706   2.530324   1.778865
    12  H    3.872554   3.435581   1.100705   2.530234   1.778862
                   11         12
    11  H    0.000000
    12  H    1.790191   0.000000
 Stoichiometry    C3H7NO
 Framework group  C1[X(C3H7NO)]
 Deg. of freedom    30
 Full point group                 C1      NOp   1
 Largest Abelian subgroup         C1      NOp   1
 Largest concise Abelian subgroup C1      NOp   1
                         Standard orientation:                         
 ---------------------------------------------------------------------
 Center     Atomic      Atomic             Coordinates (Angstroms)
 Number     Number       Type             X           Y           Z
 ---------------------------------------------------------------------
      1          6           0        0.618324   -0.161975   -0.000135
      2          8           0        1.594403   -0.923741    0.000129
      3          7           0       -0.664083   -0.657359   -0.000105
      4          6           0        0.776503    1.351361    0.000183
      5          1           0        1.850489    1.567942    0.000503
      6          1           0        0.312761    1.801238    0.892918
      7          1           0        0.313253    1.801523   -0.892661
      8          6           0       -1.918112    0.083008   -0.000133
      9          1           0       -0.708134   -1.675581   -0.000092
     10          1           0       -1.703974    1.157651   -0.000251
     11          1           0       -2.515649   -0.147755    0.894994
     12          1           0       -2.515670   -0.147941   -0.895197
 ---------------------------------------------------------------------
 Rotational constants (GHZ):           8.7101562           4.0194158           2.8502060
 Standard basis: Aug-CC-pVDZ (5D, 7F)
 There are   188 symmetry adapted cartesian basis functions of A   symmetry.
 There are   178 symmetry adapted basis functions of A   symmetry.
   178 basis functions,   292 primitive gaussians,   188 cartesian basis functions
    20 alpha electrons       20 beta electrons
       nuclear repulsion energy       178.6618811096 Hartrees.
 NAtoms=   12 NActive=   12 NUniq=   12 SFac= 1.00D+00 NAtFMM=   60 NAOKFM=F Big=F
 Integral buffers will be    131072 words long.
 Raffenetti 1 integral format.
 Two-electron integral symmetry is turned on.
 One-electron integrals computed using PRISM.
 NBasis=   178 RedAO= T EigKep=  5.01D-05  NBF=   178
 NBsUse=   178 1.00D-06 EigRej= -1.00D+00 NBFU=   178
 Initial guess from the checkpoint file:  "/scr/Gau-50251.chk"
 B after Tr=     0.000000   -0.000000   -0.000000
         Rot=    0.999939    0.000010    0.000007   -0.011087 Ang=   1.27 deg.
 ExpMin= 2.97D-02 ExpMax= 1.17D+04 ExpMxC= 4.01D+02 IAcc=3 IRadAn=         5 AccDes= 0.00D+00
 Harris functional with IExCor=  205 and IRadAn=       5 diagonalized for initial guess.
 HarFok:  IExCor=  205 AccDes= 0.00D+00 IRadAn=         5 IDoV= 1 UseB2=F ITyADJ=14
 ICtDFT=  3500011 ScaDFX=  1.000000  1.000000  1.000000  1.000000
 FoFCou: FMM=F IPFlag=           0 FMFlag=      100000 FMFlg1=           0
         NFxFlg=           0 DoJE=T BraDBF=F KetDBF=T FulRan=T
         wScrn=  0.000000 ICntrl=       500 IOpCl=  0 I1Cent=   200000004 NGrid=           0
         NMat0=    1 NMatS0=      1 NMatT0=    0 NMatD0=    1 NMtDS0=    0 NMtDT0=    0
 Petite list used in FoFCou.
 Keep R1 ints in memory in canonical form, NReq=135805361.
 Requested convergence on RMS density matrix=1.00D-08 within 128 cycles.
 Requested convergence on MAX density matrix=1.00D-06.
 Requested convergence on             energy=1.00D-06.
 No special actions if energy rises.
 SCF Done:  E(RHF) =  -247.035038548     A.U. after   11 cycles
            NFock= 11  Conv=0.33D-08     -V/T= 2.0023
 ExpMin= 2.97D-02 ExpMax= 1.17D+04 ExpMxC= 4.01D+02 IAcc=3 IRadAn=         5 AccDes= 0.00D+00
 HarFok:  IExCor=  205 AccDes= 0.00D+00 IRadAn=         5 IDoV=-2 UseB2=F ITyADJ=14
 ICtDFT= 12500011 ScaDFX=  1.000000  1.000000  1.000000  1.000000
 Range of M.O.s used for correlation:     6   178
 NBasis=   178 NAE=    20 NBE=    20 NFC=     5 NFV=     0
 NROrb=    173 NOA=    15 NOB=    15 NVA=   158 NVB=   158

 **** Warning!!: The largest alpha MO coefficient is  0.42373434D+02

 Fully direct method using O(ONN) memory.
 JobTyp=1 Pass  1:  I=   6 to  20 NPSUse= 40 ParTrn=T ParDer=T DoDerP=T.
 Spin components of T(2) and E(2):
     alpha-alpha T2 =       0.3361356089D-01 E2=     -0.1014045529D+00
     alpha-beta  T2 =       0.1928958341D+00 E2=     -0.6056571269D+00
     beta-beta   T2 =       0.3361356089D-01 E2=     -0.1014045529D+00
 ANorm=    0.1122551984D+01
 E2 =    -0.8084662328D+00 EUMP2 =    -0.24784350478058D+03
          IDoAtm=111111111111
          Differentiating once with respect to electric field.
                with respect to dipole field.
          Differentiating once with respect to nuclear coordinates.
 Keep R1 ints in memory in canonical form, NReq=135814188.
          There are     1 degrees of freedom in the 1st order CPHF.  IDoFFX=0 NUNeed=     1.
 LinEq1:  Iter=  0 NonCon=     1 RMS=4.64D-03 Max=1.05D-01 NDo=     1
 AX will form     1 AO Fock derivatives at one time.
 LinEq1:  Iter=  1 NonCon=     1 RMS=1.39D-03 Max=2.41D-02 NDo=     1
 LinEq1:  Iter=  2 NonCon=     1 RMS=5.06D-04 Max=8.14D-03 NDo=     1
 LinEq1:  Iter=  3 NonCon=     1 RMS=1.77D-04 Max=3.21D-03 NDo=     1
 LinEq1:  Iter=  4 NonCon=     1 RMS=5.43D-05 Max=6.57D-04 NDo=     1
 LinEq1:  Iter=  5 NonCon=     1 RMS=1.63D-05 Max=2.28D-04 NDo=     1
 LinEq1:  Iter=  6 NonCon=     1 RMS=4.68D-06 Max=5.04D-05 NDo=     1
 LinEq1:  Iter=  7 NonCon=     1 RMS=9.04D-07 Max=8.85D-06 NDo=     1
 LinEq1:  Iter=  8 NonCon=     1 RMS=1.88D-07 Max=2.57D-06 NDo=     1
 LinEq1:  Iter=  9 NonCon=     1 RMS=5.91D-08 Max=1.29D-06 NDo=     1
 LinEq1:  Iter= 10 NonCon=     1 RMS=1.90D-08 Max=2.23D-07 NDo=     1
 LinEq1:  Iter= 11 NonCon=     1 RMS=5.03D-09 Max=5.41D-08 NDo=     1
 LinEq1:  Iter= 12 NonCon=     1 RMS=1.08D-09 Max=1.02D-08 NDo=     1
 LinEq1:  Iter= 13 NonCon=     1 RMS=2.57D-10 Max=1.72D-09 NDo=     1
 LinEq1:  Iter= 14 NonCon=     0 RMS=6.53D-11 Max=5.69D-10 NDo=     1
 Linear equations converged to 1.000D-10 1.000D-09 after    14 iterations.
 End of Minotr F.D. properties file   721 does not exist.
 End of Minotr F.D. properties file   722 does not exist.
 End of Minotr F.D. properties file   788 does not exist.
 Calling FoFJK, ICntrl=  10002127 FMM=F ISym2X=0 I1Cent= 0 IOpClX= 0 NMat=1 NMatS=1 NMatT=0.
 ***** Axes restored to original set *****
 -------------------------------------------------------------------
 Center     Atomic                   Forces (Hartrees/Bohr)
 Number     Number              X              Y              Z
 -------------------------------------------------------------------
      1        6           0.000302226   -0.000946838   -0.000071700
      2        8           0.000227857   -0.000707360    0.000026789
      3        7          -0.004556395   -0.000031621    0.000013637
      4        6          -0.000702402   -0.000160881    0.000021578
      5        1           0.000329286    0.000259558    0.000000770
      6        1          -0.000117817    0.000236900    0.000226486
      7        1          -0.000108446    0.000233659   -0.000225078
      8        6           0.001481168    0.002046413    0.000007801
      9        1           0.003421462    0.000339563    0.000000528
     10        1           0.000083660   -0.000893573    0.000000641
     11        1          -0.000181228   -0.000185550   -0.000459711
     12        1          -0.000179372   -0.000190270    0.000458260
 -------------------------------------------------------------------
 Cartesian Forces:  Max     0.004556395 RMS     0.001090459

 GradGradGradGradGradGradGradGradGradGradGradGradGradGradGradGradGradGrad
 Berny optimization.
 Using GEDIIS/GDIIS optimizer.
 FormGI is forming the generalized inverse of G from B-inverse, IUseBI=4.
 Internal  Forces:  Max     0.003311969 RMS     0.000664888
 Search for a local minimum.
 Step number   3 out of a maximum of   55
 All quantities printed in internal units (Hartrees-Bohrs-Radians)
 Mixed Optimization -- En-DIIS/RFO-DIIS
 Update second derivatives using D2CorX and points    1    2    3
 DE= -8.46D-04 DEPred=-8.52D-04 R= 9.93D-01
 TightC=F SS=  1.41D+00  RLast= 1.02D-01 DXNew= 8.4853D-01 3.0748D-01
 Trust test= 9.93D-01 RLast= 1.02D-01 DXMaxT set to 5.05D-01
 ITU=  1  1  0
 Use linear search instead of GDIIS.
     Eigenvalues ---    0.00636   0.00880   0.01319   0.01448   0.02367
     Eigenvalues ---    0.07119   0.07326   0.07521   0.07564   0.11944
     Eigenvalues ---    0.16000   0.16000   0.16000   0.16000   0.16109
     Eigenvalues ---    0.16683   0.21721   0.25000   0.29351   0.32555
     Eigenvalues ---    0.32577   0.32703   0.33671   0.33684   0.34136
     Eigenvalues ---    0.35290   0.37705   0.52275   0.57785   0.90852
 RFO step:  Lambda=-6.15225358D-05 EMin= 6.35802637D-03
 Quartic linear search produced a step of -0.00410.
 Iteration  1 RMS(Cart)=  0.00305066 RMS(Int)=  0.00001034
 Iteration  2 RMS(Cart)=  0.00001129 RMS(Int)=  0.00000121
 Iteration  3 RMS(Cart)=  0.00000000 RMS(Int)=  0.00000121
 Variable       Old X    -DE/DX   Delta X   Delta X   Delta X     New X
                                 (Linear)    (Quad)   (Total)
    R1        2.33977  -0.00074  -0.00002  -0.00062  -0.00064   2.33913
    R2        2.59793  -0.00094  -0.00000  -0.00135  -0.00136   2.59657
    R3        2.87537  -0.00066   0.00005  -0.00213  -0.00208   2.87329
    R4        2.75196  -0.00036   0.00004  -0.00122  -0.00117   2.75079
    R5        1.92596  -0.00331  -0.00003  -0.00588  -0.00591   1.92005
    R6        2.07040   0.00037   0.00000   0.00105   0.00105   2.07145
    R7        2.08249  -0.00034  -0.00001  -0.00092  -0.00093   2.08156
    R8        2.08249  -0.00033  -0.00001  -0.00091  -0.00092   2.08157
    R9        2.07071   0.00010  -0.00002   0.00030   0.00027   2.07098
   R10        2.08003   0.00052   0.00001   0.00139   0.00141   2.08144
   R11        2.08003   0.00052   0.00001   0.00140   0.00141   2.08144
    A1        2.11026  -0.00052  -0.00004  -0.00221  -0.00225   2.10801
    A2        2.12935  -0.00029  -0.00002  -0.00133  -0.00134   2.12800
    A3        2.04358   0.00081   0.00005   0.00354   0.00360   2.04717
    A4        2.23963  -0.00064   0.00013  -0.00348  -0.00336   2.23628
    A5        1.98267  -0.00057   0.00014  -0.00538  -0.00524   1.97743
    A6        2.06088   0.00121  -0.00027   0.00886   0.00859   2.06948
    A7        1.87393   0.00028   0.00008   0.00105   0.00114   1.87507
    A8        1.94168  -0.00007  -0.00003  -0.00005  -0.00007   1.94161
    A9        1.94165  -0.00005  -0.00003   0.00006   0.00003   1.94168
   A10        1.90877  -0.00012  -0.00001  -0.00086  -0.00087   1.90789
   A11        1.90875  -0.00012  -0.00001  -0.00087  -0.00088   1.90788
   A12        1.88881   0.00007  -0.00001   0.00062   0.00060   1.88942
   A13        1.90743   0.00141   0.00017   0.00787   0.00804   1.91548
   A14        1.94000  -0.00033  -0.00003  -0.00201  -0.00204   1.93796
   A15        1.93996  -0.00032  -0.00003  -0.00194  -0.00198   1.93798
   A16        1.88786  -0.00042  -0.00004  -0.00153  -0.00156   1.88630
   A17        1.88786  -0.00043  -0.00004  -0.00153  -0.00157   1.88629
   A18        1.89926   0.00007  -0.00004  -0.00088  -0.00092   1.89834
    D1        3.14137   0.00001   0.00000   0.00088   0.00088  -3.14093
    D2       -0.00026   0.00001   0.00000   0.00078   0.00078   0.00052
    D3        0.00029  -0.00001  -0.00000  -0.00062  -0.00062  -0.00033
    D4       -3.14134  -0.00001  -0.00000  -0.00072  -0.00072   3.14112
    D5        0.00014  -0.00001  -0.00000  -0.00068  -0.00068  -0.00054
    D6       -2.08779  -0.00001  -0.00003  -0.00026  -0.00028  -2.08808
    D7        2.08804  -0.00001   0.00002  -0.00105  -0.00102   2.08701
    D8        3.14122   0.00001   0.00000   0.00084   0.00084  -3.14112
    D9        1.05329   0.00001  -0.00002   0.00126   0.00124   1.05452
   D10       -1.05407   0.00001   0.00003   0.00047   0.00050  -1.05357
   D11        0.00006  -0.00000  -0.00000  -0.00003  -0.00003   0.00004
   D12       -2.08237  -0.00018  -0.00005  -0.00193  -0.00198  -2.08435
   D13        2.08247   0.00018   0.00005   0.00191   0.00196   2.08442
   D14       -3.14149   0.00000   0.00000   0.00008   0.00008  -3.14141
   D15        1.05926  -0.00017  -0.00005  -0.00183  -0.00187   1.05739
   D16       -1.05909   0.00018   0.00005   0.00202   0.00206  -1.05702
         Item               Value     Threshold  Converged?
 Maximum Force            0.003312     0.000450     NO 
 RMS     Force            0.000665     0.000300     NO 
 Maximum Displacement     0.011922     0.001800     NO 
 RMS     Displacement     0.003048     0.001200     NO 
 Predicted change in Energy=-3.077576D-05
 GradGradGradGradGradGradGradGradGradGradGradGradGradGradGradGradGradGrad

                          Input orientation:                          
 ---------------------------------------------------------------------
 Center     Atomic      Atomic             Coordinates (Angstroms)
 Number     Number       Type             X           Y           Z
 ---------------------------------------------------------------------
      1          6           0        0.753382    0.050670   -0.000414
      2          8           0        0.218103    1.166761    0.000119
      3          7           0       -0.006951   -1.093836   -0.000024
      4          6           0        2.264671   -0.116263   -0.000172
      5          1           0        2.705917    0.887170   -0.000050
      6          1           0        2.605881   -0.664191   -0.892744
      7          1           0        2.605655   -0.664290    0.892433
      8          6           0        0.449468   -2.476083    0.000221
      9          1           0       -1.006628   -0.912180    0.000228
     10          1           0        1.545019   -2.504300    0.000085
     11          1           0        0.093711   -3.010093   -0.895026
     12          1           0        0.093953   -3.009721    0.895784
 ---------------------------------------------------------------------
                    Distance matrix (angstroms):
                    1          2          3          4          5
     1  C    0.000000
     2  O    1.237814   0.000000
     3  N    1.374045   2.271772   0.000000
     4  C    1.520480   2.415490   2.473038   0.000000
     5  H    2.124176   2.503475   3.359173   1.096164   0.000000
     6  H    2.176931   3.138642   2.794358   1.101514   1.792661
     7  H    2.176984   3.138371   2.794047   1.101521   1.792653
     8  C    2.544964   3.650184   1.455653   2.977199   4.050066
     9  H    2.006170   2.412874   1.016048   3.366732   4.125609
    10  H    2.674801   3.903511   2.097146   2.494118   3.584656
    11  H    3.256342   4.273507   2.117357   3.726671   4.776323
    12  H    3.256380   4.273246   2.117373   3.726507   4.776048
                    6          7          8          9         10
     6  H    0.000000
     7  H    1.785177   0.000000
     8  C    2.954734   2.954282   0.000000
     9  H    3.729493   3.729085   2.136822   0.000000
    10  H    2.304034   2.303665   1.095914   3.007615   0.000000
    11  H    3.437187   3.873972   1.101451   2.532482   1.778578
    12  H    3.874290   3.436525   1.101451   2.532387   1.778572
                   11         12
    11  H    0.000000
    12  H    1.790810   0.000000
 Stoichiometry    C3H7NO
 Framework group  C1[X(C3H7NO)]
 Deg. of freedom    30
 Full point group                 C1      NOp   1
 Largest Abelian subgroup         C1      NOp   1
 Largest concise Abelian subgroup C1      NOp   1
                         Standard orientation:                         
 ---------------------------------------------------------------------
 Center     Atomic      Atomic             Coordinates (Angstroms)
 Number     Number       Type             X           Y           Z
 ---------------------------------------------------------------------
      1          6           0        0.616595   -0.161640    0.000396
      2          8           0        1.591437   -0.924442   -0.000137
      3          7           0       -0.664659   -0.658015    0.000006
      4          6           0        0.778621    1.350183    0.000155
      5          1           0        1.853474    1.565281    0.000033
      6          1           0        0.316905    1.801257    0.892727
      7          1           0        0.316760    1.801058   -0.892450
      8          6           0       -1.916388    0.085018   -0.000238
      9          1           0       -0.702267   -1.673367   -0.000245
     10          1           0       -1.708311    1.160998   -0.000102
     11          1           0       -2.514416   -0.147556    0.895008
     12          1           0       -2.514001   -0.147399   -0.895801
 ---------------------------------------------------------------------
 Rotational constants (GHZ):           8.7119482           4.0256959           2.8535675
 Standard basis: Aug-CC-pVDZ (5D, 7F)
 There are   188 symmetry adapted cartesian basis functions of A   symmetry.
 There are   178 symmetry adapted basis functions of A   symmetry.
   178 basis functions,   292 primitive gaussians,   188 cartesian basis functions
    20 alpha electrons       20 beta electrons
       nuclear repulsion energy       178.7450179598 Hartrees.
 NAtoms=   12 NActive=   12 NUniq=   12 SFac= 1.00D+00 NAtFMM=   60 NAOKFM=F Big=F
 Integral buffers will be    131072 words long.
 Raffenetti 1 integral format.
 Two-electron integral symmetry is turned on.
 One-electron integrals computed using PRISM.
 NBasis=   178 RedAO= T EigKep=  4.97D-05  NBF=   178
 NBsUse=   178 1.00D-06 EigRej= -1.00D+00 NBFU=   178
 Initial guess from the checkpoint file:  "/scr/Gau-50251.chk"
 B after Tr=     0.000000    0.000000    0.000000
         Rot=    1.000000   -0.000005   -0.000004    0.000451 Ang=  -0.05 deg.
 Keep R1 ints in memory in canonical form, NReq=135805361.
 Requested convergence on RMS density matrix=1.00D-08 within 128 cycles.
 Requested convergence on MAX density matrix=1.00D-06.
 Requested convergence on             energy=1.00D-06.
 No special actions if energy rises.
 SCF Done:  E(RHF) =  -247.035298161     A.U. after    9 cycles
            NFock=  9  Conv=0.54D-08     -V/T= 2.0023
 ExpMin= 2.97D-02 ExpMax= 1.17D+04 ExpMxC= 4.01D+02 IAcc=3 IRadAn=         5 AccDes= 0.00D+00
 HarFok:  IExCor=  205 AccDes= 0.00D+00 IRadAn=         5 IDoV=-2 UseB2=F ITyADJ=14
 ICtDFT= 12500011 ScaDFX=  1.000000  1.000000  1.000000  1.000000
 Range of M.O.s used for correlation:     6   178
 NBasis=   178 NAE=    20 NBE=    20 NFC=     5 NFV=     0
 NROrb=    173 NOA=    15 NOB=    15 NVA=   158 NVB=   158

 **** Warning!!: The largest alpha MO coefficient is  0.42345151D+02

 Fully direct method using O(ONN) memory.
 JobTyp=1 Pass  1:  I=   6 to  20 NPSUse= 40 ParTrn=T ParDer=T DoDerP=T.
 Spin components of T(2) and E(2):
     alpha-alpha T2 =       0.3358522739D-01 E2=     -0.1013779938D+00
     alpha-beta  T2 =       0.1927417317D+00 E2=     -0.6054833961D+00
     beta-beta   T2 =       0.3358522739D-01 E2=     -0.1013779938D+00
 ANorm=    0.1122458100D+01
 E2 =    -0.8082393837D+00 EUMP2 =    -0.24784353754491D+03
          IDoAtm=111111111111
          Differentiating once with respect to electric field.
                with respect to dipole field.
          Differentiating once with respect to nuclear coordinates.
 Keep R1 ints in memory in canonical form, NReq=135814365.
          There are     1 degrees of freedom in the 1st order CPHF.  IDoFFX=0 NUNeed=     1.
 LinEq1:  Iter=  0 NonCon=     1 RMS=4.64D-03 Max=1.05D-01 NDo=     1
 AX will form     1 AO Fock derivatives at one time.
 LinEq1:  Iter=  1 NonCon=     1 RMS=1.39D-03 Max=2.40D-02 NDo=     1
 LinEq1:  Iter=  2 NonCon=     1 RMS=5.05D-04 Max=8.13D-03 NDo=     1
 LinEq1:  Iter=  3 NonCon=     1 RMS=1.76D-04 Max=3.19D-03 NDo=     1
 LinEq1:  Iter=  4 NonCon=     1 RMS=5.41D-05 Max=6.55D-04 NDo=     1
 LinEq1:  Iter=  5 NonCon=     1 RMS=1.61D-05 Max=2.27D-04 NDo=     1
 LinEq1:  Iter=  6 NonCon=     1 RMS=4.65D-06 Max=4.99D-05 NDo=     1
 LinEq1:  Iter=  7 NonCon=     1 RMS=8.98D-07 Max=8.76D-06 NDo=     1
 LinEq1:  Iter=  8 NonCon=     1 RMS=1.86D-07 Max=2.56D-06 NDo=     1
 LinEq1:  Iter=  9 NonCon=     1 RMS=5.78D-08 Max=1.26D-06 NDo=     1
 LinEq1:  Iter= 10 NonCon=     1 RMS=1.86D-08 Max=2.17D-07 NDo=     1
 LinEq1:  Iter= 11 NonCon=     1 RMS=4.95D-09 Max=5.36D-08 NDo=     1
 LinEq1:  Iter= 12 NonCon=     1 RMS=1.07D-09 Max=9.80D-09 NDo=     1
 LinEq1:  Iter= 13 NonCon=     1 RMS=2.52D-10 Max=1.67D-09 NDo=     1
 LinEq1:  Iter= 14 NonCon=     0 RMS=6.48D-11 Max=5.57D-10 NDo=     1
 Linear equations converged to 1.000D-10 1.000D-09 after    14 iterations.
 End of Minotr F.D. properties file   721 does not exist.
 End of Minotr F.D. properties file   722 does not exist.
 End of Minotr F.D. properties file   788 does not exist.
 Calling FoFJK, ICntrl=  10002127 FMM=F ISym2X=0 I1Cent= 0 IOpClX= 0 NMat=1 NMatS=1 NMatT=0.
 ***** Axes restored to original set *****
 -------------------------------------------------------------------
 Center     Atomic                   Forces (Hartrees/Bohr)
 Number     Number              X              Y              Z
 -------------------------------------------------------------------
      1        6           0.000249307   -0.000438880    0.000144709
      2        8          -0.000106305    0.000243744   -0.000055133
      3        7          -0.000493035    0.000045365   -0.000027613
      4        6          -0.000209539    0.000132036   -0.000042269
      5        1           0.000032159   -0.000046124   -0.000002891
      6        1           0.000020402   -0.000019418    0.000005191
      7        1          -0.000000959   -0.000015178   -0.000007968
      8        6          -0.000073085    0.000569604   -0.000015032
      9        1           0.000612381   -0.000139558   -0.000000033
     10        1          -0.000074202   -0.000016976   -0.000001217
     11        1           0.000023121   -0.000161210   -0.000043269
     12        1           0.000019756   -0.000153406    0.000045523
 -------------------------------------------------------------------
 Cartesian Forces:  Max     0.000612381 RMS     0.000200518

 GradGradGradGradGradGradGradGradGradGradGradGradGradGradGradGradGradGrad
 Berny optimization.
 Using GEDIIS/GDIIS optimizer.
 FormGI is forming the generalized inverse of G from B-inverse, IUseBI=4.
 Internal  Forces:  Max     0.000627465 RMS     0.000126336
 Search for a local minimum.
 Step number   4 out of a maximum of   55
 All quantities printed in internal units (Hartrees-Bohrs-Radians)
 Mixed Optimization -- En-DIIS/RFO-DIIS
 Swapping is turned off.
 Update second derivatives using D2CorX and points    1    2    3    4
 DE= -3.28D-05 DEPred=-3.08D-05 R= 1.06D+00
 TightC=F SS=  1.41D+00  RLast= 1.69D-02 DXNew= 8.4853D-01 5.0707D-02
 Trust test= 1.06D+00 RLast= 1.69D-02 DXMaxT set to 5.05D-01
 ITU=  1  1  1  0
     Eigenvalues ---    0.00636   0.00880   0.01325   0.01443   0.02367
     Eigenvalues ---    0.07131   0.07395   0.07474   0.07559   0.11959
     Eigenvalues ---    0.15707   0.16000   0.16000   0.16001   0.16056
     Eigenvalues ---    0.17803   0.21435   0.25004   0.29139   0.32343
     Eigenvalues ---    0.32555   0.32669   0.33670   0.33734   0.34203
     Eigenvalues ---    0.35276   0.37958   0.47851   0.57295   0.91630
 En-DIIS/RFO-DIIS/Sim-DIIS IScMMF=       -3 using points:     4    3
 RFO step:  Lambda=-2.49545624D-06.
 DidBck=F Rises=F RFO-DIIS coefs:    1.00402   -0.00402
 Iteration  1 RMS(Cart)=  0.00094891 RMS(Int)=  0.00000091
 Iteration  2 RMS(Cart)=  0.00000119 RMS(Int)=  0.00000044
 Iteration  3 RMS(Cart)=  0.00000000 RMS(Int)=  0.00000044
 Variable       Old X    -DE/DX   Delta X   Delta X   Delta X     New X
                                 (Linear)    (Quad)   (Total)
    R1        2.33913   0.00027  -0.00000   0.00030   0.00030   2.33943
    R2        2.59657  -0.00013  -0.00001  -0.00023  -0.00023   2.59634
    R3        2.87329  -0.00016  -0.00001  -0.00056  -0.00057   2.87272
    R4        2.75079  -0.00026  -0.00000  -0.00078  -0.00078   2.75000
    R5        1.92005  -0.00063  -0.00002  -0.00144  -0.00147   1.91859
    R6        2.07145  -0.00003   0.00000  -0.00006  -0.00005   2.07140
    R7        2.08156   0.00001  -0.00000   0.00001   0.00001   2.08157
    R8        2.08157   0.00000  -0.00000  -0.00003  -0.00003   2.08154
    R9        2.07098  -0.00007   0.00000  -0.00026  -0.00026   2.07072
   R10        2.08144   0.00011   0.00001   0.00037   0.00038   2.08182
   R11        2.08144   0.00010   0.00001   0.00037   0.00038   2.08182
    A1        2.10801   0.00002  -0.00001  -0.00009  -0.00010   2.10791
    A2        2.12800  -0.00001  -0.00001  -0.00013  -0.00014   2.12786
    A3        2.04717  -0.00001   0.00001   0.00022   0.00023   2.04741
    A4        2.23628  -0.00012  -0.00001  -0.00062  -0.00064   2.23564
    A5        1.97743   0.00008  -0.00002   0.00020   0.00018   1.97761
    A6        2.06948   0.00003   0.00003   0.00042   0.00045   2.06993
    A7        1.87507   0.00008   0.00000   0.00061   0.00061   1.87568
    A8        1.94161   0.00001  -0.00000   0.00009   0.00009   1.94170
    A9        1.94168  -0.00002   0.00000  -0.00015  -0.00015   1.94153
   A10        1.90789  -0.00003  -0.00000  -0.00015  -0.00015   1.90774
   A11        1.90788  -0.00002  -0.00000  -0.00011  -0.00012   1.90776
   A12        1.88942  -0.00002   0.00000  -0.00029  -0.00028   1.88913
   A13        1.91548  -0.00004   0.00003  -0.00020  -0.00017   1.91531
   A14        1.93796   0.00016  -0.00001   0.00112   0.00111   1.93906
   A15        1.93798   0.00015  -0.00001   0.00100   0.00099   1.93897
   A16        1.88630  -0.00008  -0.00001  -0.00065  -0.00065   1.88565
   A17        1.88629  -0.00007  -0.00001  -0.00063  -0.00064   1.88565
   A18        1.89834  -0.00013  -0.00000  -0.00073  -0.00074   1.89760
    D1       -3.14093  -0.00003   0.00000  -0.00198  -0.00197   3.14028
    D2        0.00052  -0.00002   0.00000  -0.00175  -0.00174  -0.00122
    D3       -0.00033   0.00001  -0.00000   0.00129   0.00129   0.00095
    D4        3.14112   0.00002  -0.00000   0.00152   0.00152  -3.14055
    D5       -0.00054   0.00002  -0.00000   0.00152   0.00151   0.00097
    D6       -2.08808   0.00000  -0.00000   0.00126   0.00126  -2.08682
    D7        2.08701   0.00004  -0.00000   0.00167   0.00166   2.08868
    D8       -3.14112  -0.00002   0.00000  -0.00179  -0.00179   3.14028
    D9        1.05452  -0.00004   0.00000  -0.00204  -0.00204   1.05249
   D10       -1.05357  -0.00001   0.00000  -0.00164  -0.00164  -1.05521
   D11        0.00004   0.00000  -0.00000   0.00008   0.00008   0.00011
   D12       -2.08435   0.00002  -0.00001   0.00030   0.00030  -2.08405
   D13        2.08442  -0.00002   0.00001  -0.00021  -0.00020   2.08422
   D14       -3.14141  -0.00000   0.00000  -0.00017  -0.00017  -3.14158
   D15        1.05739   0.00002  -0.00001   0.00006   0.00006   1.05744
   D16       -1.05702  -0.00002   0.00001  -0.00045  -0.00044  -1.05747
         Item               Value     Threshold  Converged?
 Maximum Force            0.000627     0.000450     NO 
 RMS     Force            0.000126     0.000300     YES
 Maximum Displacement     0.002422     0.001800     NO 
 RMS     Displacement     0.000949     0.001200     YES
 Predicted change in Energy=-1.247844D-06
 GradGradGradGradGradGradGradGradGradGradGradGradGradGradGradGradGradGrad

                          Input orientation:                          
 ---------------------------------------------------------------------
 Center     Atomic      Atomic             Coordinates (Angstroms)
 Number     Number       Type             X           Y           Z
 ---------------------------------------------------------------------
      1          6           0        0.753287    0.050530    0.000868
      2          8           0        0.218195    1.166886   -0.000375
      3          7           0       -0.007350   -1.093625    0.000381
      4          6           0        2.264259   -0.116506   -0.000081
      5          1           0        2.706197    0.886591   -0.000909
      6          1           0        2.604732   -0.665194   -0.892470
      7          1           0        2.605775   -0.664190    0.892513
      8          6           0        0.449368   -2.475336    0.000138
      9          1           0       -1.006238   -0.911965    0.000090
     10          1           0        1.544795   -2.503029    0.000522
     11          1           0        0.094900   -3.010044   -0.895449
     12          1           0        0.094258   -3.010474    0.895212
 ---------------------------------------------------------------------
                    Distance matrix (angstroms):
                    1          2          3          4          5
     1  C    0.000000
     2  O    1.237972   0.000000
     3  N    1.373921   2.271735   0.000000
     4  C    1.520178   2.415258   2.472847   0.000000
[...]
 462,-0.00073283,-0.00100611,0.00000487,-0.00002556,0.00091938,-0.00001
 038,0.00000245,-0.00015567,-0.00001040,0.00002456,0.00147985,0.0000012
 3,-0.00000136,0.00018911,-0.00000104,0.00000085,0.00005961,0.00008305,
 -0.00007667,-0.00007326,-0.00008353,0.00007825,-0.00007237,-0.00000397
 ,0.00000223,-0.00140764,0.00001942,-0.00000604,-0.00218147,0.00106939,
 -0.00013880,-0.00000177,-0.00044418,-0.00053662,-0.00000069,0.01198022
 ,-0.01076843,-0.00000497,0.00172604,0.00146312,0.00000321,-0.00050660,
 0.00017438,-0.00000070,-0.00043251,-0.00065972,0.00041068,-0.00043027,
 -0.00065728,-0.00041125,-2.18663785,0.09674592,0.00027962,-0.00058240,
 -0.00120173,0.00000302,2.15751632,-0.00194326,0.00349522,0.00000184,0.
 00023907,-0.00042894,-0.00000053,0.01576922,-0.00768413,0.00000728,0.0
 0037906,0.00014688,-0.00000935,-0.00020060,-0.00064371,0.00000079,0.00
 021258,-0.00037782,0.00003708,0.00021396,-0.00038026,-0.00003621,0.087
 90009,0.45218416,-0.00000348,0.00029681,-0.00144546,0.00000031,-0.0939
 9855,-0.44211150,0.00000083,0.00000254,-0.00023235,-0.00000041,0.00000
 035,-0.00001921,-0.00000347,-0.00000371,0.00043816,-0.00000115,0.00000
 128,0.00004552,-0.00000041,-0.00000089,0.00000653,-0.00041752,-0.00002
 326,0.00006191,0.00041970,0.00002150,0.00006279,0.00027949,-0.00000385
 ,0.46641701,0.00000154,-0.00000074,0.00047615,-0.00027516,0.00000772,-
 0.45922090,-0.00017020,-0.00046841,0.00110006,0.00000910,0.00012700,-0
 .00014980,0.00122940,0.00115004,-0.00080752,0.00014910,-0.00018104,0.0
 0040884,-0.00007175,0.00000838,-0.00013366,0.00005162,-0.00001977,-0.0
 0016909,-0.00009912,0.00000646,-0.00011124,0.01584463,-0.01489669,-0.0
 2509083,-0.00009922,-0.00024455,-0.00145998,0.00837117,-0.00443323,-0.
 00654418,-0.02944916,-0.00035782,0.00008170,0.00011382,-0.00005042,0.0
 0020985,-0.00005764,0.00159041,0.00043164,-0.00031038,-0.00001899,-0.0
 0015118,-0.00005695,-0.00003342,0.00000648,0.00000534,0.00000288,-0.00
 002211,0.00005238,0.00003857,0.00000614,-0.00003107,-0.02496879,-0.015
 25524,-0.07133422,0.00004723,0.00001920,-0.00000128,0.00479082,-0.0013
 7790,-0.00225335,0.01949352,0.01429633,0.00002116,0.00022896,-0.000113
 64,-0.00004780,0.00001834,-0.00005003,0.00010627,0.00112450,0.00084222
 ,-0.00002181,0.00004248,-0.00013438,-0.00000039,0.00007698,0.00006085,
 0.00000626,-0.00002156,0.00019396,-0.00004207,-0.00006484,-0.00004101,
 -0.04152083,-0.06838380,-0.09513556,-0.00018762,0.00002182,0.00038377,
 0.00690945,-0.00309211,-0.00401861,0.03387155,0.07196498,0.09666603,-0
 .00017424,-0.00046987,-0.00109844,0.00001296,0.00012560,0.00014852,0.0
 0122823,0.00114414,0.00081180,0.00014746,-0.00017913,-0.00040588,-0.00
 007176,0.00000904,0.00013408,-0.00010112,0.00000529,0.00010996,0.00005
 153,-0.00002015,0.00016955,0.01586687,-0.01489102,0.02510684,-0.000096
 11,-0.00024125,0.00145771,0.00837067,-0.00443514,0.00654074,0.00423443
 ,-0.00053398,0.00090584,-0.02946894,-0.00034932,0.00007265,-0.00012267
 ,-0.00005515,0.00021764,0.00006122,0.00159827,0.00043904,0.00030305,-0
 .00002115,-0.00015017,0.00005981,-0.00003266,0.00000686,-0.00000521,0.
 00003827,0.00000497,0.00003166,0.00000077,-0.00002290,-0.00005052,-0.0
 2495622,-0.01519944,0.07136031,0.00004552,0.00001830,0.00000228,0.0047
 8688,-0.00137654,0.00225241,-0.00054171,0.00175508,-0.00191575,0.01948
 649,0.01423451,-0.00001616,-0.00022196,-0.00010954,0.00004800,-0.00001
 989,-0.00005011,-0.00011293,-0.00112806,0.00083965,0.00002161,-0.00004
 218,-0.00013233,0.00000012,-0.00007705,0.00006092,0.00004297,0.0000648
 4,-0.00004064,-0.00000747,0.00002132,0.00019414,0.04154323,0.06840704,
 -0.09526152,0.00018694,-0.00002249,0.00038253,-0.00691144,0.00308666,-
 0.00401701,-0.00091414,0.00190835,0.00134639,-0.03388073,-0.07197659,0
 .09678752,-0.00754593,0.00112607,-0.00700146,-0.00022902,-0.00014840,0
 .00186953,0.00091744,0.00178847,0.00008688,-0.00357238,-0.00129230,0.0
 0139637,0.00002197,0.00051411,-0.00059054,0.00008375,0.00002094,-0.000
 68235,-0.00006071,0.00000648,0.00076181,0.00099970,-0.00327991,0.00009
 184,0.00025298,0.00024588,-0.00004142,-0.00386035,0.00147247,0.0013076
 5,0.00006170,-0.00005658,-0.00008833,0.00002307,0.00093269,-0.00394200
 ,0.00009099,0.00011157,0.00058553,-0.00002638,-0.00001641,0.00022444,-
 0.00001438,-0.00007654,-0.00059070,0.01368969,0.00134045,0.00003013,-0
 .00234840,0.00409096,0.00000893,0.00095491,0.00012195,0.00000711,-0.05
 241557,-0.01755638,-0.01559777,0.00005316,0.00393384,0.00213425,-0.000
 04246,-0.00134386,0.00029128,-0.00000323,0.86890924,1.67056574,0.00007
 345,0.00001470,-0.00708356,-0.00000084,-0.00000163,0.00028495,-0.00001
 699,-0.00002527,0.00006556,-0.00011998,0.00018701,-0.16581299,-0.00712
 644,-0.00147704,0.00000092,0.00396623,-0.00304511,-0.00000433,-0.00046
 138,-0.00093632,0.,0.01671004,-0.93314612,-0.00005091,-0.01163723,0.01
 466795,0.01351745,0.00001145,-0.00352308,-0.00236864,-0.00000727,0.002
 62704,-0.00009033,0.00000230,-0.93664196,-1.64454983,-0.00012028,0.923
 98779,1.62272353,-0.00000155,0.00001685,0.00071686,-0.00000030,-0.0000
 0314,-0.00009938,0.00000166,-0.00000047,0.00019516,-0.00005864,-0.0001
 3322,0.44198080,0.00005347,0.00012285,-0.43545997,-0.00078204,0.000098
 15,-0.00029472,0.00043414,-0.00030978,0.00020293,0.00032979,-0.0001430
 4,-0.00008087,0.01198408,0.04017207,0.07217522,-0.00095368,-0.00113550
 ,0.00021805,-0.01386590,0.00123439,0.00311471,-0.00078115,-0.00124880,
 -0.00020224,0.00000075,0.00031235,-0.00025199,-0.00010204,0.03126594,-
 0.00574144,-0.08235518,0.00708553,0.00521820,-0.00563798,-0.03932385,-
 0.00509351,-0.00155274,0.00086373,0.00240204,-0.00028090,0.00008541,-0
 .00023874,-0.00002686,-0.00023267,-0.00025252,0.06414319,-0.09419021,-
 0.13503225,0.00555596,0.00594559,-0.00375896,-0.07007646,0.08818639,0.
 13643032,-0.00078945,0.00007605,0.00030080,0.00043680,-0.00031035,-0.0
 0019379,0.00031949,-0.00014144,0.00008160,0.01204111,0.04010529,-0.072
 06665,-0.00094808,-0.00113752,-0.00021280,0.00280426,0.00047636,0.0021
 7322,-0.01391558,0.00121693,0.00314055,0.00077370,-0.00125190,-0.00021
 820,-0.00000616,0.00031109,-0.00025949,0.00009981,0.03121129,-0.005744
 47,0.08230103,0.00707024,0.00522037,0.00563420,0.00047494,0.00278657,-
 0.00077069,-0.03923238,-0.00509390,0.00155285,-0.00086892,0.00239754,0
 .00027810,-0.00008247,-0.00023866,0.00003205,0.00023528,-0.00025000,-0
 .06401623,0.09412477,-0.13488002,-0.00555349,-0.00595269,-0.00374543,-
 0.00216562,0.00076402,0.00061680,0.06993980,-0.08810546,0.13626511,0.0
 0015546,0.00082173,-0.00000334,0.00015980,0.00012569,0.00001018,-0.003
 20703,0.00134429,-0.00000866,-0.00002409,0.00071469,-0.00000191,-0.000
 43857,-0.00015247,0.00000037,0.00015970,0.00007660,-0.00032353,0.00015
 687,0.00007500,0.00032176,0.69956675,0.00017424,-0.00034234,0.00001246
 ,-0.00011390,-0.00020430,0.00000287,-0.00672919,0.00433929,-0.00003277
 ,-0.00069596,-0.00029778,0.00001218,0.00084953,0.00005413,0.00000034,-
 0.00007160,0.00005580,0.00005841,-0.00007028,0.00005623,-0.00006401,-0
 .01462835,-0.14048983,-0.00002748,0.00000517,-0.00017801,0.00001464,-0
 .00001119,0.00004863,-0.00000870,-0.00000080,-0.00112655,0.00000510,0.
 00000240,-0.00033308,0.00000016,-0.00000097,0.00042823,0.00002326,-0.0
 0004557,-0.00008439,-0.00002524,0.00004531,-0.00008450,-0.00012255,-0.
 00000348,-0.09016509,0.00043976,-0.00026630,0.00001895,-0.00005908,0.0
 0009850,-0.00000420,-0.00019626,0.00014519,-0.00004926,-0.00020447,-0.
 00051963,0.00000257,-0.00013600,0.00058708,-0.00000030,0.00001172,0.00
 005155,-0.00000128,0.00001283,0.00005222,0.00000100,0.00024709,0.00019
 272,0.00001166,0.00020354,-0.00001830,-0.00039397,0.00000207,-0.000043
 79,0.00007244,-0.00000132,0.00065528,0.00078565,0.00001705,0.00042544,
 -0.00060661,-0.00000582,-0.00023568,0.00065901,-0.00000043,-0.00001183
 ,0.00004983,-0.00000276,-0.00001562,0.00005047,0.00000307,0.00018419,0
 .00029511,-0.00000409,-0.00039033,-0.00040959,0.00000446,-0.00002522,-
 0.00003503,-0.00001038,0.00000220,0.00000622,-0.00001026,0.00002320,0.
 00070264,0.00000140,-0.00000020,0.00013420,-0.00000107,-0.00000014,0.0
 0011087,0.00004881,0.00005419,-0.00007464,-0.00004927,-0.00005289,-0.0
 0007397,-0.00000454,0.00000342,-0.00032475,0.00002027,-0.00000588,-0.0
 0075925,0.00027355,0.00006858,-0.00000340,-0.00016789,-0.00020818,-0.0
 0000022,0.00417882,-0.00350786,-0.00000482,-0.00002016,-0.00072768,0.0
 0000316,0.00045661,0.00046766,-0.00000050,-0.00009715,0.00003381,0.000
 29777,-0.00009534,0.00003540,-0.00029784,-0.70712546,0.03038151,0.0001
 1705,-0.00024741,-0.00041177,0.00000286,0.69756022,-0.00071641,0.00094
 437,0.00000194,0.00006610,-0.00016493,-0.00000046,0.00516648,-0.002458
 15,0.00000763,-0.00013098,-0.00050522,-0.00000962,0.00001233,-0.000303
 14,0.00000087,0.00020578,0.00011162,0.00005619,0.00020705,0.00010909,-
 0.00005532,0.02705960,0.14630033,0.00000048,0.00001091,-0.00050524,0.0
 0000034,-0.02915333,-0.14269240,0.00000062,0.00000285,0.00013473,-0.00
 000033,0.00000031,-0.00003786,-0.00000099,-0.00000508,-0.00008103,-0.0
 0000081,0.00000164,0.00059483,-0.00000046,-0.00000081,-0.00033119,-0.0
 0007884,-0.00011751,-0.00002108,0.00008081,0.00011544,-0.00001997,0.00
 011623,0.00000063,0.15146278,0.00000145,-0.00000107,0.00003589,-0.0001
 1547,0.00000317,-0.14934190,-0.00011363,-0.00014714,0.00024925,-0.0000
 1171,0.00004581,-0.00002692,0.00034519,0.00038621,-0.00021550,-0.00018
 282,-0.00027170,0.00004395,0.00028421,0.00012618,0.00004423,-0.0000084
 2,-0.00000014,0.00002980,-0.00001449,0.00003748,-0.00006310,0.00517163
 ,-0.00464389,-0.00768387,-0.00003715,-0.00007021,-0.00042618,0.0026427
 5,-0.00136128,-0.00207781,-0.00936031,-0.00015860,-0.00003827,0.000015
 01,-0.00002983,0.00011311,-0.00001235,0.00054694,0.00017944,-0.0000794
 1,0.00005288,0.00002538,0.00003775,-0.00008296,-0.00004056,-0.00002665
 ,0.00002650,-0.00002326,-0.00001356,0.00001846,-0.00002316,-0.00001360
 ,-0.00781153,-0.00489746,-0.02223515,0.00001994,0.00000190,-0.00001367
 ,0.00151211,-0.00041825,-0.00073256,0.00605171,0.00457455,0.00003311,0
 .00003404,-0.00006539,-0.00001725,0.00002906,-0.00001463,0.00002079,0.
 00038821,0.00026537,0.00003497,0.00007116,0.00003975,-0.00003614,0.000
 03937,-0.00001853,0.00000573,0.00000249,0.00001775,-0.00002166,-0.0000
 3171,-0.00000482,-0.01285148,-0.02139192,-0.02979762,-0.00006577,0.000
 00752,0.00013928,0.00223236,-0.00101809,-0.00119918,0.01039980,0.02247
 544,0.03022265,-0.00011809,-0.00014912,-0.00024827,-0.00000793,0.00004
 478,0.00002578,0.00034415,0.00038246,0.00022018,-0.00018433,-0.0002697
 7,-0.00004107,0.00028430,0.00012685,-0.00004368,-0.00001648,0.00003626
 ,0.00006184,-0.00000843,-0.00000032,-0.00002928,0.00517788,-0.00464484
 ,0.00769598,-0.00003458,-0.00006739,0.00042391,0.00264146,-0.00136625,
 0.00207560,0.00128475,-0.00014562,0.00026554,-0.00936270,-0.00015006,-
 0.00004729,-0.00002391,-0.00003464,0.00012101,0.00001591,0.00055522,0.
 00018699,0.00007204,0.00005075,0.00002645,-0.00003488,-0.00008221,-0.0
 0004020,0.00002678,0.00001816,-0.00002427,0.00001418,0.00002439,-0.000
 02407,0.00001532,-0.00780944,-0.00486919,0.02224789,0.00001816,0.00000
 101,0.00001464,0.00150975,-0.00041808,0.00073298,-0.00015303,0.0005465
 9,-0.00060557,0.00605296,0.00454105,-0.00002842,-0.00002731,-0.0000619
 0,0.00001747,-0.00003058,-0.00001443,-0.00002674,-0.00039061,0.0002621
 1,-0.00003517,-0.00007081,0.00004181,0.00003590,-0.00003941,-0.0000184
 5,0.00002250,0.00003158,-0.00000432,-0.00000682,-0.00000259,0.00001791
 ,0.01286748,0.02140186,-0.02984564,0.00006493,-0.00000833,0.00013855,-
 0.00223095,0.00101287,-0.00119601,-0.00027365,0.00059873,0.00041537,-0
 .01040652,-0.02247539,0.03026500,-0.02438828,-0.00480195,-0.01955973,-
 0.00022576,-0.00014864,-0.00159310,0.00580135,-0.00351301,0.00008495,-
 0.00466319,-0.00127151,0.00517839,0.00002168,0.00077593,-0.00283223,0.
 00008271,0.00002317,-0.00077962,-0.00005915,0.00000663,0.00035346,0.00
 309278,0.00419471,0.00009099,-0.00042412,-0.00256476,-0.00004021,5.009
 36150,0.04097825,0.02417436,0.00004645,-0.00022338,-0.00958567,0.00002
 335,-1.14572331,-0.85951307,0.00008185,0.00010117,-0.01000410,-0.00002
 700,-0.00001885,0.00582756,-0.00132225,0.00016072,-1.11486487,0.004543
 02,0.00340413,0.00002893,-0.00085969,0.00008874,0.00000762,-0.00410969
 ,-0.00110187,0.00000947,-0.00381417,-0.00136962,0.00441210,0.00006475,
 0.00021839,-0.00079700,-0.00004479,0.00021641,0.00197851,-0.00000518,-
 0.00072047,-0.00114246,0.00007181,0.00001613,0.00368068,-0.00000161,-0
 .00000103,-0.00060835,-0.00002019,-0.00002656,-0.00417413,-0.00005253,
 -0.00008829,-0.00008563,-0.00116983,0.00118975,0.00000128,0.00018648,-
 0.00028788,-0.00000323,0.00053890,0.00087701,-0.00000080,0.00050806,-0
 .00042267,0.00001297,-0.00046492,0.00024468,0.00001536,0.00000219,0.00
 005411,0.00007871,-0.00000515,-0.00034990,-0.00054272,0.00000408,0.000
 03963,-0.00034772,0.00002148,-0.00016170,0.00039626,-0.00000001,0.0000
 1864,-0.00003651,-0.00000045,-0.00000313,0.00004491,0.00000168,-0.0000
 0033,-0.00022004,0.00000408,0.00000277,-0.00004376,-0.00001023,-0.0000
 1047,-0.00007390,-0.00119106,-0.00061373,-0.00054654,0.00028472,0.0000
 6219,0.00010429,0.00026747,0.00006380,0.00071313,0.00044860,-0.0002425
 6,-0.00030921,0.00000745,0.00001566,0.00012391,0.00017222,-0.00003440,
 0.00000126,0.00003541,-0.00003091,-0.00000716,0.00000288,-0.00000845,-
 0.00004467,0.00033157,-0.00002402,-0.00029721,-0.00020651,-0.00003219,
 0.00003379,0.00000878,0.00020653,0.00010230,0.00003787,-0.00000779,0.0
 0005088,-0.00004048,-0.00001930,0.00000335,0.00003612,-0.00016967,0.00
 031248,-0.00002487,-0.00005208,-0.00038660,-0.00001674,0.00000374,0.00
 004415,0.00017997,0.00002469,0.00014726,-0.00119843,-0.00063391,0.0005
 5259,0.00028743,0.00006093,-0.00009519,0.00025692,0.00006471,-0.000712
 52,0.00050799,-0.00023932,0.00029215,0.00001001,0.00001131,-0.00011892
 ,0.00003080,0.00001826,-0.00006543,0.00012350,-0.00005203,0.00002930,-
 0.00004381,-0.00003483,-0.00002329,-0.00000865,-0.00000941,-0.00005209
 ,-0.00033406,-0.00000902,-0.00030549,0.00028595,-0.00004737,0.00003509
 ,-0.00001661,0.00001641,0.00006279,-0.00006138,0.00022924,0.00010626,-
 0.00003628,0.00000074,0.00004688,0.00003885,0.00002169,0.00000374,-0.0
 0003036,0.00017302,0.00031554,0.00002365,0.00012013,-0.00040578,0.0000
 1806,-0.00001464,0.00005827,0.00007460,0.00005267,-0.00000664,-0.00019
 185,-0.00007008,0.00015158,-0.00034100,-0.00123054,-0.00000170,-0.0002
 8047,0.00094925,0.00000989,-0.00086051,-0.02717440,-0.00000236,-0.0001
 1218,0.00086876,-0.00000208,0.00021224,0.00001355,0.00000035,-0.000124
 03,-0.00006708,-0.00012691,-0.00012663,-0.00006812,0.00012532,-0.01160
 766,0.00108122,-0.00184894,0.00001189,-0.00027384,0.00079388,0.0000026
 7,0.00202894,0.01984260,-0.00003691,0.00027538,-0.00096729,0.00001282,
 -0.00026224,0.00013441,0.00000021,0.00025324,0.00004365,0.00008427,0.0
 0025453,0.00004381,-0.00009002,0.00928019,-0.00967306,-0.00002770,0.00
 000720,0.00169908,0.00001514,-0.00001082,-0.00115051,-0.00000951,-0.00
 000082,-0.00426680,0.00000464,0.00000251,0.00046449,0.00000031,-0.0000
 0109,0.00004728,-0.00000212,0.00002346,-0.00002069,-0.00000018,-0.0000
 2383,-0.00002098,-0.00004110,0.00000165,-0.00011080,0.01413368,0.00140
 267,0.00001867,-0.00018928,0.00252530,-0.00000559,-5.00553986,1.128841
 28,0.00125997,0.00301161,0.00241220,0.00000281,0.00037570,0.00009657,-
 0.00000038,-0.00005156,-0.00010608,-0.00009185,-0.00005046,-0.00010515
 ,0.00009113,0.01213549,-0.00974603,0.00001045,4.97457376,-0.03331887,-
 0.01275317,0.00001661,0.00278602,0.00667696,-0.00000320,1.14151367,0.8
 2468219,-0.00020359,-0.00211604,-0.00199927,-0.00000659,-0.00068271,0.
 00015043,-0.00000091,0.00011364,0.00003887,0.00013821,0.00010990,0.000
 03947,-0.00013783,0.01550255,-0.01007171,-0.00000627,-1.12222398,-0.80
 815168,0.00000992,-0.00002061,0.00734936,-0.00000988,0.00000430,-0.003
 70688,0.00129871,-0.00019994,1.12496320,0.00000011,-0.00000180,0.00139
 418,-0.00000087,0.00000100,0.00015133,-0.00017737,-0.00019175,-0.00013
 182,0.00017697,0.00019363,-0.00013130,-0.00001146,0.00000758,0.0022352
 9,-0.00128603,0.00020669,-1.12973298,0.00031589,0.00049895,-0.00000406
 ,-0.00008513,-0.00005389,-0.00000010,-0.00039052,0.00097448,-0.0000039
 1,-0.00018811,-0.00054469,0.00000302,-0.00015690,0.00002837,-0.0000004
 4,0.00014516,0.00006202,0.00008596,0.00014652,0.00006292,-0.00008607,-
 0.00076570,-0.00181128,0.00003932,0.00060552,-0.00012647,0.00000179,0.
 00053659,-0.00106618,-0.00007143,0.00000225,0.00015215,0.00008425,-0.0
 0000039,-0.00002191,0.00158175,0.00000700,0.00010639,-0.00060618,-0.00
 001014,-0.00017822,0.00005957,0.00000093,0.00012864,0.00006212,0.00008
 119,0.00013005,0.00005957,-0.00007996,0.00226249,0.00197365,0.00000131
 ,-0.00227054,-0.00099977,0.00000131,0.00086923,-0.00215886,0.00000094,
 0.00000343,-0.00007555,-0.00000047,0.00000026,-0.00009652,0.00000047,-
 0.00000558,0.00036132,-0.00000098,0.00000173,0.00012339,-0.00000046,-0
 .00000105,0.00004241,-0.00017249,-0.00008866,-0.00000249,0.00017444,0.
 00008651,-0.00000113,0.00003679,0.00000213,0.00188842,0.00000183,-0.00
 000152,-0.00066316,-0.00003848,0.00000161,-0.00149490,0.00020321,0.000
 05263,-0.00020091,-0.00003094,-0.00014186,0.00016199,-0.00109615,0.001
 21295,0.00046204,0.00003302,-0.00008911,-0.00004194,-0.00002363,0.0000
 0347,-0.00002373,0.00001960,0.00000427,0.00001075,-0.00000734,0.000013
 23,-0.00001691,0.00093561,-0.00053799,-0.00001016,0.00049675,-0.000779
 94,-0.00058920,-0.00008088,-0.00005279,0.00036899,-0.00038130,-0.00019
 899,0.00021600,0.00049305,0.00004713,0.00021275,-0.00022377,0.00035811
 ,-0.00126421,-0.00048099,0.00002967,0.00003549,0.00001250,0.00000373,-
 0.00000683,0.00000311,-0.00001141,0.00000361,-0.00000188,0.00000782,0.
 00000177,0.00002059,-0.00016694,-0.00014323,-0.00057198,-0.00041256,0.
 00119357,0.00051424,0.00002094,0.00000780,-0.00019264,0.00029372,-0.00
 034972,-0.00007747,0.00015890,-0.00017065,0.00011408,-0.00006391,0.000
 05424,0.00052744,-0.00048012,0.00087694,0.00001556,0.00005146,0.000019
 70,0.00002186,0.00000920,-0.00000706,-0.00000514,0.00000075,-0.0000048
 7,-0.00001618,-0.00000684,-0.00000549,0.00006370,0.00040925,-0.0003759
 4,-0.00052898,-0.00050526,-0.00086336,-0.00007445,0.00004203,-0.000042
 90,-0.00007662,0.00040944,0.00044389,0.00019867,0.00005030,0.00020155,
 -0.00002719,-0.00014245,-0.00016302,-0.00109671,0.00121047,-0.00045763
 ,0.00003154,-0.00008734,0.00004481,-0.00002355,0.00000425,0.00002414,-
 0.00000936,0.00001207,0.00001561,0.00001968,0.00000411,-0.00001013,0.0
 0093487,-0.00054213,0.00002092,0.00049865,-0.00077777,0.00058732,-0.00
 008244,-0.00005932,-0.00037057,-0.00006796,0.00002879,0.00003622,-0.00
 037621,-0.00019059,0.00020651,-0.00050183,0.00004225,0.00022043,0.0002
 2727,0.00036589,-0.00125696,0.00047504,0.00002746,0.00003651,-0.000009
 76,0.00000450,-0.00000634,-0.00000299,0.00000756,0.00000064,-0.0000200
 0,-0.00001352,0.00000283,0.00000370,-0.00016973,-0.00012776,0.00057866
 ,-0.00041369,0.00119412,-0.00051464,0.00001942,0.00000753,0.00019377,0
 .00002141,0.00009301,-0.00002490,0.00029904,-0.00037054,0.00008214,-0.
 00015233,-0.00016735,-0.00011397,0.00006248,0.00005462,-0.00053289,0.0
 0047947,0.00087291,-0.00001565,-0.00005121,0.00002179,-0.00002215,-0.0
 0000928,-0.00000707,0.00001698,0.00000670,-0.00000500,0.00000411,-0.00
 000083,-0.00000467,-0.00005043,-0.00040555,-0.00038883,0.00052797,0.00
 050366,-0.00086385,0.00007741,-0.00004712,-0.00003888,-0.00004430,0.00
 001831,0.00007551,0.00007080,-0.00040432,0.00045081\\@
 The archive entry for this job was punched.


  ON THE CHOICE OF THE CORRECT LANGUAGE -
 I SPEAK SPANISH TO GOD, ITALIAN TO WOMEN,
 FRENCH TO MEN, AND GERMAN TO MY HORSE.
          -- CHARLES V
 Job cpu time:       4 days 23 hours 41 minutes  9.1 seconds.
 Elapsed time:       0 days  3 hours  2 minutes 29.2 seconds.
 File lengths (MBytes):  RWF=   4444 Int=      0 D2E=      0 Chk=     47 Scr=      1
 Normal termination of Gaussian 16 at Sat Mar 29 17:34:16 2025.
