 Entering Gaussian System, Link 0=g16
 Input=aconmeht_mp2_avdz_opt_anharm.gjf
 Output=aconmeht_mp2_avdz_opt_anharm.log
 Initial command:
 /sw/contrib/chem-src/g16/c01/g16/l1.exe "/scr/Gau-74050.inp" -scrdir="/scr/"
 Entering Link 1 = /sw/contrib/chem-src/g16/c01/g16/l1.exe PID=     74051.
  
 Copyright (c) 1988-2019, Gaussian, Inc.  All Rights Reserved.
  
 This is part of the Gaussian(R) 16 program.  It is based on
 the Gaussian(R) 09 system (copyright 2009, Gaussian, Inc.),
 the Gaussian(R) 03 system (copyright 2003, Gaussian, Inc.),
 the Gaussian(R) 98 system (copyright 1998, Gaussian, Inc.),
 the Gaussian(R) 94 system (copyright 1995, Gaussian, Inc.),
 the Gaussian 92(TM) system (copyright 1992, Gaussian, Inc.),
 the Gaussian 90(TM) system (copyright 1990, Gaussian, Inc.),
 the Gaussian 88(TM) system (copyright 1988, Gaussian, Inc.),
 the Gaussian 86(TM) system (copyright 1986, Carnegie Mellon
 University), and the Gaussian 82(TM) system (copyright 1983,
 Carnegie Mellon University). Gaussian is a federally registered
 trademark of Gaussian, Inc.
  
 This software contains proprietary and confidential information,
 including trade secrets, belonging to Gaussian, Inc.
  
 This software is provided under written license and may be
 used, copied, transmitted, or stored only in accord with that
 written license.
  
 The following legend is applicable only to US Government
 contracts under FAR:
  
                    RESTRICTED RIGHTS LEGEND
  
 Use, reproduction and disclosure by the US Government is
 subject to restrictions as set forth in subparagraphs (a)
 and (c) of the Commercial Computer Software - Restricted
 Rights clause in FAR 52.227-19.
  
 Gaussian, Inc.
 340 Quinnipiac St., Bldg. 40, Wallingford CT 06492
  
  
 ---------------------------------------------------------------
 Warning -- This program may not be used in any manner that
 competes with the business of Gaussian, Inc. or will provide
 assistance to any competitor of Gaussian, Inc.  The licensee
 of this program is prohibited from giving any competitor of
 Gaussian, Inc. access to this program.  By using this program,
 the user acknowledges that Gaussian, Inc. is engaged in the
 business of creating and licensing software in the field of
 computational chemistry and represents and warrants to the
 licensee that it is not a competitor of Gaussian, Inc. and that
 it will not use this program in any manner prohibited above.
 ---------------------------------------------------------------
  

 Cite this work as:
 Gaussian 16, Revision C.01,
 M. J. Frisch, G. W. Trucks, H. B. Schlegel, G. E. Scuseria, 
 M. A. Robb, J. R. Cheeseman, G. Scalmani, V. Barone, 
 G. A. Petersson, H. Nakatsuji, X. Li, M. Caricato, A. V. Marenich, 
 J. Bloino, B. G. Janesko, R. Gomperts, B. Mennucci, H. P. Hratchian, 
 J. V. Ortiz, A. F. Izmaylov, J. L. Sonnenberg, D. Williams-Young, 
 F. Ding, F. Lipparini, F. Egidi, J. Goings, B. Peng, A. Petrone, 
 T. Henderson, D. Ranasinghe, V. G. Zakrzewski, J. Gao, N. Rega, 
 G. Zheng, W. Liang, M. Hada, M. Ehara, K. Toyota, R. Fukuda, 
 J. Hasegawa, M. Ishida, T. Nakajima, Y. Honda, O. Kitao, H. Nakai, 
 T. Vreven, K. Throssell, J. A. Montgomery, Jr., J. E. Peralta, 
 F. Ogliaro, M. J. Bearpark, J. J. Heyd, E. N. Brothers, K. N. Kudin, 
 V. N. Staroverov, T. A. Keith, R. Kobayashi, J. Normand, 
 K. Raghavachari, A. P. Rendell, J. C. Burant, S. S. Iyengar, 
 J. Tomasi, M. Cossi, J. M. Millam, M. Klene, C. Adamo, R. Cammi, 
 J. W. Ochterski, R. L. Martin, K. Morokuma, O. Farkas, 
 J. B. Foresman, and D. J. Fox, Gaussian, Inc., Wallingford CT, 2019.
 
 ******************************************
 Gaussian 16:  EM64L-G16RevC.01  3-Jul-2019
                29-Mar-2025 
 ******************************************
 %nprocshared=40
 Will use up to   40 processors via shared memory.
 %mem=50gb
 ----------------------------------------------
 # MP2/aug-cc-pVDZ opt freq=(vibrot,anharmonic)
 ----------------------------------------------
 1/18=20,19=15,38=1,80=1/1,3;
 2/9=110,12=2,17=6,18=5,40=1/2;
 3/5=16,7=10,11=9,25=1,30=1,71=1/1,2,3;
 4//1;
 5/5=2,38=5/2;
 8/6=4,10=1/1;
 9/15=2,16=-3/6;
 10/5=1/2;
 6/7=2,8=2,9=2,10=2/1;
 7/12=2/1,2,3,16;
 1/18=20,19=15,80=1/3(2);
 2/9=110/2;
 99//99;
 2/9=110/2;
 3/5=16,7=10,11=9,25=1,30=1,71=1/1,2,3;
 4/5=5,16=3,69=1/1;
 5/5=2,38=5/2;
 8/6=4,10=1/1;
 9/15=2,16=-3/6;
 10/5=1/2;
 7/12=2/1,2,3,16;
 1/18=20,19=15,80=1/3(-8);
 2/9=110/2;
 6/7=2,8=2,9=2,10=2/1;
 99/9=10/99;
 ----
 blah
 ----
 Symbolic Z-matrix:
 Charge =  0 Multiplicity = 1
 C                    -1.00905  -0.10399   0.00062 
 O                    -2.17808  -0.45283   0.01026 
 N                    -0.00953  -1.02109  -0.01179 
 C                    -0.56458   1.34948  -0.00377 
 H                    -1.44794   1.99677   0.04437 
 H                     0.00164   1.56491  -0.92358 
 H                     0.09276   1.55015   0.85654 
 H                     0.92956  -0.72564  -0.01948 
 C                    -0.24052  -2.45235  -0.01348 
 H                    -1.32052  -2.71025  -0.00414 
 H                     0.23371  -2.90208   0.88388 
 H                     0.21671  -2.89702  -0.92214 
 

 GradGradGradGradGradGradGradGradGradGradGradGradGradGradGradGradGradGrad
 Berny optimization.
 Initialization pass.
                           ----------------------------
                           !    Initial Parameters    !
                           ! (Angstroms and Degrees)  !
 --------------------------                            --------------------------
 ! Name  Definition              Value          Derivative Info.                !
 --------------------------------------------------------------------------------
 ! R1    R(1,2)                  1.22           estimate D2E/DX2                !
 ! R2    R(1,3)                  1.3566         estimate D2E/DX2                !
 ! R3    R(1,4)                  1.5199         estimate D2E/DX2                !
 ! R4    R(3,8)                  0.9845         estimate D2E/DX2                !
 ! R5    R(3,9)                  1.4498         estimate D2E/DX2                !
 ! R6    R(4,5)                  1.0962         estimate D2E/DX2                !
 ! R7    R(4,6)                  1.1014         estimate D2E/DX2                !
 ! R8    R(4,7)                  1.1011         estimate D2E/DX2                !
 ! R9    R(9,10)                 1.1104         estimate D2E/DX2                !
 ! R10   R(9,11)                 1.1101         estimate D2E/DX2                !
 ! R11   R(9,12)                 1.1102         estimate D2E/DX2                !
 ! A1    A(2,1,3)              120.8489         estimate D2E/DX2                !
 ! A2    A(2,1,4)              123.6198         estimate D2E/DX2                !
 ! A3    A(3,1,4)              115.5309         estimate D2E/DX2                !
 ! A4    A(1,3,8)              120.0            estimate D2E/DX2                !
 ! A5    A(1,3,9)              123.369          estimate D2E/DX2                !
 ! A6    A(8,3,9)              116.631          estimate D2E/DX2                !
 ! A7    A(1,4,5)              109.2014         estimate D2E/DX2                !
 ! A8    A(1,4,6)              109.8649         estimate D2E/DX2                !
 ! A9    A(1,4,7)              110.2788         estimate D2E/DX2                !
 ! A10   A(5,4,6)              109.6006         estimate D2E/DX2                !
 ! A11   A(5,4,7)              109.824          estimate D2E/DX2                !
 ! A12   A(6,4,7)              108.056          estimate D2E/DX2                !
 ! A13   A(3,9,10)             112.597          estimate D2E/DX2                !
 ! A14   A(3,9,11)             109.325          estimate D2E/DX2                !
 ! A15   A(3,9,12)             109.3153         estimate D2E/DX2                !
 ! A16   A(10,9,11)            108.3366         estimate D2E/DX2                !
 ! A17   A(10,9,12)            108.3269         estimate D2E/DX2                !
 ! A18   A(11,9,12)            108.8692         estimate D2E/DX2                !
 ! D1    D(2,1,3,8)            180.0            estimate D2E/DX2                !
 ! D2    D(2,1,3,9)             -0.0506         estimate D2E/DX2                !
 ! D3    D(4,1,3,8)              0.2196         estimate D2E/DX2                !
 ! D4    D(4,1,3,9)           -179.831          estimate D2E/DX2                !
 ! D5    D(2,1,4,5)              2.29           estimate D2E/DX2                !
 ! D6    D(2,1,4,6)           -117.9435         estimate D2E/DX2                !
 ! D7    D(2,1,4,7)            123.0551         estimate D2E/DX2                !
 ! D8    D(3,1,4,5)           -177.9364         estimate D2E/DX2                !
 ! D9    D(3,1,4,6)             61.8301         estimate D2E/DX2                !
 ! D10   D(3,1,4,7)            -57.1713         estimate D2E/DX2                !
 ! D11   D(1,3,9,10)             0.0334         estimate D2E/DX2                !
 ! D12   D(1,3,9,11)          -120.4347         estimate D2E/DX2                !
 ! D13   D(1,3,9,12)           120.4825         estimate D2E/DX2                !
 ! D14   D(8,3,9,10)           179.9843         estimate D2E/DX2                !
 ! D15   D(8,3,9,11)            59.5163         estimate D2E/DX2                !
 ! D16   D(8,3,9,12)           -59.5665         estimate D2E/DX2                !
 --------------------------------------------------------------------------------
 Trust Radius=3.00D-01 FncErr=1.00D-07 GrdErr=1.00D-07 EigMax=2.50D+02 EigMin=1.00D-04
 Number of steps in this run=     55 maximum allowed number of steps=    100.
 GradGradGradGradGradGradGradGradGradGradGradGradGradGradGradGradGradGrad

                          Input orientation:                          
 ---------------------------------------------------------------------
 Center     Atomic      Atomic             Coordinates (Angstroms)
 Number     Number       Type             X           Y           Z
 ---------------------------------------------------------------------
      1          6           0       -1.009052   -0.103985    0.000621
      2          8           0       -2.178076   -0.452834    0.010260
      3          7           0       -0.009531   -1.021091   -0.011785
      4          6           0       -0.564575    1.349477   -0.003774
      5          1           0       -1.447942    1.996771    0.044371
      6          1           0        0.001644    1.564909   -0.923584
      7          1           0        0.092761    1.550152    0.856542
      8          1           0        0.929558   -0.725636   -0.019476
      9          6           0       -0.240523   -2.452350   -0.013479
     10          1           0       -1.320524   -2.710250   -0.004138
     11          1           0        0.233712   -2.902077    0.883882
     12          1           0        0.216709   -2.897024   -0.922140
 ---------------------------------------------------------------------
                    Distance matrix (angstroms):
                    1          2          3          4          5
     1  C    0.000000
     2  O    1.220002   0.000000
     3  N    1.356569   2.241872   0.000000
     4  C    1.519911   2.419072   2.434693   0.000000
     5  H    2.146559   2.556330   3.343601   1.096196   0.000000
     6  H    2.158904   3.113604   2.742061   1.101392   1.795756
     7  H    2.163969   3.144018   2.715832   1.101138   1.798014
     8  H    2.035943   3.119726   0.984500   2.557103   3.614980
     9  C    2.470962   2.784375   1.449780   3.815625   4.610411
    10  H    2.624815   2.414856   2.138228   4.129509   4.708995
    11  H    3.186524   3.546651   2.097498   4.415984   5.247043
    12  H    3.186698   3.546608   2.097393   4.414360   5.258749
                    6          7          8          9         10
     6  H    0.000000
     7  H    1.782518   0.000000
     8  H    2.631546   2.578148   0.000000
     9  C    4.126173   4.109506   2.085825   0.000000
    10  H    4.568424   4.570467   3.000299   1.110406   0.000000
    11  H    4.824392   4.454544   2.457062   1.110140   1.800285
    12  H    4.467113   4.791289   2.457210   1.110162   1.800194
                   11         12
    11  H    0.000000
    12  H    1.806110   0.000000
 Stoichiometry    C3H7NO
 Framework group  C1[X(C3H7NO)]
 Deg. of freedom    30
 Full point group                 C1      NOp   1
 Largest Abelian subgroup         C1      NOp   1
 Largest concise Abelian subgroup C1      NOp   1
                         Standard orientation:                         
 ---------------------------------------------------------------------
 Center     Atomic      Atomic             Coordinates (Angstroms)
 Number     Number       Type             X           Y           Z
 ---------------------------------------------------------------------
      1          6           0       -0.493015    0.174210   -0.001835
      2          8           0       -0.379719    1.388939   -0.000119
      3          7           0        0.601997   -0.626556   -0.000995
      4          6           0       -1.831368   -0.546164    0.000261
      5          1           0       -2.639181    0.193853   -0.037909
      6          1           0       -1.928618   -1.152467    0.914594
      7          1           0       -1.902525   -1.221710   -0.866387
      8          1           0        0.496059   -1.605339   -0.002402
      9          6           0        1.960376   -0.119933    0.000861
     10          1           0        2.001904    0.989696    0.002108
     11          1           0        2.491080   -0.488272   -0.901962
     12          1           0        2.489097   -0.490057    0.904145
 ---------------------------------------------------------------------
 Rotational constants (GHZ):          10.0312563           3.8524075           2.8866261
 Standard basis: Aug-CC-pVDZ (5D, 7F)
 There are   188 symmetry adapted cartesian basis functions of A   symmetry.
 There are   178 symmetry adapted basis functions of A   symmetry.
   178 basis functions,   292 primitive gaussians,   188 cartesian basis functions
    20 alpha electrons       20 beta electrons
       nuclear repulsion energy       180.0013796622 Hartrees.
 NAtoms=   12 NActive=   12 NUniq=   12 SFac= 1.00D+00 NAtFMM=   60 NAOKFM=F Big=F
 Integral buffers will be    131072 words long.
 Raffenetti 1 integral format.
 Two-electron integral symmetry is turned on.
 One-electron integrals computed using PRISM.
 NBasis=   178 RedAO= T EigKep=  3.93D-05  NBF=   178
 NBsUse=   178 1.00D-06 EigRej= -1.00D+00 NBFU=   178
 ExpMin= 2.97D-02 ExpMax= 1.17D+04 ExpMxC= 4.01D+02 IAcc=3 IRadAn=         5 AccDes= 0.00D+00
 Harris functional with IExCor=  205 and IRadAn=       5 diagonalized for initial guess.
 HarFok:  IExCor=  205 AccDes= 0.00D+00 IRadAn=         5 IDoV= 1 UseB2=F ITyADJ=14
 ICtDFT=  3500011 ScaDFX=  1.000000  1.000000  1.000000  1.000000
 FoFCou: FMM=F IPFlag=           0 FMFlag=      100000 FMFlg1=           0
         NFxFlg=           0 DoJE=T BraDBF=F KetDBF=T FulRan=T
         wScrn=  0.000000 ICntrl=       500 IOpCl=  0 I1Cent=   200000004 NGrid=           0
         NMat0=    1 NMatS0=      1 NMatT0=    0 NMatD0=    1 NMtDS0=    0 NMtDT0=    0
 Petite list used in FoFCou.
 Keep R1 ints in memory in canonical form, NReq=135803119.
 Requested convergence on RMS density matrix=1.00D-08 within 128 cycles.
 Requested convergence on MAX density matrix=1.00D-06.
 Requested convergence on             energy=1.00D-06.
 No special actions if energy rises.
 SCF Done:  E(RHF) =  -247.039874883     A.U. after   13 cycles
            NFock= 13  Conv=0.53D-08     -V/T= 2.0017
 ExpMin= 2.97D-02 ExpMax= 1.17D+04 ExpMxC= 4.01D+02 IAcc=3 IRadAn=         5 AccDes= 0.00D+00
 HarFok:  IExCor=  205 AccDes= 0.00D+00 IRadAn=         5 IDoV=-2 UseB2=F ITyADJ=14
 ICtDFT= 12500011 ScaDFX=  1.000000  1.000000  1.000000  1.000000
 Range of M.O.s used for correlation:     6   178
 NBasis=   178 NAE=    20 NBE=    20 NFC=     5 NFV=     0
 NROrb=    173 NOA=    15 NOB=    15 NVA=   158 NVB=   158

 **** Warning!!: The largest alpha MO coefficient is  0.50683213D+02

 Fully direct method using O(ONN) memory.
 JobTyp=1 Pass  1:  I=   6 to  20 NPSUse= 40 ParTrn=T ParDer=T DoDerP=T.
 Spin components of T(2) and E(2):
     alpha-alpha T2 =       0.3310863951D-01 E2=     -0.1008565340D+00
     alpha-beta  T2 =       0.1904122597D+00 E2=     -0.6025140301D+00
     beta-beta   T2 =       0.3310863951D-01 E2=     -0.1008565340D+00
 ANorm=    0.1120994888D+01
 E2 =    -0.8042270981D+00 EUMP2 =    -0.24784410198118D+03
          IDoAtm=111111111111
          Differentiating once with respect to electric field.
                with respect to dipole field.
          Differentiating once with respect to nuclear coordinates.
 Keep R1 ints in memory in canonical form, NReq=135813526.
          There are     1 degrees of freedom in the 1st order CPHF.  IDoFFX=0 NUNeed=     1.
 LinEq1:  Iter=  0 NonCon=     1 RMS=4.49D-03 Max=8.68D-02 NDo=     1
 AX will form     1 AO Fock derivatives at one time.
 LinEq1:  Iter=  1 NonCon=     1 RMS=1.31D-03 Max=2.01D-02 NDo=     1
 LinEq1:  Iter=  2 NonCon=     1 RMS=4.64D-04 Max=6.89D-03 NDo=     1
 LinEq1:  Iter=  3 NonCon=     1 RMS=1.61D-04 Max=2.86D-03 NDo=     1
 LinEq1:  Iter=  4 NonCon=     1 RMS=4.79D-05 Max=5.04D-04 NDo=     1
 LinEq1:  Iter=  5 NonCon=     1 RMS=1.56D-05 Max=2.10D-04 NDo=     1
 LinEq1:  Iter=  6 NonCon=     1 RMS=4.17D-06 Max=4.13D-05 NDo=     1
 LinEq1:  Iter=  7 NonCon=     1 RMS=8.59D-07 Max=7.83D-06 NDo=     1
 LinEq1:  Iter=  8 NonCon=     1 RMS=1.72D-07 Max=1.53D-06 NDo=     1
 LinEq1:  Iter=  9 NonCon=     1 RMS=4.53D-08 Max=4.87D-07 NDo=     1
 LinEq1:  Iter= 10 NonCon=     1 RMS=1.33D-08 Max=1.49D-07 NDo=     1
 LinEq1:  Iter= 11 NonCon=     1 RMS=3.39D-09 Max=5.31D-08 NDo=     1
 LinEq1:  Iter= 12 NonCon=     1 RMS=8.53D-10 Max=1.19D-08 NDo=     1
 LinEq1:  Iter= 13 NonCon=     1 RMS=2.86D-10 Max=2.26D-09 NDo=     1
 LinEq1:  Iter= 14 NonCon=     0 RMS=6.06D-11 Max=5.77D-10 NDo=     1
 Linear equations converged to 1.000D-10 1.000D-09 after    14 iterations.
 End of Minotr F.D. properties file   721 does not exist.
 End of Minotr F.D. properties file   722 does not exist.
 End of Minotr F.D. properties file   788 does not exist.

 **********************************************************************

            Population analysis using the SCF Density.

 **********************************************************************

 Orbital symmetries:
       Occupied  (A) (A) (A) (A) (A) (A) (A) (A) (A) (A) (A) (A)
                 (A) (A) (A) (A) (A) (A) (A) (A)
       Virtual   (A) (A) (A) (A) (A) (A) (A) (A) (A) (A) (A) (A)
                 (A) (A) (A) (A) (A) (A) (A) (A) (A) (A) (A) (A)
                 (A) (A) (A) (A) (A) (A) (A) (A) (A) (A) (A) (A)
                 (A) (A) (A) (A) (A) (A) (A) (A) (A) (A) (A) (A)
                 (A) (A) (A) (A) (A) (A) (A) (A) (A) (A) (A) (A)
                 (A) (A) (A) (A) (A) (A) (A) (A) (A) (A) (A) (A)
                 (A) (A) (A) (A) (A) (A) (A) (A) (A) (A) (A) (A)
                 (A) (A) (A) (A) (A) (A) (A) (A) (A) (A) (A) (A)
                 (A) (A) (A) (A) (A) (A) (A) (A) (A) (A) (A) (A)
                 (A) (A) (A) (A) (A) (A) (A) (A) (A) (A) (A) (A)
                 (A) (A) (A) (A) (A) (A) (A) (A) (A) (A) (A) (A)
                 (A) (A) (A) (A) (A) (A) (A) (A) (A) (A) (A) (A)
                 (A) (A) (A) (A) (A) (A) (A) (A) (A) (A) (A) (A)
                 (A) (A)
 The electronic state is 1-A.
 Alpha  occ. eigenvalues --  -20.52124 -15.58800 -11.35453 -11.27074 -11.24748
 Alpha  occ. eigenvalues --   -1.38132  -1.23204  -1.01578  -0.92783  -0.79367
 Alpha  occ. eigenvalues --   -0.68797  -0.64963  -0.63100  -0.58225  -0.57676
 Alpha  occ. eigenvalues --   -0.55677  -0.53633  -0.50577  -0.41959  -0.38689
 Alpha virt. eigenvalues --    0.02844   0.04371   0.04792   0.05248   0.06835
 Alpha virt. eigenvalues --    0.07437   0.08006   0.09922   0.12471   0.13084
 Alpha virt. eigenvalues --    0.13638   0.15150   0.15438   0.16501   0.17410
 Alpha virt. eigenvalues --    0.17655   0.17948   0.19289   0.20487   0.20598
 Alpha virt. eigenvalues --    0.21816   0.22916   0.25641   0.28652   0.28711
 Alpha virt. eigenvalues --    0.29464   0.30897   0.31303   0.33219   0.34554
 Alpha virt. eigenvalues --    0.36464   0.37378   0.39035   0.39802   0.40972
 Alpha virt. eigenvalues --    0.42155   0.42839   0.43922   0.45088   0.45208
 Alpha virt. eigenvalues --    0.46268   0.46957   0.49025   0.51514   0.51803
 Alpha virt. eigenvalues --    0.52190   0.53742   0.55220   0.55773   0.56973
 Alpha virt. eigenvalues --    0.59055   0.59370   0.61291   0.61791   0.62867
 Alpha virt. eigenvalues --    0.63831   0.65726   0.65801   0.67762   0.68614
 Alpha virt. eigenvalues --    0.68854   0.70035   0.71274   0.71437   0.73764
 Alpha virt. eigenvalues --    0.74887   0.75537   0.75828   0.80567   0.80726
 Alpha virt. eigenvalues --    0.83081   0.84072   0.86548   0.90923   0.94464
 Alpha virt. eigenvalues --    0.95305   0.98199   1.01674   1.02083   1.05510
 Alpha virt. eigenvalues --    1.08396   1.10371   1.10907   1.12130   1.13082
 Alpha virt. eigenvalues --    1.13990   1.19355   1.20751   1.24021   1.28468
 Alpha virt. eigenvalues --    1.30153   1.36428   1.42012   1.45166   1.45616
 Alpha virt. eigenvalues --    1.49434   1.52825   1.53650   1.59234   1.62069
 Alpha virt. eigenvalues --    1.67202   1.70862   1.71460   1.75953   1.77607
 Alpha virt. eigenvalues --    1.80358   1.84007   1.87011   1.87253   1.87786
 Alpha virt. eigenvalues --    1.89579   1.94826   2.03174   2.04154   2.04987
 Alpha virt. eigenvalues --    2.08059   2.09149   2.12697   2.17756   2.19332
 Alpha virt. eigenvalues --    2.21339   2.24960   2.25749   2.26024   2.30265
 Alpha virt. eigenvalues --    2.35930   2.36710   2.37616   2.38232   2.42403
 Alpha virt. eigenvalues --    2.44882   2.53374   2.54432   2.59474   2.59722
 Alpha virt. eigenvalues --    2.63092   2.67680   2.74247   2.77489   2.79372
 Alpha virt. eigenvalues --    2.82932   2.87781   2.89663   2.90757   2.98572
 Alpha virt. eigenvalues --    2.99127   3.02460   3.04591   3.07146   3.26978
 Alpha virt. eigenvalues --    3.42323   3.52406   3.63676   3.80602   3.82867
 Alpha virt. eigenvalues --    3.92297   4.05984   4.18678
          Condensed to atoms (all electrons):
               1          2          3          4          5          6
     1  C    4.754457   0.291551   0.266687   0.221360   0.033388  -0.059392
     2  O    0.291551   8.620959  -0.128602  -0.024376   0.025597   0.002095
     3  N    0.266687  -0.128602   6.938781   0.002768   0.015874  -0.008986
     4  C    0.221360  -0.024376   0.002768   4.522778   0.281576   0.392034
     5  H    0.033388   0.025597   0.015874   0.281576   0.822917  -0.072359
     6  H   -0.059392   0.002095  -0.008986   0.392034  -0.072359   0.781341
     7  H   -0.065279   0.002292  -0.017980   0.399980  -0.077353  -0.089843
     8  H   -0.106757   0.005332   0.315671  -0.061550  -0.002157   0.008503
     9  C   -0.072694  -0.000119   0.259858  -0.007161   0.001898  -0.001220
    10  H   -0.021989  -0.011775  -0.045972  -0.000351   0.000608  -0.000123
    11  H   -0.006048   0.006323  -0.052298  -0.000369  -0.000500  -0.000353
    12  H   -0.007145   0.006469  -0.051462   0.000465  -0.000287   0.000384
               7          8          9         10         11         12
     1  C   -0.065279  -0.106757  -0.072694  -0.021989  -0.006048  -0.007145
     2  O    0.002292   0.005332  -0.000119  -0.011775   0.006323   0.006469
     3  N   -0.017980   0.315671   0.259858  -0.045972  -0.052298  -0.051462
     4  C    0.399980  -0.061550  -0.007161  -0.000351  -0.000369   0.000465
     5  H   -0.077353  -0.002157   0.001898   0.000608  -0.000500  -0.000287
     6  H   -0.089843   0.008503  -0.001220  -0.000123  -0.000353   0.000384
     7  H    0.806331   0.011676  -0.003942  -0.000283   0.000597  -0.000540
     8  H    0.011676   1.088325  -0.097241   0.000964  -0.003470  -0.002816
     9  C   -0.003942  -0.097241   4.158999   0.473180   0.361662   0.361443
    10  H   -0.000283   0.000964   0.473180   0.893062  -0.104498  -0.105046
    11  H    0.000597  -0.003470   0.361662  -0.104498   0.974392  -0.106390
    12  H   -0.000540  -0.002816   0.361443  -0.105046  -0.106390   0.974641
 Mulliken charges:
               1
     1  C    0.771862
     2  O   -0.795747
     3  N   -0.494339
     4  C    0.272846
     5  H   -0.029202
     6  H    0.047920
     7  H    0.034345
     8  H   -0.156481
     9  C    0.565339
    10  H   -0.077779
    11  H   -0.069048
    12  H   -0.069717
 Sum of Mulliken charges =  -0.00000
 Mulliken charges with hydrogens summed into heavy atoms:
               1
     1  C    0.771862
     2  O   -0.795747
     3  N   -0.650820
     4  C    0.325909
     9  C    0.348795
 Electronic spatial extent (au):  <R**2>=            460.4361
 Charge=             -0.0000 electrons
 Dipole moment (field-independent basis, Debye):
    X=              0.4410    Y=             -4.0877    Z=              0.0013  Tot=              4.1114
 Quadrupole moment (field-independent basis, Debye-Ang):
   XX=            -27.1698   YY=            -34.0644   ZZ=            -31.4337
   XY=              1.5317   XZ=             -0.0026   YZ=             -0.0002
 Traceless Quadrupole moment (field-independent basis, Debye-Ang):
   XX=              3.7195   YY=             -3.1751   ZZ=             -0.5444
   XY=              1.5317   XZ=             -0.0026   YZ=             -0.0002
 Octapole moment (field-independent basis, Debye-Ang**2):
  XXX=             -0.2465  YYY=            -11.0985  ZZZ=              0.0945  XYY=              3.9037
  XXY=              0.6365  XXZ=             -0.0190  XZZ=             -0.3379  YZZ=             -0.2877
  YYZ=             -0.0745  XYZ=              0.0386
 Hexadecapole moment (field-independent basis, Debye-Ang**3):
 XXXX=           -404.3524 YYYY=           -151.3877 ZZZZ=            -44.7738 XXXY=             -3.9123
 XXXZ=              0.1361 YYYX=              1.4186 YYYZ=              0.1963 ZZZX=             -0.2084
 ZZZY=             -0.0909 XXYY=            -93.4323 XXZZ=            -74.3762 YYZZ=            -32.4982
 XXYZ=             -0.1331 YYXZ=              0.1118 ZZXY=              0.2089
 N-N= 1.800013796622D+02 E-N=-9.389809665434D+02  KE= 2.466296461955D+02
 Calling FoFJK, ICntrl=  10002127 FMM=F ISym2X=0 I1Cent= 0 IOpClX= 0 NMat=1 NMatS=1 NMatT=0.
 ***** Axes restored to original set *****
 -------------------------------------------------------------------
 Center     Atomic                   Forces (Hartrees/Bohr)
 Number     Number              X              Y              Z
 -------------------------------------------------------------------
      1        6           0.009660854    0.009115454   -0.000033111
      2        8          -0.029385463   -0.001722054    0.000299330
      3        7          -0.012489883   -0.013355412    0.000171083
      4        6           0.002307694   -0.000893022   -0.000350983
      5        1          -0.000102666   -0.000593243    0.000102642
      6        1          -0.000099173    0.000898630   -0.000192052
      7        1          -0.000072158    0.000863643    0.000291927
      8        1           0.024805253    0.010984042   -0.000154098
      9        6           0.002933696   -0.014618579   -0.000157177
     10        1           0.008096711    0.009700566   -0.000041960
     11        1          -0.002875772   -0.000165458   -0.005122396
     12        1          -0.002779093   -0.000214566    0.005186796
 -------------------------------------------------------------------
 Cartesian Forces:  Max     0.029385463 RMS     0.008453901

 GradGradGradGradGradGradGradGradGradGradGradGradGradGradGradGradGradGrad
 Berny optimization.
 FormGI is forming the generalized inverse of G from B-inverse, IUseBI=4.
 Internal  Forces:  Max     0.028652350 RMS     0.007507037
 Search for a local minimum.
 Step number   1 out of a maximum of   55
 All quantities printed in internal units (Hartrees-Bohrs-Radians)
 Mixed Optimization -- RFO/linear search
 Second derivative matrix not updated -- first step.
 ITU=  0
     Eigenvalues ---    0.00503   0.01033   0.01182   0.01545   0.02266
     Eigenvalues ---    0.07300   0.07318   0.07357   0.07679   0.16000
     Eigenvalues ---    0.16000   0.16000   0.16000   0.16000   0.16000
     Eigenvalues ---    0.16000   0.22000   0.25000   0.25000   0.30375
     Eigenvalues ---    0.32557   0.32583   0.32585   0.33529   0.33557
     Eigenvalues ---    0.34106   0.38274   0.50521   0.53647   0.95382
 RFO step:  Lambda=-6.04405722D-03 EMin= 5.02556827D-03
 Linear search not attempted -- first point.
 Iteration  1 RMS(Cart)=  0.03373899 RMS(Int)=  0.00106272
 Iteration  2 RMS(Cart)=  0.00103394 RMS(Int)=  0.00031193
 Iteration  3 RMS(Cart)=  0.00000114 RMS(Int)=  0.00031193
 Iteration  4 RMS(Cart)=  0.00000000 RMS(Int)=  0.00031193
 Variable       Old X    -DE/DX   Delta X   Delta X   Delta X     New X
                                 (Linear)    (Quad)   (Total)
    R1        2.30547   0.02865   0.00000   0.02985   0.02985   2.33532
    R2        2.56354   0.01822   0.00000   0.03359   0.03359   2.59713
    R3        2.87222   0.00086   0.00000   0.00277   0.00277   2.87499
    R4        1.86044   0.02696   0.00000   0.05273   0.05273   1.91317
    R5        2.73969   0.00437   0.00000   0.01125   0.01125   2.75094
    R6        2.07151  -0.00026   0.00000  -0.00076  -0.00076   2.07075
    R7        2.08133   0.00029   0.00000   0.00084   0.00084   2.08217
    R8        2.08085   0.00034   0.00000   0.00100   0.00100   2.08185
    R9        2.09836  -0.01013   0.00000  -0.03054  -0.03054   2.06782
   R10        2.09786  -0.00530   0.00000  -0.01598  -0.01598   2.08189
   R11        2.09790  -0.00530   0.00000  -0.01598  -0.01598   2.08192
    A1        2.10921   0.01109   0.00000   0.04332   0.04332   2.15253
    A2        2.15757  -0.00448   0.00000  -0.01749  -0.01749   2.14009
    A3        2.01640  -0.00661   0.00000  -0.02583  -0.02583   1.99057
    A4        2.09440  -0.00239   0.00000  -0.01509  -0.01509   2.07930
    A5        2.15319  -0.00086   0.00000  -0.00380  -0.00380   2.14939
    A6        2.03559   0.00325   0.00000   0.01890   0.01890   2.05449
    A7        1.90592  -0.00140   0.00000  -0.01052  -0.01051   1.89542
    A8        1.91750   0.00128   0.00000   0.00890   0.00887   1.92637
    A9        1.92473   0.00114   0.00000   0.00772   0.00769   1.93242
   A10        1.91289  -0.00025   0.00000  -0.00316  -0.00315   1.90974
   A11        1.91679  -0.00030   0.00000  -0.00420  -0.00419   1.91260
   A12        1.88593  -0.00044   0.00000   0.00139   0.00131   1.88724
   A13        1.96519  -0.01330   0.00000  -0.08698  -0.08663   1.87856
   A14        1.90808   0.00544   0.00000   0.03609   0.03554   1.94362
   A15        1.90791   0.00549   0.00000   0.03641   0.03587   1.94378
   A16        1.89083   0.00248   0.00000   0.00820   0.00853   1.89936
   A17        1.89066   0.00248   0.00000   0.00828   0.00863   1.89929
   A18        1.90013  -0.00246   0.00000  -0.00055  -0.00186   1.89827
    D1        3.14159   0.00004   0.00000   0.00206   0.00208  -3.13951
    D2       -0.00088   0.00005   0.00000   0.00260   0.00261   0.00173
    D3        0.00383   0.00004   0.00000   0.00062   0.00061   0.00444
    D4       -3.13864   0.00005   0.00000   0.00117   0.00115  -3.13750
    D5        0.03997   0.00006   0.00000   0.00224   0.00225   0.04222
    D6       -2.05850   0.00045   0.00000   0.00720   0.00725  -2.05125
    D7        2.14772  -0.00050   0.00000  -0.00483  -0.00485   2.14286
    D8       -3.10558   0.00010   0.00000   0.00387   0.00385  -3.10172
    D9        1.07914   0.00050   0.00000   0.00883   0.00885   1.08799
   D10       -0.99783  -0.00046   0.00000  -0.00320  -0.00325  -1.00107
   D11        0.00058  -0.00001   0.00000  -0.00035  -0.00034   0.00024
   D12       -2.10198   0.00176   0.00000   0.02110   0.02175  -2.08023
   D13        2.10282  -0.00176   0.00000  -0.02145  -0.02210   2.08072
   D14        3.14132  -0.00000   0.00000   0.00016   0.00017   3.14149
   D15        1.03876   0.00177   0.00000   0.02161   0.02226   1.06102
   D16       -1.03963  -0.00175   0.00000  -0.02094  -0.02159  -1.06122
         Item               Value     Threshold  Converged?
 Maximum Force            0.028652     0.000450     NO 
 RMS     Force            0.007507     0.000300     NO 
 Maximum Displacement     0.137704     0.001800     NO 
 RMS     Displacement     0.033671     0.001200     NO 
 Predicted change in Energy=-3.098268D-03
 GradGradGradGradGradGradGradGradGradGradGradGradGradGradGradGradGradGrad

                          Input orientation:                          
 ---------------------------------------------------------------------
 Center     Atomic      Atomic             Coordinates (Angstroms)
 Number     Number       Type             X           Y           Z
 ---------------------------------------------------------------------
      1          6           0       -1.026931   -0.110758    0.000303
      2          8           0       -2.220684   -0.430188    0.011059
      3          7           0       -0.000683   -1.024816   -0.011111
      4          6           0       -0.565976    1.339101   -0.004720
      5          1           0       -1.448516    1.986609    0.046488
      6          1           0       -0.002914    1.559399   -0.925844
      7          1           0        0.091365    1.542080    0.855730
      8          1           0        0.955528   -0.692282   -0.017750
      9          6           0       -0.216846   -2.464408   -0.013791
     10          1           0       -1.297301   -2.637380   -0.005561
     11          1           0        0.225845   -2.938322    0.876795
     12          1           0        0.211275   -2.932973   -0.914298
 ---------------------------------------------------------------------
                    Distance matrix (angstroms):
                    1          2          3          4          5
     1  C    0.000000
     2  O    1.235798   0.000000
     3  N    1.374342   2.298364   0.000000
     4  C    1.521379   2.422537   2.430575   0.000000
     5  H    2.139817   2.537401   3.341888   1.095795   0.000000
     6  H    2.166975   3.123259   2.741333   1.101835   1.793795
     7  H    2.171225   3.154185   2.710875   1.101668   1.795470
     8  H    2.066068   3.187137   1.012404   2.538042   3.600001
     9  C    2.489198   2.855527   1.455734   3.819510   4.618679
    10  H    2.541054   2.392616   2.069206   4.043172   4.626754
    11  H    3.214468   3.609119   2.121603   4.438513   5.267622
    12  H    3.214739   3.610352   2.121730   4.436447   5.280180
                    6          7          8          9         10
     6  H    0.000000
     7  H    1.784151   0.000000
     8  H    2.610232   2.549926   0.000000
     9  C    4.131421   4.111327   2.124831   0.000000
    10  H    4.487240   4.487550   2.976373   1.094244   0.000000
    11  H    4.850911   4.482470   2.525341   1.101686   1.785803
    12  H    4.497490   4.813884   2.525551   1.101705   1.785772
                   11         12
    11  H    0.000000
    12  H    1.791160   0.000000
 Stoichiometry    C3H7NO
 Framework group  C1[X(C3H7NO)]
 Deg. of freedom    30
 Full point group                 C1      NOp   1
 Largest Abelian subgroup         C1      NOp   1
 Largest concise Abelian subgroup C1      NOp   1
                         Standard orientation:                         
 ---------------------------------------------------------------------
 Center     Atomic      Atomic             Coordinates (Angstroms)
 Number     Number       Type             X           Y           Z
 ---------------------------------------------------------------------
      1          6           0       -0.492596    0.177942   -0.001447
      2          8           0       -0.437133    1.412495   -0.000419
      3          7           0        0.620634   -0.627996   -0.001703
      4          6           0       -1.809539   -0.583799    0.000744
      5          1           0       -2.631708    0.139453   -0.040605
      6          1           0       -1.900534   -1.189953    0.916351
      7          1           0       -1.869530   -1.261022   -0.866114
      8          1           0        0.501325   -1.633342   -0.004404
      9          6           0        1.980169   -0.107597    0.001320
     10          1           0        1.916944    0.984816    0.003905
     11          1           0        2.535041   -0.429459   -0.894356
     12          1           0        2.532884   -0.433754    0.896798
 ---------------------------------------------------------------------
 Rotational constants (GHZ):           9.7108927           3.8265538           2.8444405
 Standard basis: Aug-CC-pVDZ (5D, 7F)
 There are   188 symmetry adapted cartesian basis functions of A   symmetry.
 There are   178 symmetry adapted basis functions of A   symmetry.
   178 basis functions,   292 primitive gaussians,   188 cartesian basis functions
    20 alpha electrons       20 beta electrons
       nuclear repulsion energy       178.7735902390 Hartrees.
 NAtoms=   12 NActive=   12 NUniq=   12 SFac= 1.00D+00 NAtFMM=   60 NAOKFM=F Big=F
 Integral buffers will be    131072 words long.
 Raffenetti 1 integral format.
 Two-electron integral symmetry is turned on.
 One-electron integrals computed using PRISM.
 NBasis=   178 RedAO= T EigKep=  4.12D-05  NBF=   178
 NBsUse=   178 1.00D-06 EigRej= -1.00D+00 NBFU=   178
 Initial guess from the checkpoint file:  "/scr/Gau-74051.chk"
 B after Tr=    -0.000000   -0.000000    0.000000
         Rot=    0.999955   -0.000009    0.000041   -0.009507 Ang=  -1.09 deg.
 ExpMin= 2.97D-02 ExpMax= 1.17D+04 ExpMxC= 4.01D+02 IAcc=3 IRadAn=         5 AccDes= 0.00D+00
 Harris functional with IExCor=  205 and IRadAn=       5 diagonalized for initial guess.
 HarFok:  IExCor=  205 AccDes= 0.00D+00 IRadAn=         5 IDoV= 1 UseB2=F ITyADJ=14
 ICtDFT=  3500011 ScaDFX=  1.000000  1.000000  1.000000  1.000000
 FoFCou: FMM=F IPFlag=           0 FMFlag=      100000 FMFlg1=           0
         NFxFlg=           0 DoJE=T BraDBF=F KetDBF=T FulRan=T
         wScrn=  0.000000 ICntrl=       500 IOpCl=  0 I1Cent=   200000004 NGrid=           0
         NMat0=    1 NMatS0=      1 NMatT0=    0 NMatD0=    1 NMtDS0=    0 NMtDT0=    0
 Petite list used in FoFCou.
 Keep R1 ints in memory in canonical form, NReq=135802942.
 Requested convergence on RMS density matrix=1.00D-08 within 128 cycles.
 Requested convergence on MAX density matrix=1.00D-06.
 Requested convergence on             energy=1.00D-06.
 No special actions if energy rises.
 SCF Done:  E(RHF) =  -247.039544431     A.U. after   11 cycles
            NFock= 11  Conv=0.62D-08     -V/T= 2.0023
 ExpMin= 2.97D-02 ExpMax= 1.17D+04 ExpMxC= 4.01D+02 IAcc=3 IRadAn=         5 AccDes= 0.00D+00
 HarFok:  IExCor=  205 AccDes= 0.00D+00 IRadAn=         5 IDoV=-2 UseB2=F ITyADJ=14
 ICtDFT= 12500011 ScaDFX=  1.000000  1.000000  1.000000  1.000000
 Range of M.O.s used for correlation:     6   178
 NBasis=   178 NAE=    20 NBE=    20 NFC=     5 NFV=     0
 NROrb=    173 NOA=    15 NOB=    15 NVA=   158 NVB=   158

 **** Warning!!: The largest alpha MO coefficient is  0.50109288D+02

 Fully direct method using O(ONN) memory.
 JobTyp=1 Pass  1:  I=   6 to  20 NPSUse= 40 ParTrn=T ParDer=T DoDerP=T.
 Spin components of T(2) and E(2):
     alpha-alpha T2 =       0.3352469789D-01 E2=     -0.1012754201D+00
     alpha-beta  T2 =       0.1924026634D+00 E2=     -0.6048517972D+00
     beta-beta   T2 =       0.3352469789D-01 E2=     -0.1012754201D+00
 ANorm=    0.1122253117D+01
 E2 =    -0.8074026374D+00 EUMP2 =    -0.24784694706854D+03
          IDoAtm=111111111111
          Differentiating once with respect to electric field.
                with respect to dipole field.
          Differentiating once with respect to nuclear coordinates.
 Keep R1 ints in memory in canonical form, NReq=135813467.
          There are     1 degrees of freedom in the 1st order CPHF.  IDoFFX=0 NUNeed=     1.
 LinEq1:  Iter=  0 NonCon=     1 RMS=4.61D-03 Max=8.05D-02 NDo=     1
 AX will form     1 AO Fock derivatives at one time.
 LinEq1:  Iter=  1 NonCon=     1 RMS=1.37D-03 Max=1.80D-02 NDo=     1
 LinEq1:  Iter=  2 NonCon=     1 RMS=4.97D-04 Max=6.88D-03 NDo=     1
 LinEq1:  Iter=  3 NonCon=     1 RMS=1.73D-04 Max=2.78D-03 NDo=     1
 LinEq1:  Iter=  4 NonCon=     1 RMS=5.27D-05 Max=5.04D-04 NDo=     1
 LinEq1:  Iter=  5 NonCon=     1 RMS=1.74D-05 Max=2.02D-04 NDo=     1
 LinEq1:  Iter=  6 NonCon=     1 RMS=4.63D-06 Max=5.08D-05 NDo=     1
 LinEq1:  Iter=  7 NonCon=     1 RMS=9.87D-07 Max=9.62D-06 NDo=     1
 LinEq1:  Iter=  8 NonCon=     1 RMS=2.19D-07 Max=2.84D-06 NDo=     1
 LinEq1:  Iter=  9 NonCon=     1 RMS=6.68D-08 Max=1.15D-06 NDo=     1
 LinEq1:  Iter= 10 NonCon=     1 RMS=2.19D-08 Max=2.85D-07 NDo=     1
 LinEq1:  Iter= 11 NonCon=     1 RMS=5.47D-09 Max=5.40D-08 NDo=     1
 LinEq1:  Iter= 12 NonCon=     1 RMS=1.16D-09 Max=8.41D-09 NDo=     1
 LinEq1:  Iter= 13 NonCon=     1 RMS=3.66D-10 Max=2.65D-09 NDo=     1
 LinEq1:  Iter= 14 NonCon=     0 RMS=7.01D-11 Max=6.24D-10 NDo=     1
 Linear equations converged to 1.000D-10 1.000D-09 after    14 iterations.
 End of Minotr F.D. properties file   721 does not exist.
 End of Minotr F.D. properties file   722 does not exist.
 End of Minotr F.D. properties file   788 does not exist.
 Calling FoFJK, ICntrl=  10002127 FMM=F ISym2X=0 I1Cent= 0 IOpClX= 0 NMat=1 NMatS=1 NMatT=0.
 ***** Axes restored to original set *****
 -------------------------------------------------------------------
 Center     Atomic                   Forces (Hartrees/Bohr)
 Number     Number              X              Y              Z
 -------------------------------------------------------------------
      1        6           0.002313220    0.002488869    0.000125883
      2        8           0.000578809   -0.002232418   -0.000083426
      3        7           0.001050016   -0.003653888    0.000009232
      4        6           0.000474180   -0.000107200   -0.000167080
      5        1          -0.000170090    0.000310556    0.000056208
      6        1          -0.000217844    0.000111765    0.000014005
      7        1          -0.000181403    0.000101560    0.000025942
      8        1          -0.001577523    0.002748563    0.000020873
      9        6           0.000107231   -0.001832634   -0.000038437
     10        1          -0.002344079    0.000195866    0.000028269
     11        1          -0.000020597    0.000927664   -0.000050567
     12        1          -0.000011920    0.000941296    0.000059098
 -------------------------------------------------------------------
 Cartesian Forces:  Max     0.003653888 RMS     0.001208069

 GradGradGradGradGradGradGradGradGradGradGradGradGradGradGradGradGradGrad
 Berny optimization.
 Using GEDIIS/GDIIS optimizer.
 FormGI is forming the generalized inverse of G from B-inverse, IUseBI=4.
 Internal  Forces:  Max     0.003961250 RMS     0.001138899
 Search for a local minimum.
 Step number   2 out of a maximum of   55
 All quantities printed in internal units (Hartrees-Bohrs-Radians)
 Mixed Optimization -- RFO/linear search
 Update second derivatives using D2CorX and points    1    2
 DE= -2.85D-03 DEPred=-3.10D-03 R= 9.18D-01
 TightC=F SS=  1.41D+00  RLast= 1.50D-01 DXNew= 5.0454D-01 4.4931D-01
 Trust test= 9.18D-01 RLast= 1.50D-01 DXMaxT set to 4.49D-01
 ITU=  1  0
 Use linear search instead of GDIIS.
     Eigenvalues ---    0.00503   0.01033   0.01215   0.01534   0.02266
     Eigenvalues ---    0.07210   0.07372   0.07389   0.07770   0.14625
     Eigenvalues ---    0.16000   0.16000   0.16000   0.16000   0.16000
     Eigenvalues ---    0.16777   0.21925   0.25000   0.26939   0.30364
     Eigenvalues ---    0.32405   0.32584   0.33495   0.33544   0.33589
     Eigenvalues ---    0.34122   0.38266   0.50708   0.54753   0.94732
 RFO step:  Lambda=-2.36710554D-04 EMin= 5.02536937D-03
 Quartic linear search produced a step of -0.04620.
 Iteration  1 RMS(Cart)=  0.01099365 RMS(Int)=  0.00006432
 Iteration  2 RMS(Cart)=  0.00008161 RMS(Int)=  0.00001656
 Iteration  3 RMS(Cart)=  0.00000000 RMS(Int)=  0.00001656
 Variable       Old X    -DE/DX   Delta X   Delta X   Delta X     New X
                                 (Linear)    (Quad)   (Total)
    R1        2.33532   0.00002  -0.00138   0.00255   0.00117   2.33649
    R2        2.59713  -0.00164  -0.00155  -0.00007  -0.00162   2.59551
    R3        2.87499   0.00037  -0.00013   0.00139   0.00126   2.87625
    R4        1.91317  -0.00059  -0.00244   0.00336   0.00093   1.91409
    R5        2.75094   0.00011  -0.00052   0.00122   0.00070   2.75164
    R6        2.07075   0.00032   0.00004   0.00084   0.00087   2.07163
    R7        2.08217  -0.00010  -0.00004  -0.00022  -0.00025   2.08191
    R8        2.08185  -0.00007  -0.00005  -0.00011  -0.00016   2.08169
    R9        2.06782   0.00228   0.00141   0.00410   0.00551   2.07333
   R10        2.08189  -0.00045   0.00074  -0.00266  -0.00192   2.07996
   R11        2.08192  -0.00045   0.00074  -0.00268  -0.00194   2.07998
    A1        2.15253  -0.00383  -0.00200  -0.01094  -0.01295   2.13959
    A2        2.14009   0.00156   0.00081   0.00445   0.00526   2.14534
    A3        1.99057   0.00227   0.00119   0.00648   0.00768   1.99824
    A4        2.07930  -0.00200   0.00070  -0.01475  -0.01405   2.06525
    A5        2.14939  -0.00196   0.00018  -0.00883  -0.00865   2.14074
    A6        2.05449   0.00396  -0.00087   0.02358   0.02270   2.07720
    A7        1.89542   0.00012   0.00049  -0.00062  -0.00014   1.89528
    A8        1.92637   0.00011  -0.00041   0.00167   0.00126   1.92764
    A9        1.93242   0.00008  -0.00036   0.00130   0.00094   1.93336
   A10        1.90974  -0.00018   0.00015  -0.00165  -0.00151   1.90823
   A11        1.91260  -0.00019   0.00019  -0.00204  -0.00185   1.91075
   A12        1.88724   0.00005  -0.00006   0.00129   0.00123   1.88847
   A13        1.87856  -0.00049   0.00400  -0.01028  -0.00631   1.87225
   A14        1.94362  -0.00085  -0.00164  -0.00204  -0.00367   1.93995
   A15        1.94378  -0.00087  -0.00166  -0.00214  -0.00378   1.94000
   A16        1.89936   0.00065  -0.00039   0.00452   0.00409   1.90346
   A17        1.89929   0.00067  -0.00040   0.00463   0.00420   1.90349
   A18        1.89827   0.00095   0.00009   0.00550   0.00564   1.90391
    D1       -3.13951  -0.00001  -0.00010  -0.00135  -0.00143  -3.14095
    D2        0.00173   0.00000  -0.00012  -0.00049  -0.00060   0.00113
    D3        0.00444   0.00003  -0.00003   0.00197   0.00194   0.00638
    D4       -3.13750   0.00004  -0.00005   0.00284   0.00277  -3.13473
    D5        0.04222   0.00006  -0.00010   0.00608   0.00599   0.04820
    D6       -2.05125   0.00013  -0.00033   0.00749   0.00716  -2.04409
    D7        2.14286  -0.00006   0.00022   0.00397   0.00420   2.14706
    D8       -3.10172   0.00001  -0.00018   0.00276   0.00257  -3.09915
    D9        1.08799   0.00009  -0.00041   0.00417   0.00375   1.09174
   D10       -1.00107  -0.00010   0.00015   0.00065   0.00079  -1.00029
   D11        0.00024  -0.00001   0.00002  -0.00053  -0.00051  -0.00027
   D12       -2.08023  -0.00000  -0.00100   0.00158   0.00054  -2.07970
   D13        2.08072  -0.00001   0.00102  -0.00255  -0.00150   2.07922
   D14        3.14149   0.00000  -0.00001   0.00032   0.00032  -3.14138
   D15        1.06102   0.00001  -0.00103   0.00243   0.00137   1.06238
   D16       -1.06122   0.00000   0.00100  -0.00170  -0.00067  -1.06189
         Item               Value     Threshold  Converged?
 Maximum Force            0.003961     0.000450     NO 
 RMS     Force            0.001139     0.000300     NO 
 Maximum Displacement     0.035181     0.001800     NO 
 RMS     Displacement     0.010999     0.001200     NO 
 Predicted change in Energy=-1.253837D-04
 GradGradGradGradGradGradGradGradGradGradGradGradGradGradGradGradGradGrad

                          Input orientation:                          
 ---------------------------------------------------------------------
 Center     Atomic      Atomic             Coordinates (Angstroms)
 Number     Number       Type             X           Y           Z
 ---------------------------------------------------------------------
      1          6           0       -1.016459   -0.114367    0.001442
      2          8           0       -2.206760   -0.448805    0.009546
      3          7           0        0.008707   -1.028356   -0.009489
      4          6           0       -0.565757    1.339404   -0.005207
      5          1           0       -1.453238    1.980710    0.048499
      6          1           0       -0.007924    1.565158   -0.928029
      7          1           0        0.091209    1.548711    0.853906
      8          1           0        0.960787   -0.682719   -0.015138
      9          6           0       -0.220677   -2.466273   -0.013828
     10          1           0       -1.306570   -2.622943   -0.006607
     11          1           0        0.216897   -2.940941    0.877626
     12          1           0        0.203947   -2.933519   -0.915420
 ---------------------------------------------------------------------
                    Distance matrix (angstroms):
                    1          2          3          4          5
     1  C    0.000000
     2  O    1.236419   0.000000
     3  N    1.373484   2.290095   0.000000
     4  C    1.522047   2.427098   2.436455   0.000000
     5  H    2.140639   2.543984   3.345911   1.096257   0.000000
     6  H    2.168378   3.125696   2.751419   1.101700   1.793103
     7  H    2.172430   3.159696   2.719104   1.101585   1.794609
     8  H    2.057377   3.176268   1.012894   2.533657   3.595194
     9  C    2.482934   2.831122   1.456105   3.821299   4.615056
    10  H    2.525308   2.353185   2.067044   4.031005   4.606318
    11  H    3.205992   3.583074   2.118561   4.439966   5.263027
    12  H    3.205876   3.583416   2.118602   4.436080   5.274945
                    6          7          8          9         10
     6  H    0.000000
     7  H    1.784767   0.000000
     8  H    2.612417   2.547682   0.000000
     9  C    4.139259   4.119505   2.139374   0.000000
    10  H    4.480591   4.482964   2.984200   1.097161   0.000000
    11  H    4.859616   4.491473   2.539679   1.100668   1.789956
    12  H    4.503681   4.820125   2.539570   1.100678   1.789989
                   11         12
    11  H    0.000000
    12  H    1.793108   0.000000
 Stoichiometry    C3H7NO
 Framework group  C1[X(C3H7NO)]
 Deg. of freedom    30
 Full point group                 C1      NOp   1
 Largest Abelian subgroup         C1      NOp   1
 Largest concise Abelian subgroup C1      NOp   1
                         Standard orientation:                         
 ---------------------------------------------------------------------
 Center     Atomic      Atomic             Coordinates (Angstroms)
 Number     Number       Type             X           Y           Z
 ---------------------------------------------------------------------
      1          6           0       -0.491015    0.175396   -0.002849
      2          8           0       -0.411968    1.409283   -0.000336
      3          7           0        0.616556   -0.636852   -0.002609
      4          6           0       -1.818934   -0.568404    0.001489
      5          1           0       -2.631256    0.166388   -0.043152
      6          1           0       -1.920550   -1.169142    0.919384
      7          1           0       -1.889497   -1.246971   -0.863414
      8          1           0        0.476910   -1.640070   -0.005351
      9          6           0        1.975120   -0.112904    0.002007
     10          1           0        1.902060    0.981818    0.004663
     11          1           0        2.527698   -0.434084   -0.894080
     12          1           0        2.523466   -0.438761    0.899017
 ---------------------------------------------------------------------
 Rotational constants (GHZ):           9.7548272           3.8345911           2.8528038
 Standard basis: Aug-CC-pVDZ (5D, 7F)
 There are   188 symmetry adapted cartesian basis functions of A   symmetry.
 There are   178 symmetry adapted basis functions of A   symmetry.
   178 basis functions,   292 primitive gaussians,   188 cartesian basis functions
    20 alpha electrons       20 beta electrons
       nuclear repulsion energy       178.9031523525 Hartrees.
 NAtoms=   12 NActive=   12 NUniq=   12 SFac= 1.00D+00 NAtFMM=   60 NAOKFM=F Big=F
 Integral buffers will be    131072 words long.
 Raffenetti 1 integral format.
 Two-electron integral symmetry is turned on.
 One-electron integrals computed using PRISM.
 NBasis=   178 RedAO= T EigKep=  4.07D-05  NBF=   178
 NBsUse=   178 1.00D-06 EigRej= -1.00D+00 NBFU=   178
 Initial guess from the checkpoint file:  "/scr/Gau-74051.chk"
 B after Tr=    -0.000000   -0.000000   -0.000000
         Rot=    0.999992    0.000183    0.000038    0.003913 Ang=   0.45 deg.
 ExpMin= 2.97D-02 ExpMax= 1.17D+04 ExpMxC= 4.01D+02 IAcc=3 IRadAn=         5 AccDes= 0.00D+00
 Harris functional with IExCor=  205 and IRadAn=       5 diagonalized for initial guess.
 HarFok:  IExCor=  205 AccDes= 0.00D+00 IRadAn=         5 IDoV= 1 UseB2=F ITyADJ=14
 ICtDFT=  3500011 ScaDFX=  1.000000  1.000000  1.000000  1.000000
 FoFCou: FMM=F IPFlag=           0 FMFlag=      100000 FMFlg1=           0
         NFxFlg=           0 DoJE=T BraDBF=F KetDBF=T FulRan=T
         wScrn=  0.000000 ICntrl=       500 IOpCl=  0 I1Cent=   200000004 NGrid=           0
         NMat0=    1 NMatS0=      1 NMatT0=    0 NMatD0=    1 NMtDS0=    0 NMtDT0=    0
 Petite list used in FoFCou.
 Keep R1 ints in memory in canonical form, NReq=135803237.
 Requested convergence on RMS density matrix=1.00D-08 within 128 cycles.
 Requested convergence on MAX density matrix=1.00D-06.
 Requested convergence on             energy=1.00D-06.
 No special actions if energy rises.
 SCF Done:  E(RHF) =  -247.039562621     A.U. after   10 cycles
            NFock= 10  Conv=0.74D-08     -V/T= 2.0023
 ExpMin= 2.97D-02 ExpMax= 1.17D+04 ExpMxC= 4.01D+02 IAcc=3 IRadAn=         5 AccDes= 0.00D+00
 HarFok:  IExCor=  205 AccDes= 0.00D+00 IRadAn=         5 IDoV=-2 UseB2=F ITyADJ=14
 ICtDFT= 12500011 ScaDFX=  1.000000  1.000000  1.000000  1.000000
 Range of M.O.s used for correlation:     6   178
 NBasis=   178 NAE=    20 NBE=    20 NFC=     5 NFV=     0
 NROrb=    173 NOA=    15 NOB=    15 NVA=   158 NVB=   158

 **** Warning!!: The largest alpha MO coefficient is  0.50503539D+02

 Fully direct method using O(ONN) memory.
 JobTyp=1 Pass  1:  I=   6 to  20 NPSUse= 40 ParTrn=T ParDer=T DoDerP=T.
 Spin components of T(2) and E(2):
     alpha-alpha T2 =       0.3353919482D-01 E2=     -0.1013092631D+00
     alpha-beta  T2 =       0.1924330373D+00 E2=     -0.6049001290D+00
     beta-beta   T2 =       0.3353919482D-01 E2=     -0.1013092631D+00
 ANorm=    0.1122279567D+01
 E2 =    -0.8075186552D+00 EUMP2 =    -0.24784708127668D+03
          IDoAtm=111111111111
          Differentiating once with respect to electric field.
                with respect to dipole field.
          Differentiating once with respect to nuclear coordinates.
 Keep R1 ints in memory in canonical form, NReq=135813585.
          There are     1 degrees of freedom in the 1st order CPHF.  IDoFFX=0 NUNeed=     1.
 LinEq1:  Iter=  0 NonCon=     1 RMS=4.62D-03 Max=7.98D-02 NDo=     1
 AX will form     1 AO Fock derivatives at one time.
 LinEq1:  Iter=  1 NonCon=     1 RMS=1.37D-03 Max=1.80D-02 NDo=     1
 LinEq1:  Iter=  2 NonCon=     1 RMS=4.97D-04 Max=6.88D-03 NDo=     1
 LinEq1:  Iter=  3 NonCon=     1 RMS=1.73D-04 Max=2.74D-03 NDo=     1
 LinEq1:  Iter=  4 NonCon=     1 RMS=5.29D-05 Max=5.03D-04 NDo=     1
 LinEq1:  Iter=  5 NonCon=     1 RMS=1.75D-05 Max=2.21D-04 NDo=     1
 LinEq1:  Iter=  6 NonCon=     1 RMS=4.66D-06 Max=5.11D-05 NDo=     1
 LinEq1:  Iter=  7 NonCon=     1 RMS=9.98D-07 Max=9.69D-06 NDo=     1
 LinEq1:  Iter=  8 NonCon=     1 RMS=2.23D-07 Max=2.89D-06 NDo=     1
 LinEq1:  Iter=  9 NonCon=     1 RMS=6.88D-08 Max=1.18D-06 NDo=     1
 LinEq1:  Iter= 10 NonCon=     1 RMS=2.26D-08 Max=2.81D-07 NDo=     1
 LinEq1:  Iter= 11 NonCon=     1 RMS=5.58D-09 Max=5.20D-08 NDo=     1
 LinEq1:  Iter= 12 NonCon=     1 RMS=1.18D-09 Max=8.36D-09 NDo=     1
 LinEq1:  Iter= 13 NonCon=     1 RMS=3.73D-10 Max=2.68D-09 NDo=     1
 LinEq1:  Iter= 14 NonCon=     1 RMS=7.69D-11 Max=1.00D-09 NDo=     1
 LinEq1:  Iter= 15 NonCon=     0 RMS=1.67D-11 Max=3.47D-10 NDo=     1
 Linear equations converged to 1.000D-10 1.000D-09 after    15 iterations.
 End of Minotr F.D. properties file   721 does not exist.
 End of Minotr F.D. properties file   722 does not exist.
 End of Minotr F.D. properties file   788 does not exist.
 Calling FoFJK, ICntrl=  10002127 FMM=F ISym2X=0 I1Cent= 0 IOpClX= 0 NMat=1 NMatS=1 NMatT=0.
 ***** Axes restored to original set *****
 -------------------------------------------------------------------
 Center     Atomic                   Forces (Hartrees/Bohr)
 Number     Number              X              Y              Z
 -------------------------------------------------------------------
      1        6           0.000455148    0.000346228   -0.000335386
      2        8          -0.000263333    0.000346360    0.000087034
      3        7           0.001638140   -0.000278860    0.000112400
      4        6          -0.000185788   -0.000493987    0.000089866
      5        1          -0.000035512    0.000024477    0.000031543
      6        1          -0.000116564   -0.000072775   -0.000025144
      7        1          -0.000038840   -0.000015507    0.000019987
      8        1          -0.001100250    0.000215923    0.000022689
      9        6          -0.000463949   -0.000497039   -0.000000035
     10        1          -0.000096885    0.000113427    0.000002143
     11        1           0.000102986    0.000150037    0.000140775
     12        1           0.000104846    0.000161715   -0.000145870
 -------------------------------------------------------------------
 Cartesian Forces:  Max     0.001638140 RMS     0.000393525

 GradGradGradGradGradGradGradGradGradGradGradGradGradGradGradGradGradGrad
 Berny optimization.
 Using GEDIIS/GDIIS optimizer.
 FormGI is forming the generalized inverse of G from B-inverse, IUseBI=4.
 Internal  Forces:  Max     0.000960638 RMS     0.000251490
 Search for a local minimum.
 Step number   3 out of a maximum of   55
 All quantities printed in internal units (Hartrees-Bohrs-Radians)
 Mixed Optimization -- En-DIIS/RFO-DIIS
 Update second derivatives using D2CorX and points    1    2    3
 DE= -1.34D-04 DEPred=-1.25D-04 R= 1.07D+00
 TightC=F SS=  1.41D+00  RLast= 3.71D-02 DXNew= 7.5565D-01 1.1129D-01
 Trust test= 1.07D+00 RLast= 3.71D-02 DXMaxT set to 4.49D-01
 ITU=  1  1  0
 Use linear search instead of GDIIS.
     Eigenvalues ---    0.00500   0.01033   0.01213   0.01523   0.02265
     Eigenvalues ---    0.07170   0.07388   0.07429   0.07829   0.12427
     Eigenvalues ---    0.15998   0.16000   0.16000   0.16000   0.16042
     Eigenvalues ---    0.16423   0.21797   0.24953   0.28408   0.31070
     Eigenvalues ---    0.32584   0.32593   0.33527   0.33556   0.34070
     Eigenvalues ---    0.34331   0.38290   0.51264   0.55009   0.94635
 RFO step:  Lambda=-1.41598883D-05 EMin= 4.99675905D-03
 Quartic linear search produced a step of  0.07361.
 Iteration  1 RMS(Cart)=  0.00387771 RMS(Int)=  0.00001189
 Iteration  2 RMS(Cart)=  0.00001258 RMS(Int)=  0.00000342
 Iteration  3 RMS(Cart)=  0.00000000 RMS(Int)=  0.00000342
 Variable       Old X    -DE/DX   Delta X   Delta X   Delta X     New X
                                 (Linear)    (Quad)   (Total)
    R1        2.33649   0.00016   0.00009   0.00032   0.00040   2.33689
    R2        2.59551   0.00023  -0.00012   0.00065   0.00053   2.59604
    R3        2.87625  -0.00064   0.00009  -0.00229  -0.00220   2.87405
    R4        1.91409  -0.00096   0.00007  -0.00179  -0.00172   1.91237
    R5        2.75164   0.00013   0.00005   0.00040   0.00045   2.75209
    R6        2.07163   0.00004   0.00006   0.00012   0.00019   2.07181
    R7        2.08191  -0.00005  -0.00002  -0.00016  -0.00018   2.08173
    R8        2.08169  -0.00001  -0.00001  -0.00003  -0.00004   2.08166
    R9        2.07333   0.00008   0.00041   0.00002   0.00042   2.07376
   R10        2.07996   0.00009  -0.00014   0.00025   0.00011   2.08007
   R11        2.07998   0.00009  -0.00014   0.00025   0.00011   2.08009
    A1        2.13959   0.00045  -0.00095   0.00240   0.00144   2.14103
    A2        2.14534  -0.00049   0.00039  -0.00229  -0.00191   2.14343
    A3        1.99824   0.00004   0.00057  -0.00007   0.00048   1.99872
    A4        2.06525  -0.00049  -0.00103  -0.00323  -0.00427   2.06098
    A5        2.14074  -0.00013  -0.00064  -0.00051  -0.00115   2.13959
    A6        2.07720   0.00062   0.00167   0.00375   0.00542   2.08261
    A7        1.89528   0.00000  -0.00001  -0.00015  -0.00016   1.89512
    A8        1.92764  -0.00012   0.00009  -0.00079  -0.00069   1.92695
    A9        1.93336  -0.00000   0.00007   0.00013   0.00020   1.93356
   A10        1.90823   0.00002  -0.00011  -0.00004  -0.00016   1.90808
   A11        1.91075  -0.00001  -0.00014  -0.00009  -0.00022   1.91053
   A12        1.88847   0.00010   0.00009   0.00094   0.00103   1.88950
   A13        1.87225  -0.00009  -0.00046  -0.00080  -0.00127   1.87098
   A14        1.93995  -0.00023  -0.00027  -0.00137  -0.00164   1.93831
   A15        1.94000  -0.00025  -0.00028  -0.00153  -0.00181   1.93819
   A16        1.90346   0.00017   0.00030   0.00123   0.00153   1.90498
   A17        1.90349   0.00018   0.00031   0.00124   0.00155   1.90504
   A18        1.90391   0.00023   0.00042   0.00129   0.00170   1.90561
    D1       -3.14095   0.00006  -0.00011   0.00457   0.00447  -3.13648
    D2        0.00113   0.00006  -0.00004   0.00467   0.00463   0.00576
    D3        0.00638  -0.00003   0.00014  -0.00345  -0.00332   0.00306
    D4       -3.13473  -0.00003   0.00020  -0.00335  -0.00316  -3.13788
    D5        0.04820  -0.00003   0.00044   0.00139   0.00183   0.05004
    D6       -2.04409   0.00001   0.00053   0.00201   0.00254  -2.04155
    D7        2.14706  -0.00004   0.00031   0.00127   0.00158   2.14864
    D8       -3.09915   0.00006   0.00019   0.00946   0.00965  -3.08950
    D9        1.09174   0.00010   0.00028   0.01008   0.01035   1.10210
   D10       -1.00029   0.00005   0.00006   0.00934   0.00939  -0.99089
   D11       -0.00027   0.00000  -0.00004  -0.00007  -0.00011  -0.00038
   D12       -2.07970  -0.00002   0.00004  -0.00029  -0.00025  -2.07995
   D13        2.07922   0.00002  -0.00011   0.00007  -0.00004   2.07918
   D14       -3.14138   0.00000   0.00002   0.00003   0.00006  -3.14132
   D15        1.06238  -0.00002   0.00010  -0.00019  -0.00008   1.06230
   D16       -1.06189   0.00002  -0.00005   0.00017   0.00012  -1.06176
         Item               Value     Threshold  Converged?
 Maximum Force            0.000961     0.000450     NO 
 RMS     Force            0.000251     0.000300     YES
 Maximum Displacement     0.012106     0.001800     NO 
 RMS     Displacement     0.003878     0.001200     NO 
 Predicted change in Energy=-7.747490D-06
 GradGradGradGradGradGradGradGradGradGradGradGradGradGradGradGradGradGrad

                          Input orientation:                          
 ---------------------------------------------------------------------
 Center     Atomic      Atomic             Coordinates (Angstroms)
 Number     Number       Type             X           Y           Z
 ---------------------------------------------------------------------
      1          6           0       -1.015266   -0.114806   -0.002653
      2          8           0       -2.206247   -0.447550    0.007585
      3          7           0        0.010111   -1.029019   -0.009882
      4          6           0       -0.565521    1.338056   -0.005433
      5          1           0       -1.453186    1.978684    0.054905
      6          1           0       -0.012733    1.567244   -0.930329
      7          1           0        0.095046    1.544412    0.851606
      8          1           0        0.959872   -0.679665   -0.013589
      9          6           0       -0.220991   -2.466906   -0.013151
     10          1           0       -1.307499   -2.620946   -0.008434
     11          1           0        0.214545   -2.939506    0.880467
     12          1           0        0.206030   -2.933936   -0.913793
 ---------------------------------------------------------------------
                    Distance matrix (angstroms):
                    1          2          3          4          5
     1  C    0.000000
     2  O    1.236632   0.000000
     3  N    1.373767   2.291430   0.000000
     4  C    1.520884   2.424983   2.436066   0.000000
     5  H    2.139577   2.540857   3.345402   1.096356   0.000000
     6  H    2.166782   3.122591   2.754691   1.101605   1.793007
     7  H    2.171533   3.158517   2.715128   1.101565   1.794532
     8  H    2.054351   3.174686   1.011982   2.529444   3.590872
     9  C    2.482611   2.831867   1.456344   3.820537   4.613699
    10  H    2.523127   2.351947   2.066478   4.027932   4.602373
    11  H    3.204882   3.582178   2.117658   4.437438   5.258467
    12  H    3.204565   3.584708   2.117581   4.435124   5.274961
                    6          7          8          9         10
     6  H    0.000000
     7  H    1.785337   0.000000
     8  H    2.614378   2.538307   0.000000
     9  C    4.142337   4.115623   2.142118   0.000000
    10  H    4.479648   4.478505   2.984890   1.097384   0.000000
    11  H    4.862245   4.485603   2.541993   1.100725   1.791157
    12  H    4.506523   4.815034   2.541729   1.100737   1.791203
                   11         12
    11  H    0.000000
    12  H    1.794290   0.000000
 Stoichiometry    C3H7NO
 Framework group  C1[X(C3H7NO)]
 Deg. of freedom    30
 Full point group                 C1      NOp   1
 Largest Abelian subgroup         C1      NOp   1
 Largest concise Abelian subgroup C1      NOp   1
                         Standard orientation:                         
 ---------------------------------------------------------------------
 Center     Atomic      Atomic             Coordinates (Angstroms)
 Number     Number       Type             X           Y           Z
 ---------------------------------------------------------------------
      1          6           0       -0.490655    0.174521   -0.000017
      2          8           0       -0.413827    1.408763   -0.000939
      3          7           0        0.617440   -0.637487   -0.002128
      4          6           0       -1.817649   -0.568564    0.000702
      5          1           0       -2.629592    0.166281   -0.051715
      6          1           0       -1.923859   -1.164136    0.921325
      7          1           0       -1.883974   -1.251015   -0.861450
      8          1           0        0.474006   -1.639247   -0.005757
      9          6           0        1.975437   -0.111397    0.001440
     10          1           0        1.899315    0.983336    0.005386
     11          1           0        2.526048   -0.431789   -0.896207
     12          1           0        2.523795   -0.438477    0.898069
 ---------------------------------------------------------------------
 Rotational constants (GHZ):           9.7582759           3.8357214           2.8538204
 Standard basis: Aug-CC-pVDZ (5D, 7F)
 There are   188 symmetry adapted cartesian basis functions of A   symmetry.
 There are   178 symmetry adapted basis functions of A   symmetry.
   178 basis functions,   292 primitive gaussians,   188 cartesian basis functions
    20 alpha electrons       20 beta electrons
       nuclear repulsion energy       178.9249174493 Hartrees.
 NAtoms=   12 NActive=   12 NUniq=   12 SFac= 1.00D+00 NAtFMM=   60 NAOKFM=F Big=F
 Integral buffers will be    131072 words long.
 Raffenetti 1 integral format.
 Two-electron integral symmetry is turned on.
 One-electron integrals computed using PRISM.
 NBasis=   178 RedAO= T EigKep=  4.05D-05  NBF=   178
 NBsUse=   178 1.00D-06 EigRej= -1.00D+00 NBFU=   178
 Initial guess from the checkpoint file:  "/scr/Gau-74051.chk"
 B after Tr=    -0.000000    0.000000   -0.000000
         Rot=    1.000000    0.000204    0.000074   -0.000272 Ang=   0.04 deg.
 Keep R1 ints in memory in canonical form, NReq=135803355.
 Requested convergence on RMS density matrix=1.00D-08 within 128 cycles.
 Requested convergence on MAX density matrix=1.00D-06.
 Requested convergence on             energy=1.00D-06.
 No special actions if energy rises.
 SCF Done:  E(RHF) =  -247.039572674     A.U. after    9 cycles
            NFock=  9  Conv=0.50D-08     -V/T= 2.0022
 ExpMin= 2.97D-02 ExpMax= 1.17D+04 ExpMxC= 4.01D+02 IAcc=3 IRadAn=         5 AccDes= 0.00D+00
 HarFok:  IExCor=  205 AccDes= 0.00D+00 IRadAn=         5 IDoV=-2 UseB2=F ITyADJ=14
 ICtDFT= 12500011 ScaDFX=  1.000000  1.000000  1.000000  1.000000
 Range of M.O.s used for correlation:     6   178
 NBasis=   178 NAE=    20 NBE=    20 NFC=     5 NFV=     0
 NROrb=    173 NOA=    15 NOB=    15 NVA=   158 NVB=   158

 **** Warning!!: The largest alpha MO coefficient is  0.50560371D+02

 Fully direct method using O(ONN) memory.
 JobTyp=1 Pass  1:  I=   6 to  20 NPSUse= 40 ParTrn=T ParDer=T DoDerP=T.
 Spin components of T(2) and E(2):
     alpha-alpha T2 =       0.3353845962D-01 E2=     -0.1013119221D+00
     alpha-beta  T2 =       0.1924173447D+00 E2=     -0.6048903167D+00
     beta-beta   T2 =       0.3353845962D-01 E2=     -0.1013119221D+00
 ANorm=    0.1122271921D+01
 E2 =    -0.8075141608D+00 EUMP2 =    -0.24784708683508D+03
          IDoAtm=111111111111
          Differentiating once with respect to electric field.
                with respect to dipole field.
          Differentiating once with respect to nuclear coordinates.
 Keep R1 ints in memory in canonical form, NReq=135813585.
          There are     1 degrees of freedom in the 1st order CPHF.  IDoFFX=0 NUNeed=     1.
 LinEq1:  Iter=  0 NonCon=     1 RMS=4.62D-03 Max=8.00D-02 NDo=     1
 AX will form     1 AO Fock derivatives at one time.
 LinEq1:  Iter=  1 NonCon=     1 RMS=1.37D-03 Max=1.82D-02 NDo=     1
 LinEq1:  Iter=  2 NonCon=     1 RMS=4.98D-04 Max=6.91D-03 NDo=     1
 LinEq1:  Iter=  3 NonCon=     1 RMS=1.73D-04 Max=2.74D-03 NDo=     1
 LinEq1:  Iter=  4 NonCon=     1 RMS=5.30D-05 Max=5.10D-04 NDo=     1
 LinEq1:  Iter=  5 NonCon=     1 RMS=1.75D-05 Max=2.19D-04 NDo=     1
 LinEq1:  Iter=  6 NonCon=     1 RMS=4.67D-06 Max=5.10D-05 NDo=     1
 LinEq1:  Iter=  7 NonCon=     1 RMS=9.99D-07 Max=9.67D-06 NDo=     1
 LinEq1:  Iter=  8 NonCon=     1 RMS=2.24D-07 Max=2.89D-06 NDo=     1
 LinEq1:  Iter=  9 NonCon=     1 RMS=6.89D-08 Max=1.18D-06 NDo=     1
 LinEq1:  Iter= 10 NonCon=     1 RMS=2.26D-08 Max=2.80D-07 NDo=     1
 LinEq1:  Iter= 11 NonCon=     1 RMS=5.59D-09 Max=5.22D-08 NDo=     1
 LinEq1:  Iter= 12 NonCon=     1 RMS=1.18D-09 Max=8.34D-09 NDo=     1
 LinEq1:  Iter= 13 NonCon=     1 RMS=3.72D-10 Max=2.64D-09 NDo=     1
 LinEq1:  Iter= 14 NonCon=     1 RMS=7.71D-11 Max=1.04D-09 NDo=     1
 LinEq1:  Iter= 15 NonCon=     0 RMS=1.68D-11 Max=3.49D-10 NDo=     1
 Linear equations converged to 1.000D-10 1.000D-09 after    15 iterations.
 End of Minotr F.D. properties file   721 does not exist.
 End of Minotr F.D. properties file   722 does not exist.
 End of Minotr F.D. properties file   788 does not exist.
 Calling FoFJK, ICntrl=  10002127 FMM=F ISym2X=0 I1Cent= 0 IOpClX= 0 NMat=1 NMatS=1 NMatT=0.
 ***** Axes restored to original set *****
 -------------------------------------------------------------------
 Center     Atomic                   Forces (Hartrees/Bohr)
 Number     Number              X              Y              Z
 -------------------------------------------------------------------
      1        6          -0.000007429   -0.000086339    0.000821559
      2        8           0.000007700    0.000028631   -0.000353357
      3        7           0.000092182    0.000160467   -0.000107448
      4        6          -0.000047877    0.000015363   -0.000194472
      5        1           0.000032979   -0.000013036   -0.000006824
      6        1           0.000000955    0.000080703   -0.000031188
      7        1           0.000024879   -0.000008851   -0.000035671
      8        1          -0.000139932   -0.000073131   -0.000042784
      9        6          -0.000065833   -0.000053033   -0.000068384
     10        1           0.000096857    0.000022630    0.000011405
     11        1           0.000001925   -0.000022555    0.000001348
     12        1           0.000003594   -0.000050850    0.000005815
 -------------------------------------------------------------------
 Cartesian Forces:  Max     0.000821559 RMS     0.000163032

 GradGradGradGradGradGradGradGradGradGradGradGradGradGradGradGradGradGrad
 Berny optimization.
 Using GEDIIS/GDIIS optimizer.
 FormGI is forming the generalized inverse of G from B-inverse, IUseBI=4.
 Internal  Forces:  Max     0.000156418 RMS     0.000072755
 Search for a local minimum.
 Step number   4 out of a maximum of   55
 All quantities printed in internal units (Hartrees-Bohrs-Radians)
 Mixed Optimization -- En-DIIS/RFO-DIIS
 Swapping is turned off.
 Update second derivatives using D2CorX and points    1    2    3    4
 DE= -5.56D-06 DEPred=-7.75D-06 R= 7.17D-01
 TightC=F SS=  1.41D+00  RLast= 2.11D-02 DXNew= 7.5565D-01 6.3198D-02
 Trust test= 7.17D-01 RLast= 2.11D-02 DXMaxT set to 4.49D-01
 ITU=  1  1  1  0
     Eigenvalues ---    0.00441   0.01033   0.01515   0.01866   0.02278
     Eigenvalues ---    0.07137   0.07385   0.07447   0.07843   0.11374
     Eigenvalues ---    0.15998   0.16000   0.16000   0.16007   0.16115
     Eigenvalues ---    0.16730   0.21817   0.24751   0.28408   0.31318
     Eigenvalues ---    0.32575   0.32587   0.33550   0.33573   0.34064
     Eigenvalues ---    0.34350   0.38253   0.49501   0.54947   0.94621
 En-DIIS/RFO-DIIS/Sim-DIIS IScMMF=       -3 using points:     4    3
 RFO step:  Lambda=-8.88654946D-06.
 DidBck=F Rises=F RFO-DIIS coefs:    1.06264   -0.06264
 Iteration  1 RMS(Cart)=  0.00352683 RMS(Int)=  0.00001298
 Iteration  2 RMS(Cart)=  0.00001780 RMS(Int)=  0.00000658
 Iteration  3 RMS(Cart)=  0.00000000 RMS(Int)=  0.00000658
 Variable       Old X    -DE/DX   Delta X   Delta X   Delta X     New X
                                 (Linear)    (Quad)   (Total)
    R1        2.33689  -0.00002   0.00003   0.00021   0.00024   2.33713
    R2        2.59604   0.00000   0.00003   0.00023   0.00026   2.59631
    R3        2.87405   0.00007  -0.00014  -0.00068  -0.00082   2.87323
    R4        1.91237  -0.00016  -0.00011  -0.00088  -0.00099   1.91138
    R5        2.75209   0.00010   0.00003   0.00042   0.00044   2.75254
    R6        2.07181  -0.00003   0.00001   0.00001   0.00003   2.07184
    R7        2.08173   0.00004  -0.00001   0.00002   0.00001   2.08174
    R8        2.08166  -0.00001  -0.00000  -0.00005  -0.00005   2.08160
    R9        2.07376  -0.00010   0.00003   0.00002   0.00004   2.07380
   R10        2.08007   0.00001   0.00001   0.00001   0.00002   2.08009
   R11        2.08009   0.00002   0.00001   0.00003   0.00004   2.08013
    A1        2.14103   0.00001   0.00009   0.00041   0.00048   2.14150
    A2        2.14343  -0.00004  -0.00012  -0.00083  -0.00097   2.14246
    A3        1.99872   0.00003   0.00003   0.00044   0.00044   1.99917
    A4        2.06098   0.00000  -0.00027  -0.00206  -0.00232   2.05866
    A5        2.13959   0.00003  -0.00007  -0.00054  -0.00062   2.13897
    A6        2.08261  -0.00004   0.00034   0.00260   0.00294   2.08555
    A7        1.89512  -0.00000  -0.00001  -0.00011  -0.00012   1.89500
    A8        1.92695   0.00009  -0.00004   0.00021   0.00017   1.92711
    A9        1.93356  -0.00001   0.00001   0.00009   0.00010   1.93366
   A10        1.90808  -0.00005  -0.00001  -0.00039  -0.00040   1.90768
   A11        1.91053   0.00001  -0.00001  -0.00009  -0.00010   1.91043
   A12        1.88950  -0.00004   0.00006   0.00028   0.00035   1.88984
   A13        1.87098  -0.00003  -0.00008  -0.00091  -0.00099   1.86999
   A14        1.93831   0.00001  -0.00010  -0.00067  -0.00077   1.93754
   A15        1.93819   0.00007  -0.00011  -0.00041  -0.00052   1.93767
   A16        1.90498  -0.00001   0.00010   0.00062   0.00071   1.90570
   A17        1.90504  -0.00001   0.00010   0.00074   0.00084   1.90588
   A18        1.90561  -0.00004   0.00011   0.00065   0.00076   1.90637
    D1       -3.13648  -0.00014   0.00028  -0.00716  -0.00688   3.13983
    D2        0.00576  -0.00011   0.00029  -0.00563  -0.00534   0.00042
    D3        0.00306   0.00011  -0.00021   0.00599   0.00579   0.00885
    D4       -3.13788   0.00013  -0.00020   0.00752   0.00733  -3.13056
    D5        0.05004   0.00014   0.00011   0.01269   0.01281   0.06284
    D6       -2.04155   0.00015   0.00016   0.01312   0.01327  -2.02828
    D7        2.14864   0.00015   0.00010   0.01257   0.01266   2.16131
    D8       -3.08950  -0.00010   0.00060  -0.00048   0.00013  -3.08937
    D9        1.10210  -0.00010   0.00065  -0.00005   0.00060   1.10269
   D10       -0.99089  -0.00010   0.00059  -0.00060  -0.00001  -0.99091
   D11       -0.00038  -0.00003  -0.00001  -0.00097  -0.00098  -0.00137
   D12       -2.07995  -0.00001  -0.00002  -0.00078  -0.00080  -2.08074
   D13        2.07918  -0.00001  -0.00000  -0.00087  -0.00087   2.07831
   D14       -3.14132   0.00000   0.00000   0.00058   0.00058  -3.14074
   D15        1.06230   0.00002  -0.00001   0.00077   0.00076   1.06306
   D16       -1.06176   0.00001   0.00001   0.00068   0.00069  -1.06107
         Item               Value     Threshold  Converged?
 Maximum Force            0.000156     0.000450     YES
 RMS     Force            0.000073     0.000300     YES
 Maximum Displacement     0.009583     0.001800     NO 
 RMS     Displacement     0.003529     0.001200     NO 
 Predicted change in Energy=-4.442270D-06
 GradGradGradGradGradGradGradGradGradGradGradGradGradGradGradGradGradGrad

                          Input orientation:                          
 ---------------------------------------------------------------------
 Center     Atomic      Atomic             Coordinates (Angstroms)
 Number     Number       Type             X           Y           Z
 ---------------------------------------------------------------------
      1          6           0       -1.014428   -0.115091    0.002418
      2          8           0       -2.205754   -0.447209    0.004586
      3          7           0        0.010989   -1.029456   -0.006022
      4          6           0       -0.565420    1.337524   -0.005809
      5          1           0       -1.453211    1.977851    0.056120
      6          1           0       -0.016515    1.564814   -0.933489
      7          1           0        0.098081    1.546525    0.848279
      8          1           0        0.959472   -0.678140   -0.008846
      9          6           0       -0.221144   -2.467400   -0.013636
     10          1           0       -1.307935   -2.619626   -0.009752
     11          1           0        0.213864   -2.942169    0.879101
     12          1           0        0.206161   -2.931563   -0.915649
 ---------------------------------------------------------------------
                    Distance matrix (angstroms):
                    1          2          3          4          5
     1  C    0.000000
     2  O    1.236756   0.000000
[...]
 1375,0.00015071,0.00013465,0.00010311,-0.00005477,0.00021260,0.0001577
 4,-0.00018860,-0.00060457,0.00027334,0.00045114,0.00068204,-0.00007224
 ,-0.00023169,0.00006982,0.00005751,-0.00036560,-0.00002473,0.00001529,
 0.00002870,-0.00012760,-0.00003486,0.00016548,-0.00003500,-0.00012943,
 0.00018007,0.00011032,0.00017416,0.00006498,-0.00006587,-0.00009047,-0
 .00007476,-0.00000839,-0.00001152,-0.00007784,0.00001352,-0.00018275,0
 .00013500,-0.00001825,0.00003386,0.00002790,-0.00002554,-0.00000666,-0
 .00010286,0.00000425,0.00000452,-0.00001471,0.00000583,0.00000315,-0.0
 0000325,-0.00016373,-0.00001647,0.00017315,0.00016072,0.00026206,-0.00
 011501,-0.00005469,-0.00009515,0.00003341,-0.00003097,-0.00005759,0.00
 004293,0.00000299,-0.00006410,0.00008015,-0.00000156,-0.00006931,0.000
 02311,0.00003726,0.00001910,0.00001061,0.00005865,0.00001549,0.0000069
 7,-0.00002439,-0.00000097,-0.00002557,-0.00002474,-0.00009730,-0.00000
 701,0.00004801,0.00008121,-0.00004928,-0.00003183,0.00003812,-0.000023
 42,0.00001771,0.00000909,0.00000993,0.00000689,-0.00002904,-0.00004815
 ,-0.00002435,-0.00004433,-0.00008043,0.00000872,0.00001623,0.00001193,
 -0.00000280,-0.00003607,0.00007345,0.00000579,0.00000245,-0.00000203,-
 0.00000622,-0.00001842,-0.00000331,0.00013984,0.00010047,0.00009190,-0
 .00011272,-0.00002206,-0.00003711,0.00006901,-0.00002212,-0.00003534,-
 0.00001135,0.00000413,-0.00000868,-0.00002443,-0.00002140,0.00007303,0
 .00003209,-0.00005299,0.00004700,-0.00002575,0.00002266,-0.00000190,-0
 .00001469,0.00002137,-0.00002284,-0.00001293,0.00000564,-0.00001416,0.
 00000211,-0.00000650,0.00000139,-0.00015086,0.00004292,-0.00006603,-0.
 00000761,-0.00000992,0.00001579,0.00015187,0.00006165,-0.00001159,0.00
 003708,-0.00000030,0.00000222,-0.00000111,-0.00004070,-0.00000707,-0.0
 0002555,0.00012397,-0.00001732,0.00007102,-0.00009115,0.00000935,0.000
 00654,-0.00003896,0.00001067,-0.00008034,-0.00000861,0.00001183,-0.000
 00560,0.00000182,0.00000278,0.00000284,-0.00000566,-0.00006487,-0.0000
 2295,-0.00000037,0.00000269,-0.00001867,0.00001386,0.00005735,-0.00003
 315,-0.00001513,0.00010803,-0.00000890,0.00000063,-0.00000162,0.000069
 05,-0.00000914,-0.00010630,0.00004777,-0.00003211,-0.00002182,-0.00001
 812,0.00001219,0.00000044,-0.00000882,0.00001406,-0.00001110,-0.000013
 68,0.00000319,0.00000404,0.00000007,-0.00000463,0.00000166,-0.00006162
 ,0.00001069,-0.00002339,-0.00001489,0.00000193,0.00000371,0.00003365,0
 .00002528,0.00004960,0.00002517,0.00012307,0.00001292,-0.00003182,-0.0
 0003817,0.00000115,-0.00006613,-0.00003411,0.00004517,-0.00001003,-0.0
 0012805,-0.00001010,0.00000411,-0.00003567,-0.00002028,0.00001977,0.00
 003059,-0.00001239,-0.00000452,0.00000457,0.00000992,-0.00000477,-0.00
 001166,0.00000049,0.00016649,0.00006410,-0.00007582,-0.00000523,0.0000
 1647,-0.00001680,-0.00000746,-0.00001555,0.00000864,-0.00008559,0.0000
 7750,-0.00011626,0.00025561,-0.00007207,0.00003506,-0.00006933,-0.0000
 2480,0.00004257,-0.00005457,-0.00003640,0.00007727,-0.00005239,0.00006
 295,0.00001207,-0.00001299,-0.00000186,0.00002334,-0.00007776,-0.00001
 310,0.00000646,0.00002528,-0.00001509,-0.00002285,0.00000954,-0.000015
 21,-0.00000875,-0.00008178,0.00001132,-0.00000299,0.00000225,0.0000023
 6,0.00000397,-0.00000697,0.00002441,-0.00004990,0.00011533,0.00013238,
 0.00006674,-0.00009234,-0.00008317,-0.00002425,-0.00004239,0.00000376,
 0.00001414,0.00015125,-0.00013484,-0.00006236,-0.00012043,0.00001019,0
 .00004480,0.00000509,0.00002180,-0.00002587,-0.00001022,0.00000331,0.0
 0000682,0.00000260,0.00001117,0.00000632,-0.00004407,-0.00004875,-0.00
 020394,0.,0.00000957,0.00000353,-0.00002191,0.00001146,-0.00000324,0.0
 0005709,0.00006312,0.00017731,-0.00486049,0.00042161,-0.00301651,-0.00
 162872,0.00030891,-0.00279526,0.00080374,-0.00067132,0.00028018,-0.000
 25823,0.00232486,0.00007831,0.00129120,-0.00045643,-0.00186498,0.00032
 593,-0.00042970,0.00029471,0.00000139,-0.00023671,-0.00011265,0.002167
 60,0.00267599,0.00039901,0.00029309,-0.00027122,0.00026132,-0.00349113
 ,-0.00321277,0.00309695,-0.00183169,0.00071565,0.00155279,0.00041681,-
 0.00029344,-0.01972366,0.00039479,0.00154001,0.00167678,0.00023990,-0.
 00011848,0.00003929,-0.00277501,-0.00032883,-0.00031980,0.00011038,-0.
 00018682,0.00023891,0.00008776,-0.00014666,-0.00004768,-0.00058860,0.0
 0022680,-0.00028115,0.00055450,-0.00072008,0.00007686,-0.00044247,0.00
 020500,0.00012363,0.00013475,0.00045649,0.00030342,0.00026644,0.000313
 50,-0.00032900,0.00020667,-0.00010251,-0.00014358,0.00000031,-0.000095
 27,0.00011111,-0.00028709,0.00013116,-0.00027770,0.00004196,0.00018969
 ,0.00050210,0.00008301,0.00002922,-0.00002160,-0.00005259,-0.00002833,
 -0.00000390,0.00000884,-0.00008255,0.00002563,-0.00010935,0.00005527,0
 .00010479,0.00006650,-0.00006782,-0.00002536,-0.00002945,-0.00001029,0
 .00000573,0.00003436,0.00010604,-0.00002170,0.00005453,-0.00000135,-0.
 00005819,-0.00001979,-0.00001329,0.00002436,-0.00006877,-0.00001555,-0
 .00002980,0.00000583,0.00000093,0.00001534,0.00002450,0.00001610,0.000
 00149,0.00010632,-0.00006881,0.00001043,-0.00006919,0.00002640,-0.0000
 1630,-0.00003972,-0.00000437,0.00000564,-0.00000097,-0.00001268,-0.000
 02045,0.00002472,-0.00002733,0.00001638,0.00005268,-0.00002524,0.00000
 105,0.00001249,0.00001506,-0.00000516,-0.00003686,-0.00006518,-0.00002
 779,-0.00004670,0.00002676,0.00000981,-0.00002329,0.00010350,-0.000017
 78,0.00006401,-0.00001406,-0.00006555,0.00000515,-0.00000809,0.0000069
 2,0.00001990,0.00001847,0.00003094,0.00004391,0.00002481,0.00009849,-0
 .00003336,-0.00002618,-0.00003399,0.00001984,-0.00008190,-0.00001387,0
 .00000975,0.00008741,-0.00019698,-0.00000726,-0.00001419,0.00001393,-0
 .00000350,-0.00002075,0.00013512,0.00011591,-0.00002507,0.00008251,-0.
 00002493,0.00001283,-0.00001778,-0.00001035,-0.00000269,0.00001797,-0.
 00025937,-0.00010181,-0.00017365,0.00001249,0.00000220,0.00001262,0.00
 001502,0.00002112,-0.00000361,0.00018687,0.00004289,-0.00010759,0.0000
 3152,-0.00002325,-0.00001656,-0.00002001,-0.00005800,0.00000897,-0.000
 03318,-0.00002508,-0.00000714,-0.00001881,-0.00000292,0.00002765,0.000
 01020,0.00000326,0.00002573,-0.00000592,0.00006760,0.00006321,0.000078
 57,-0.00001936,0.00002286,-0.00001203,0.00000735,-0.00000838,0.0000189
 1,-0.00000114,-0.00003214,-0.00017366,-0.00005876,-0.00003720,-0.00000
 229,0.00002419,0.00001587,0.00000877,-0.00000936,0.00000209,0.00010990
 ,0.00003996,0.00004259,0.00017525,0.00040968,-0.00048684,0.00007595,-0
 .00006803,0.00012969,0.00009098,-0.00036446,-0.00058401,0.00004868,-0.
 00003499,0.00004459,-0.00001001,-0.00000727,0.00000580,-0.00001232,-0.
 00002460,-0.00002411,-0.00002590,-0.00001741,0.00000849,0.00030988,-0.
 00004430,0.00033166,-0.00003419,0.00002830,-0.00010790,0.00001456,-0.0
 0197965,0.00108834,-0.00116474,0.00001322,-0.00004958,0.00001061,-0.00
 000110,-0.00000910,0.00000088,-0.00000090,-0.00001094,-0.00000208,-0.0
 0001488,-0.00000997,-0.00000749,0.00128825,-0.00254189,-0.00052893,0.0
 0023937,0.00074952,0.00014204,-0.00003097,-0.00007495,-0.00056060,-0.0
 0022432,0.00070172,0.00004597,-0.00002197,-0.00000232,-0.00002336,-0.0
 0002310,-0.00000171,0.00000667,0.00000531,-0.00000089,0.00000910,-0.00
 001084,-0.00003723,0.00111075,0.00074248,-0.00091344,0.00192189,0.0003
 7197,0.00250119,-0.00010209,-0.00109434,-0.00020343,-0.01198848,0.0183
 8978,-0.00175476,-0.00045099,0.00031747,-0.00050567,-0.00003077,0.0001
 4356,0.00001780,0.00001014,0.00010362,-0.00000552,0.00003950,-0.000043
 57,0.00002312,0.00111345,-0.00037549,0.00004143,1.32486348,0.00159499,
 -0.00214006,0.00090791,-0.00075421,0.00017386,-0.00043662,-0.00579418,
 0.02347376,-0.00312264,-0.00015708,0.00013867,-0.00008812,0.00005819,-
 0.00000862,0.00003347,0.00005828,-0.00000883,0.00003270,0.00002324,0.0
 0006741,0.00001477,-0.00103952,-0.00248543,-0.00063378,-1.05089771,0.1
 8284426,0.00252422,0.00022952,-0.00089095,-0.00020748,-0.00064395,0.00
 010436,-0.00195998,0.01105298,-0.00975233,-0.00051042,0.00018455,0.000
 12607,0.00001650,0.00003778,0.00000424,-0.00000599,0.00010576,-0.00003
 570,0.00002257,-0.00002545,0.00001015,0.00005525,-0.00022937,0.0010478
 9,0.78362830,-0.61424745,0.41820378,-0.00033238,-0.00026936,0.00110933
 ,-0.00020056,-0.00014191,-0.00021841,0.00224960,0.00155403,0.00172531,
 0.00013036,0.00006209,-0.00008373,-0.00001825,-0.00002387,0.00000185,-
 0.00000765,0.00002544,0.00001083,-0.00000441,0.00000297,-0.00001965,0.
 00014147,0.00046023,-0.00083126,-0.24884988,-0.10215251,0.17901282,0.2
 3703417,0.00116769,0.00025626,-0.00037469,-0.00025958,-0.00034328,0.00
 001901,-0.00037354,-0.00060001,0.00026992,-0.00007978,-0.00006343,0.00
 010607,0.00001181,0.00005379,-0.00001528,-0.00000712,-0.00001775,-0.00
 000902,-0.00000454,-0.00001151,-0.00001576,-0.00022146,0.00028844,0.00
 056022,-0.11755275,0.03817877,0.06201172,0.11580396,-0.04252419,-0.000
 89238,-0.00071371,0.00056809,0.00014334,0.00042268,-0.00000137,-0.0013
 9271,-0.00242663,0.00221333,0.00013628,-0.00000366,-0.00018078,-0.0000
 0069,-0.00004930,-0.00000305,0.00001585,0.00005276,0.00003207,0.000030
 11,0.00002637,0.00000978,0.00031296,-0.00006444,-0.00063482,0.18905396
 ,0.05706283,-0.03028215,-0.19092227,-0.05906819,0.02860549,-0.00059630
 ,-0.00201852,-0.00113173,-0.00053580,-0.00041608,-0.00029013,0.0088614
 3,-0.01560992,0.00443315,0.00050742,-0.00055193,0.00039231,0.00000435,
 -0.00020124,-0.00002462,-0.00001178,-0.00013180,0.00000173,-0.00005511
 ,0.00002911,-0.00006165,-0.00123469,0.00046841,-0.00019061,-1.14003727
 ,1.15921956,-0.97082072,0.00487696,0.00051263,-0.00157476,1.12513433,-
 0.00167970,0.00124294,-0.00097813,0.00130387,0.00071994,0.00076652,0.0
 0537285,-0.00852529,0.00306097,0.00000542,-0.00000712,0.00000297,-0.00
 000775,0.00002144,-0.00000659,-0.00000958,0.00002244,-0.00000339,0.000
 03801,-0.00002901,0.00002154,-0.00030195,0.00320981,-0.00013960,1.1538
 8284,-0.28084145,0.66807247,-0.01231154,-0.00036623,0.00186843,-1.1419
 0154,0.28477609,-0.00112671,-0.00118603,0.00064220,-0.00027802,-0.0002
 3798,-0.00020806,0.00461827,-0.00922765,0.00366112,0.00039648,-0.00032
 210,0.00005736,-0.00000604,-0.00003729,-0.00000089,-0.00001396,-0.0001
 5655,0.00001445,-0.00006175,0.00001628,0.00001682,-0.00020093,0.000306
 35,-0.00101018,-0.97088271,0.67122038,-0.02598807,0.01100440,0.0005482
 0,-0.00283750,0.95716814,-0.66111410,0.02681941,0.00045109,-0.00073302
 ,-0.00134789,-0.00008534,0.00029798,0.00008346,0.00238230,-0.00129309,
 -0.00145821,-0.00008345,0.00002422,0.00025847,0.00003330,0.00005826,-0
 .00000699,-0.00000576,-0.00005518,-0.00000869,0.00001026,0.00002441,0.
 00002153,-0.00067273,0.00015791,0.00077879,0.07351102,-0.00015906,0.00
 824493,0.00498057,0.00100268,0.00509032,0.00308646,-0.00439093,-0.0006
 1717,-0.08360772,0.00023782,0.00023432,0.00119777,-0.00010451,-0.00033
 134,-0.00023970,0.00005514,-0.00063577,-0.00048802,0.00005186,-0.00006
 258,-0.00012117,-0.00001046,-0.00001692,-0.00000165,-0.00000786,0.0000
 5281,0.00001853,-0.00001600,-0.00001120,0.00000406,0.00038177,0.000296
 56,-0.00046280,-0.00324538,0.04060765,-0.12654857,-0.00300952,0.005149
 14,0.00289286,0.00060133,-0.00022355,0.00019048,0.00506583,-0.04505913
 ,0.00067141,0.00012424,-0.00019306,-0.00028210,-0.00033261,-0.00012539
 ,0.00163354,0.00250512,0.00210212,0.00003725,0.00005492,0.00003150,-0.
 00001259,-0.00000414,-0.00000956,-0.00000531,0.00000375,-0.00001472,-0
 .00002800,-0.00001013,-0.00000521,-0.00037164,0.00042743,0.00017641,-0
 .00191370,-0.11074346,-0.35254729,-0.00078922,-0.00403221,0.00251093,0
 .01209889,-0.01155110,-0.00116666,-0.01103853,0.12355820,0.34924093,-0
 .02188845,0.00872131,-0.01202232,-0.01146992,0.00508070,-0.00856838,0.
 00616870,-0.01041861,0.00185356,-0.00526109,0.00199562,0.00414785,0.00
 111278,0.00320286,-0.00190759,0.00197382,-0.00610642,0.00375294,-0.002
 37841,0.00190345,-0.00235812,0.01492020,0.00047763,0.00707369,-0.00344
 376,-0.00450098,0.00226314,3.19392580,-0.03470019,0.00228905,-0.020219
 33,0.00263033,0.00194652,0.00159836,1.68332132,-0.45577388,0.00687329,
 0.00024252,0.00672703,0.00229151,-0.00253093,-0.00601469,2.56397985,0.
 98686635,0.31940560,-0.00118831,0.00048012,0.00024825,0.00001554,-0.00
 050978,-0.00026624,0.00222637,0.00297920,-0.00172443,-0.00056854,-0.00
 190420,0.00143031,-0.00110882,0.00036002,-0.00027793,0.00021935,0.0019
 7801,-0.00132400,0.00109443,0.00154672,-0.00171167,0.00020196,0.000304
 87,-0.00144527,-0.00021491,-0.00031181,0.00028023,-0.00173487,0.001678
 88,0.00420837,-0.00014293,0.00090236,-0.00038671,0.00025742,0.00002415
 ,0.00002269,-0.00009372,-0.00004056,0.00003946,-0.00013391,0.00010209,
 -0.00012829,0.00014804,-0.00010045,0.00012692,-0.00003185,0.00019949,0
 .00002594,-0.00012224,0.00002359,0.00000529,0.00009439,-0.00048065,-0.
 00063717,0.00066923,-0.00013464,0.00000069,-0.00009959,0.00000719,-0.0
 0006311,0.00000997,0.00006199,-0.00009863,-0.00003641,-0.00003025,0.00
 003705,0.00026917,-0.00000592,-0.00031129,-0.00004250,0.00003914,0.000
 49102,-0.00010566,0.00004444,-0.00040686,0.00000283,0.00005821,0.00015
 723,0.00000566,-0.00004486,-0.00009018,-0.00021159,0.00004377,0.000319
 58,0.00042614,-0.00000263,-0.00021175,-0.00002013,-0.00000018,0.000005
 43,-0.00038840,-0.00001548,0.00002207,0.00023087,0.00009534,0.00000928
 ,-0.00002308,0.00035243,-0.00062230,-0.00075060,-0.00014650,-0.0000041
 5,-0.00007623,0.00000224,0.00000047,-0.00000316,0.00004112,-0.00005592
 ,0.00016413,-0.00001664,0.00016317,-0.00001662,-0.00002111,-0.00006020
 ,-0.00008202,0.00008452,-0.00024340,-0.00003340,-0.00010490,0.00016486
 ,-0.00004956,0.00000585,-0.00000046,0.00010272,-0.00001067,-0.00000215
 ,-0.00034766,0.00012369,-0.00020375,0.00055654,0.00010380,0.00032303,-
 0.00020457,-0.00016388,0.00004502,-0.00003493,-0.00034922,0.00010903,-
 0.00005483,0.00003849,0.00009290,0.00008725,0.00001207,0.00001584,0.00
 040564,0.00047630,0.00017715,0.00028550,-0.00024312,-0.00030845,-0.000
 15040,-0.00016225,0.00063286,-0.00008555,-0.00042381,0.00042807,-0.000
 24509,-0.00003638,-0.00002495,-0.00007438,-0.00008581,-0.00002832,0.00
 000754,0.00034827,-0.00155743,-0.00020560,0.00006991,-0.00011251,0.000
 32610,0.00005785,0.00018784,0.00004541,-0.00008879,-0.00025794,0.00010
 771,-0.00019696,-0.00013837,0.00009599,-0.00000732,0.00003117,0.000009
 01,0.00003853,-0.00012083,-0.00011282,0.00018468,0.00051785,0.00461516
 ,0.00025597,0.00262819,0.00139240,-0.00058623,-0.00144820,-3.20572199,
 -1.67160973,-2.56662310,-0.00090148,-0.00101398,0.00149304,-0.00016695
 ,0.00025658,-0.00016712,0.00008678,-0.00024572,-0.00013776,-0.00044746
 ,0.00007613,-0.00028100,3.19335224,0.02417359,0.00328120,0.01411437,0.
 00466232,-0.00143928,0.00267545,-1.67651481,0.43279341,-0.98300647,-0.
 00350342,0.00141367,-0.00199669,0.00002093,0.00060787,-0.00000494,0.00
 000490,0.00059701,0.00002600,-0.00002720,0.00085252,-0.00000732,1.6620
 8096,-0.43112241,0.00275388,0.00017914,0.00177504,-0.00139659,-0.00037
 348,0.00304146,-2.56657659,-0.98013356,-0.32810028,0.00147874,-0.00055
 172,-0.00262444,0.00000898,-0.00042474,0.00025544,-0.00031277,0.000437
 85,0.00000787,-0.00028232,0.00005053,-0.00012959,2.55765566,0.97456258
 ,0.32565480,-0.00206655,0.00107647,0.00008139,0.00099866,0.00004310,-0
 .00038620,-0.00327662,0.01373935,-0.00645793,-0.00017373,-0.00049928,0
 .00044250,0.00007898,0.00011703,-0.00005124,-0.00001619,-0.00011121,0.
 00000242,-0.00004154,0.00001005,-0.00001837,0.00977060,-0.01097255,0.0
 0744540,-0.00642073,0.00070304,-0.00053833,0.00040436,-0.00049369,-0.0
 0185941,-0.00031134,-0.00381205,0.02483614,-0.00206307,-0.00007599,-0.
 00013144,-0.00003392,0.00002172,0.00001356,-0.00001365,-0.00000139,0.0
 0001135,0.00002286,-0.00004407,-0.00016769,-0.00002652,0.00776098,-0.0
 1037753,0.00445771,-0.00292428,-0.01535609,0.00007849,0.00064598,-0.00
 214720,-0.00039571,-0.00000097,0.00142755,-0.00662236,0.00809218,0.004
 21254,0.00044644,-0.00028404,-0.00067771,-0.00005075,-0.00019395,0.000
 00911,0.00000078,0.00019481,0.00010793,-0.00002070,0.00000322,-0.00002
 271,0.00763281,-0.00643393,0.00121640,-0.00148317,-0.00179119,-0.00485
 921,-0.00035992,-0.00024724,0.00010241,-0.00002594,0.00019950,-0.00008
 723,0.00130074,0.00110920,-0.00103628,0.00004084,-0.00001225,-0.000054
 63,0.00001022,-0.00001453,0.00000322,0.00000648,0.00000423,0.00000322,
 0.00002263,0.00000730,0.00002053,-0.00088243,-0.00045574,0.00088811,0.
 00034371,-0.00027178,0.00071479,-0.00048460,-0.00046940,0.00064031,0.0
 0045752,0.00041054,-0.00022013,-0.00015975,0.00126971,-0.00010362,-0.0
 0309584,-0.00015880,0.00000545,0.00014629,0.00001759,0.00007035,-0.000
 01694,-0.00000861,-0.00002545,-0.00000859,-0.00003827,0.00000330,-0.00
 000887,0.00103262,-0.00071284,0.00226771,-0.00151660,0.00164397,0.0007
 2341,-0.00043343,-0.00150746,-0.00014135,-0.00030571,0.00012553,0.0000
 7129,-0.00000322,-0.00014969,0.00016229,0.00199867,-0.00052456,-0.0000
 3790,-0.00002135,0.00004976,0.00001783,0.00002821,-0.00000945,0.000013
 34,-0.00001101,-0.00000141,0.00000609,0.00002127,0.00001627,0.00017165
 ,-0.00036979,0.00032668,0.00022157,-0.00119353,-0.00030176,-0.00060956
 ,-0.00012208,0.00039632,-0.00010820,-0.00016924,-0.00015173,-0.0001858
 5,0.00004530,-0.00007293,0.00107778,0.00028612,0.00128957,0.00000216,0
 .00002092,0.00000361,-0.00000064,-0.00000428,0.00000979,0.00001683,-0.
 00000508,0.00001019,0.00003023,0.00001098,0.00001049,-0.00157363,0.001
 05852,-0.00105398,0.00055390,0.00033765,-0.00053893,0.00004379,0.00007
 378,0.00028698,-0.00000357,0.00066136,-0.00010356,0.00038756,-0.000293
 74,0.00012678,-0.00017111,0.00013722,-0.00388742,0.00005300,-0.0001022
 6,0.00016275,-0.00005893,-0.00000724,0.00002635,0.00000685,0.00000234,
 0.00002614,-0.00000937,0.00002339,-0.00001035,0.00001366,-0.00049749,0
 .00479189,-0.00025160,0.00117986,0.00029390,0.00065696,0.00006726,0.00
 007799,0.00022355,-0.00139662,-0.00158151,-0.00014349,-0.00010385,0.00
 006508,-0.00007581,0.00002583,-0.00010486,0.00128626,0.00015320,-0.000
 37110,0.00000143,0.00001378,-0.00000134,0.00002002,-0.00000302,0.00000
 542,0.00000014,-0.00000151,-0.00001194,0.00001124,0.00000616,0.0000195
 4,-0.00106896,0.00065443,-0.00037152,-0.00052797,0.00016509,0.00123210
 ,0.00015528,-0.00034387,-0.00005592,0.00012020,-0.00080630,-0.00023737
 ,-0.00000522,-0.00038248,-0.00034203,-0.00012714,0.00009223,0.00012994
 ,-0.00045845,0.00226241,0.00117120,0.00000791,-0.00002367,-0.00001797,
 0.00000736,-0.00000809,0.00001245,0.00000433,0.00001656,0.00002084,0.0
 0002869,0.00002233,0.00000256,0.00047676,-0.00052751,-0.00060853,0.000
 24951,-0.00120014,0.00023831,-0.00001553,-0.00017914,-0.00016223,0.000
 14720,0.00022593,0.00022167,-0.00031542,0.00015856,0.00065035,-0.00062
 326,0.00006417,-0.00022292,0.00043110,-0.00206559,-0.00014957,0.002606
 93,0.00004915,0.00000824,-0.00021015,-0.00001128,-0.00002527,-0.000003
 17,-0.00000686,0.00006982,0.00002451,-0.00002708,0.00000329,-0.0000288
 4,0.00248992,-0.00068550,-0.00022042,-0.00014193,0.00163157,-0.0016125
 0,0.00004748,0.00012813,-0.00024501,-0.00025806,0.00007703,0.00024006,
 -0.00029845,-0.00148517,-0.00009519,-0.00005250,-0.00023679,-0.0000280
 0,0.00017186,-0.00003949,-0.00006399,-0.00002456,0.00126972,-0.0000351
 5,-0.00000126,0.00007960,0.00000237,0.00000873,-0.00000254,0.00000647,
 -0.00002581,-0.00000344,0.00001644,-0.00000348,0.00000929,0.00014478,-
 0.00021370,-0.00105186,0.00073160,0.00038321,-0.00019703,-0.00009985,0
 .00016101,0.00012821,0.00008673,-0.00004427,-0.00016809,-0.00066622,-0
 .00035924,0.00021243\\@
 The archive entry for this job was punched.


 ACCORDING TO HEN3RY, LIFE IS MUCH LIKE A SEWER........
 YOU GET OUT OF IT JUST WHAT YOU PUT INTO IT...........
                         TOM LEHRER - (THE 3 IS SILENT)
 Job cpu time:       4 days 23 hours  2 minutes 42.7 seconds.
 Elapsed time:       0 days  3 hours  1 minutes 27.9 seconds.
 File lengths (MBytes):  RWF=   4444 Int=      0 D2E=      0 Chk=     47 Scr=      1
 Normal termination of Gaussian 16 at Sat Mar 29 17:44:54 2025.
