 Entering Gaussian System, Link 0=g16
 Input=aconh2_mp2_avdz_opt_anharm.gjf
 Output=aconh2_mp2_avdz_opt_anharm.log
 Initial command:
 /sw/contrib/chem-src/g16/c01/g16/l1.exe "/scr/Gau-27944.inp" -scrdir="/scr/"
 Entering Link 1 = /sw/contrib/chem-src/g16/c01/g16/l1.exe PID=     27945.
  
 Copyright (c) 1988-2019, Gaussian, Inc.  All Rights Reserved.
  
 This is part of the Gaussian(R) 16 program.  It is based on
 the Gaussian(R) 09 system (copyright 2009, Gaussian, Inc.),
 the Gaussian(R) 03 system (copyright 2003, Gaussian, Inc.),
 the Gaussian(R) 98 system (copyright 1998, Gaussian, Inc.),
 the Gaussian(R) 94 system (copyright 1995, Gaussian, Inc.),
 the Gaussian 92(TM) system (copyright 1992, Gaussian, Inc.),
 the Gaussian 90(TM) system (copyright 1990, Gaussian, Inc.),
 the Gaussian 88(TM) system (copyright 1988, Gaussian, Inc.),
 the Gaussian 86(TM) system (copyright 1986, Carnegie Mellon
 University), and the Gaussian 82(TM) system (copyright 1983,
 Carnegie Mellon University). Gaussian is a federally registered
 trademark of Gaussian, Inc.
  
 This software contains proprietary and confidential information,
 including trade secrets, belonging to Gaussian, Inc.
  
 This software is provided under written license and may be
 used, copied, transmitted, or stored only in accord with that
 written license.
  
 The following legend is applicable only to US Government
 contracts under FAR:
  
                    RESTRICTED RIGHTS LEGEND
  
 Use, reproduction and disclosure by the US Government is
 subject to restrictions as set forth in subparagraphs (a)
 and (c) of the Commercial Computer Software - Restricted
 Rights clause in FAR 52.227-19.
  
 Gaussian, Inc.
 340 Quinnipiac St., Bldg. 40, Wallingford CT 06492
  
  
 ---------------------------------------------------------------
 Warning -- This program may not be used in any manner that
 competes with the business of Gaussian, Inc. or will provide
 assistance to any competitor of Gaussian, Inc.  The licensee
 of this program is prohibited from giving any competitor of
 Gaussian, Inc. access to this program.  By using this program,
 the user acknowledges that Gaussian, Inc. is engaged in the
 business of creating and licensing software in the field of
 computational chemistry and represents and warrants to the
 licensee that it is not a competitor of Gaussian, Inc. and that
 it will not use this program in any manner prohibited above.
 ---------------------------------------------------------------
  

 Cite this work as:
 Gaussian 16, Revision C.01,
 M. J. Frisch, G. W. Trucks, H. B. Schlegel, G. E. Scuseria, 
 M. A. Robb, J. R. Cheeseman, G. Scalmani, V. Barone, 
 G. A. Petersson, H. Nakatsuji, X. Li, M. Caricato, A. V. Marenich, 
 J. Bloino, B. G. Janesko, R. Gomperts, B. Mennucci, H. P. Hratchian, 
 J. V. Ortiz, A. F. Izmaylov, J. L. Sonnenberg, D. Williams-Young, 
 F. Ding, F. Lipparini, F. Egidi, J. Goings, B. Peng, A. Petrone, 
 T. Henderson, D. Ranasinghe, V. G. Zakrzewski, J. Gao, N. Rega, 
 G. Zheng, W. Liang, M. Hada, M. Ehara, K. Toyota, R. Fukuda, 
 J. Hasegawa, M. Ishida, T. Nakajima, Y. Honda, O. Kitao, H. Nakai, 
 T. Vreven, K. Throssell, J. A. Montgomery, Jr., J. E. Peralta, 
 F. Ogliaro, M. J. Bearpark, J. J. Heyd, E. N. Brothers, K. N. Kudin, 
 V. N. Staroverov, T. A. Keith, R. Kobayashi, J. Normand, 
 K. Raghavachari, A. P. Rendell, J. C. Burant, S. S. Iyengar, 
 J. Tomasi, M. Cossi, J. M. Millam, M. Klene, C. Adamo, R. Cammi, 
 J. W. Ochterski, R. L. Martin, K. Morokuma, O. Farkas, 
 J. B. Foresman, and D. J. Fox, Gaussian, Inc., Wallingford CT, 2019.
 
 ******************************************
 Gaussian 16:  EM64L-G16RevC.01  3-Jul-2019
                 7-Apr-2025 
 ******************************************
 %nprocshared=40
 Will use up to   40 processors via shared memory.
 %mem=50gb
 ----------------------------------------------
 # MP2/aug-cc-pVDZ opt freq=(vibrot,anharmonic)
 ----------------------------------------------
 1/18=20,19=15,38=1,80=1/1,3;
 2/9=110,12=2,17=6,18=5,40=1/2;
 3/5=16,7=10,11=9,25=1,30=1,71=1/1,2,3;
 4//1;
 5/5=2,38=5/2;
 8/6=4,10=1/1;
 9/15=2,16=-3/6;
 10/5=1/2;
 6/7=2,8=2,9=2,10=2/1;
 7/12=2/1,2,3,16;
 1/18=20,19=15,80=1/3(2);
 2/9=110/2;
 99//99;
 2/9=110/2;
 3/5=16,7=10,11=9,25=1,30=1,71=1/1,2,3;
 4/5=5,16=3,69=1/1;
 5/5=2,38=5/2;
 8/6=4,10=1/1;
 9/15=2,16=-3/6;
 10/5=1/2;
 7/12=2/1,2,3,16;
 1/18=20,19=15,80=1/3(-8);
 2/9=110/2;
 6/7=2,8=2,9=2,10=2/1;
 99/9=10/99;
 ----
 blah
 ----
 Symbolic Z-matrix:
 Charge =  0 Multiplicity = 1
 C                     0.07279   0.14419  -0.00065 
 O                     0.36362   1.34244  -0.00004 
 N                     1.03428  -0.83718   0.00034 
 C                    -1.36641  -0.34286  -0.00003 
 H                    -2.07943   0.36122  -0.45237 
 H                    -1.65643  -0.4885    1.05059 
 H                    -1.41925  -1.30582  -0.52863 
 H                     0.80221  -1.81909  -0.00234 
 H                     2.00662  -0.55603   0.00127 
 

 GradGradGradGradGradGradGradGradGradGradGradGradGradGradGradGradGradGrad
 Berny optimization.
 Initialization pass.
                           ----------------------------
                           !    Initial Parameters    !
                           ! (Angstroms and Degrees)  !
 --------------------------                            --------------------------
 ! Name  Definition              Value          Derivative Info.                !
 --------------------------------------------------------------------------------
 ! R1    R(1,2)                  1.233          estimate D2E/DX2                !
 ! R2    R(1,3)                  1.3739         estimate D2E/DX2                !
 ! R3    R(1,4)                  1.5194         estimate D2E/DX2                !
 ! R4    R(3,8)                  1.009          estimate D2E/DX2                !
 ! R5    R(3,9)                  1.0122         estimate D2E/DX2                !
 ! R6    R(4,5)                  1.0994         estimate D2E/DX2                !
 ! R7    R(4,6)                  1.0996         estimate D2E/DX2                !
 ! R8    R(4,7)                  1.0998         estimate D2E/DX2                !
 ! A1    A(2,1,3)              121.9437         estimate D2E/DX2                !
 ! A2    A(2,1,4)              122.3392         estimate D2E/DX2                !
 ! A3    A(3,1,4)              115.717          estimate D2E/DX2                !
 ! A4    A(1,3,8)              122.2884         estimate D2E/DX2                !
 ! A5    A(1,3,9)              118.2861         estimate D2E/DX2                !
 ! A6    A(8,3,9)              119.4253         estimate D2E/DX2                !
 ! A7    A(1,4,5)              114.133          estimate D2E/DX2                !
 ! A8    A(1,4,6)              107.0179         estimate D2E/DX2                !
 ! A9    A(1,4,7)              109.0258         estimate D2E/DX2                !
 ! A10   A(5,4,6)              107.8709         estimate D2E/DX2                !
 ! A11   A(5,4,7)              109.3798         estimate D2E/DX2                !
 ! A12   A(6,4,7)              109.3053         estimate D2E/DX2                !
 ! D1    D(2,1,3,8)           -179.8532         estimate D2E/DX2                !
 ! D2    D(2,1,3,9)             -0.0204         estimate D2E/DX2                !
 ! D3    D(4,1,3,8)              0.2508         estimate D2E/DX2                !
 ! D4    D(4,1,3,9)           -179.9165         estimate D2E/DX2                !
 ! D5    D(2,1,4,5)             26.8566         estimate D2E/DX2                !
 ! D6    D(2,1,4,6)            -92.4042         estimate D2E/DX2                !
 ! D7    D(2,1,4,7)            149.4796         estimate D2E/DX2                !
 ! D8    D(3,1,4,5)           -153.2478         estimate D2E/DX2                !
 ! D9    D(3,1,4,6)             87.4914         estimate D2E/DX2                !
 ! D10   D(3,1,4,7)            -30.6248         estimate D2E/DX2                !
 --------------------------------------------------------------------------------
 Trust Radius=3.00D-01 FncErr=1.00D-07 GrdErr=1.00D-07 EigMax=2.50D+02 EigMin=1.00D-04
 Number of steps in this run=     40 maximum allowed number of steps=    100.
 GradGradGradGradGradGradGradGradGradGradGradGradGradGradGradGradGradGrad

                          Input orientation:                          
 ---------------------------------------------------------------------
 Center     Atomic      Atomic             Coordinates (Angstroms)
 Number     Number       Type             X           Y           Z
 ---------------------------------------------------------------------
      1          6           0        0.072793    0.144186   -0.000645
      2          8           0        0.363624    1.342438   -0.000042
      3          7           0        1.034280   -0.837183    0.000336
      4          6           0       -1.366414   -0.342864   -0.000030
      5          1           0       -2.079433    0.361224   -0.452367
      6          1           0       -1.656431   -0.488500    1.050595
      7          1           0       -1.419253   -1.305817   -0.528635
      8          1           0        0.802209   -1.819089   -0.002336
      9          1           0        2.006616   -0.556025    0.001271
 ---------------------------------------------------------------------
                    Distance matrix (angstroms):
                    1          2          3          4          5
     1  C    0.000000
     2  O    1.233041   0.000000
     3  N    1.373879   2.280466   0.000000
     4  C    1.519386   2.415217   2.451058   0.000000
     5  H    2.209805   2.671312   3.366947   1.099430   0.000000
     6  H    2.120286   2.921779   2.909389   1.099605   1.777599
     7  H    2.146505   3.235941   2.553283   1.099770   1.794626
     8  H    2.094397   3.191804   1.008962   2.623389   3.641450
     9  H    2.056689   2.510694   1.012170   3.379759   4.212236
                    6          7          8          9
     6  H    0.000000
     7  H    1.793941   0.000000
     8  H    2.987313   2.339943   0.000000
     9  H    3.810978   3.546769   1.745262   0.000000
 Stoichiometry    C2H5NO
 Framework group  C1[X(C2H5NO)]
 Deg. of freedom    21
 Full point group                 C1      NOp   1
 Largest Abelian subgroup         C1      NOp   1
 Largest concise Abelian subgroup C1      NOp   1
                         Standard orientation:                         
 ---------------------------------------------------------------------
 Center     Atomic      Atomic             Coordinates (Angstroms)
 Number     Number       Type             X           Y           Z
 ---------------------------------------------------------------------
      1          6           0        0.072562    0.147458   -0.002708
      2          8           0        0.371853    1.343625   -0.002405
      3          7           0        1.027086   -0.840680    0.000264
      4          6           0       -1.370051   -0.329408   -0.003893
      5          1           0       -2.077419    0.379423   -0.457692
      6          1           0       -1.662613   -0.472347    1.046396
      7          1           0       -1.428928   -1.292288   -0.531993
      8          1           0        0.788085   -1.820923   -0.002154
      9          1           0        2.001383   -0.566400    0.002443
 ---------------------------------------------------------------------
 Rotational constants (GHZ):          10.6674936           9.1928676           5.0970947
 Standard basis: Aug-CC-pVDZ (5D, 7F)
 There are   145 symmetry adapted cartesian basis functions of A   symmetry.
 There are   137 symmetry adapted basis functions of A   symmetry.
   137 basis functions,   227 primitive gaussians,   145 cartesian basis functions
    16 alpha electrons       16 beta electrons
       nuclear repulsion energy       120.8424796460 Hartrees.
 NAtoms=    9 NActive=    9 NUniq=    9 SFac= 1.00D+00 NAtFMM=   60 NAOKFM=F Big=F
 Integral buffers will be    131072 words long.
 Raffenetti 1 integral format.
 Two-electron integral symmetry is turned on.
 One-electron integrals computed using PRISM.
 NBasis=   137 RedAO= T EigKep=  9.39D-05  NBF=   137
 NBsUse=   137 1.00D-06 EigRej= -1.00D+00 NBFU=   137
 ExpMin= 2.97D-02 ExpMax= 1.17D+04 ExpMxC= 4.01D+02 IAcc=3 IRadAn=         5 AccDes= 0.00D+00
 Harris functional with IExCor=  205 and IRadAn=       5 diagonalized for initial guess.
 HarFok:  IExCor=  205 AccDes= 0.00D+00 IRadAn=         5 IDoV= 1 UseB2=F ITyADJ=14
 ICtDFT=  3500011 ScaDFX=  1.000000  1.000000  1.000000  1.000000
 FoFCou: FMM=F IPFlag=           0 FMFlag=      100000 FMFlg1=           0
         NFxFlg=           0 DoJE=T BraDBF=F KetDBF=T FulRan=T
         wScrn=  0.000000 ICntrl=       500 IOpCl=  0 I1Cent=   200000004 NGrid=           0
         NMat0=    1 NMatS0=      1 NMatT0=    0 NMatD0=    1 NMtDS0=    0 NMtDT0=    0
 Petite list used in FoFCou.
 Keep R1 ints in memory in canonical form, NReq=53319488.
 Requested convergence on RMS density matrix=1.00D-08 within 128 cycles.
 Requested convergence on MAX density matrix=1.00D-06.
 Requested convergence on             energy=1.00D-06.
 No special actions if energy rises.
 SCF Done:  E(RHF) =  -208.009457106     A.U. after   13 cycles
            NFock= 13  Conv=0.61D-08     -V/T= 2.0023
 ExpMin= 2.97D-02 ExpMax= 1.17D+04 ExpMxC= 4.01D+02 IAcc=3 IRadAn=         5 AccDes= 0.00D+00
 HarFok:  IExCor=  205 AccDes= 0.00D+00 IRadAn=         5 IDoV=-2 UseB2=F ITyADJ=14
 ICtDFT= 12500011 ScaDFX=  1.000000  1.000000  1.000000  1.000000
 Range of M.O.s used for correlation:     5   137
 NBasis=   137 NAE=    16 NBE=    16 NFC=     4 NFV=     0
 NROrb=    133 NOA=    12 NOB=    12 NVA=   121 NVB=   121

 **** Warning!!: The largest alpha MO coefficient is  0.29427426D+02

 Fully direct method using O(ONN) memory.
 JobTyp=1 Pass  1:  I=   5 to  16 NPSUse= 40 ParTrn=T ParDer=T DoDerP=T.
 Spin components of T(2) and E(2):
     alpha-alpha T2 =       0.2739082290D-01 E2=     -0.8417538536D-01
     alpha-beta  T2 =       0.1538953653D+00 E2=     -0.4906692759D+00
     beta-beta   T2 =       0.2739082290D-01 E2=     -0.8417538536D-01
 ANorm=    0.1099398477D+01
 E2 =    -0.6590200466D+00 EUMP2 =    -0.20866847715245D+03
          IDoAtm=111111111
          Differentiating once with respect to electric field.
                with respect to dipole field.
          Differentiating once with respect to nuclear coordinates.
 Keep R1 ints in memory in canonical form, NReq=53324644.
          There are     1 degrees of freedom in the 1st order CPHF.  IDoFFX=0 NUNeed=     1.
 LinEq1:  Iter=  0 NonCon=     1 RMS=5.47D-03 Max=7.02D-02 NDo=     1
 AX will form     1 AO Fock derivatives at one time.
 LinEq1:  Iter=  1 NonCon=     1 RMS=1.68D-03 Max=1.59D-02 NDo=     1
 LinEq1:  Iter=  2 NonCon=     1 RMS=5.90D-04 Max=6.41D-03 NDo=     1
 LinEq1:  Iter=  3 NonCon=     1 RMS=1.86D-04 Max=1.66D-03 NDo=     1
 LinEq1:  Iter=  4 NonCon=     1 RMS=5.96D-05 Max=5.48D-04 NDo=     1
 LinEq1:  Iter=  5 NonCon=     1 RMS=1.48D-05 Max=1.27D-04 NDo=     1
 LinEq1:  Iter=  6 NonCon=     1 RMS=5.32D-06 Max=4.39D-05 NDo=     1
 LinEq1:  Iter=  7 NonCon=     1 RMS=1.37D-06 Max=2.09D-05 NDo=     1
 LinEq1:  Iter=  8 NonCon=     1 RMS=2.95D-07 Max=3.18D-06 NDo=     1
 LinEq1:  Iter=  9 NonCon=     1 RMS=7.88D-08 Max=4.86D-07 NDo=     1
 LinEq1:  Iter= 10 NonCon=     1 RMS=2.09D-08 Max=1.42D-07 NDo=     1
 LinEq1:  Iter= 11 NonCon=     1 RMS=5.13D-09 Max=6.90D-08 NDo=     1
 LinEq1:  Iter= 12 NonCon=     1 RMS=1.44D-09 Max=2.55D-08 NDo=     1
 LinEq1:  Iter= 13 NonCon=     1 RMS=2.94D-10 Max=3.96D-09 NDo=     1
 LinEq1:  Iter= 14 NonCon=     0 RMS=4.39D-11 Max=2.90D-10 NDo=     1
 Linear equations converged to 1.000D-10 1.000D-09 after    14 iterations.
 End of Minotr F.D. properties file   721 does not exist.
 End of Minotr F.D. properties file   722 does not exist.
 End of Minotr F.D. properties file   788 does not exist.

 **********************************************************************

            Population analysis using the SCF Density.

 **********************************************************************

 Orbital symmetries:
       Occupied  (A) (A) (A) (A) (A) (A) (A) (A) (A) (A) (A) (A)
                 (A) (A) (A) (A)
       Virtual   (A) (A) (A) (A) (A) (A) (A) (A) (A) (A) (A) (A)
                 (A) (A) (A) (A) (A) (A) (A) (A) (A) (A) (A) (A)
                 (A) (A) (A) (A) (A) (A) (A) (A) (A) (A) (A) (A)
                 (A) (A) (A) (A) (A) (A) (A) (A) (A) (A) (A) (A)
                 (A) (A) (A) (A) (A) (A) (A) (A) (A) (A) (A) (A)
                 (A) (A) (A) (A) (A) (A) (A) (A) (A) (A) (A) (A)
                 (A) (A) (A) (A) (A) (A) (A) (A) (A) (A) (A) (A)
                 (A) (A) (A) (A) (A) (A) (A) (A) (A) (A) (A) (A)
                 (A) (A) (A) (A) (A) (A) (A) (A) (A) (A) (A) (A)
                 (A) (A) (A) (A) (A) (A) (A) (A) (A) (A) (A) (A)
                 (A)
 The electronic state is 1-A.
 Alpha  occ. eigenvalues --  -20.52835 -15.59780 -11.36672 -11.25194  -1.37455
 Alpha  occ. eigenvalues --   -1.21161  -1.00477  -0.79985  -0.72541  -0.66079
 Alpha  occ. eigenvalues --   -0.61356  -0.58376  -0.56264  -0.52202  -0.42250
 Alpha  occ. eigenvalues --   -0.41330
 Alpha virt. eigenvalues --    0.02694   0.04431   0.05355   0.05725   0.07535
 Alpha virt. eigenvalues --    0.10007   0.12660   0.12721   0.14208   0.15244
 Alpha virt. eigenvalues --    0.16335   0.16444   0.17361   0.18265   0.20094
 Alpha virt. eigenvalues --    0.20501   0.21401   0.26655   0.27593   0.28812
 Alpha virt. eigenvalues --    0.31095   0.32651   0.34200   0.34755   0.35618
 Alpha virt. eigenvalues --    0.36503   0.37527   0.40818   0.42436   0.43679
 Alpha virt. eigenvalues --    0.43957   0.46833   0.49267   0.49538   0.50861
 Alpha virt. eigenvalues --    0.52174   0.55525   0.56974   0.57538   0.59553
 Alpha virt. eigenvalues --    0.59932   0.61563   0.64212   0.65043   0.65654
 Alpha virt. eigenvalues --    0.66741   0.68023   0.69130   0.71360   0.72985
 Alpha virt. eigenvalues --    0.78822   0.80932   0.82008   0.83837   0.87349
 Alpha virt. eigenvalues --    0.91289   0.92041   0.95050   0.97210   0.98507
 Alpha virt. eigenvalues --    1.04269   1.07473   1.08926   1.11112   1.14604
 Alpha virt. eigenvalues --    1.18059   1.25396   1.27137   1.31692   1.35813
 Alpha virt. eigenvalues --    1.38964   1.42622   1.46764   1.51424   1.52318
 Alpha virt. eigenvalues --    1.56355   1.59423   1.72410   1.74389   1.78751
 Alpha virt. eigenvalues --    1.80820   1.86206   1.88100   1.92154   1.94909
 Alpha virt. eigenvalues --    1.97572   2.01092   2.03528   2.11741   2.13715
 Alpha virt. eigenvalues --    2.17500   2.21729   2.23266   2.25555   2.27850
 Alpha virt. eigenvalues --    2.32757   2.35105   2.39852   2.41101   2.45474
 Alpha virt. eigenvalues --    2.53687   2.56320   2.64207   2.65689   2.72872
 Alpha virt. eigenvalues --    2.77319   2.80291   2.85092   2.87860   2.93085
 Alpha virt. eigenvalues --    2.98338   3.04371   3.15564   3.39603   3.55589
 Alpha virt. eigenvalues --    3.63181   3.77603   3.81774   3.85725   4.02150
 Alpha virt. eigenvalues --    4.15879
          Condensed to atoms (all electrons):
               1          2          3          4          5          6
     1  C    4.711910   0.287340   0.209732   0.295341  -0.034179  -0.022472
     2  O    0.287340   8.626944  -0.101570  -0.017322   0.014588   0.001298
     3  N    0.209732  -0.101570   6.349769  -0.043946   0.017881   0.006474
     4  C    0.295341  -0.017322  -0.043946   4.420253   0.337052   0.351271
     5  H   -0.034179   0.014588   0.017881   0.337052   0.808342  -0.056037
     6  H   -0.022472   0.001298   0.006474   0.351271  -0.056037   0.705927
     7  H   -0.054569  -0.001510  -0.051177   0.388451  -0.078109  -0.060878
     8  H   -0.051844   0.004310   0.405819  -0.023788  -0.000968  -0.000542
     9  H   -0.112297  -0.016121   0.456704   0.010878  -0.000673   0.002695
               7          8          9
     1  C   -0.054569  -0.051844  -0.112297
     2  O   -0.001510   0.004310  -0.016121
     3  N   -0.051177   0.405819   0.456704
     4  C    0.388451  -0.023788   0.010878
     5  H   -0.078109  -0.000968  -0.000673
     6  H   -0.060878  -0.000542   0.002695
     7  H    0.882785   0.013898   0.000831
     8  H    0.013898   0.827012  -0.162508
     9  H    0.000831  -0.162508   0.838951
 Mulliken charges:
               1
     1  C    0.771037
     2  O   -0.797958
     3  N   -0.249686
     4  C    0.281811
     5  H   -0.007897
     6  H    0.072265
     7  H   -0.039721
     8  H   -0.011388
     9  H   -0.018461
 Sum of Mulliken charges =  -0.00000
 Mulliken charges with hydrogens summed into heavy atoms:
               1
     1  C    0.771037
     2  O   -0.797958
     3  N   -0.279536
     4  C    0.306457
 Electronic spatial extent (au):  <R**2>=            271.8712
 Charge=             -0.0000 electrons
 Dipole moment (field-independent basis, Debye):
    X=             -0.4641    Y=             -4.2956    Z=              0.0295  Tot=              4.3207
 Quadrupole moment (field-independent basis, Debye-Ang):
   XX=            -20.3323   YY=            -27.1350   ZZ=            -25.3794
   XY=             -2.5155   XZ=              0.0031   YZ=              0.0120
 Traceless Quadrupole moment (field-independent basis, Debye-Ang):
   XX=              3.9499   YY=             -2.8527   ZZ=             -1.0972
   XY=             -2.5155   XZ=              0.0031   YZ=              0.0120
 Octapole moment (field-independent basis, Debye-Ang**2):
  XXX=             10.0491  YYY=            -13.9716  ZZZ=              0.7526  XYY=              1.0437
  XXY=             -1.6274  XXZ=             -0.2650  XZZ=             -1.1821  YZZ=              1.1898
  YYZ=             -0.6341  XYZ=              0.2000
 Hexadecapole moment (field-independent basis, Debye-Ang**3):
 XXXX=           -152.3300 YYYY=           -130.5529 ZZZZ=            -31.6952 XXXY=             -9.9129
 XXXZ=              1.1081 YYYX=             -8.5738 YYYZ=              0.9736 ZZZX=             -1.4161
 ZZZY=             -0.3523 XXYY=            -51.9382 XXZZ=            -35.4200 YYZZ=            -29.8000
 XXYZ=             -0.7556 YYXZ=              0.9422 ZZXY=              1.1974
 N-N= 1.208424796460D+02 E-N=-7.299630730132D+02  KE= 2.075383418815D+02
 Calling FoFJK, ICntrl=  10002127 FMM=F ISym2X=0 I1Cent= 0 IOpClX= 0 NMat=1 NMatS=1 NMatT=0.
 ***** Axes restored to original set *****
 -------------------------------------------------------------------
 Center     Atomic                   Forces (Hartrees/Bohr)
 Number     Number              X              Y              Z
 -------------------------------------------------------------------
      1        6          -0.004940047    0.009862776   -0.006195173
      2        8           0.002723353    0.001076896    0.001097538
      3        7          -0.000970842   -0.000894470    0.000404684
      4        6           0.002874655   -0.008213554    0.002131668
      5        1           0.007366638    0.002851540   -0.000487836
      6        1          -0.002270154   -0.002526950    0.001064747
      7        1          -0.004321728   -0.001926223    0.001292832
      8        1           0.000099410   -0.000315123   -0.000258523
      9        1          -0.000561285    0.000085108    0.000950063
 -------------------------------------------------------------------
 Cartesian Forces:  Max     0.009862776 RMS     0.003614710

 GradGradGradGradGradGradGradGradGradGradGradGradGradGradGradGradGradGrad
 Berny optimization.
 FormGI is forming the generalized inverse of G from B-inverse, IUseBI=4.
 Internal  Forces:  Max     0.013282642 RMS     0.003513783
 Search for a local minimum.
 Step number   1 out of a maximum of   40
 All quantities printed in internal units (Hartrees-Bohrs-Radians)
 Mixed Optimization -- RFO/linear search
 Second derivative matrix not updated -- first step.
 ITU=  0
     Eigenvalues ---    0.00510   0.01117   0.02037   0.02037   0.06868
     Eigenvalues ---    0.07632   0.16000   0.16000   0.16000   0.16000
     Eigenvalues ---    0.16000   0.25000   0.25000   0.30426   0.33708
     Eigenvalues ---    0.33726   0.33745   0.45611   0.46147   0.50238
     Eigenvalues ---    0.89831
 RFO step:  Lambda=-2.50978350D-03 EMin= 5.09503329D-03
 Linear search not attempted -- first point.
 Iteration  1 RMS(Cart)=  0.03639962 RMS(Int)=  0.00126220
 Iteration  2 RMS(Cart)=  0.00133671 RMS(Int)=  0.00064218
 Iteration  3 RMS(Cart)=  0.00000055 RMS(Int)=  0.00064217
 Variable       Old X    -DE/DX   Delta X   Delta X   Delta X     New X
                                 (Linear)    (Quad)   (Total)
    R1        2.33011   0.00169   0.00000   0.00188   0.00188   2.33199
    R2        2.59625  -0.00020   0.00000  -0.00039  -0.00039   2.59586
    R3        2.87122  -0.00031   0.00000  -0.00101  -0.00101   2.87022
    R4        1.90666   0.00028   0.00000   0.00061   0.00061   1.90727
    R5        1.91272  -0.00051   0.00000  -0.00112  -0.00112   1.91160
    R6        2.07762  -0.00275   0.00000  -0.00809  -0.00809   2.06953
    R7        2.07795   0.00195   0.00000   0.00574   0.00574   2.08369
    R8        2.07826   0.00127   0.00000   0.00375   0.00375   2.08201
    A1        2.12832  -0.00055   0.00000  -0.00223  -0.00351   2.12481
    A2        2.13522   0.00502   0.00000   0.01985   0.01848   2.15370
    A3        2.01964  -0.00448   0.00000  -0.01778  -0.01910   2.00055
    A4        2.13433   0.00037   0.00000   0.00227   0.00218   2.13651
    A5        2.06448  -0.00041   0.00000  -0.00250  -0.00260   2.06189
    A6        2.08437   0.00004   0.00000   0.00029   0.00020   2.08456
    A7        1.99200  -0.01328   0.00000  -0.08639  -0.08580   1.90619
    A8        1.86781   0.00472   0.00000   0.03069   0.03007   1.89788
    A9        1.90286   0.00850   0.00000   0.05500   0.05478   1.95764
   A10        1.88270   0.00268   0.00000   0.01053   0.01074   1.89344
   A11        1.90904   0.00156   0.00000   0.00624   0.00713   1.91616
   A12        1.90774  -0.00413   0.00000  -0.01502  -0.01638   1.89136
    D1       -3.13903  -0.00043   0.00000  -0.03760  -0.03718   3.10698
    D2       -0.00036   0.00016   0.00000  -0.01172  -0.01129  -0.01165
    D3        0.00438   0.00085   0.00000   0.05579   0.05537   0.05975
    D4       -3.14013   0.00144   0.00000   0.08168   0.08126  -3.05888
    D5        0.46874   0.00044   0.00000   0.04312   0.04362   0.51236
    D6       -1.61276   0.00185   0.00000   0.06093   0.06181  -1.55095
    D7        2.60891  -0.00039   0.00000   0.03247   0.03181   2.64072
    D8       -2.67468  -0.00085   0.00000  -0.05071  -0.05069  -2.72536
    D9        1.52701   0.00056   0.00000  -0.03290  -0.03250   1.49451
   D10       -0.53450  -0.00168   0.00000  -0.06136  -0.06250  -0.59700
         Item               Value     Threshold  Converged?
 Maximum Force            0.013283     0.000450     NO 
 RMS     Force            0.003514     0.000300     NO 
 Maximum Displacement     0.101958     0.001800     NO 
 RMS     Displacement     0.036503     0.001200     NO 
 Predicted change in Energy=-1.309363D-03
 GradGradGradGradGradGradGradGradGradGradGradGradGradGradGradGradGradGrad

                          Input orientation:                          
 ---------------------------------------------------------------------
 Center     Atomic      Atomic             Coordinates (Angstroms)
 Number     Number       Type             X           Y           Z
 ---------------------------------------------------------------------
      1          6           0        0.069107    0.150368   -0.041991
      2          8           0        0.361151    1.348772   -0.004855
      3          7           0        1.031394   -0.829355   -0.008580
      4          6           0       -1.359342   -0.363838    0.003192
      5          1           0       -2.025479    0.382840   -0.441872
      6          1           0       -1.650629   -0.508490    1.056781
      7          1           0       -1.471921   -1.325119   -0.523236
      8          1           0        0.802808   -1.812415   -0.008923
      9          1           0        2.000902   -0.544392    0.037632
 ---------------------------------------------------------------------
                    Distance matrix (angstroms):
                    1          2          3          4          5
     1  C    0.000000
     2  O    1.234034   0.000000
     3  N    1.373671   2.278920   0.000000
     4  C    1.518854   2.427590   2.435665   0.000000
     5  H    2.145050   2.611515   3.316871   1.095148   0.000000
     6  H    2.144501   2.936622   2.903652   1.102643   1.783520
     7  H    2.187104   3.283072   2.603313   1.101753   1.797268
     8  H    2.095693   3.191893   1.009286   2.602579   3.606356
     9  H    2.054475   2.504927   1.011576   3.365268   4.159499
                    6          7          8          9
     6  H    0.000000
     7  H    1.787533   0.000000
     8  H    2.975786   2.382513   0.000000
     9  H    3.791258   3.603416   1.745130   0.000000
 Stoichiometry    C2H5NO
 Framework group  C1[X(C2H5NO)]
 Deg. of freedom    21
 Full point group                 C1      NOp   1
 Largest Abelian subgroup         C1      NOp   1
 Largest concise Abelian subgroup C1      NOp   1
                         Standard orientation:                         
 ---------------------------------------------------------------------
 Center     Atomic      Atomic             Coordinates (Angstroms)
 Number     Number       Type             X           Y           Z
 ---------------------------------------------------------------------
      1          6           0        0.077103    0.149581   -0.034706
      2          8           0        0.436262    1.329465    0.006756
      3          7           0        0.982322   -0.883057    0.000072
      4          6           0       -1.378306   -0.283149    0.003298
      5          1           0       -1.999285    0.501054   -0.442527
      6          1           0       -1.681752   -0.413608    1.055307
      7          1           0       -1.542818   -1.235271   -0.526098
      8          1           0        0.698536   -1.851617   -0.003777
      9          1           0        1.966184   -0.653474    0.050987
 ---------------------------------------------------------------------
 Rotational constants (GHZ):          10.6236191           9.2406796           5.1033260
 Standard basis: Aug-CC-pVDZ (5D, 7F)
 There are   145 symmetry adapted cartesian basis functions of A   symmetry.
 There are   137 symmetry adapted basis functions of A   symmetry.
   137 basis functions,   227 primitive gaussians,   145 cartesian basis functions
    16 alpha electrons       16 beta electrons
       nuclear repulsion energy       120.8608066703 Hartrees.
 NAtoms=    9 NActive=    9 NUniq=    9 SFac= 1.00D+00 NAtFMM=   60 NAOKFM=F Big=F
 Integral buffers will be    131072 words long.
 Raffenetti 1 integral format.
 Two-electron integral symmetry is turned on.
 One-electron integrals computed using PRISM.
 NBasis=   137 RedAO= T EigKep=  9.31D-05  NBF=   137
 NBsUse=   137 1.00D-06 EigRej= -1.00D+00 NBFU=   137
 Initial guess from the checkpoint file:  "/scr/Gau-27945.chk"
 B after Tr=    -0.000000    0.000000    0.000000
         Rot=    0.999740   -0.000947   -0.000139    0.022772 Ang=  -2.61 deg.
 ExpMin= 2.97D-02 ExpMax= 1.17D+04 ExpMxC= 4.01D+02 IAcc=3 IRadAn=         5 AccDes= 0.00D+00
 Harris functional with IExCor=  205 and IRadAn=       5 diagonalized for initial guess.
 HarFok:  IExCor=  205 AccDes= 0.00D+00 IRadAn=         5 IDoV= 1 UseB2=F ITyADJ=14
 ICtDFT=  3500011 ScaDFX=  1.000000  1.000000  1.000000  1.000000
 FoFCou: FMM=F IPFlag=           0 FMFlag=      100000 FMFlg1=           0
         NFxFlg=           0 DoJE=T BraDBF=F KetDBF=T FulRan=T
         wScrn=  0.000000 ICntrl=       500 IOpCl=  0 I1Cent=   200000004 NGrid=           0
         NMat0=    1 NMatS0=      1 NMatT0=    0 NMatD0=    1 NMtDS0=    0 NMtDT0=    0
 Petite list used in FoFCou.
 Keep R1 ints in memory in canonical form, NReq=53319239.
 Requested convergence on RMS density matrix=1.00D-08 within 128 cycles.
 Requested convergence on MAX density matrix=1.00D-06.
 Requested convergence on             energy=1.00D-06.
 No special actions if energy rises.
 SCF Done:  E(RHF) =  -208.010055982     A.U. after   12 cycles
            NFock= 12  Conv=0.53D-08     -V/T= 2.0023
 ExpMin= 2.97D-02 ExpMax= 1.17D+04 ExpMxC= 4.01D+02 IAcc=3 IRadAn=         5 AccDes= 0.00D+00
 HarFok:  IExCor=  205 AccDes= 0.00D+00 IRadAn=         5 IDoV=-2 UseB2=F ITyADJ=14
 ICtDFT= 12500011 ScaDFX=  1.000000  1.000000  1.000000  1.000000
 Range of M.O.s used for correlation:     5   137
 NBasis=   137 NAE=    16 NBE=    16 NFC=     4 NFV=     0
 NROrb=    133 NOA=    12 NOB=    12 NVA=   121 NVB=   121

 **** Warning!!: The largest alpha MO coefficient is  0.33267246D+02

 Fully direct method using O(ONN) memory.
 JobTyp=1 Pass  1:  I=   5 to  16 NPSUse= 40 ParTrn=T ParDer=T DoDerP=T.
 Spin components of T(2) and E(2):
     alpha-alpha T2 =       0.2742583216D-01 E2=     -0.8423094408D-01
     alpha-beta  T2 =       0.1540280127D+00 E2=     -0.4908588989D+00
     beta-beta   T2 =       0.2742583216D-01 E2=     -0.8423094408D-01
 ANorm=    0.1099490644D+01
 E2 =    -0.6593207870D+00 EUMP2 =    -0.20866937676926D+03
          IDoAtm=111111111
          Differentiating once with respect to electric field.
                with respect to dipole field.
          Differentiating once with respect to nuclear coordinates.
 Keep R1 ints in memory in canonical form, NReq=53324703.
          There are     1 degrees of freedom in the 1st order CPHF.  IDoFFX=0 NUNeed=     1.
 LinEq1:  Iter=  0 NonCon=     1 RMS=5.49D-03 Max=5.89D-02 NDo=     1
 AX will form     1 AO Fock derivatives at one time.
 LinEq1:  Iter=  1 NonCon=     1 RMS=1.69D-03 Max=1.39D-02 NDo=     1
 LinEq1:  Iter=  2 NonCon=     1 RMS=5.94D-04 Max=5.65D-03 NDo=     1
 LinEq1:  Iter=  3 NonCon=     1 RMS=1.89D-04 Max=1.52D-03 NDo=     1
 LinEq1:  Iter=  4 NonCon=     1 RMS=6.04D-05 Max=4.75D-04 NDo=     1
 LinEq1:  Iter=  5 NonCon=     1 RMS=1.51D-05 Max=1.27D-04 NDo=     1
 LinEq1:  Iter=  6 NonCon=     1 RMS=5.42D-06 Max=4.72D-05 NDo=     1
 LinEq1:  Iter=  7 NonCon=     1 RMS=1.40D-06 Max=1.74D-05 NDo=     1
 LinEq1:  Iter=  8 NonCon=     1 RMS=3.06D-07 Max=2.71D-06 NDo=     1
 LinEq1:  Iter=  9 NonCon=     1 RMS=8.21D-08 Max=4.65D-07 NDo=     1
 LinEq1:  Iter= 10 NonCon=     1 RMS=2.21D-08 Max=1.97D-07 NDo=     1
 LinEq1:  Iter= 11 NonCon=     1 RMS=5.78D-09 Max=7.08D-08 NDo=     1
 LinEq1:  Iter= 12 NonCon=     1 RMS=1.69D-09 Max=2.44D-08 NDo=     1
 LinEq1:  Iter= 13 NonCon=     1 RMS=3.33D-10 Max=2.55D-09 NDo=     1
 LinEq1:  Iter= 14 NonCon=     0 RMS=6.59D-11 Max=4.23D-10 NDo=     1
 Linear equations converged to 1.000D-10 1.000D-09 after    14 iterations.
 End of Minotr F.D. properties file   721 does not exist.
 End of Minotr F.D. properties file   722 does not exist.
 End of Minotr F.D. properties file   788 does not exist.
 Calling FoFJK, ICntrl=  10002127 FMM=F ISym2X=0 I1Cent= 0 IOpClX= 0 NMat=1 NMatS=1 NMatT=0.
 ***** Axes restored to original set *****
 -------------------------------------------------------------------
 Center     Atomic                   Forces (Hartrees/Bohr)
 Number     Number              X              Y              Z
 -------------------------------------------------------------------
      1        6           0.000158845    0.000392411    0.009520358
      2        8          -0.001402060   -0.001106524   -0.003795962
      3        7           0.001386466   -0.000211930   -0.002214120
      4        6          -0.000536650   -0.001030827   -0.001897363
      5        1          -0.000595626    0.001100864   -0.000643059
      6        1           0.000771224    0.000387357   -0.000640168
      7        1          -0.000148859    0.000597653    0.000213846
      8        1          -0.000077073    0.000125010   -0.000517977
      9        1           0.000443733   -0.000254015   -0.000025555
 -------------------------------------------------------------------
 Cartesian Forces:  Max     0.009520358 RMS     0.002146038

 GradGradGradGradGradGradGradGradGradGradGradGradGradGradGradGradGradGrad
 Berny optimization.
 Using GEDIIS/GDIIS optimizer.
 FormGI is forming the generalized inverse of G from B-inverse, IUseBI=4.
 Internal  Forces:  Max     0.002173177 RMS     0.001145136
 Search for a local minimum.
 Step number   2 out of a maximum of   40
 All quantities printed in internal units (Hartrees-Bohrs-Radians)
 Mixed Optimization -- RFO/linear search
 Update second derivatives using D2CorX and points    1    2
 DE= -9.00D-04 DEPred=-1.31D-03 R= 6.87D-01
 TightC=F SS=  1.41D+00  RLast= 1.95D-01 DXNew= 5.0454D-01 5.8477D-01
 Trust test= 6.87D-01 RLast= 1.95D-01 DXMaxT set to 5.05D-01
 ITU=  1  0
 Use linear search instead of GDIIS.
     Eigenvalues ---    0.00509   0.01655   0.02023   0.02123   0.07072
     Eigenvalues ---    0.07399   0.13283   0.16000   0.16000   0.16000
     Eigenvalues ---    0.16262   0.24931   0.26186   0.30426   0.33711
     Eigenvalues ---    0.33731   0.34168   0.45625   0.46148   0.50345
     Eigenvalues ---    0.90045
 RFO step:  Lambda=-9.04968786D-04 EMin= 5.09484343D-03
 Quartic linear search produced a step of -0.22127.
 Iteration  1 RMS(Cart)=  0.03283041 RMS(Int)=  0.00146274
 Iteration  2 RMS(Cart)=  0.00173086 RMS(Int)=  0.00090243
 Iteration  3 RMS(Cart)=  0.00000059 RMS(Int)=  0.00090243
 Variable       Old X    -DE/DX   Delta X   Delta X   Delta X     New X
                                 (Linear)    (Quad)   (Total)
    R1        2.33199  -0.00152  -0.00041  -0.00018  -0.00059   2.33140
    R2        2.59586   0.00140   0.00009   0.00195   0.00204   2.59790
    R3        2.87022   0.00003   0.00022  -0.00053  -0.00031   2.86991
    R4        1.90727  -0.00010  -0.00014   0.00020   0.00006   1.90734
    R5        1.91160   0.00035   0.00025  -0.00008   0.00016   1.91177
    R6        2.06953   0.00137   0.00179  -0.00179   0.00000   2.06953
    R7        2.08369  -0.00087  -0.00127   0.00152   0.00025   2.08394
    R8        2.08201  -0.00061  -0.00083   0.00089   0.00006   2.08207
    A1        2.12481   0.00028   0.00078   0.00322   0.00116   2.12597
    A2        2.15370  -0.00217  -0.00409   0.00834   0.00140   2.15510
    A3        2.00055   0.00214   0.00423  -0.00088   0.00050   2.00104
    A4        2.13651  -0.00038  -0.00048  -0.00049  -0.00096   2.13555
    A5        2.06189   0.00055   0.00057   0.00111   0.00170   2.06359
    A6        2.08456  -0.00016  -0.00004  -0.00061  -0.00064   2.08393
    A7        1.90619  -0.00041   0.01899  -0.05527  -0.03634   1.86985
    A8        1.89788  -0.00094  -0.00665   0.01396   0.00730   1.90519
    A9        1.95764   0.00057  -0.01212   0.03700   0.02491   1.98255
   A10        1.89344   0.00043  -0.00238   0.00754   0.00507   1.89851
   A11        1.91616   0.00002  -0.00158   0.00460   0.00301   1.91917
   A12        1.89136   0.00033   0.00362  -0.00785  -0.00415   1.88721
    D1        3.10698   0.00177   0.00823   0.08214   0.09024  -3.08597
    D2       -0.01165   0.00131   0.00250   0.08149   0.08387   0.07222
    D3        0.05975  -0.00093  -0.01225  -0.04014  -0.05227   0.00748
    D4       -3.05888  -0.00139  -0.01798  -0.04079  -0.05864  -3.11752
    D5        0.51236  -0.00159  -0.00965  -0.06602  -0.07568   0.43668
    D6       -1.55095  -0.00133  -0.01368  -0.05154  -0.06532  -1.61628
    D7        2.64072  -0.00147  -0.00704  -0.07413  -0.08117   2.55955
    D8       -2.72536   0.00132   0.01122   0.05822   0.06951  -2.65586
    D9        1.49451   0.00158   0.00719   0.07270   0.07986   1.57437
   D10       -0.59700   0.00144   0.01383   0.05011   0.06401  -0.53299
         Item               Value     Threshold  Converged?
 Maximum Force            0.002173     0.000450     NO 
 RMS     Force            0.001145     0.000300     NO 
 Maximum Displacement     0.103106     0.001800     NO 
 RMS     Displacement     0.032579     0.001200     NO 
 Predicted change in Energy=-5.620594D-04
 GradGradGradGradGradGradGradGradGradGradGradGradGradGradGradGradGradGrad

                          Input orientation:                          
 ---------------------------------------------------------------------
 Center     Atomic      Atomic             Coordinates (Angstroms)
 Number     Number       Type             X           Y           Z
 ---------------------------------------------------------------------
      1          6           0        0.067426    0.149173    0.012571
      2          8           0        0.353171    1.348821   -0.022951
      3          7           0        1.035118   -0.827103   -0.007147
      4          6           0       -1.358821   -0.372592    0.014269
      5          1           0       -1.982821    0.392435   -0.459770
      6          1           0       -1.693435   -0.507974    1.056294
      7          1           0       -1.477439   -1.333548   -0.511492
      8          1           0        0.809776   -1.810769   -0.025834
      9          1           0        2.005016   -0.540074    0.012207
 ---------------------------------------------------------------------
                    Distance matrix (angstroms):
                    1          2          3          4          5
     1  C    0.000000
     2  O    1.233722   0.000000
     3  N    1.374748   2.280339   0.000000
     4  C    1.518690   2.428078   2.436798   0.000000
     5  H    2.117969   2.561707   3.286350   1.095150   0.000000
     6  H    2.149845   2.966657   2.945803   1.102775   1.786877
     7  H    2.204475   3.284039   2.612240   1.101786   1.799195
     8  H    2.096170   3.192414   1.009320   2.602456   3.583435
     9  H    2.056530   2.509532   1.011663   3.368004   4.122521
                    6          7          8          9
     6  H    0.000000
     7  H    1.784988   0.000000
     8  H    3.022308   2.386411   0.000000
     9  H    3.843135   3.609897   1.744910   0.000000
 Stoichiometry    C2H5NO
 Framework group  C1[X(C2H5NO)]
 Deg. of freedom    21
 Full point group                 C1      NOp   1
 Largest Abelian subgroup         C1      NOp   1
 Largest concise Abelian subgroup C1      NOp   1
                         Standard orientation:                         
 ---------------------------------------------------------------------
 Center     Atomic      Atomic             Coordinates (Angstroms)
 Number     Number       Type             X           Y           Z
 ---------------------------------------------------------------------
      1          6           0        0.076614    0.149199    0.014702
      2          8           0        0.432171    1.330373   -0.007092
      3          7           0        0.985926   -0.881705   -0.003222
      4          6           0       -1.377545   -0.288416   -0.003629
      5          1           0       -1.950503    0.515604   -0.477575
      6          1           0       -1.731231   -0.412599    1.033481
      7          1           0       -1.546018   -1.236454   -0.539141
      8          1           0        0.703865   -1.850352   -0.033065
      9          1           0        1.970622   -0.651950    0.029150
 ---------------------------------------------------------------------
 Rotational constants (GHZ):          10.6140280           9.2382211           5.0991869
 Standard basis: Aug-CC-pVDZ (5D, 7F)
 There are   145 symmetry adapted cartesian basis functions of A   symmetry.
 There are   137 symmetry adapted basis functions of A   symmetry.
   137 basis functions,   227 primitive gaussians,   145 cartesian basis functions
    16 alpha electrons       16 beta electrons
       nuclear repulsion energy       120.8374842477 Hartrees.
 NAtoms=    9 NActive=    9 NUniq=    9 SFac= 1.00D+00 NAtFMM=   60 NAOKFM=F Big=F
 Integral buffers will be    131072 words long.
 Raffenetti 1 integral format.
 Two-electron integral symmetry is turned on.
 One-electron integrals computed using PRISM.
 NBasis=   137 RedAO= T EigKep=  9.42D-05  NBF=   137
 NBsUse=   137 1.00D-06 EigRej= -1.00D+00 NBFU=   137
 Initial guess from the checkpoint file:  "/scr/Gau-27945.chk"
 B after Tr=     0.000000   -0.000000   -0.000000
         Rot=    0.999998   -0.000180    0.002075   -0.000524 Ang=  -0.25 deg.
 ExpMin= 2.97D-02 ExpMax= 1.17D+04 ExpMxC= 4.01D+02 IAcc=3 IRadAn=         5 AccDes= 0.00D+00
 Harris functional with IExCor=  205 and IRadAn=       5 diagonalized for initial guess.
 HarFok:  IExCor=  205 AccDes= 0.00D+00 IRadAn=         5 IDoV= 1 UseB2=F ITyADJ=14
 ICtDFT=  3500011 ScaDFX=  1.000000  1.000000  1.000000  1.000000
 FoFCou: FMM=F IPFlag=           0 FMFlag=      100000 FMFlg1=           0
         NFxFlg=           0 DoJE=T BraDBF=F KetDBF=T FulRan=T
         wScrn=  0.000000 ICntrl=       500 IOpCl=  0 I1Cent=   200000004 NGrid=           0
         NMat0=    1 NMatS0=      1 NMatT0=    0 NMatD0=    1 NMtDS0=    0 NMtDT0=    0
 Petite list used in FoFCou.
 Keep R1 ints in memory in canonical form, NReq=53319180.
 Requested convergence on RMS density matrix=1.00D-08 within 128 cycles.
 Requested convergence on MAX density matrix=1.00D-06.
 Requested convergence on             energy=1.00D-06.
 No special actions if energy rises.
 SCF Done:  E(RHF) =  -208.009840558     A.U. after   12 cycles
            NFock= 12  Conv=0.51D-08     -V/T= 2.0023
 ExpMin= 2.97D-02 ExpMax= 1.17D+04 ExpMxC= 4.01D+02 IAcc=3 IRadAn=         5 AccDes= 0.00D+00
 HarFok:  IExCor=  205 AccDes= 0.00D+00 IRadAn=         5 IDoV=-2 UseB2=F ITyADJ=14
 ICtDFT= 12500011 ScaDFX=  1.000000  1.000000  1.000000  1.000000
 Range of M.O.s used for correlation:     5   137
 NBasis=   137 NAE=    16 NBE=    16 NFC=     4 NFV=     0
 NROrb=    133 NOA=    12 NOB=    12 NVA=   121 NVB=   121

 **** Warning!!: The largest alpha MO coefficient is  0.26941666D+02

 Fully direct method using O(ONN) memory.
 JobTyp=1 Pass  1:  I=   5 to  16 NPSUse= 40 ParTrn=T ParDer=T DoDerP=T.
 Spin components of T(2) and E(2):
     alpha-alpha T2 =       0.2743598663D-01 E2=     -0.8424659445D-01
     alpha-beta  T2 =       0.1540543976D+00 E2=     -0.4908948904D+00
     beta-beta   T2 =       0.2743598663D-01 E2=     -0.8424659445D-01
 ANorm=    0.1099511878D+01
 E2 =    -0.6593880793D+00 EUMP2 =    -0.20866922863690D+03
          IDoAtm=111111111
          Differentiating once with respect to electric field.
                with respect to dipole field.
          Differentiating once with respect to nuclear coordinates.
 Keep R1 ints in memory in canonical form, NReq=53324821.
          There are     1 degrees of freedom in the 1st order CPHF.  IDoFFX=0 NUNeed=     1.
 LinEq1:  Iter=  0 NonCon=     1 RMS=5.49D-03 Max=7.43D-02 NDo=     1
 AX will form     1 AO Fock derivatives at one time.
 LinEq1:  Iter=  1 NonCon=     1 RMS=1.69D-03 Max=1.67D-02 NDo=     1
 LinEq1:  Iter=  2 NonCon=     1 RMS=5.93D-04 Max=6.59D-03 NDo=     1
 LinEq1:  Iter=  3 NonCon=     1 RMS=1.89D-04 Max=1.75D-03 NDo=     1
 LinEq1:  Iter=  4 NonCon=     1 RMS=6.02D-05 Max=5.55D-04 NDo=     1
 LinEq1:  Iter=  5 NonCon=     1 RMS=1.51D-05 Max=1.31D-04 NDo=     1
 LinEq1:  Iter=  6 NonCon=     1 RMS=5.39D-06 Max=4.38D-05 NDo=     1
 LinEq1:  Iter=  7 NonCon=     1 RMS=1.39D-06 Max=2.10D-05 NDo=     1
 LinEq1:  Iter=  8 NonCon=     1 RMS=3.06D-07 Max=3.38D-06 NDo=     1
 LinEq1:  Iter=  9 NonCon=     1 RMS=8.21D-08 Max=4.93D-07 NDo=     1
 LinEq1:  Iter= 10 NonCon=     1 RMS=2.23D-08 Max=2.08D-07 NDo=     1
 LinEq1:  Iter= 11 NonCon=     1 RMS=5.77D-09 Max=8.66D-08 NDo=     1
 LinEq1:  Iter= 12 NonCon=     1 RMS=1.66D-09 Max=2.80D-08 NDo=     1
 LinEq1:  Iter= 13 NonCon=     1 RMS=3.24D-10 Max=3.19D-09 NDo=     1
 LinEq1:  Iter= 14 NonCon=     0 RMS=5.73D-11 Max=3.93D-10 NDo=     1
 Linear equations converged to 1.000D-10 1.000D-09 after    14 iterations.
 End of Minotr F.D. properties file   721 does not exist.
 End of Minotr F.D. properties file   722 does not exist.
 End of Minotr F.D. properties file   788 does not exist.
 Calling FoFJK, ICntrl=  10002127 FMM=F ISym2X=0 I1Cent= 0 IOpClX= 0 NMat=1 NMatS=1 NMatT=0.
 ***** Axes restored to original set *****
 -------------------------------------------------------------------
 Center     Atomic                   Forces (Hartrees/Bohr)
 Number     Number              X              Y              Z
 -------------------------------------------------------------------
      1        6           0.002335379   -0.003572035   -0.009991613
      2        8          -0.001725321   -0.001247906    0.004242976
      3        7           0.001378071    0.000684658    0.002280053
      4        6          -0.001723021    0.002273282    0.003671292
      5        1          -0.002645635    0.000087028   -0.000106700
      6        1          -0.000114676    0.000618997   -0.000695484
      7        1           0.002173921    0.001185768   -0.000050848
      8        1          -0.000141894    0.000212966    0.000784378
      9        1           0.000463176   -0.000242758   -0.000134054
 -------------------------------------------------------------------
 Cartesian Forces:  Max     0.009991613 RMS     0.002615971

 GradGradGradGradGradGradGradGradGradGradGradGradGradGradGradGradGradGrad
 Berny optimization.
 Using GEDIIS/GDIIS optimizer.
 FormGI is forming the generalized inverse of G from B-inverse, IUseBI=4.
 Internal  Forces:  Max     0.003821240 RMS     0.001689689
 Search for a local minimum.
 Step number   3 out of a maximum of   40
 All quantities printed in internal units (Hartrees-Bohrs-Radians)
 Mixed Optimization -- RFO/linear search
 Update second derivatives using D2CorX and points    1    3    2
 DE=  1.48D-04 DEPred=-5.62D-04 R=-2.64D-01
 Trust test=-2.64D-01 RLast= 2.35D-01 DXMaxT set to 2.52D-01
 ITU= -1  1  0
 Use linear search instead of GDIIS.
     Eigenvalues ---    0.00510   0.02013   0.02036   0.04007   0.06934
     Eigenvalues ---    0.07599   0.14152   0.15997   0.16000   0.16066
     Eigenvalues ---    0.16475   0.24954   0.25290   0.30450   0.33725
     Eigenvalues ---    0.33736   0.33799   0.45611   0.46147   0.50150
     Eigenvalues ---    0.89807
 RFO step:  Lambda=-1.07707894D-04 EMin= 5.09523534D-03
 Quartic linear search produced a step of -0.56149.
 Iteration  1 RMS(Cart)=  0.01884498 RMS(Int)=  0.00045629
 Iteration  2 RMS(Cart)=  0.00048848 RMS(Int)=  0.00030938
 Iteration  3 RMS(Cart)=  0.00000005 RMS(Int)=  0.00030938
 Variable       Old X    -DE/DX   Delta X   Delta X   Delta X     New X
                                 (Linear)    (Quad)   (Total)
    R1        2.33140  -0.00174   0.00033  -0.00172  -0.00139   2.33000
    R2        2.59790   0.00069  -0.00114   0.00204   0.00090   2.59880
    R3        2.86991   0.00074   0.00017   0.00113   0.00130   2.87121
    R4        1.90734  -0.00019  -0.00004  -0.00030  -0.00033   1.90700
    R5        1.91177   0.00037  -0.00009   0.00076   0.00067   1.91243
    R6        2.06953   0.00161  -0.00000   0.00421   0.00421   2.07374
    R7        2.08394  -0.00070  -0.00014  -0.00224  -0.00238   2.08156
    R8        2.08207  -0.00124  -0.00003  -0.00255  -0.00259   2.07948
    A1        2.12597   0.00008  -0.00065   0.00041   0.00070   2.12667
    A2        2.15510  -0.00321  -0.00079  -0.01056  -0.01040   2.14471
    A3        2.00104   0.00327  -0.00028   0.00982   0.01049   2.01154
    A4        2.13555  -0.00048   0.00054  -0.00255  -0.00201   2.13355
    A5        2.06359   0.00059  -0.00096   0.00337   0.00242   2.06600
    A6        2.08393  -0.00012   0.00036  -0.00083  -0.00047   2.08346
    A7        1.86985   0.00364   0.02040   0.00912   0.02954   1.89940
    A8        1.90519   0.00036  -0.00410  -0.00210  -0.00622   1.89897
    A9        1.98255  -0.00382  -0.01399  -0.00888  -0.02287   1.95969
   A10        1.89851  -0.00133  -0.00285  -0.00172  -0.00457   1.89394
   A11        1.91917  -0.00005  -0.00169   0.00019  -0.00146   1.91771
   A12        1.88721   0.00122   0.00233   0.00350   0.00579   1.89300
    D1       -3.08597  -0.00208  -0.05067   0.00098  -0.04985  -3.13582
    D2        0.07222  -0.00156  -0.04709   0.00101  -0.04625   0.02597
    D3        0.00748   0.00082   0.02935  -0.00678   0.02273   0.03021
    D4       -3.11752   0.00134   0.03293  -0.00675   0.02634  -3.09118
    D5        0.43668   0.00173   0.04249  -0.00327   0.03914   0.47582
    D6       -1.61628   0.00109   0.03668  -0.00516   0.03143  -1.58484
    D7        2.55955   0.00181   0.04558  -0.00223   0.04322   2.60277
    D8       -2.65586  -0.00134  -0.03903   0.00428  -0.03464  -2.69049
    D9        1.57437  -0.00197  -0.04484   0.00239  -0.04234   1.53203
   D10       -0.53299  -0.00126  -0.03594   0.00532  -0.03056  -0.56355
         Item               Value     Threshold  Converged?
 Maximum Force            0.003821     0.000450     NO 
 RMS     Force            0.001690     0.000300     NO 
 Maximum Displacement     0.059582     0.001800     NO 
 RMS     Displacement     0.018796     0.001200     NO 
 Predicted change in Energy=-2.860593D-04
 GradGradGradGradGradGradGradGradGradGradGradGradGradGradGradGradGradGrad

                          Input orientation:                          
 ---------------------------------------------------------------------
 Center     Atomic      Atomic             Coordinates (Angstroms)
 Number     Number       Type             X           Y           Z
 ---------------------------------------------------------------------
      1          6           0        0.068570    0.144752   -0.014563
      2          8           0        0.352231    1.344660   -0.011994
      3          7           0        1.038422   -0.830228   -0.007772
      4          6           0       -1.362714   -0.364577    0.008229
      5          1           0       -2.014350    0.389617   -0.450901
      6          1           0       -1.673260   -0.504110    1.055809
      7          1           0       -1.472440   -1.324461   -0.518552
      8          1           0        0.813063   -1.813861   -0.014752
      9          1           0        2.008470   -0.543422    0.022642
 ---------------------------------------------------------------------
                    Distance matrix (angstroms):
                    1          2          3          4          5
     1  C    0.000000
     2  O    1.232984   0.000000
     3  N    1.375225   2.280572   0.000000
     4  C    1.519378   2.421350   2.445923   0.000000
     5  H    2.142173   2.589489   3.317197   1.097378   0.000000
     6  H    2.144922   2.942919   2.931002   1.101514   1.784732
     7  H    2.187990   3.272649   2.609519   1.100416   1.798973
     8  H    2.095336   3.191963   1.009143   2.614375   3.611067
     9  H    2.058684   2.511808   1.012016   3.375955   4.156667
                    6          7          8          9
     6  H    0.000000
     7  H    1.786593   0.000000
     8  H    3.007216   2.390994   0.000000
     9  H    3.824149   3.608275   1.744824   0.000000
 Stoichiometry    C2H5NO
 Framework group  C1[X(C2H5NO)]
 Deg. of freedom    21
 Full point group                 C1      NOp   1
 Largest Abelian subgroup         C1      NOp   1
 Largest concise Abelian subgroup C1      NOp   1
                         Standard orientation:                         
 ---------------------------------------------------------------------
 Center     Atomic      Atomic             Coordinates (Angstroms)
 Number     Number       Type             X           Y           Z
 ---------------------------------------------------------------------
      1          6           0        0.073905    0.147827   -0.010397
      2          8           0        0.395547    1.338073    0.000074
      3          7           0        1.012195   -0.857548   -0.001591
      4          6           0       -1.372975   -0.315791   -0.000173
      5          1           0       -1.996989    0.460909   -0.460152
      6          1           0       -1.695315   -0.450290    1.044499
      7          1           0       -1.509378   -1.269211   -0.532432
      8          1           0        0.755733   -1.833467   -0.014998
      9          1           0        1.990628   -0.601908    0.037052
 ---------------------------------------------------------------------
 Rotational constants (GHZ):          10.6385176           9.2092476           5.0956222
 Standard basis: Aug-CC-pVDZ (5D, 7F)
 There are   145 symmetry adapted cartesian basis functions of A   symmetry.
 There are   137 symmetry adapted basis functions of A   symmetry.
   137 basis functions,   227 primitive gaussians,   145 cartesian basis functions
    16 alpha electrons       16 beta electrons
       nuclear repulsion energy       120.8145345932 Hartrees.
 NAtoms=    9 NActive=    9 NUniq=    9 SFac= 1.00D+00 NAtFMM=   60 NAOKFM=F Big=F
 Integral buffers will be    131072 words long.
 Raffenetti 1 integral format.
 Two-electron integral symmetry is turned on.
 One-electron integrals computed using PRISM.
 NBasis=   137 RedAO= T EigKep=  9.34D-05  NBF=   137
 NBsUse=   137 1.00D-06 EigRej= -1.00D+00 NBFU=   137
 Lowest energy guess from the checkpoint file:  "/scr/Gau-27945.chk"
 B after Tr=     0.000000   -0.000000   -0.000000
         Rot=    0.999912   -0.000011    0.000951   -0.013222 Ang=  -1.52 deg.
 B after Tr=     0.000000   -0.000000    0.000000
         Rot=    0.999919    0.000180   -0.001127   -0.012698 Ang=   1.46 deg.
 Keep R1 ints in memory in canonical form, NReq=53319298.
 Requested convergence on RMS density matrix=1.00D-08 within 128 cycles.
 Requested convergence on MAX density matrix=1.00D-06.
 Requested convergence on             energy=1.00D-06.
 No special actions if energy rises.
 SCF Done:  E(RHF) =  -208.010493889     A.U. after   10 cycles
            NFock= 10  Conv=0.71D-08     -V/T= 2.0023
 ExpMin= 2.97D-02 ExpMax= 1.17D+04 ExpMxC= 4.01D+02 IAcc=3 IRadAn=         5 AccDes= 0.00D+00
 HarFok:  IExCor=  205 AccDes= 0.00D+00 IRadAn=         5 IDoV=-2 UseB2=F ITyADJ=14
 ICtDFT= 12500011 ScaDFX=  1.000000  1.000000  1.000000  1.000000
 Range of M.O.s used for correlation:     5   137
 NBasis=   137 NAE=    16 NBE=    16 NFC=     4 NFV=     0
 NROrb=    133 NOA=    12 NOB=    12 NVA=   121 NVB=   121

 **** Warning!!: The largest alpha MO coefficient is  0.30339229D+02

 Fully direct method using O(ONN) memory.
 JobTyp=1 Pass  1:  I=   5 to  16 NPSUse= 40 ParTrn=T ParDer=T DoDerP=T.
 Spin components of T(2) and E(2):
     alpha-alpha T2 =       0.2741102476D-01 E2=     -0.8420093704D-01
     alpha-beta  T2 =       0.1539688015D+00 E2=     -0.4907595707D+00
     beta-beta   T2 =       0.2741102476D-01 E2=     -0.8420093704D-01
 ANorm=    0.1099450249D+01
 E2 =    -0.6591614448D+00 EUMP2 =    -0.20866965533357D+03
          IDoAtm=111111111
          Differentiating once with respect to electric field.
                with respect to dipole field.
          Differentiating once with respect to nuclear coordinates.
 Keep R1 ints in memory in canonical form, NReq=53324703.
          There are     1 degrees of freedom in the 1st order CPHF.  IDoFFX=0 NUNeed=     1.
 LinEq1:  Iter=  0 NonCon=     1 RMS=5.48D-03 Max=6.73D-02 NDo=     1
 AX will form     1 AO Fock derivatives at one time.
 LinEq1:  Iter=  1 NonCon=     1 RMS=1.69D-03 Max=1.51D-02 NDo=     1
 LinEq1:  Iter=  2 NonCon=     1 RMS=5.91D-04 Max=6.26D-03 NDo=     1
 LinEq1:  Iter=  3 NonCon=     1 RMS=1.88D-04 Max=1.67D-03 NDo=     1
 LinEq1:  Iter=  4 NonCon=     1 RMS=5.98D-05 Max=5.27D-04 NDo=     1
 LinEq1:  Iter=  5 NonCon=     1 RMS=1.49D-05 Max=1.30D-04 NDo=     1
 LinEq1:  Iter=  6 NonCon=     1 RMS=5.30D-06 Max=4.50D-05 NDo=     1
 LinEq1:  Iter=  7 NonCon=     1 RMS=1.36D-06 Max=1.99D-05 NDo=     1
 LinEq1:  Iter=  8 NonCon=     1 RMS=2.97D-07 Max=3.21D-06 NDo=     1
 LinEq1:  Iter=  9 NonCon=     1 RMS=7.93D-08 Max=5.29D-07 NDo=     1
 LinEq1:  Iter= 10 NonCon=     1 RMS=2.06D-08 Max=1.24D-07 NDo=     1
 LinEq1:  Iter= 11 NonCon=     1 RMS=4.53D-09 Max=2.55D-08 NDo=     1
 LinEq1:  Iter= 12 NonCon=     1 RMS=9.04D-10 Max=5.49D-09 NDo=     1
 LinEq1:  Iter= 13 NonCon=     1 RMS=1.17D-10 Max=8.90D-10 NDo=     1
 LinEq1:  Iter= 14 NonCon=     0 RMS=2.01D-11 Max=2.89D-10 NDo=     1
 Linear equations converged to 1.000D-10 1.000D-09 after    14 iterations.
 End of Minotr F.D. properties file   721 does not exist.
 End of Minotr F.D. properties file   722 does not exist.
 End of Minotr F.D. properties file   788 does not exist.
 Calling FoFJK, ICntrl=  10002127 FMM=F ISym2X=0 I1Cent= 0 IOpClX= 0 NMat=1 NMatS=1 NMatT=0.
 ***** Axes restored to original set *****
 -------------------------------------------------------------------
 Center     Atomic                   Forces (Hartrees/Bohr)
 Number     Number              X              Y              Z
 -------------------------------------------------------------------
      1        6           0.000136026   -0.000072775   -0.000209686
      2        8          -0.000004634    0.000113872    0.000091503
      3        7          -0.000262679    0.000308582   -0.000055777
      4        6          -0.000006050   -0.000083452    0.000070735
      5        1           0.000403208   -0.000039534    0.000065427
      6        1           0.000014325    0.000009550    0.000032753
      7        1          -0.000056084   -0.000143797   -0.000069529
      8        1          -0.000064340   -0.000085705    0.000057929
      9        1          -0.000159773   -0.000006741    0.000016646
 -------------------------------------------------------------------
 Cartesian Forces:  Max     0.000403208 RMS     0.000137114

 GradGradGradGradGradGradGradGradGradGradGradGradGradGradGradGradGradGrad
 Berny optimization.
 Using GEDIIS/GDIIS optimizer.
 FormGI is forming the generalized inverse of G from B-inverse, IUseBI=4.
 Internal  Forces:  Max     0.000496439 RMS     0.000174775
 Search for a local minimum.
 Step number   4 out of a maximum of   40
 All quantities printed in internal units (Hartrees-Bohrs-Radians)
 Mixed Optimization -- En-DIIS/RFO-DIIS
 Update second derivatives using D2CorX and points    1    3    2    4
 DE= -2.79D-04 DEPred=-2.86D-04 R= 9.74D-01
 TightC=F SS=  1.41D+00  RLast= 1.14D-01 DXNew= 4.2426D-01 3.4156D-01
 Trust test= 9.74D-01 RLast= 1.14D-01 DXMaxT set to 3.42D-01
 ITU=  1 -1  1  0
 Use linear search instead of GDIIS.
     Eigenvalues ---    0.00510   0.02005   0.02039   0.04045   0.07047
     Eigenvalues ---    0.07473   0.14015   0.15999   0.16007   0.16143
     Eigenvalues ---    0.16476   0.24905   0.26217   0.30527   0.33721
     Eigenvalues ---    0.33728   0.34347   0.45658   0.46161   0.50678
     Eigenvalues ---    0.89821
 RFO step:  Lambda=-3.42213114D-06 EMin= 5.09540152D-03
 Quartic linear search produced a step of -0.02377.
 Iteration  1 RMS(Cart)=  0.00136928 RMS(Int)=  0.00000606
 Iteration  2 RMS(Cart)=  0.00000113 RMS(Int)=  0.00000595
 Iteration  3 RMS(Cart)=  0.00000000 RMS(Int)=  0.00000595
 Variable       Old X    -DE/DX   Delta X   Delta X   Delta X     New X
                                 (Linear)    (Quad)   (Total)
    R1        2.33000   0.00011   0.00005   0.00002   0.00006   2.33007
    R2        2.59880  -0.00050  -0.00007  -0.00080  -0.00087   2.59793
    R3        2.87121  -0.00025  -0.00002  -0.00074  -0.00076   2.87045
    R4        1.90700   0.00010   0.00001   0.00019   0.00020   1.90720
    R5        1.91243  -0.00015  -0.00002  -0.00028  -0.00030   1.91213
    R6        2.07374  -0.00029  -0.00010  -0.00062  -0.00072   2.07302
    R7        2.08156   0.00003   0.00005  -0.00004   0.00001   2.08157
    R8        2.07948   0.00016   0.00006   0.00034   0.00040   2.07989
    A1        2.12667   0.00019  -0.00004   0.00079   0.00076   2.12743
    A2        2.14471   0.00012   0.00021  -0.00006   0.00017   2.14488
    A3        2.01154  -0.00032  -0.00026  -0.00071  -0.00095   2.01059
    A4        2.13355  -0.00003   0.00007  -0.00035  -0.00028   2.13327
    A5        2.06600  -0.00002  -0.00010   0.00006  -0.00004   2.06597
    A6        2.08346   0.00005   0.00003   0.00024   0.00027   2.08373
    A7        1.89940  -0.00045   0.00016  -0.00323  -0.00307   1.89633
    A8        1.89897   0.00002  -0.00003   0.00021   0.00018   1.89915
    A9        1.95969   0.00015  -0.00005   0.00112   0.00107   1.96076
   A10        1.89394   0.00015  -0.00001   0.00066   0.00064   1.89459
   A11        1.91771   0.00013  -0.00004   0.00064   0.00061   1.91832
   A12        1.89300   0.00000  -0.00004   0.00062   0.00058   1.89358
    D1       -3.13582  -0.00007  -0.00096  -0.00152  -0.00248  -3.13830
    D2        0.02597  -0.00001  -0.00089   0.00125   0.00035   0.02633
    D3        0.03021  -0.00002   0.00070  -0.00235  -0.00165   0.02856
    D4       -3.09118   0.00004   0.00077   0.00042   0.00119  -3.08999
    D5        0.47582   0.00003   0.00087   0.00068   0.00155   0.47736
    D6       -1.58484   0.00009   0.00081   0.00161   0.00241  -1.58243
    D7        2.60277  -0.00002   0.00090  -0.00001   0.00089   2.60365
    D8       -2.69049  -0.00003  -0.00083   0.00154   0.00071  -2.68978
    D9        1.53203   0.00004  -0.00089   0.00246   0.00157   1.53360
   D10       -0.56355  -0.00008  -0.00080   0.00084   0.00005  -0.56349
         Item               Value     Threshold  Converged?
 Maximum Force            0.000496     0.000450     NO 
 RMS     Force            0.000175     0.000300     YES
 Maximum Displacement     0.005331     0.001800     NO 
 RMS     Displacement     0.001370     0.001200     NO 
 Predicted change in Energy=-1.875029D-06
 GradGradGradGradGradGradGradGradGradGradGradGradGradGradGradGradGradGrad

                          Input orientation:                          
 ---------------------------------------------------------------------
 Center     Atomic      Atomic             Coordinates (Angstroms)
 Number     Number       Type             X           Y           Z
 ---------------------------------------------------------------------
      1          6           0        0.068381    0.144932   -0.014841
      2          8           0        0.351351    1.345035   -0.011229
      3          7           0        1.037733   -0.829898   -0.008667
      4          6           0       -1.362122   -0.365367    0.008404
      5          1           0       -2.011529    0.389844   -0.451304
      6          1           0       -1.672863   -0.503918    1.056062
      7          1           0       -1.472493   -1.325421   -0.518376
      8          1           0        0.811880   -1.813533   -0.014391
      9          1           0        2.007653   -0.543304    0.022488
 ---------------------------------------------------------------------
                    Distance matrix (angstroms):
                    1          2          3          4          5
     1  C    0.000000
     2  O    1.233018   0.000000
     3  N    1.374764   2.280672   0.000000
     4  C    1.518975   2.421126   2.444461   0.000000
     5  H    2.139278   2.586360   3.313865   1.096998   0.000000
     6  H    2.144708   2.941969   2.930400   1.101518   1.784841
     7  H    2.188556   3.273368   2.608943   1.100628   1.799220
     8  H    2.094845   3.191966   1.009247   2.612277   3.607964
     9  H    2.058115   2.512031   1.011855   3.374499   4.153200
                    6          7          8          9
     6  H    0.000000
     7  H    1.787140   0.000000
     8  H    3.005813   2.389689   0.000000
     9  H    3.823091   3.607722   1.744911   0.000000
 Stoichiometry    C2H5NO
 Framework group  C1[X(C2H5NO)]
 Deg. of freedom    21
 Full point group                 C1      NOp   1
 Largest Abelian subgroup         C1      NOp   1
 Largest concise Abelian subgroup C1      NOp   1
                         Standard orientation:                         
 ---------------------------------------------------------------------
 Center     Atomic      Atomic             Coordinates (Angstroms)
 Number     Number       Type             X           Y           Z
 ---------------------------------------------------------------------
      1          6           0        0.074168    0.147859   -0.010719
      2          8           0        0.396597    1.337923    0.000245
      3          7           0        1.010713   -0.858510   -0.001829
      4          6           0       -1.372547   -0.314948   -0.000090
      5          1           0       -1.993236    0.463238   -0.461150
      6          1           0       -1.695424   -0.447521    1.044667
      7          1           0       -1.510681   -1.268619   -0.531892
      8          1           0        0.752535   -1.834106   -0.013534
      9          1           0        1.989315   -0.604279    0.037617
 ---------------------------------------------------------------------
 Rotational constants (GHZ):          10.6355303           9.2194960           5.0981529
 Standard basis: Aug-CC-pVDZ (5D, 7F)
 There are   145 symmetry adapted cartesian basis functions of A   symmetry.
 There are   137 symmetry adapted basis functions of A   symmetry.
   137 basis functions,   227 primitive gaussians,   145 cartesian basis functions
    16 alpha electrons       16 beta electrons
       nuclear repulsion energy       120.8371725887 Hartrees.
 NAtoms=    9 NActive=    9 NUniq=    9 SFac= 1.00D+00 NAtFMM=   60 NAOKFM=F Big=F
 Integral buffers will be    131072 words long.
 Raffenetti 1 integral format.
 Two-electron integral symmetry is turned on.
 One-electron integrals computed using PRISM.
 NBasis=   137 RedAO= T EigKep=  9.33D-05  NBF=   137
 NBsUse=   137 1.00D-06 EigRej= -1.00D+00 NBFU=   137
 Initial guess from the checkpoint file:  "/scr/Gau-27945.chk"
 B after Tr=    -0.000000    0.000000    0.000000
         Rot=    1.000000    0.000052    0.000033    0.000499 Ang=   0.06 deg.
 Keep R1 ints in memory in canonical form, NReq=53319298.
 Requested convergence on RMS density matrix=1.00D-08 within 128 cycles.
 Requested convergence on MAX density matrix=1.00D-06.
 Requested convergence on             energy=1.00D-06.
 No special actions if energy rises.
 SCF Done:  E(RHF) =  -208.010509934     A.U. after    9 cycles
            NFock=  9  Conv=0.25D-08     -V/T= 2.0023
 ExpMin= 2.97D-02 ExpMax= 1.17D+04 ExpMxC= 4.01D+02 IAcc=3 IRadAn=         5 AccDes= 0.00D+00
 HarFok:  IExCor=  205 AccDes= 0.00D+00 IRadAn=         5 IDoV=-2 UseB2=F ITyADJ=14
 ICtDFT= 12500011 ScaDFX=  1.000000  1.000000  1.000000  1.000000
 Range of M.O.s used for correlation:     5   137
 NBasis=   137 NAE=    16 NBE=    16 NFC=     4 NFV=     0
 NROrb=    133 NOA=    12 NOB=    12 NVA=   121 NVB=   121

 **** Warning!!: The largest alpha MO coefficient is  0.30378722D+02

 Fully direct method using O(ONN) memory.
 JobTyp=1 Pass  1:  I=   5 to  16 NPSUse= 40 ParTrn=T ParDer=T DoDerP=T.
 Spin components of T(2) and E(2):
     alpha-alpha T2 =       0.2740875250D-01 E2=     -0.8420260386D-01
     alpha-beta  T2 =       0.1539453345D+00 E2=     -0.4907421539D+00
     beta-beta   T2 =       0.2740875250D-01 E2=     -0.8420260386D-01
 ANorm=    0.1099437510D+01
 E2 =    -0.6591473616D+00 EUMP2 =    -0.20866965729560D+03
          IDoAtm=111111111
          Differentiating once with respect to electric field.
                with respect to dipole field.
          Differentiating once with respect to nuclear coordinates.
 Keep R1 ints in memory in canonical form, NReq=53324762.
          There are     1 degrees of freedom in the 1st order CPHF.  IDoFFX=0 NUNeed=     1.
 LinEq1:  Iter=  0 NonCon=     1 RMS=5.48D-03 Max=6.72D-02 NDo=     1
 AX will form     1 AO Fock derivatives at one time.
 LinEq1:  Iter=  1 NonCon=     1 RMS=1.69D-03 Max=1.51D-02 NDo=     1
 LinEq1:  Iter=  2 NonCon=     1 RMS=5.91D-04 Max=6.25D-03 NDo=     1
 LinEq1:  Iter=  3 NonCon=     1 RMS=1.88D-04 Max=1.67D-03 NDo=     1
 LinEq1:  Iter=  4 NonCon=     1 RMS=5.97D-05 Max=5.25D-04 NDo=     1
 LinEq1:  Iter=  5 NonCon=     1 RMS=1.49D-05 Max=1.30D-04 NDo=     1
 LinEq1:  Iter=  6 NonCon=     1 RMS=5.30D-06 Max=4.51D-05 NDo=     1
 LinEq1:  Iter=  7 NonCon=     1 RMS=1.36D-06 Max=1.99D-05 NDo=     1
 LinEq1:  Iter=  8 NonCon=     1 RMS=2.97D-07 Max=3.19D-06 NDo=     1
 LinEq1:  Iter=  9 NonCon=     1 RMS=7.92D-08 Max=5.25D-07 NDo=     1
 LinEq1:  Iter= 10 NonCon=     1 RMS=2.05D-08 Max=1.24D-07 NDo=     1
 LinEq1:  Iter= 11 NonCon=     1 RMS=4.53D-09 Max=2.52D-08 NDo=     1
 LinEq1:  Iter= 12 NonCon=     1 RMS=9.00D-10 Max=5.51D-09 NDo=     1
 LinEq1:  Iter= 13 NonCon=     1 RMS=1.13D-10 Max=9.00D-10 NDo=     1
 LinEq1:  Iter= 14 NonCon=     0 RMS=1.69D-11 Max=9.88D-11 NDo=     1
 Linear equations converged to 1.000D-10 1.000D-09 after    14 iterations.
 End of Minotr F.D. properties file   721 does not exist.
 End of Minotr F.D. properties file   722 does not exist.
 End of Minotr F.D. properties file   788 does not exist.
 Calling FoFJK, ICntrl=  10002127 FMM=F ISym2X=0 I1Cent= 0 IOpClX= 0 NMat=1 NMatS=1 NMatT=0.
 ***** Axes restored to original set *****
 -------------------------------------------------------------------
 Center     Atomic                   Forces (Hartrees/Bohr)
 Number     Number              X              Y              Z
 -------------------------------------------------------------------
      1        6           0.000100289   -0.000127646    0.000008123
      2        8           0.000017254    0.000057538    0.000024420
      3        7          -0.000012961    0.000087095   -0.000095923
      4        6          -0.000099032   -0.000047789   -0.000008536
      5        1          -0.000001451   -0.000001669   -0.000000450
      6        1          -0.000001899    0.000018498   -0.000001497
      7        1          -0.000005136    0.000011547    0.000005037
      8        1          -0.000012531    0.000017598    0.000046805
      9        1           0.000015466   -0.000015171    0.000022021
 -------------------------------------------------------------------
 Cartesian Forces:  Max     0.000127646 RMS     0.000048645

 GradGradGradGradGradGradGradGradGradGradGradGradGradGradGradGradGradGrad
 Berny optimization.
 Using GEDIIS/GDIIS optimizer.
 FormGI is forming the generalized inverse of G from B-inverse, IUseBI=4.
 Internal  Forces:  Max     0.000107693 RMS     0.000032092
 Search for a local minimum.
 Step number   5 out of a maximum of   40
 All quantities printed in internal units (Hartrees-Bohrs-Radians)
 Mixed Optimization -- En-DIIS/RFO-DIIS
 Swapping is turned off.
 Update second derivatives using D2CorX and points    1    3    2    4    5
 DE= -1.96D-06 DEPred=-1.88D-06 R= 1.05D+00
 TightC=F SS=  1.41D+00  RLast= 6.16D-03 DXNew= 5.7443D-01 1.8466D-02
 Trust test= 1.05D+00 RLast= 6.16D-03 DXMaxT set to 3.42D-01
 ITU=  1  1 -1  1  0
     Eigenvalues ---    0.00497   0.01816   0.02040   0.04001   0.06966
     Eigenvalues ---    0.07434   0.13713   0.15946   0.16025   0.16391
     Eigenvalues ---    0.16475   0.24699   0.26610   0.32034   0.33695
     Eigenvalues ---    0.33734   0.36037   0.45804   0.46402   0.49369
     Eigenvalues ---    0.89525
 En-DIIS/RFO-DIIS/Sim-DIIS IScMMF=       -3 using points:     5    4
 RFO step:  Lambda=-3.24303423D-07.
 DidBck=F Rises=F RFO-DIIS coefs:    1.54723   -0.54723
 Iteration  1 RMS(Cart)=  0.00056037 RMS(Int)=  0.00000075
 Iteration  2 RMS(Cart)=  0.00000044 RMS(Int)=  0.00000066
 Variable       Old X    -DE/DX   Delta X   Delta X   Delta X     New X
                                 (Linear)    (Quad)   (Total)
    R1        2.33007   0.00006   0.00003   0.00004   0.00007   2.33014
    R2        2.59793  -0.00007  -0.00048   0.00026  -0.00022   2.59771
    R3        2.87045   0.00011  -0.00042   0.00072   0.00030   2.87075
    R4        1.90720  -0.00001   0.00011  -0.00012  -0.00002   1.90718
    R5        1.91213   0.00001  -0.00017   0.00017   0.00000   1.91213
    R6        2.07302  -0.00000  -0.00039   0.00034  -0.00005   2.07297
    R7        2.08157  -0.00000   0.00000  -0.00002  -0.00002   2.08155
    R8        2.07989  -0.00001   0.00022  -0.00023  -0.00001   2.07988
    A1        2.12743  -0.00003   0.00042  -0.00046  -0.00005   2.12738
    A2        2.14488  -0.00002   0.00009  -0.00020  -0.00010   2.14477
    A3        2.01059   0.00005  -0.00052   0.00067   0.00015   2.01074
    A4        2.13327  -0.00003  -0.00015  -0.00011  -0.00027   2.13300
    A5        2.06597   0.00003  -0.00002   0.00024   0.00021   2.06618
    A6        2.08373  -0.00000   0.00015  -0.00016  -0.00001   2.08371
    A7        1.89633  -0.00000  -0.00168   0.00132  -0.00035   1.89597
    A8        1.89915  -0.00001   0.00010  -0.00013  -0.00003   1.89911
    A9        1.96076   0.00001   0.00059  -0.00035   0.00023   1.96099
   A10        1.89459  -0.00001   0.00035  -0.00038  -0.00003   1.89455
   A11        1.91832  -0.00001   0.00033  -0.00030   0.00003   1.91835
   A12        1.89358   0.00001   0.00032  -0.00016   0.00015   1.89373
    D1       -3.13830  -0.00004  -0.00136  -0.00070  -0.00206  -3.14036
    D2        0.02633   0.00002   0.00019   0.00087   0.00106   0.02739
    D3        0.02856  -0.00004  -0.00090  -0.00122  -0.00212   0.02644
    D4       -3.08999   0.00002   0.00065   0.00035   0.00100  -3.08899
    D5        0.47736   0.00000   0.00085   0.00029   0.00114   0.47850
    D6       -1.58243   0.00002   0.00132   0.00008   0.00140  -1.58104
    D7        2.60365   0.00000   0.00049   0.00060   0.00108   2.60474
    D8       -2.68978  -0.00000   0.00039   0.00081   0.00120  -2.68858
    D9        1.53360   0.00001   0.00086   0.00060   0.00146   1.53506
   D10       -0.56349  -0.00000   0.00003   0.00112   0.00115  -0.56235
         Item               Value     Threshold  Converged?
 Maximum Force            0.000108     0.000450     YES
 RMS     Force            0.000032     0.000300     YES
 Maximum Displacement     0.001746     0.001800     YES
 RMS     Displacement     0.000560     0.001200     YES
 Predicted change in Energy=-1.621417D-07
 Optimization completed.
    -- Stationary point found.
                           ----------------------------
                           !   Optimized Parameters   !
                           ! (Angstroms and Degrees)  !
 --------------------------                            --------------------------
 ! Name  Definition              Value          Derivative Info.                !
 --------------------------------------------------------------------------------
 ! R1    R(1,2)                  1.233          -DE/DX =    0.0001              !
 ! R2    R(1,3)                  1.3748         -DE/DX =   -0.0001              !
 ! R3    R(1,4)                  1.519          -DE/DX =    0.0001              !
 ! R4    R(3,8)                  1.0092         -DE/DX =    0.0                 !
 ! R5    R(3,9)                  1.0119         -DE/DX =    0.0                 !
 ! R6    R(4,5)                  1.097          -DE/DX =    0.0                 !
 ! R7    R(4,6)                  1.1015         -DE/DX =    0.0                 !
 ! R8    R(4,7)                  1.1006         -DE/DX =    0.0                 !
 ! A1    A(2,1,3)              121.8927         -DE/DX =    0.0                 !
 ! A2    A(2,1,4)              122.8924         -DE/DX =    0.0                 !
 ! A3    A(3,1,4)              115.1981         -DE/DX =    0.0001              !
 ! A4    A(1,3,8)              122.2272         -DE/DX =    0.0                 !
 ! A5    A(1,3,9)              118.3711         -DE/DX =    0.0                 !
 ! A6    A(8,3,9)              119.3887         -DE/DX =    0.0                 !
 ! A7    A(1,4,5)              108.6517         -DE/DX =    0.0                 !
[...]
 ,0.00032351,0.00010223,0.00011914,0.00013892,-0.00032114,0.00003329,0.
 00005599,0.00011236,-0.00002973,0.00000821,0.00013700,-0.00005072,0.00
 016476,-0.00003101,0.00012430,-0.00064586,0.00035666,-0.00027093,-0.00
 003579,-0.00009943,0.00022643,0.00001003,-0.00006374,-0.00016938,0.000
 07596,-0.00015833,0.00029318,0.00005288,-0.00002228,-0.00008107,-0.000
 01714,0.00009112,-0.00006769,0.00008561,0.00011006,-0.00039304,-0.0001
 5615,-0.00017545,0.00031478,0.00009614,-0.00005029,-0.00017390,-0.0000
 5712,-0.00000327,0.00004611,0.00008939,-0.00000603,-0.00028488,-0.0001
 2476,-0.00010371,-0.00030418,-0.00000837,0.00000163,0.00008758,0.00005
 253,-0.00000569,0.00020594,0.00008989,0.00012374,0.00010481,-0.0001530
 2,-0.00001352,0.00014852,0.00031766,0.00038866,0.00021076,-0.00005070,
 -0.00016720,-0.00003489,0.00018092,-0.00019380,-0.00004923,-0.00060899
 ,-0.00036348,0.00005564,0.00004704,-0.00014329,0.00008198,0.00007859,0
 .00013876,-0.00027940,0.00024273,0.00019922,0.00006408,-0.00003023,-0.
 00003861,0.00001531,-0.00017702,-0.00004455,-0.00027882,-0.00001187,0.
 00013126,0.00004605,-0.00000324,-0.00021570,0.00018408,0.00001746,0.00
 014897,0.00026027,-0.00003994,-0.00002722,0.00001546,-0.00009187,-0.00
 001458,-0.00007866,0.00017203,-0.00025264,-0.00023221,-0.00009570,0.00
 009473,0.00014772,0.00005713,0.00017973,-0.00006387,0.00003200,0.00000
 361,0.00022078,0.00000220,-0.00002323,0.00006676,-0.00001617,0.0000649
 7,0.00006244,0.00024238,-0.00013304,0.00023251,0.00000836,0.00007021,0
 .00001540,-0.00034765,0.00014111,-0.00038836,0.00016281,-0.00011773,-0
 .00012560,-0.00001969,-0.00000190,0.00017000,-0.00006424,-0.00000400,-
 0.00025393,-0.01052693,-0.00729099,-0.00288118,-0.00115390,-0.00338896
 ,-0.00309874,0.00274049,-0.00167490,-0.00061924,-0.00187142,0.00561190
 ,0.00070596,0.00030442,-0.00092991,-0.00028005,-0.00042069,0.00081239,
 0.00172227,0.00027136,0.00001756,-0.00054401,-0.00054734,0.00273193,0.
 00022989,-0.00011020,-0.00121563,0.00002997,-0.00124557,-0.00027931,-0
 .00159113,0.00055318,0.00095104,0.00074327,-0.00017344,-0.00095853,0.0
 0183740,0.00017747,0.00066050,0.00006319,0.00000700,-0.00020465,0.0000
 6547,-0.00014882,-0.00042074,0.00132447,0.01731040,0.01818061,-0.00250
 852,0.00001005,-0.00307809,0.00056818,-0.00230277,-0.00063389,-0.00044
 732,-0.48350583,0.00131074,-0.00717065,-0.00195536,-0.00209302,-0.0041
 2400,-0.00033124,0.00030751,0.00037721,0.00033247,0.24009675,0.8284241
 0,0.01150904,-0.00091034,-0.01902351,-0.00100868,0.00092822,0.00098934
 ,0.00050575,0.00055853,0.00100951,-0.46680123,0.47515164,1.56058670,0.
 00007063,-0.00119819,0.00045064,-0.00006284,0.00012724,-0.00015478,0.0
 0067746,0.00018971,0.00004092,-0.00741940,0.01604940,-0.00306677,0.005
 40953,-0.00121264,0.00117784,0.00063085,0.00043589,-0.00023042,0.00018
 113,-0.00021738,-0.00017067,-0.00014058,-0.00057933,-0.02156324,-0.000
 46775,-0.01409410,0.01700180,-0.00124227,0.00119654,0.00262029,0.00012
 523,0.00000148,-0.00018707,-0.00029997,-0.00017396,-0.00015351,0.00597
 877,0.00045438,-0.00583986,0.00309416,-0.00465158,-0.00754603,-0.00567
 692,-0.00405001,0.00570318,0.00015211,0.00031237,-0.00030669,0.0009326
 9,-0.00004737,0.00004036,0.18212911,-0.08202127,0.55218517,-0.00018154
 ,0.00596197,-0.00819652,-0.17466794,-0.00092052,0.00140458,-0.00089593
 ,0.00056186,0.00137371,0.00025750,-0.00031774,-0.00001796,0.00059595,-
 0.08423391,0.31643488,0.27802350,0.00105819,0.00063142,0.00317347,0.08
 424895,-0.31367819,-0.00944203,-0.00148446,0.01261273,0.00013208,-0.00
 094888,-0.00164273,-0.00049465,-0.00019881,-0.00102771,0.55338304,0.26
 985006,-1.47089247,0.00209671,-0.00220981,0.00647474,-0.54675450,-0.27
 908257,1.45033093,-0.00392293,-0.00723918,-0.00227063,-0.00065191,-0.0
 0069025,-0.00000326,0.00214292,0.00063561,0.00021612,0.29434743,-0.173
 01770,-0.09329153,0.00133117,0.00952448,0.00057131,-0.00267200,-0.0003
 1478,0.00151797,-0.29104095,0.00264018,0.00857778,0.00480804,0.0027836
 8,0.00159176,-0.00077257,-0.00028624,-0.00079075,-0.00105084,-0.170212
 32,-1.11301357,-0.75329741,-0.00205245,0.00323442,0.00005880,-0.004354
 81,-0.00607227,0.01382081,0.17130628,1.10735838,0.00061229,0.00300884,
 0.00478780,0.00107145,-0.00005152,-0.00041948,0.00005065,-0.00020951,-
 0.00059521,-0.09035167,-0.74330041,-0.06705473,-0.00242875,0.00668004,
 0.00465708,-0.00223704,-0.00206428,0.00440183,0.09283420,0.73621363,0.
 05431594,0.00008265,0.00031991,-0.00000958,-0.00013682,-0.00000045,0.0
 0004600,0.00034251,0.00008814,0.00010106,0.00011322,-0.00031280,-0.000
 33474,0.00002170,0.00018737,0.00005802,0.00005720,-0.00014147,-0.00012
 425,0.00031221,0.00008131,0.00037867,-0.00076319,0.00022864,-0.0000024
 1,0.00003619,-0.00009860,0.00019684,0.00000233,0.00004255,-0.00040388,
 0.00021372,0.00019553,0.00055749,0.00007608,0.00001493,-0.00009793,-0.
 00006598,-0.00003687,-0.00019596,0.00003693,0.00004743,-0.00067479,-0.
 00009309,-0.00031866,0.00039653,0.00003201,-0.00005856,-0.00017165,-0.
 00000954,-0.00000349,0.00002312,0.00021913,0.00004119,-0.00033910,-0.0
 0009610,-0.00017737,-0.00062666,-0.00001689,0.00001625,0.00021174,-0.0
 0023089,-0.00027188,0.00043310,0.00018863,0.00051618,0.00005922,-0.000
 09101,-0.00014689,0.00021518,0.00046995,0.00022083,0.00017817,-0.00006
 946,-0.00013719,-0.00003009,0.00011030,0.00005460,0.00001322,-0.000682
 20,-0.00031962,0.00030300,0.00015328,-0.00000626,-0.00008873,-0.000072
 71,0.00005940,-0.00031439,0.00015405,0.00009438,0.00007021,-0.00002947
 ,-0.00007494,0.00000465,-0.00003374,-0.00008801,-0.00022080,-0.0000924
 3,0.00006396,0.00002291,0.00000633,-0.00008647,0.00001652,0.00001416,0
 .00026465,0.00007778,-0.00006247,-0.00009472,0.00001679,0.00000686,-0.
 00001298,0.00011978,0.00021674,-0.00025189,-0.00021096,-0.00018370,0.0
 0009665,0.00022412,0.00008457,0.00010880,-0.00004614,-0.00007191,0.000
 16404,0.00048762,0.00003034,-0.00004314,-0.00000691,-0.00009195,0.0000
 2356,-0.00034710,0.00027485,-0.00002417,0.00085169,-0.00001524,-0.0000
 3854,-0.00023738,-0.00020306,0.00026421,-0.00069043,0.00023719,-0.0002
 9662,-0.00015246,-0.00002417,-0.00005929,0.00019505,-0.00013605,0.0000
 0995,-0.00010008,-0.00813639,-0.00295964,-0.00753473,0.00026028,0.0025
 3721,0.00160816,0.00173235,-0.00225027,0.00049810,-0.00314871,0.002865
 54,0.00124029,-0.00026201,-0.00129916,-0.00089176,0.00003905,-0.000084
 19,-0.00038479,-0.00059177,-0.00028494,0.00032672,0.00001236,0.0035334
 3,-0.00127240,0.00027755,-0.00075553,0.00007472,-0.00186161,-0.0010523
 4,0.00040184,-0.00070824,0.00055467,0.00036343,0.00005423,-0.00067174,
 -0.00046617,-0.00093423,-0.00057201,0.00016026,0.00012521,0.00026894,0
 .00029282,0.00044651,0.00007352,-0.00049529,0.01145971,0.00674253,0.00
 320398,-0.00087035,-0.00579001,-0.00004794,-0.00015593,-0.00004204,0.0
 0046274,0.47669736,0.02493708,-0.01141259,0.00549955,-0.00419499,-0.00
 017121,-0.00175858,0.00248221,0.00087995,0.00036841,-1.24173013,1.2032
 1117,-0.01201872,0.00267089,-0.01122174,0.00280990,-0.00113156,0.00120
 288,-0.00020949,-0.00009619,-0.00001943,0.76403786,-0.68060420,0.24099
 330,-0.00404439,-0.00292342,-0.00198487,0.00190217,0.00438179,0.000521
 12,0.00074259,0.00083700,-0.00015976,-0.57982031,1.29146763,-0.7955822
 4,0.57938769,-0.01969482,0.01036828,-0.00699569,0.00440658,-0.00071190
 ,0.00148387,-0.00379526,-0.00113612,0.00042901,1.29496747,-0.92502257,
 0.91152576,-1.27585391,0.91027526,0.01037609,-0.00497775,0.00433269,-0
 .00215289,0.00121547,-0.00057028,0.00153121,0.00079985,0.00005637,-0.7
 9643503,0.91173736,-0.00002136,0.78671758,-0.90032080,0.00253880,-0.00
 053452,-0.00131637,-0.00092104,0.00016860,0.00057516,0.00024226,0.0004
 3178,0.00014716,0.00009052,0.01031919,-0.00474268,0.08056114,0.0014817
 9,-0.00024960,-0.00160934,-0.01599505,-0.00301448,0.00315183,0.0007606
 2,0.00090168,-0.00010609,0.00021053,-0.00051934,-0.00021526,-0.0000756
 4,-0.00023432,0.03266097,0.00361737,-0.00591432,0.00352051,0.00288606,
 0.00749543,-0.04302511,-0.00075036,-0.00160837,0.00234927,-0.00052563,
 -0.00002782,-0.00043040,0.00007251,0.00014495,-0.00013040,0.06126728,0
 .01343425,-0.17452234,0.01337892,-0.00869038,-0.00224307,-0.07687237,-
 0.00470085,0.17400282,-0.00089660,-0.00145802,0.00010126,-0.00002087,0
 .00027702,-0.00020434,0.00056936,0.00022567,0.00004154,0.08274653,-0.0
 6813975,-0.03939370,0.00069233,0.00044951,0.00152299,0.00399837,0.0012
 9333,0.00357611,-0.08735198,-0.00142692,0.00406575,-0.00091344,0.00194
 493,0.00031936,0.00035207,-0.00004091,-0.00046532,-0.00030251,-0.05386
 927,-0.29966823,-0.23621990,-0.01223912,0.00236265,-0.01125727,-0.0018
 4146,0.00392741,0.00139756,0.06740755,0.28964039,0.00249714,0.00226568
 ,0.00349023,-0.00000471,0.00020900,-0.00051325,-0.00051381,-0.00042242
 ,-0.00036866,-0.03236375,-0.24851920,-0.05659703,-0.00291869,0.0024930
 8,-0.00400207,-0.00148529,-0.00266850,0.00095512,0.03442776,0.24685001
 ,0.05713554,-0.00004989,0.00015798,0.00008604,-0.00005186,-0.00012442,
 -0.00003353,0.00012260,0.00016300,0.00000133,0.00006062,-0.00057374,0.
 00028610,-0.00031560,0.00043910,-0.00040114,0.00005446,0.00011256,-0.0
 0011145,0.00023847,0.00011118,0.00029333,-0.00014528,0.00019142,0.0000
 7097,-0.00013801,-0.00005259,-0.00005990,-0.00000481,-0.00006432,0.000
 10498,-0.00007552,0.00015651,0.00012529,0.00002794,0.00011165,-0.00017
 107,0.00016981,-0.00000421,-0.00002661,0.00005452,-0.00003171,-0.00014
 697,-0.00018196,-0.00029718,0.00006448,0.00019612,0.00032179,-0.000123
 23,-0.00004956,-0.00007970,-0.00000550,-0.00026480,-0.00000595,0.00007
 145,0.00026125,-0.00012563,0.00016702,0.00019206,-0.00029109,-0.000112
 55,-0.00014631,0.00008682,0.00013376,-0.00008698,0.00003121,0.00000501
 ,-0.00012565,0.00006684,-0.00026511,0.00045738,0.00047378,0.00002865,0
 .00001113,-0.00013039,0.00000042,-0.00013871,-0.00016137,-0.00007386,-
 0.00043681,0.00049437,-0.00049086,-0.00002627,-0.00066907,0.00045054,0
 .00007537,-0.00012053,-0.00003500,0.00002438,-0.00004599,0.00006804,0.
 00008647,-0.00000957,0.00002386,-0.00005295,0.00015416,-0.00035164,0.0
 0022002,-0.00001085,0.00001778,0.00003181,-0.00016854,0.00053268,-0.00
 011420,-0.00020073,-0.00060279,0.00020990,0.00013271,0.00051496,-0.000
 25272,-0.00006343,0.00011234,-0.00000387,-0.00002360,-0.00003505,-0.00
 002569,0.00001151,0.00003882,-0.00000428,0.00016877,-0.00022709,0.0003
 3462,-0.00055325,-0.00021086,-0.00010866,0.00009261,0.00008179,0.00013
 555,0.00016025,0.00043289,-0.00038639,-0.00003196,0.00001870,-0.000164
 11,0.00036625,0.00002145,0.00014043,-0.00011641,-0.00011476,0.00001538
 ,0.00006227,-0.00010489,0.00000497,0.00008120,0.00012914,0.00002822,-0
 .00006096,-0.00025346,-0.01591486,-0.00114089,-0.01865633,0.00023521,-
 0.00011795,-0.00910560,0.00528598,0.00277685,0.00007649,-0.00353879,-0
 .00415237,0.00824120,0.00005999,0.00062419,-0.00556895,0.00001506,0.00
 011897,0.00114614,-0.00005730,-0.00002299,-0.00009026,0.00578707,-0.01
 221963,-0.00028469,-0.00125162,0.00398025,-0.00003769,2.49100538,-0.01
 624406,0.01000057,-0.00045382,-0.00056331,-0.00682231,0.00008068,1.661
 32788,1.66541164,-0.00075982,0.00014210,-0.00025239,0.00003060,-0.0001
 1903,0.00057913,0.11474534,0.04881951,-1.09106934,0.00421560,-0.002647
 71,0.00000660,-0.00066693,0.00021199,-0.00000334,-0.00281500,0.0001679
 3,-0.00006297,-0.00461430,0.00200013,0.00258069,-0.00055955,-0.0005415
 3,-0.00060179,0.00006383,0.00001272,0.00017540,0.00022481,0.00066576,-
 0.00198091,-0.00012150,-0.00050467,0.00244858,-0.00003674,-0.00001915,
 -0.00035258,0.00037867,-0.00008834,-0.00169369,0.00000460,-0.00021862,
 -0.00024190,-0.00090932,-0.00124653,0.00024433,0.00017623,0.00025348,-
 0.00003562,0.00027665,0.00016089,-0.00017182,0.00058255,0.00052762,-0.
 00008664,-0.00068028,-0.00044118,-0.00008837,0.00015794,-0.00004291,0.
 00011050,-0.00003087,0.00043477,-0.00020598,-0.00020790,-0.00002074,0.
 00010236,0.00032417,0.00014310,0.00022308,0.00017945,0.00015508,0.0000
 9627,-0.00000342,-0.00001554,0.00001222,-0.00014373,0.00009360,-0.0000
 8853,0.00013297,0.00021863,0.00011207,-0.00004188,-0.00033233,-0.00017
 551,-0.00074805,-0.00010258,-0.00062828,0.00012418,0.00013165,0.000108
 32,0.00026884,0.00006885,0.00053739,0.00026094,0.00016826,-0.00032264,
 -0.00005927,0.00003660,0.00015200,0.00009444,-0.00019088,0.00007251,-0
 .00007850,0.00004144,0.00003372,0.00001875,-0.00000494,-0.00010381,-0.
 00000485,0.00024265,0.00002283,0.00021307,0.00003066,-0.00001900,0.000
 02352,-0.00011032,0.00001445,0.00005936,0.00015222,0.00011409,-0.00004
 544,-0.00009222,-0.00005253,0.00023607,-0.00003852,0.00016545,-0.00010
 117,0.00015292,-0.00038442,-0.00004791,-0.00002229,0.00006011,0.000220
 27,-0.00012143,0.00016587,-0.00000089,0.00053133,0.00016487,-0.0001201
 6,-0.00003056,-0.00003352,0.00027433,-0.00031568,-0.00009518,0.0002669
 9,-0.00023833,0.00010596,0.00004825,-0.00010731,-0.00012342,0.00006293
 ,-0.00003286,-0.00002806,-0.00024475,-0.00063010,0.00015900,0.00033096
 ,0.00018343,0.00025509,-0.00009693,0.00017436,-0.00009386,0.00008496,0
 .00002383,-0.00011255,-0.00006881,-0.00000781,-0.00001674,0.00000492,0
 .00006853,-0.00003596,0.00000933,0.00016427,0.00021486,-0.00013517,0.0
 0003396,0.00000044,0.00004507,0.00009420,-0.00001137,-0.00028924,-0.00
 002785,-0.00004866,0.00004771,0.00000232,-0.00008773,0.00004495,0.0000
 5917,0.00000245,-0.00003713,-0.00002506,-0.00001209,-0.00006427,-0.000
 07751,0.00007565,0.00034571,0.01495693,0.00034781,-0.00139494,0.000990
 12,-0.00009968,0.23185301,-0.57894146,-0.00554361,0.00049800,-0.002371
 25,0.00013689,0.00059610,0.00027788,-0.00018589,-0.00001198,-0.0000093
 8,-0.00015114,-0.00006786,0.00006460,0.00032971,-0.24103723,-0.0027850
 1,0.00129322,0.00035037,0.00048753,0.00059096,-0.00007481,-0.61103316,
 -1.91648661,-0.01510840,-0.00064346,0.00046339,0.00017226,-0.00007406,
 -0.00001637,-0.00019571,-0.00014404,0.00005538,-0.00001345,0.00015341,
 -0.00017381,0.00007136,0.60862932,1.91292170,0.00007922,0.00031863,0.0
 0144298,-0.00006786,0.00001423,0.00061053,-0.00485993,-0.01336023,0.44
 233806,-0.00008598,0.00023929,-0.00060167,0.00001336,-0.00005522,-0.00
 006760,0.00019233,-0.00005734,0.00002034,0.00006516,-0.00014751,0.0000
 2567,0.00492714,0.01448947,-0.45226071,0.00193877,-0.00090778,-0.00016
 233,0.00138607,-0.00200876,0.00014376,-2.72539867,-1.06566104,-0.10867
 993,0.00227215,-0.00022339,-0.00005862,-0.00003093,-0.00028019,0.00003
 393,0.00000797,0.00003363,-0.00014197,-0.00021884,-0.00004111,0.000058
 37,0.00921919,0.00540948,-0.00026344,2.71082429,0.02358436,-0.00360249
 ,0.00031055,-0.00296569,0.00376156,-0.00005663,-1.04267226,0.24812494,
 -0.03383120,0.00199976,-0.00064941,0.00019008,0.00021265,-0.00008948,0
 .00004784,-0.00011695,-0.00004013,-0.00002657,-0.00012427,-0.00019604,
 -0.00013058,-0.04359676,0.00135214,-0.00144132,1.06367915,-0.24866109,
 0.00044820,-0.00029834,0.00410951,0.00005859,0.00010051,-0.00184127,-0
 .10974480,-0.03502504,0.65006998,0.00006158,-0.00012363,0.00080134,0.0
 0008124,0.00010732,0.00004852,-0.00022227,0.00003184,-0.00007682,0.000
 00846,-0.00003941,0.00005565,0.00023878,0.00030891,0.00849239,0.109070
 23,0.03493784,-0.66165931,-0.02014499,0.01594870,-0.02385362,-0.000037
 57,-0.00010916,0.00617751,0.00400019,0.00280717,0.00003320,-0.00294544
 ,-0.00680892,0.00452261,0.00005079,0.00167147,-0.00294638,0.00000930,0
 .00009761,0.00062713,-0.00006830,-0.00003903,-0.00061650,0.00416050,-0
 .03143689,-0.00040551,0.00210002,0.00276597,-0.00003761,1.51187400,-0.
 02513079,0.01259727,-0.00067491,-0.00064596,-0.00404925,0.00010832,1.5
 1554368,2.83236689,-0.00038373,-0.00026873,-0.00607977,0.00011786,-0.0
 0010531,-0.00178678,0.08752441,0.04164591,-1.23603479,0.00245048,-0.00
 303582,0.00003130,-0.00038457,0.00059067,0.00004367,-0.00302723,0.0012
 9362,-0.00036202,-0.00224540,0.00245290,-0.00016093,-0.00019216,-0.000
 83009,0.00010145,0.00001786,0.00101477,0.00307706,-0.00016588,0.000802
 72,-0.00106907,-0.00057366,-0.00011132,-0.00030243,0.00006988,0.000079
 17,0.00034135,0.00004344,-0.00032294,0.00010840,0.00010359,-0.00001463
 ,-0.00012468,-0.00058371,-0.00012901,0.00005582,0.00019757,-0.00001515
 ,0.00004123,-0.00009594,-0.00055650,-0.00012226,0.00023767,0.00013684,
 -0.00006627,-0.00028876,-0.00022842,0.00020348,0.00017663,0.00006596,0
 .00000007,0.00000384,0.00051084,-0.00058147,-0.00015246,-0.00014748,0.
 00013354,0.00002009,-0.00003517,-0.00001666,0.00032888,-0.00005511,0.0
 0000951,-0.00002851,-0.00004109,0.00000325,-0.00007618,0.00049432,0.00
 009536,0.00000601,0.00002180,0.00016568,-0.00001376,-0.00012832,-0.000
 21021,-0.00025147,0.00003944,-0.00002096,0.00002042,-0.00000609,-0.000
 06228,0.00035962,-0.00011610,-0.00007807,0.00007046,0.00008337,-0.0000
 0791,-0.00001732,0.00002799,0.00002935,-0.00009713,-0.00013396,0.00006
 831,-0.00005155,-0.00000882,-0.00001485,-0.00000643,-0.00003045,-0.000
 07688,0.00016164,0.00016431,0.00018086,0.00019081,0.00001140,-0.000019
 54,-0.00001131,-0.00002851,-0.00007635,-0.00001768,0.00007895,-0.00008
 566,-0.00000264,-0.00005646,-0.00000908,0.00023947,0.00008664,0.000152
 50,0.00000917,0.00014051,-0.00011606,-0.00001798,-0.00001739,0.0000512
 0,0.00001615,-0.00011217,0.00009853,0.00000619,0.00018899,-0.00009290,
 -0.00011746,-0.00006615,0.00004314,0.00057861,0.00033065,0.00014061,0.
 00022054,-0.00013610,0.00000446,0.00000925,-0.00004277,-0.00003661,0.0
 0002984,-0.00002773,-0.00001659,-0.00064146,-0.00000617,0.00015760,-0.
 00002917,0.00001439,0.00010745,-0.00003068,0.00006045,-0.00019416,0.00
 035529,-0.00004098,-0.00005236,0.00000029,0.00002204,0.00000501,0.0000
 5903,0.00001755,-0.00003880,0.00000258,0.00018237,0.00016075,0.0000644
 2,0.00012507,0.00003346,0.00000037,-0.00001961,-0.00001224,-0.00008453
 ,-0.00025498,-0.00009198,0.00002261,-0.00006472,-0.00002713,-0.0000026
 6,0.00005630,0.00000317,0.00002635,-0.00001809,-0.00001481,-0.00011857
 ,-0.00006096,0.00006667,0.00184109,0.01246556,0.00035146,-0.00084954,0
 .00226635,-0.00006594,0.52739542,-0.80930196,-0.00546336,0.00080035,-0
 .00191568,0.00010140,0.00036632,0.00009484,-0.00005671,-0.00008500,0.0
 0000889,-0.00011249,0.00035946,-0.00003676,0.00024536,-0.52399714,0.00
 275847,0.00836712,0.00065018,-0.00241222,0.00072324,-0.00009840,-0.804
 03814,-3.13256579,-0.01976118,-0.00017000,-0.00122310,0.00042743,0.000
 24724,-0.00005031,-0.00037685,-0.00015817,0.00003126,-0.00010153,-0.00
 042177,-0.00033420,0.00005080,0.79446945,3.12595340,0.00002926,0.00025
 376,-0.00089156,-0.00003668,0.00002600,0.00223578,-0.00530245,-0.01899
 655,0.74219076,0.00006194,0.00060244,-0.00076225,0.00002238,-0.0000429
 1,-0.00015421,0.00021037,-0.00019382,-0.00008927,0.00020369,-0.0003690
 5,-0.00000203,0.00475278,0.01872906,-0.73502459,0.00852175,0.00315186,
 0.00008516,-0.00202118,-0.00039815,0.00009680,-2.04334502,-0.68141665,
 -0.08137344,0.00187769,-0.00160874,0.00032507,0.00017491,-0.00024579,-
 0.00015247,-0.00002941,0.00004487,-0.00009741,-0.00044497,-0.00021287,
 -0.00015335,-0.00583096,0.00972514,0.00005869,2.04109718,0.01114818,-0
 .00190183,0.00017934,-0.00066191,0.00155565,-0.00005310,-0.68439023,0.
 28942632,-0.02170929,0.00054295,-0.00098745,-0.00026891,0.00031832,0.0
 0032588,0.00003753,0.00014053,-0.00005400,-0.00002114,-0.00000749,0.00
 018870,0.00018620,0.00194932,-0.00090163,-0.00000893,0.67096033,-0.287
 65165,0.00058079,-0.00001107,0.00051181,-0.00008518,0.00010554,-0.0007
 8293,-0.08190105,-0.02208581,0.50144631,0.00008373,-0.00034523,0.00071
 712,0.00010350,0.00008422,0.00003625,-0.00011299,0.00004090,0.00001264
 ,-0.00012723,0.00007266,0.00004488,0.00024750,0.00048048,-0.00750263,0
 .08121095,0.02165830,-0.49448343\\@
 The archive entry for this job was punched.


 THERE IS MUCH PLEASURE TO BE GAINED FROM USELESS KNOWLEDGE

                                       -- BERTRAND RUSSELL
 Job cpu time:       1 days  5 hours 46 minutes 16.5 seconds.
 Elapsed time:       0 days  0 hours 45 minutes 35.9 seconds.
 File lengths (MBytes):  RWF=   1741 Int=      0 D2E=      0 Chk=     43 Scr=      1
 Normal termination of Gaussian 16 at Mon Apr  7 14:09:02 2025.
