 Entering Gaussian System, Link 0=g16
 Input=aconh2_mp2_avdz_opt_anharm.gjf
 Output=aconh2_mp2_avdz_opt_anharm.log
 Initial command:
 /sw/contrib/chem-src/g16/c01/g16/l1.exe "/scr/Gau-988.inp" -scrdir="/scr/"
 Entering Link 1 = /sw/contrib/chem-src/g16/c01/g16/l1.exe PID=       989.
  
 Copyright (c) 1988-2019, Gaussian, Inc.  All Rights Reserved.
  
 This is part of the Gaussian(R) 16 program.  It is based on
 the Gaussian(R) 09 system (copyright 2009, Gaussian, Inc.),
 the Gaussian(R) 03 system (copyright 2003, Gaussian, Inc.),
 the Gaussian(R) 98 system (copyright 1998, Gaussian, Inc.),
 the Gaussian(R) 94 system (copyright 1995, Gaussian, Inc.),
 the Gaussian 92(TM) system (copyright 1992, Gaussian, Inc.),
 the Gaussian 90(TM) system (copyright 1990, Gaussian, Inc.),
 the Gaussian 88(TM) system (copyright 1988, Gaussian, Inc.),
 the Gaussian 86(TM) system (copyright 1986, Carnegie Mellon
 University), and the Gaussian 82(TM) system (copyright 1983,
 Carnegie Mellon University). Gaussian is a federally registered
 trademark of Gaussian, Inc.
  
 This software contains proprietary and confidential information,
 including trade secrets, belonging to Gaussian, Inc.
  
 This software is provided under written license and may be
 used, copied, transmitted, or stored only in accord with that
 written license.
  
 The following legend is applicable only to US Government
 contracts under FAR:
  
                    RESTRICTED RIGHTS LEGEND
  
 Use, reproduction and disclosure by the US Government is
 subject to restrictions as set forth in subparagraphs (a)
 and (c) of the Commercial Computer Software - Restricted
 Rights clause in FAR 52.227-19.
  
 Gaussian, Inc.
 340 Quinnipiac St., Bldg. 40, Wallingford CT 06492
  
  
 ---------------------------------------------------------------
 Warning -- This program may not be used in any manner that
 competes with the business of Gaussian, Inc. or will provide
 assistance to any competitor of Gaussian, Inc.  The licensee
 of this program is prohibited from giving any competitor of
 Gaussian, Inc. access to this program.  By using this program,
 the user acknowledges that Gaussian, Inc. is engaged in the
 business of creating and licensing software in the field of
 computational chemistry and represents and warrants to the
 licensee that it is not a competitor of Gaussian, Inc. and that
 it will not use this program in any manner prohibited above.
 ---------------------------------------------------------------
  

 Cite this work as:
 Gaussian 16, Revision C.01,
 M. J. Frisch, G. W. Trucks, H. B. Schlegel, G. E. Scuseria, 
 M. A. Robb, J. R. Cheeseman, G. Scalmani, V. Barone, 
 G. A. Petersson, H. Nakatsuji, X. Li, M. Caricato, A. V. Marenich, 
 J. Bloino, B. G. Janesko, R. Gomperts, B. Mennucci, H. P. Hratchian, 
 J. V. Ortiz, A. F. Izmaylov, J. L. Sonnenberg, D. Williams-Young, 
 F. Ding, F. Lipparini, F. Egidi, J. Goings, B. Peng, A. Petrone, 
 T. Henderson, D. Ranasinghe, V. G. Zakrzewski, J. Gao, N. Rega, 
 G. Zheng, W. Liang, M. Hada, M. Ehara, K. Toyota, R. Fukuda, 
 J. Hasegawa, M. Ishida, T. Nakajima, Y. Honda, O. Kitao, H. Nakai, 
 T. Vreven, K. Throssell, J. A. Montgomery, Jr., J. E. Peralta, 
 F. Ogliaro, M. J. Bearpark, J. J. Heyd, E. N. Brothers, K. N. Kudin, 
 V. N. Staroverov, T. A. Keith, R. Kobayashi, J. Normand, 
 K. Raghavachari, A. P. Rendell, J. C. Burant, S. S. Iyengar, 
 J. Tomasi, M. Cossi, J. M. Millam, M. Klene, C. Adamo, R. Cammi, 
 J. W. Ochterski, R. L. Martin, K. Morokuma, O. Farkas, 
 J. B. Foresman, and D. J. Fox, Gaussian, Inc., Wallingford CT, 2019.
 
 ******************************************
 Gaussian 16:  EM64L-G16RevC.01  3-Jul-2019
                29-Mar-2025 
 ******************************************
 %nprocshared=40
 Will use up to   40 processors via shared memory.
 %mem=50gb
 ----------------------------------------------
 # MP2/aug-cc-pVDZ opt freq=(vibrot,anharmonic)
 ----------------------------------------------
 1/18=20,19=15,38=1,80=1/1,3;
 2/9=110,12=2,17=6,18=5,40=1/2;
 3/5=16,7=10,11=9,25=1,30=1,71=1/1,2,3;
 4//1;
 5/5=2,38=5/2;
 8/6=4,10=1/1;
 9/15=2,16=-3/6;
 10/5=1/2;
 6/7=2,8=2,9=2,10=2/1;
 7/12=2/1,2,3,16;
 1/18=20,19=15,80=1/3(2);
 2/9=110/2;
 99//99;
 2/9=110/2;
 3/5=16,7=10,11=9,25=1,30=1,71=1/1,2,3;
 4/5=5,16=3,69=1/1;
 5/5=2,38=5/2;
 8/6=4,10=1/1;
 9/15=2,16=-3/6;
 10/5=1/2;
 7/12=2/1,2,3,16;
 1/18=20,19=15,80=1/3(-8);
 2/9=110/2;
 6/7=2,8=2,9=2,10=2/1;
 99/9=10/99;
 ----
 blah
 ----
 Symbolic Z-matrix:
 Charge =  0 Multiplicity = 1
 C                    -1.00905  -0.10399   0.00062 
 O                    -2.17808  -0.45283   0.01026 
 N                    -0.00953  -1.02109  -0.01179 
 C                    -0.56458   1.34948  -0.00377 
 H                    -1.44794   1.99677   0.04437 
 H                     0.00164   1.56491  -0.92358 
 H                     0.09276   1.55015   0.85654 
 H                     0.92956  -0.72564  -0.01948 
 H                    -0.22324  -1.98212  -0.0131 
 

 GradGradGradGradGradGradGradGradGradGradGradGradGradGradGradGradGradGrad
 Berny optimization.
 Initialization pass.
                           ----------------------------
                           !    Initial Parameters    !
                           ! (Angstroms and Degrees)  !
 --------------------------                            --------------------------
 ! Name  Definition              Value          Derivative Info.                !
 --------------------------------------------------------------------------------
 ! R1    R(1,2)                  1.22           estimate D2E/DX2                !
 ! R2    R(1,3)                  1.3566         estimate D2E/DX2                !
 ! R3    R(1,4)                  1.5199         estimate D2E/DX2                !
 ! R4    R(3,8)                  0.9845         estimate D2E/DX2                !
 ! R5    R(3,9)                  0.9845         estimate D2E/DX2                !
 ! R6    R(4,5)                  1.0962         estimate D2E/DX2                !
 ! R7    R(4,6)                  1.1014         estimate D2E/DX2                !
 ! R8    R(4,7)                  1.1011         estimate D2E/DX2                !
 ! A1    A(2,1,3)              120.8489         estimate D2E/DX2                !
 ! A2    A(2,1,4)              123.6198         estimate D2E/DX2                !
 ! A3    A(3,1,4)              115.5309         estimate D2E/DX2                !
 ! A4    A(1,3,8)              120.0            estimate D2E/DX2                !
 ! A5    A(1,3,9)              120.0            estimate D2E/DX2                !
 ! A6    A(8,3,9)              120.0            estimate D2E/DX2                !
 ! A7    A(1,4,5)              109.2014         estimate D2E/DX2                !
 ! A8    A(1,4,6)              109.8649         estimate D2E/DX2                !
 ! A9    A(1,4,7)              110.2788         estimate D2E/DX2                !
 ! A10   A(5,4,6)              109.6006         estimate D2E/DX2                !
 ! A11   A(5,4,7)              109.824          estimate D2E/DX2                !
 ! A12   A(6,4,7)              108.056          estimate D2E/DX2                !
 ! D1    D(2,1,3,8)            180.0            estimate D2E/DX2                !
 ! D2    D(2,1,3,9)              0.0            estimate D2E/DX2                !
 ! D3    D(4,1,3,8)              0.2196         estimate D2E/DX2                !
 ! D4    D(4,1,3,9)           -179.7804         estimate D2E/DX2                !
 ! D5    D(2,1,4,5)              2.29           estimate D2E/DX2                !
 ! D6    D(2,1,4,6)           -117.9435         estimate D2E/DX2                !
 ! D7    D(2,1,4,7)            123.0551         estimate D2E/DX2                !
 ! D8    D(3,1,4,5)           -177.9364         estimate D2E/DX2                !
 ! D9    D(3,1,4,6)             61.8301         estimate D2E/DX2                !
 ! D10   D(3,1,4,7)            -57.1713         estimate D2E/DX2                !
 --------------------------------------------------------------------------------
 Trust Radius=3.00D-01 FncErr=1.00D-07 GrdErr=1.00D-07 EigMax=2.50D+02 EigMin=1.00D-04
 Number of steps in this run=     40 maximum allowed number of steps=    100.
 GradGradGradGradGradGradGradGradGradGradGradGradGradGradGradGradGradGrad

                          Input orientation:                          
 ---------------------------------------------------------------------
 Center     Atomic      Atomic             Coordinates (Angstroms)
 Number     Number       Type             X           Y           Z
 ---------------------------------------------------------------------
      1          6           0       -1.009052   -0.103985    0.000621
      2          8           0       -2.178076   -0.452834    0.010260
      3          7           0       -0.009531   -1.021091   -0.011785
      4          6           0       -0.564575    1.349477   -0.003774
      5          1           0       -1.447942    1.996771    0.044371
      6          1           0        0.001644    1.564909   -0.923584
      7          1           0        0.092761    1.550152    0.856542
      8          1           0        0.929558   -0.725636   -0.019476
      9          1           0       -0.223239   -1.982115   -0.013097
 ---------------------------------------------------------------------
                    Distance matrix (angstroms):
                    1          2          3          4          5
     1  C    0.000000
     2  O    1.220002   0.000000
     3  N    1.356569   2.241872   0.000000
     4  C    1.519911   2.419072   2.434693   0.000000
     5  H    2.146559   2.556330   3.343601   1.096196   0.000000
     6  H    2.158904   3.113604   2.742061   1.101392   1.795756
     7  H    2.163969   3.144018   2.715832   1.101138   1.798014
     8  H    2.035943   3.119726   0.984500   2.557103   3.614980
     9  H    2.035943   2.482062   0.984500   3.349045   4.163500
                    6          7          8          9
     6  H    0.000000
     7  H    1.782518   0.000000
     8  H    2.631546   2.578148   0.000000
     9  H    3.668915   3.651443   1.705204   0.000000
 Stoichiometry    C2H5NO
 Framework group  C1[X(C2H5NO)]
 Deg. of freedom    21
 Full point group                 C1      NOp   1
 Largest Abelian subgroup         C1      NOp   1
 Largest concise Abelian subgroup C1      NOp   1
                         Standard orientation:                         
 ---------------------------------------------------------------------
 Center     Atomic      Atomic             Coordinates (Angstroms)
 Number     Number       Type             X           Y           Z
 ---------------------------------------------------------------------
      1          6           0        0.080997    0.144536   -0.001555
      2          8           0        0.469132    1.301149    0.000121
      3          7           0        0.963821   -0.885463    0.000105
      4          6           0       -1.386648   -0.250620   -0.000298
      5          1           0       -2.003758    0.654541   -0.039088
      6          1           0       -1.620583   -0.818378    0.914026
      7          1           0       -1.609883   -0.892197   -0.866930
      8          1           0        0.636816   -1.814067   -0.001280
      9          1           0        1.931516   -0.704357    0.002695
 ---------------------------------------------------------------------
 Rotational constants (GHZ):          10.9664045           9.2340211           5.1774063
 Standard basis: Aug-CC-pVDZ (5D, 7F)
 There are   145 symmetry adapted cartesian basis functions of A   symmetry.
 There are   137 symmetry adapted basis functions of A   symmetry.
   137 basis functions,   227 primitive gaussians,   145 cartesian basis functions
    16 alpha electrons       16 beta electrons
       nuclear repulsion energy       121.9108528023 Hartrees.
 NAtoms=    9 NActive=    9 NUniq=    9 SFac= 1.00D+00 NAtFMM=   60 NAOKFM=F Big=F
 Integral buffers will be    131072 words long.
 Raffenetti 1 integral format.
 Two-electron integral symmetry is turned on.
 One-electron integrals computed using PRISM.
 NBasis=   137 RedAO= T EigKep=  8.28D-05  NBF=   137
 NBsUse=   137 1.00D-06 EigRej= -1.00D+00 NBFU=   137
 ExpMin= 2.97D-02 ExpMax= 1.17D+04 ExpMxC= 4.01D+02 IAcc=3 IRadAn=         5 AccDes= 0.00D+00
 Harris functional with IExCor=  205 and IRadAn=       5 diagonalized for initial guess.
 HarFok:  IExCor=  205 AccDes= 0.00D+00 IRadAn=         5 IDoV= 1 UseB2=F ITyADJ=14
 ICtDFT=  3500011 ScaDFX=  1.000000  1.000000  1.000000  1.000000
 FoFCou: FMM=F IPFlag=           0 FMFlag=      100000 FMFlg1=           0
         NFxFlg=           0 DoJE=T BraDBF=F KetDBF=T FulRan=T
         wScrn=  0.000000 ICntrl=       500 IOpCl=  0 I1Cent=   200000004 NGrid=           0
         NMat0=    1 NMatS0=      1 NMatT0=    0 NMatD0=    1 NMtDS0=    0 NMtDT0=    0
 Petite list used in FoFCou.
 Keep R1 ints in memory in canonical form, NReq=53319947.
 Requested convergence on RMS density matrix=1.00D-08 within 128 cycles.
 Requested convergence on MAX density matrix=1.00D-06.
 Requested convergence on             energy=1.00D-06.
 No special actions if energy rises.
 SCF Done:  E(RHF) =  -208.012184812     A.U. after   13 cycles
            NFock= 13  Conv=0.47D-08     -V/T= 2.0013
 ExpMin= 2.97D-02 ExpMax= 1.17D+04 ExpMxC= 4.01D+02 IAcc=3 IRadAn=         5 AccDes= 0.00D+00
 HarFok:  IExCor=  205 AccDes= 0.00D+00 IRadAn=         5 IDoV=-2 UseB2=F ITyADJ=14
 ICtDFT= 12500011 ScaDFX=  1.000000  1.000000  1.000000  1.000000
 Range of M.O.s used for correlation:     5   137
 NBasis=   137 NAE=    16 NBE=    16 NFC=     4 NFV=     0
 NROrb=    133 NOA=    12 NOB=    12 NVA=   121 NVB=   121

 **** Warning!!: The largest alpha MO coefficient is  0.34291770D+02

 Fully direct method using O(ONN) memory.
 JobTyp=1 Pass  1:  I=   5 to  16 NPSUse= 40 ParTrn=T ParDer=T DoDerP=T.
 Spin components of T(2) and E(2):
     alpha-alpha T2 =       0.2693973278D-01 E2=     -0.8373653022D-01
     alpha-beta  T2 =       0.1513578432D+00 E2=     -0.4878263656D+00
     beta-beta   T2 =       0.2693973278D-01 E2=     -0.8373653022D-01
 ANorm=    0.1097833006D+01
 E2 =    -0.6552994261D+00 EUMP2 =    -0.20866748423845D+03
          IDoAtm=111111111
          Differentiating once with respect to electric field.
                with respect to dipole field.
          Differentiating once with respect to nuclear coordinates.
 Keep R1 ints in memory in canonical form, NReq=53325057.
          There are     1 degrees of freedom in the 1st order CPHF.  IDoFFX=0 NUNeed=     1.
 LinEq1:  Iter=  0 NonCon=     1 RMS=5.30D-03 Max=7.59D-02 NDo=     1
 AX will form     1 AO Fock derivatives at one time.
 LinEq1:  Iter=  1 NonCon=     1 RMS=1.61D-03 Max=1.66D-02 NDo=     1
 LinEq1:  Iter=  2 NonCon=     1 RMS=5.51D-04 Max=6.70D-03 NDo=     1
 LinEq1:  Iter=  3 NonCon=     1 RMS=1.72D-04 Max=1.70D-03 NDo=     1
 LinEq1:  Iter=  4 NonCon=     1 RMS=5.35D-05 Max=5.91D-04 NDo=     1
 LinEq1:  Iter=  5 NonCon=     1 RMS=1.26D-05 Max=1.19D-04 NDo=     1
 LinEq1:  Iter=  6 NonCon=     1 RMS=4.35D-06 Max=3.81D-05 NDo=     1
 LinEq1:  Iter=  7 NonCon=     1 RMS=1.12D-06 Max=1.84D-05 NDo=     1
 LinEq1:  Iter=  8 NonCon=     1 RMS=2.48D-07 Max=3.17D-06 NDo=     1
 LinEq1:  Iter=  9 NonCon=     1 RMS=6.57D-08 Max=5.43D-07 NDo=     1
 LinEq1:  Iter= 10 NonCon=     1 RMS=1.71D-08 Max=1.52D-07 NDo=     1
 LinEq1:  Iter= 11 NonCon=     1 RMS=3.80D-09 Max=2.79D-08 NDo=     1
 LinEq1:  Iter= 12 NonCon=     1 RMS=7.61D-10 Max=5.51D-09 NDo=     1
 LinEq1:  Iter= 13 NonCon=     0 RMS=9.31D-11 Max=8.01D-10 NDo=     1
 Linear equations converged to 1.000D-10 1.000D-09 after    13 iterations.
 End of Minotr F.D. properties file   721 does not exist.
 End of Minotr F.D. properties file   722 does not exist.
 End of Minotr F.D. properties file   788 does not exist.

 **********************************************************************

            Population analysis using the SCF Density.

 **********************************************************************

 Orbital symmetries:
       Occupied  (A) (A) (A) (A) (A) (A) (A) (A) (A) (A) (A) (A)
                 (A) (A) (A) (A)
       Virtual   (A) (A) (A) (A) (A) (A) (A) (A) (A) (A) (A) (A)
                 (A) (A) (A) (A) (A) (A) (A) (A) (A) (A) (A) (A)
                 (A) (A) (A) (A) (A) (A) (A) (A) (A) (A) (A) (A)
                 (A) (A) (A) (A) (A) (A) (A) (A) (A) (A) (A) (A)
                 (A) (A) (A) (A) (A) (A) (A) (A) (A) (A) (A) (A)
                 (A) (A) (A) (A) (A) (A) (A) (A) (A) (A) (A) (A)
                 (A) (A) (A) (A) (A) (A) (A) (A) (A) (A) (A) (A)
                 (A) (A) (A) (A) (A) (A) (A) (A) (A) (A) (A) (A)
                 (A) (A) (A) (A) (A) (A) (A) (A) (A) (A) (A) (A)
                 (A) (A) (A) (A) (A) (A) (A) (A) (A) (A) (A) (A)
                 (A)
 The electronic state is 1-A.
 Alpha  occ. eigenvalues --  -20.52704 -15.58915 -11.36114 -11.25089  -1.38411
 Alpha  occ. eigenvalues --   -1.22100  -1.00533  -0.80487  -0.73633  -0.66496
 Alpha  occ. eigenvalues --   -0.61545  -0.58616  -0.56259  -0.52602  -0.42364
 Alpha  occ. eigenvalues --   -0.41380
 Alpha virt. eigenvalues --    0.02687   0.04454   0.05333   0.05654   0.07557
 Alpha virt. eigenvalues --    0.09915   0.12596   0.12622   0.14394   0.15263
 Alpha virt. eigenvalues --    0.15838   0.16741   0.17689   0.18117   0.20675
 Alpha virt. eigenvalues --    0.20999   0.21221   0.26322   0.27524   0.28876
 Alpha virt. eigenvalues --    0.31419   0.33033   0.34009   0.34817   0.35225
 Alpha virt. eigenvalues --    0.36295   0.38003   0.41504   0.42676   0.43287
 Alpha virt. eigenvalues --    0.45955   0.47963   0.48384   0.49387   0.50650
 Alpha virt. eigenvalues --    0.54671   0.55206   0.56360   0.58304   0.58585
 Alpha virt. eigenvalues --    0.59545   0.62585   0.63692   0.65047   0.67418
 Alpha virt. eigenvalues --    0.67638   0.68547   0.69795   0.72337   0.73398
 Alpha virt. eigenvalues --    0.75330   0.80226   0.81416   0.85278   0.88547
 Alpha virt. eigenvalues --    0.89026   0.93827   0.96565   0.96876   1.00187
 Alpha virt. eigenvalues --    1.04661   1.07801   1.09744   1.10507   1.15896
 Alpha virt. eigenvalues --    1.18806   1.25587   1.27102   1.31813   1.37952
 Alpha virt. eigenvalues --    1.40282   1.41192   1.47309   1.50169   1.57197
 Alpha virt. eigenvalues --    1.58343   1.59958   1.71668   1.72942   1.78780
 Alpha virt. eigenvalues --    1.79434   1.84952   1.86970   1.92789   1.97241
 Alpha virt. eigenvalues --    1.99615   2.02224   2.03196   2.13269   2.16565
 Alpha virt. eigenvalues --    2.19196   2.24404   2.25467   2.27973   2.28636
 Alpha virt. eigenvalues --    2.30796   2.33694   2.39730   2.42417   2.47276
 Alpha virt. eigenvalues --    2.56396   2.58193   2.61009   2.73006   2.76913
 Alpha virt. eigenvalues --    2.79315   2.82035   2.84893   2.93032   2.94858
 Alpha virt. eigenvalues --    2.96640   3.05157   3.19506   3.41402   3.57641
 Alpha virt. eigenvalues --    3.65900   3.77789   3.82137   3.87711   4.06142
 Alpha virt. eigenvalues --    4.17474
          Condensed to atoms (all electrons):
               1          2          3          4          5          6
     1  C    4.688575   0.313792   0.255877   0.292566   0.008283  -0.039556
     2  O    0.313792   8.595088  -0.116041  -0.026771   0.022029  -0.000865
     3  N    0.255877  -0.116041   6.213093  -0.038259   0.013829  -0.015772
     4  C    0.292566  -0.026771  -0.038259   4.452711   0.306901   0.372845
     5  H    0.008283   0.022029   0.013829   0.306901   0.814069  -0.063781
     6  H   -0.039556  -0.000865  -0.015772   0.372845  -0.063781   0.783039
     7  H   -0.046047  -0.000745  -0.021122   0.377598  -0.067440  -0.088113
     8  H   -0.061814   0.005386   0.395733  -0.023142  -0.000427   0.006887
     9  H   -0.138955  -0.026670   0.470575   0.009125  -0.000201   0.002055
               7          8          9
     1  C   -0.046047  -0.061814  -0.138955
     2  O   -0.000745   0.005386  -0.026670
     3  N   -0.021122   0.395733   0.470575
     4  C    0.377598  -0.023142   0.009125
     5  H   -0.067440  -0.000427  -0.000201
     6  H   -0.088113   0.006887   0.002055
     7  H    0.804701   0.008902   0.001716
     8  H    0.008902   0.910916  -0.192193
     9  H    0.001716  -0.192193   0.945442
 Mulliken charges:
               1
     1  C    0.727280
     2  O   -0.765203
     3  N   -0.157914
     4  C    0.276425
     5  H   -0.033261
     6  H    0.043261
     7  H    0.030551
     8  H   -0.050246
     9  H   -0.070894
 Sum of Mulliken charges =  -0.00000
 Mulliken charges with hydrogens summed into heavy atoms:
               1
     1  C    0.727280
     2  O   -0.765203
     3  N   -0.279054
     4  C    0.316976
 Electronic spatial extent (au):  <R**2>=            268.4697
 Charge=             -0.0000 electrons
 Dipole moment (field-independent basis, Debye):
    X=             -0.7743    Y=             -4.2041    Z=              0.0029  Tot=              4.2749
 Quadrupole moment (field-independent basis, Debye-Ang):
   XX=            -20.8971   YY=            -26.6791   ZZ=            -25.2704
   XY=             -2.7298   XZ=              0.0038   YZ=             -0.0036
 Traceless Quadrupole moment (field-independent basis, Debye-Ang):
   XX=              3.3851   YY=             -2.3969   ZZ=             -0.9882
   XY=             -2.7298   XZ=              0.0038   YZ=             -0.0036
 Octapole moment (field-independent basis, Debye-Ang**2):
  XXX=             10.1087  YYY=            -12.7521  ZZZ=              0.0954  XYY=             -0.1724
  XXY=             -2.4604  XXZ=              0.0135  XZZ=             -0.7891  YZZ=              0.5752
  YYZ=             -0.0874  XYZ=              0.0153
 Hexadecapole moment (field-independent basis, Debye-Ang**3):
 XXXX=           -156.1113 YYYY=           -127.8660 ZZZZ=            -31.6682 XXXY=            -10.4630
 XXXZ=              0.0994 YYYX=             -8.0713 YYYZ=              0.1120 ZZZX=             -0.1726
 ZZZY=             -0.0480 XXYY=            -49.8848 XXZZ=            -35.4059 YYZZ=            -28.6935
 XXYZ=             -0.0870 YYXZ=              0.1507 ZZXY=              2.2871
 N-N= 1.219108528023D+02 E-N=-7.322497107917D+02  KE= 2.077485704678D+02
 Calling FoFJK, ICntrl=  10002127 FMM=F ISym2X=0 I1Cent= 0 IOpClX= 0 NMat=1 NMatS=1 NMatT=0.
 ***** Axes restored to original set *****
 -------------------------------------------------------------------
 Center     Atomic                   Forces (Hartrees/Bohr)
 Number     Number              X              Y              Z
 -------------------------------------------------------------------
      1        6           0.002581252    0.009193429    0.000010957
      2        8          -0.024281264   -0.002293754    0.000263946
      3        7           0.001817220    0.014177187    0.000084090
      4        6           0.001746635   -0.000788942   -0.000284663
      5        1          -0.000026020   -0.000739172    0.000081619
      6        1          -0.000016345    0.000691386   -0.000187541
      7        1          -0.000019830    0.000702591    0.000287681
      8        1           0.025081051    0.004095535   -0.000187570
      9        1          -0.006882699   -0.025038261   -0.000068520
 -------------------------------------------------------------------
 Cartesian Forces:  Max     0.025081051 RMS     0.009059375

 GradGradGradGradGradGradGradGradGradGradGradGradGradGradGradGradGradGrad
 Berny optimization.
 FormGI is forming the generalized inverse of G from B-inverse, IUseBI=4.
 Internal  Forces:  Max     0.025935350 RMS     0.008938086
 Search for a local minimum.
 Step number   1 out of a maximum of   40
 All quantities printed in internal units (Hartrees-Bohrs-Radians)
 Mixed Optimization -- RFO/linear search
 Second derivative matrix not updated -- first step.
 ITU=  0
     Eigenvalues ---    0.00503   0.01182   0.02266   0.02266   0.07300
     Eigenvalues ---    0.07357   0.16000   0.16000   0.16000   0.16000
     Eigenvalues ---    0.16000   0.25000   0.25000   0.30375   0.33529
     Eigenvalues ---    0.33557   0.34106   0.50521   0.50521   0.53647
     Eigenvalues ---    0.95382
 RFO step:  Lambda=-4.53400760D-03 EMin= 5.02556827D-03
 Linear search not attempted -- first point.
 Iteration  1 RMS(Cart)=  0.02270705 RMS(Int)=  0.00020747
 Iteration  2 RMS(Cart)=  0.00021336 RMS(Int)=  0.00001671
 Iteration  3 RMS(Cart)=  0.00000006 RMS(Int)=  0.00001671
 Variable       Old X    -DE/DX   Delta X   Delta X   Delta X     New X
                                 (Linear)    (Quad)   (Total)
    R1        2.30547   0.02392   0.00000   0.02496   0.02496   2.33043
    R2        2.56354   0.01932   0.00000   0.03572   0.03572   2.59926
    R3        2.87222   0.00036   0.00000   0.00118   0.00118   2.87340
    R4        1.86044   0.02515   0.00000   0.04935   0.04935   1.90978
    R5        1.86044   0.02594   0.00000   0.05088   0.05088   1.91131
    R6        2.07151  -0.00041   0.00000  -0.00119  -0.00119   2.07032
    R7        2.08133   0.00028   0.00000   0.00083   0.00083   2.08216
    R8        2.08085   0.00034   0.00000   0.00100   0.00100   2.08185
    A1        2.10921   0.00791   0.00000   0.03108   0.03108   2.14029
    A2        2.15757  -0.00303   0.00000  -0.01191  -0.01191   2.14566
    A3        2.01640  -0.00488   0.00000  -0.01916  -0.01916   1.99723
    A4        2.09440   0.00529   0.00000   0.03213   0.03213   2.12652
    A5        2.09440  -0.00384   0.00000  -0.02332  -0.02332   2.07108
    A6        2.09440  -0.00145   0.00000  -0.00881  -0.00881   2.08559
    A7        1.90592  -0.00139   0.00000  -0.01023  -0.01022   1.89571
    A8        1.91750   0.00103   0.00000   0.00730   0.00728   1.92478
    A9        1.92473   0.00096   0.00000   0.00656   0.00653   1.93126
   A10        1.91289  -0.00008   0.00000  -0.00189  -0.00188   1.91102
   A11        1.91679  -0.00015   0.00000  -0.00300  -0.00300   1.91379
   A12        1.88593  -0.00035   0.00000   0.00140   0.00134   1.88727
    D1        3.14159   0.00003   0.00000   0.00163   0.00165  -3.13995
    D2        0.00000   0.00004   0.00000   0.00210   0.00211   0.00211
    D3        0.00383   0.00002   0.00000   0.00019   0.00018   0.00401
    D4       -3.13776   0.00003   0.00000   0.00066   0.00065  -3.13712
    D5        0.03997   0.00004   0.00000   0.00058   0.00059   0.04056
    D6       -2.05850   0.00037   0.00000   0.00477   0.00481  -2.05369
    D7        2.14772  -0.00044   0.00000  -0.00555  -0.00556   2.14215
    D8       -3.10558   0.00007   0.00000   0.00218   0.00217  -3.10341
    D9        1.07914   0.00040   0.00000   0.00636   0.00638   1.08552
   D10       -0.99783  -0.00040   0.00000  -0.00396  -0.00399  -1.00182
         Item               Value     Threshold  Converged?
 Maximum Force            0.025935     0.000450     NO 
 RMS     Force            0.008938     0.000300     NO 
 Maximum Displacement     0.083794     0.001800     NO 
 RMS     Displacement     0.022710     0.001200     NO 
 Predicted change in Energy=-2.290647D-03
 GradGradGradGradGradGradGradGradGradGradGradGradGradGradGradGradGradGrad

                          Input orientation:                          
 ---------------------------------------------------------------------
 Center     Atomic      Atomic             Coordinates (Angstroms)
 Number     Number       Type             X           Y           Z
 ---------------------------------------------------------------------
      1          6           0       -1.020812   -0.101622    0.000124
      2          8           0       -2.208864   -0.432127    0.010728
      3          7           0        0.004102   -1.018864   -0.011553
      4          6           0       -0.566332    1.349399   -0.004423
      5          1           0       -1.451353    1.993241    0.045244
      6          1           0       -0.002295    1.570088   -0.924855
      7          1           0        0.089416    1.553892    0.856884
      8          1           0        0.973899   -0.734644   -0.018765
      9          1           0       -0.226214   -2.003715   -0.013307
 ---------------------------------------------------------------------
                    Distance matrix (angstroms):
                    1          2          3          4          5
     1  C    0.000000
     2  O    1.233213   0.000000
     3  N    1.375469   2.289536   0.000000
     4  C    1.520537   2.423215   2.436004   0.000000
     5  H    2.139125   2.541146   3.345797   1.095565   0.000000
     6  H    2.165082   3.123000   2.745330   1.101834   1.794414
     7  H    2.169648   3.153148   2.716714   1.101668   1.796039
     8  H    2.092832   3.197244   1.010614   2.591477   3.650658
     9  H    2.061436   2.530091   1.011424   3.370330   4.180915
                    6          7          8          9
     6  H    0.000000
     7  H    1.784171   0.000000
     8  H    2.661906   2.605085   0.000000
     9  H    3.695013   3.676061   1.746666   0.000000
 Stoichiometry    C2H5NO
 Framework group  C1[X(C2H5NO)]
 Deg. of freedom    21
 Full point group                 C1      NOp   1
 Largest Abelian subgroup         C1      NOp   1
 Largest concise Abelian subgroup C1      NOp   1
                         Standard orientation:                         
 ---------------------------------------------------------------------
 Center     Atomic      Atomic             Coordinates (Angstroms)
 Number     Number       Type             X           Y           Z
 ---------------------------------------------------------------------
      1          6           0        0.078921    0.152700   -0.001022
      2          8           0        0.408724    1.340994   -0.000058
      3          7           0        0.996769   -0.871736    0.000001
      4          6           0       -1.371831   -0.302659   -0.000157
      5          1           0       -2.016220    0.582429   -0.040705
      6          1           0       -1.591668   -0.875904    0.914775
      7          1           0       -1.576429   -0.949976   -0.867793
      8          1           0        0.713121   -1.841726   -0.002222
      9          1           0        1.981485   -0.640867    0.003480
 ---------------------------------------------------------------------
 Rotational constants (GHZ):          10.5423244           9.2826388           5.0959062
 Standard basis: Aug-CC-pVDZ (5D, 7F)
 There are   145 symmetry adapted cartesian basis functions of A   symmetry.
 There are   137 symmetry adapted basis functions of A   symmetry.
   137 basis functions,   227 primitive gaussians,   145 cartesian basis functions
    16 alpha electrons       16 beta electrons
       nuclear repulsion energy       120.7925830438 Hartrees.
 NAtoms=    9 NActive=    9 NUniq=    9 SFac= 1.00D+00 NAtFMM=   60 NAOKFM=F Big=F
 Integral buffers will be    131072 words long.
 Raffenetti 1 integral format.
 Two-electron integral symmetry is turned on.
 One-electron integrals computed using PRISM.
 NBasis=   137 RedAO= T EigKep=  8.65D-05  NBF=   137
 NBsUse=   137 1.00D-06 EigRej= -1.00D+00 NBFU=   137
 Initial guess from the checkpoint file:  "/scr/Gau-989.chk"
 B after Tr=    -0.000000   -0.000000    0.000000
         Rot=    0.999824    0.000024    0.000059   -0.018747 Ang=   2.15 deg.
 ExpMin= 2.97D-02 ExpMax= 1.17D+04 ExpMxC= 4.01D+02 IAcc=3 IRadAn=         5 AccDes= 0.00D+00
 Harris functional with IExCor=  205 and IRadAn=       5 diagonalized for initial guess.
 HarFok:  IExCor=  205 AccDes= 0.00D+00 IRadAn=         5 IDoV= 1 UseB2=F ITyADJ=14
 ICtDFT=  3500011 ScaDFX=  1.000000  1.000000  1.000000  1.000000
 FoFCou: FMM=F IPFlag=           0 FMFlag=      100000 FMFlg1=           0
         NFxFlg=           0 DoJE=T BraDBF=F KetDBF=T FulRan=T
         wScrn=  0.000000 ICntrl=       500 IOpCl=  0 I1Cent=   200000004 NGrid=           0
         NMat0=    1 NMatS0=      1 NMatT0=    0 NMatD0=    1 NMtDS0=    0 NMtDT0=    0
 Petite list used in FoFCou.
 Keep R1 ints in memory in canonical form, NReq=53319475.
 Requested convergence on RMS density matrix=1.00D-08 within 128 cycles.
 Requested convergence on MAX density matrix=1.00D-06.
 Requested convergence on             energy=1.00D-06.
 No special actions if energy rises.
 SCF Done:  E(RHF) =  -208.010353107     A.U. after   11 cycles
            NFock= 11  Conv=0.44D-08     -V/T= 2.0023
 ExpMin= 2.97D-02 ExpMax= 1.17D+04 ExpMxC= 4.01D+02 IAcc=3 IRadAn=         5 AccDes= 0.00D+00
 HarFok:  IExCor=  205 AccDes= 0.00D+00 IRadAn=         5 IDoV=-2 UseB2=F ITyADJ=14
 ICtDFT= 12500011 ScaDFX=  1.000000  1.000000  1.000000  1.000000
 Range of M.O.s used for correlation:     5   137
 NBasis=   137 NAE=    16 NBE=    16 NFC=     4 NFV=     0
 NROrb=    133 NOA=    12 NOB=    12 NVA=   121 NVB=   121

 **** Warning!!: The largest alpha MO coefficient is  0.33265969D+02

 Fully direct method using O(ONN) memory.
 JobTyp=1 Pass  1:  I=   5 to  16 NPSUse= 40 ParTrn=T ParDer=T DoDerP=T.
 Spin components of T(2) and E(2):
     alpha-alpha T2 =       0.2741138050D-01 E2=     -0.8419664692D-01
     alpha-beta  T2 =       0.1540292398D+00 E2=     -0.4908225389D+00
     beta-beta   T2 =       0.2741138050D-01 E2=     -0.8419664692D-01
 ANorm=    0.1099478058D+01
 E2 =    -0.6592158328D+00 EUMP2 =    -0.20866956893934D+03
          IDoAtm=111111111
          Differentiating once with respect to electric field.
                with respect to dipole field.
          Differentiating once with respect to nuclear coordinates.
 Keep R1 ints in memory in canonical form, NReq=53324526.
          There are     1 degrees of freedom in the 1st order CPHF.  IDoFFX=0 NUNeed=     1.
 LinEq1:  Iter=  0 NonCon=     1 RMS=5.47D-03 Max=7.93D-02 NDo=     1
 AX will form     1 AO Fock derivatives at one time.
 LinEq1:  Iter=  1 NonCon=     1 RMS=1.69D-03 Max=1.82D-02 NDo=     1
 LinEq1:  Iter=  2 NonCon=     1 RMS=5.90D-04 Max=6.97D-03 NDo=     1
 LinEq1:  Iter=  3 NonCon=     1 RMS=1.87D-04 Max=1.79D-03 NDo=     1
 LinEq1:  Iter=  4 NonCon=     1 RMS=5.92D-05 Max=6.32D-04 NDo=     1
 LinEq1:  Iter=  5 NonCon=     1 RMS=1.47D-05 Max=1.43D-04 NDo=     1
 LinEq1:  Iter=  6 NonCon=     1 RMS=5.23D-06 Max=4.36D-05 NDo=     1
 LinEq1:  Iter=  7 NonCon=     1 RMS=1.34D-06 Max=2.26D-05 NDo=     1
 LinEq1:  Iter=  8 NonCon=     1 RMS=2.93D-07 Max=3.80D-06 NDo=     1
 LinEq1:  Iter=  9 NonCon=     1 RMS=7.81D-08 Max=6.16D-07 NDo=     1
 LinEq1:  Iter= 10 NonCon=     1 RMS=2.02D-08 Max=1.90D-07 NDo=     1
 LinEq1:  Iter= 11 NonCon=     1 RMS=4.47D-09 Max=3.38D-08 NDo=     1
 LinEq1:  Iter= 12 NonCon=     1 RMS=8.91D-10 Max=6.25D-09 NDo=     1
 LinEq1:  Iter= 13 NonCon=     1 RMS=1.11D-10 Max=9.06D-10 NDo=     1
 LinEq1:  Iter= 14 NonCon=     0 RMS=1.59D-11 Max=1.95D-10 NDo=     1
 Linear equations converged to 1.000D-10 1.000D-09 after    14 iterations.
 End of Minotr F.D. properties file   721 does not exist.
 End of Minotr F.D. properties file   722 does not exist.
 End of Minotr F.D. properties file   788 does not exist.
 Calling FoFJK, ICntrl=  10002127 FMM=F ISym2X=0 I1Cent= 0 IOpClX= 0 NMat=1 NMatS=1 NMatT=0.
 ***** Axes restored to original set *****
 -------------------------------------------------------------------
 Center     Atomic                   Forces (Hartrees/Bohr)
 Number     Number              X              Y              Z
 -------------------------------------------------------------------
      1        6           0.000420801    0.002864281    0.000140009
      2        8           0.001523666   -0.001865464   -0.000065239
      3        7          -0.000886138   -0.000210302    0.000009735
      4        6           0.000368696   -0.000224157   -0.000148151
      5        1          -0.000194388    0.000323479    0.000037493
      6        1          -0.000151429    0.000012213    0.000069812
      7        1          -0.000155956   -0.000006516   -0.000024682
      8        1          -0.001066323   -0.000601989    0.000006759
      9        1           0.000141071   -0.000291544   -0.000025736
 -------------------------------------------------------------------
 Cartesian Forces:  Max     0.002864281 RMS     0.000794566

 GradGradGradGradGradGradGradGradGradGradGradGradGradGradGradGradGradGrad
 Berny optimization.
 Using GEDIIS/GDIIS optimizer.
 FormGI is forming the generalized inverse of G from B-inverse, IUseBI=4.
 Internal  Forces:  Max     0.003519477 RMS     0.000852505
 Search for a local minimum.
 Step number   2 out of a maximum of   40
 All quantities printed in internal units (Hartrees-Bohrs-Radians)
 Mixed Optimization -- En-DIIS/RFO-DIIS
 Update second derivatives using D2CorX and points    1    2
 DE= -2.08D-03 DEPred=-2.29D-03 R= 9.10D-01
 TightC=F SS=  1.41D+00  RLast= 1.02D-01 DXNew= 5.0454D-01 3.0584D-01
 Trust test= 9.10D-01 RLast= 1.02D-01 DXMaxT set to 3.06D-01
 ITU=  1  0
 Use linear search instead of GDIIS.
     Eigenvalues ---    0.00503   0.01205   0.02266   0.02266   0.07234
     Eigenvalues ---    0.07391   0.15886   0.16000   0.16000   0.16000
     Eigenvalues ---    0.16031   0.24996   0.26514   0.30374   0.33530
     Eigenvalues ---    0.33558   0.34110   0.49765   0.51319   0.53983
     Eigenvalues ---    0.95780
 RFO step:  Lambda=-6.05726792D-05 EMin= 5.02555109D-03
 Quartic linear search produced a step of -0.05616.
 Iteration  1 RMS(Cart)=  0.00597508 RMS(Int)=  0.00002021
 Iteration  2 RMS(Cart)=  0.00002259 RMS(Int)=  0.00000538
 Iteration  3 RMS(Cart)=  0.00000000 RMS(Int)=  0.00000538
 Variable       Old X    -DE/DX   Delta X   Delta X   Delta X     New X
                                 (Linear)    (Quad)   (Total)
    R1        2.33043  -0.00097  -0.00140   0.00074  -0.00066   2.32978
    R2        2.59926  -0.00061  -0.00201   0.00131  -0.00069   2.59857
    R3        2.87340   0.00006  -0.00007   0.00027   0.00020   2.87360
    R4        1.90978  -0.00119  -0.00277   0.00107  -0.00170   1.90808
    R5        1.91131   0.00025  -0.00286   0.00387   0.00101   1.91233
    R6        2.07032   0.00035   0.00007   0.00089   0.00095   2.07127
    R7        2.08216  -0.00013  -0.00005  -0.00032  -0.00037   2.08180
    R8        2.08185  -0.00011  -0.00006  -0.00025  -0.00031   2.08154
    A1        2.14029  -0.00352  -0.00175  -0.01130  -0.01305   2.12724
    A2        2.14566   0.00162   0.00067   0.00536   0.00602   2.15169
    A3        1.99723   0.00190   0.00108   0.00594   0.00702   2.00425
    A4        2.12652   0.00022  -0.00180   0.00326   0.00146   2.12798
    A5        2.07108   0.00008   0.00131  -0.00092   0.00039   2.07147
    A6        2.08559  -0.00031   0.00049  -0.00234  -0.00185   2.08374
    A7        1.89571   0.00019   0.00057   0.00040   0.00097   1.89668
    A8        1.92478   0.00001  -0.00041   0.00060   0.00020   1.92498
    A9        1.93126  -0.00005  -0.00037   0.00010  -0.00027   1.93099
   A10        1.91102  -0.00011   0.00011  -0.00075  -0.00064   1.91037
   A11        1.91379  -0.00012   0.00017  -0.00106  -0.00089   1.91290
   A12        1.88727   0.00007  -0.00008   0.00068   0.00060   1.88788
    D1       -3.13995  -0.00002  -0.00009  -0.00159  -0.00167   3.14157
    D2        0.00211   0.00000  -0.00012  -0.00076  -0.00087   0.00124
    D3        0.00401   0.00002  -0.00001   0.00159   0.00157   0.00558
    D4       -3.13712   0.00004  -0.00004   0.00241   0.00236  -3.13475
    D5        0.04056   0.00004  -0.00003   0.00261   0.00258   0.04314
    D6       -2.05369   0.00005  -0.00027   0.00291   0.00265  -2.05105
    D7        2.14215  -0.00001   0.00031   0.00162   0.00194   2.14409
    D8       -3.10341  -0.00000  -0.00012  -0.00060  -0.00073  -3.10414
    D9        1.08552   0.00001  -0.00036  -0.00030  -0.00067   1.08485
   D10       -1.00182  -0.00005   0.00022  -0.00160  -0.00138  -1.00320
         Item               Value     Threshold  Converged?
 Maximum Force            0.003519     0.000450     NO 
 RMS     Force            0.000853     0.000300     NO 
 Maximum Displacement     0.015106     0.001800     NO 
 RMS     Displacement     0.005976     0.001200     NO 
 Predicted change in Energy=-3.674066D-05
 GradGradGradGradGradGradGradGradGradGradGradGradGradGradGradGradGradGrad

                          Input orientation:                          
 ---------------------------------------------------------------------
 Center     Atomic      Atomic             Coordinates (Angstroms)
 Number     Number       Type             X           Y           Z
 ---------------------------------------------------------------------
      1          6           0       -1.017342   -0.099204    0.001310
      2          8           0       -2.202210   -0.439739    0.010109
      3          7           0        0.003142   -1.020813   -0.011175
      4          6           0       -0.566483    1.353052   -0.004429
      5          1           0       -1.452876    1.995860    0.045315
      6          1           0       -0.003638    1.574742   -0.925117
      7          1           0        0.088570    1.559609    0.856706
      8          1           0        0.973753   -0.742638   -0.018406
      9          1           0       -0.231369   -2.005220   -0.014236
 ---------------------------------------------------------------------
                    Distance matrix (angstroms):
                    1          2          3          4          5
     1  C    0.000000
     2  O    1.232864   0.000000
     3  N    1.375102   2.280718   0.000000
     4  C    1.520642   2.426914   2.441260   0.000000
     5  H    2.140308   2.548506   3.350148   1.096070   0.000000
     6  H    2.165169   3.125140   2.751771   1.101639   1.794261
     7  H    2.169424   3.156230   2.723801   1.101505   1.795752
     8  H    2.092571   3.190501   1.009712   2.600853   3.659502
     9  H    2.061768   2.517049   1.011959   3.374964   4.183809
                    6          7          8          9
     6  H    0.000000
     7  H    1.784272   0.000000
     8  H    2.673512   2.617195   0.000000
     9  H    3.701039   3.683599   1.745408   0.000000
 Stoichiometry    C2H5NO
 Framework group  C1[X(C2H5NO)]
 Deg. of freedom    21
 Full point group                 C1      NOp   1
 Largest Abelian subgroup         C1      NOp   1
 Largest concise Abelian subgroup C1      NOp   1
                         Standard orientation:                         
 ---------------------------------------------------------------------
 Center     Atomic      Atomic             Coordinates (Angstroms)
 Number     Number       Type             X           Y           Z
 ---------------------------------------------------------------------
      1          6           0        0.076498    0.150490   -0.002147
      2          8           0        0.424792    1.333131    0.000237
      3          7           0        0.991401   -0.876084    0.000006
      4          6           0       -1.378680   -0.290877    0.000097
      5          1           0       -2.015687    0.600146   -0.040761
      6          1           0       -1.603584   -0.861077    0.915466
      7          1           0       -1.589970   -0.936259   -0.867169
      8          1           0        0.706870   -1.844875   -0.001925
      9          1           0        1.977326   -0.648068    0.004752
 ---------------------------------------------------------------------
 Rotational constants (GHZ):          10.6158383           9.2246287           5.0953963
 Standard basis: Aug-CC-pVDZ (5D, 7F)
 There are   145 symmetry adapted cartesian basis functions of A   symmetry.
 There are   137 symmetry adapted basis functions of A   symmetry.
   137 basis functions,   227 primitive gaussians,   145 cartesian basis functions
    16 alpha electrons       16 beta electrons
       nuclear repulsion energy       120.8045008438 Hartrees.
 NAtoms=    9 NActive=    9 NUniq=    9 SFac= 1.00D+00 NAtFMM=   60 NAOKFM=F Big=F
 Integral buffers will be    131072 words long.
 Raffenetti 1 integral format.
 Two-electron integral symmetry is turned on.
 One-electron integrals computed using PRISM.
 NBasis=   137 RedAO= T EigKep=  8.58D-05  NBF=   137
 NBsUse=   137 1.00D-06 EigRej= -1.00D+00 NBFU=   137
 Initial guess from the checkpoint file:  "/scr/Gau-989.chk"
 B after Tr=    -0.000000    0.000000    0.000000
         Rot=    0.999991    0.000034   -0.000024    0.004251 Ang=   0.49 deg.
 Keep R1 ints in memory in canonical form, NReq=53319475.
 Requested convergence on RMS density matrix=1.00D-08 within 128 cycles.
 Requested convergence on MAX density matrix=1.00D-06.
 Requested convergence on             energy=1.00D-06.
 No special actions if energy rises.
 SCF Done:  E(RHF) =  -208.010504462     A.U. after   10 cycles
            NFock= 10  Conv=0.56D-08     -V/T= 2.0023
 ExpMin= 2.97D-02 ExpMax= 1.17D+04 ExpMxC= 4.01D+02 IAcc=3 IRadAn=         5 AccDes= 0.00D+00
 HarFok:  IExCor=  205 AccDes= 0.00D+00 IRadAn=         5 IDoV=-2 UseB2=F ITyADJ=14
 ICtDFT= 12500011 ScaDFX=  1.000000  1.000000  1.000000  1.000000
 Range of M.O.s used for correlation:     5   137
 NBasis=   137 NAE=    16 NBE=    16 NFC=     4 NFV=     0
 NROrb=    133 NOA=    12 NOB=    12 NVA=   121 NVB=   121

 **** Warning!!: The largest alpha MO coefficient is  0.33334009D+02

 Fully direct method using O(ONN) memory.
 JobTyp=1 Pass  1:  I=   5 to  16 NPSUse= 40 ParTrn=T ParDer=T DoDerP=T.
 Spin components of T(2) and E(2):
     alpha-alpha T2 =       0.2739873844D-01 E2=     -0.8417922963D-01
     alpha-beta  T2 =       0.1539761594D+00 E2=     -0.4907425017D+00
     beta-beta   T2 =       0.2739873844D-01 E2=     -0.8417922963D-01
 ANorm=    0.1099442421D+01
 E2 =    -0.6591009609D+00 EUMP2 =    -0.20866960542337D+03
          IDoAtm=111111111
          Differentiating once with respect to electric field.
                with respect to dipole field.
          Differentiating once with respect to nuclear coordinates.
 Keep R1 ints in memory in canonical form, NReq=53324467.
          There are     1 degrees of freedom in the 1st order CPHF.  IDoFFX=0 NUNeed=     1.
 LinEq1:  Iter=  0 NonCon=     1 RMS=5.46D-03 Max=7.89D-02 NDo=     1
 AX will form     1 AO Fock derivatives at one time.
 LinEq1:  Iter=  1 NonCon=     1 RMS=1.68D-03 Max=1.82D-02 NDo=     1
 LinEq1:  Iter=  2 NonCon=     1 RMS=5.89D-04 Max=6.95D-03 NDo=     1
 LinEq1:  Iter=  3 NonCon=     1 RMS=1.87D-04 Max=1.78D-03 NDo=     1
 LinEq1:  Iter=  4 NonCon=     1 RMS=5.92D-05 Max=6.32D-04 NDo=     1
 LinEq1:  Iter=  5 NonCon=     1 RMS=1.47D-05 Max=1.43D-04 NDo=     1
 LinEq1:  Iter=  6 NonCon=     1 RMS=5.23D-06 Max=4.36D-05 NDo=     1
 LinEq1:  Iter=  7 NonCon=     1 RMS=1.34D-06 Max=2.26D-05 NDo=     1
 LinEq1:  Iter=  8 NonCon=     1 RMS=2.94D-07 Max=3.80D-06 NDo=     1
 LinEq1:  Iter=  9 NonCon=     1 RMS=7.87D-08 Max=6.23D-07 NDo=     1
 LinEq1:  Iter= 10 NonCon=     1 RMS=2.03D-08 Max=1.92D-07 NDo=     1
 LinEq1:  Iter= 11 NonCon=     1 RMS=4.48D-09 Max=3.33D-08 NDo=     1
 LinEq1:  Iter= 12 NonCon=     1 RMS=8.92D-10 Max=6.23D-09 NDo=     1
 LinEq1:  Iter= 13 NonCon=     1 RMS=1.12D-10 Max=9.10D-10 NDo=     1
 LinEq1:  Iter= 14 NonCon=     0 RMS=1.72D-11 Max=2.73D-10 NDo=     1
 Linear equations converged to 1.000D-10 1.000D-09 after    14 iterations.
 End of Minotr F.D. properties file   721 does not exist.
 End of Minotr F.D. properties file   722 does not exist.
 End of Minotr F.D. properties file   788 does not exist.
 Calling FoFJK, ICntrl=  10002127 FMM=F ISym2X=0 I1Cent= 0 IOpClX= 0 NMat=1 NMatS=1 NMatT=0.
 ***** Axes restored to original set *****
 -------------------------------------------------------------------
 Center     Atomic                   Forces (Hartrees/Bohr)
 Number     Number              X              Y              Z
 -------------------------------------------------------------------
      1        6           0.000098019    0.000442569   -0.000343344
      2        8          -0.000234539   -0.000042771    0.000124061
      3        7           0.000501434    0.000159224    0.000094743
      4        6          -0.000013487   -0.000518997    0.000073015
      5        1          -0.000038141   -0.000030324    0.000020402
      6        1          -0.000067089   -0.000068442    0.000003742
      7        1          -0.000038804   -0.000023884    0.000013646
      8        1          -0.000117502   -0.000309526    0.000016064
      9        1          -0.000089890    0.000392151   -0.000002329
 -------------------------------------------------------------------
 Cartesian Forces:  Max     0.000518997 RMS     0.000214495

 GradGradGradGradGradGradGradGradGradGradGradGradGradGradGradGradGradGrad
 Berny optimization.
 Using GEDIIS/GDIIS optimizer.
 FormGI is forming the generalized inverse of G from B-inverse, IUseBI=4.
 Internal  Forces:  Max     0.000659912 RMS     0.000190217
 Search for a local minimum.
 Step number   3 out of a maximum of   40
 All quantities printed in internal units (Hartrees-Bohrs-Radians)
 Mixed Optimization -- En-DIIS/RFO-DIIS
 Swapping is turned off.
 Update second derivatives using D2CorX and points    1    2    3
 DE= -3.65D-05 DEPred=-3.67D-05 R= 9.93D-01
 TightC=F SS=  1.41D+00  RLast= 1.74D-02 DXNew= 5.1436D-01 5.2140D-02
 Trust test= 9.93D-01 RLast= 1.74D-02 DXMaxT set to 3.06D-01
 ITU=  1  1  0
     Eigenvalues ---    0.00502   0.01220   0.02266   0.02267   0.07224
     Eigenvalues ---    0.07387   0.14803   0.16000   0.16000   0.16003
     Eigenvalues ---    0.16108   0.24901   0.25562   0.33292   0.33525
     Eigenvalues ---    0.33568   0.34203   0.50254   0.50864   0.53991
     Eigenvalues ---    0.96255
 En-DIIS/RFO-DIIS/Sim-DIIS IScMMF=       -3 using points:     3    2
 RFO step:  Lambda=-6.12178983D-06.
 DidBck=F Rises=F RFO-DIIS coefs:    0.88002    0.11998
 Iteration  1 RMS(Cart)=  0.00236262 RMS(Int)=  0.00000633
 Iteration  2 RMS(Cart)=  0.00000715 RMS(Int)=  0.00000323
 Iteration  3 RMS(Cart)=  0.00000000 RMS(Int)=  0.00000323
 Variable       Old X    -DE/DX   Delta X   Delta X   Delta X     New X
                                 (Linear)    (Quad)   (Total)
    R1        2.32978   0.00024   0.00008   0.00013   0.00021   2.32999
    R2        2.59857   0.00006   0.00008  -0.00000   0.00008   2.59865
    R3        2.87360  -0.00066  -0.00002  -0.00208  -0.00210   2.87149
    R4        1.90808  -0.00020   0.00020  -0.00068  -0.00048   1.90760
    R5        1.91233  -0.00036  -0.00012  -0.00044  -0.00056   1.91177
    R6        2.07127   0.00001  -0.00011   0.00023   0.00012   2.07139
    R7        2.08180  -0.00005   0.00004  -0.00022  -0.00018   2.08162
    R8        2.08154  -0.00002   0.00004  -0.00011  -0.00007   2.08147
    A1        2.12724   0.00006   0.00157  -0.00238  -0.00082   2.12641
    A2        2.15169   0.00001  -0.00072   0.00125   0.00052   2.15221
    A3        2.00425  -0.00007  -0.00084   0.00116   0.00031   2.00456
    A4        2.12798   0.00045  -0.00017   0.00309   0.00291   2.13089
    A5        2.07147  -0.00040  -0.00005  -0.00237  -0.00241   2.06905
    A6        2.08374  -0.00005   0.00022  -0.00072  -0.00050   2.08324
    A7        1.89668  -0.00006  -0.00012  -0.00026  -0.00038   1.89630
    A8        1.92498  -0.00008  -0.00002  -0.00042  -0.00044   1.92454
    A9        1.93099  -0.00001   0.00003  -0.00007  -0.00003   1.93096
   A10        1.91037   0.00005   0.00008   0.00009   0.00017   1.91055
   A11        1.91290   0.00002   0.00011  -0.00012  -0.00001   1.91289
   A12        1.88788   0.00008  -0.00007   0.00078   0.00070   1.88858
    D1        3.14157   0.00006   0.00020   0.00421   0.00441  -3.13721
    D2        0.00124   0.00005   0.00010   0.00399   0.00409   0.00533
    D3        0.00558  -0.00004  -0.00019  -0.00309  -0.00327   0.00231
    D4       -3.13475  -0.00004  -0.00028  -0.00332  -0.00360  -3.13835
    D5        0.04314  -0.00004  -0.00031  -0.00201  -0.00233   0.04081
    D6       -2.05105  -0.00002  -0.00032  -0.00172  -0.00204  -2.05308
    D7        2.14409  -0.00006  -0.00023  -0.00237  -0.00260   2.14148
    D8       -3.10414   0.00006   0.00009   0.00539   0.00548  -3.09866
    D9        1.08485   0.00008   0.00008   0.00569   0.00577   1.09063
   D10       -1.00320   0.00004   0.00017   0.00503   0.00520  -0.99799
         Item               Value     Threshold  Converged?
 Maximum Force            0.000660     0.000450     NO 
 RMS     Force            0.000190     0.000300     YES
 Maximum Displacement     0.006210     0.001800     NO 
 RMS     Displacement     0.002363     0.001200     NO 
 Predicted change in Energy=-3.061860D-06
 GradGradGradGradGradGradGradGradGradGradGradGradGradGradGradGradGradGrad

                          Input orientation:                          
 ---------------------------------------------------------------------
 Center     Atomic      Atomic             Coordinates (Angstroms)
 Number     Number       Type             X           Y           Z
 ---------------------------------------------------------------------
      1          6           0       -1.016724   -0.098381   -0.001976
      2          8           0       -2.201391   -0.439930    0.009874
      3          7           0        0.003824   -1.020021   -0.010988
      4          6           0       -0.566617    1.352950   -0.004909
      5          1           0       -1.453426    1.995087    0.047407
      6          1           0       -0.005322    1.576528   -0.925974
      7          1           0        0.089168    1.557736    0.856041
      8          1           0        0.975006   -0.744741   -0.016946
      9          1           0       -0.232970   -2.003581   -0.012452
 ---------------------------------------------------------------------
                    Distance matrix (angstroms):
                    1          2          3          4          5
     1  C    0.000000
     2  O    1.232977   0.000000
     3  N    1.375144   2.280332   0.000000
     4  C    1.519529   2.426340   2.440580   0.000000
     5  H    2.139102   2.547581   3.349308   1.096133   0.000000
     6  H    2.163799   3.124842   2.753062   1.101544   1.794343
     7  H    2.168390   3.154890   2.721003   1.101465   1.795762
     8  H    2.094038   3.191102   1.009460   2.603278   3.661705
     9  H    2.060137   2.513997   1.011663   3.373081   4.181201
                    6          7          8          9
     6  H    0.000000
     7  H    1.784617   0.000000
     8  H    2.678743   2.616910   0.000000
     9  H    3.701827   3.679814   1.744679   0.000000
 Stoichiometry    C2H5NO
 Framework group  C1[X(C2H5NO)]
 Deg. of freedom    21
 Full point group                 C1      NOp   1
 Largest Abelian subgroup         C1      NOp   1
 Largest concise Abelian subgroup C1      NOp   1
                         Standard orientation:                         
 ---------------------------------------------------------------------
 Center     Atomic      Atomic             Coordinates (Angstroms)
 Number     Number       Type             X           Y           Z
 ---------------------------------------------------------------------
      1          6           0        0.075770    0.150296    0.000498
      2          8           0        0.424102    1.333045   -0.000508
      3          7           0        0.991547   -0.875556   -0.000180
      4          6           0       -1.378117   -0.291496   -0.000311
      5          1           0       -2.015172    0.599423   -0.044250
      6          1           0       -1.604693   -0.859985    0.915595
      7          1           0       -1.586859   -0.938116   -0.867222
      8          1           0        0.710706   -1.845159   -0.003113
      9          1           0        1.976448   -0.644425    0.003189
 ---------------------------------------------------------------------
 Rotational constants (GHZ):          10.6191978           9.2298136           5.0978115
 Standard basis: Aug-CC-pVDZ (5D, 7F)
 There are   145 symmetry adapted cartesian basis functions of A   symmetry.
 There are   137 symmetry adapted basis functions of A   symmetry.
   137 basis functions,   227 primitive gaussians,   145 cartesian basis functions
    16 alpha electrons       16 beta electrons
       nuclear repulsion energy       120.8266333199 Hartrees.
 NAtoms=    9 NActive=    9 NUniq=    9 SFac= 1.00D+00 NAtFMM=   60 NAOKFM=F Big=F
 Integral buffers will be    131072 words long.
 Raffenetti 1 integral format.
 Two-electron integral symmetry is turned on.
 One-electron integrals computed using PRISM.
 NBasis=   137 RedAO= T EigKep=  8.55D-05  NBF=   137
 NBsUse=   137 1.00D-06 EigRej= -1.00D+00 NBFU=   137
 Initial guess from the checkpoint file:  "/scr/Gau-989.chk"
 B after Tr=     0.000000    0.000000   -0.000000
         Rot=    1.000000    0.000096    0.000107   -0.000304 Ang=   0.04 deg.
 Keep R1 ints in memory in canonical form, NReq=53319416.
 Requested convergence on RMS density matrix=1.00D-08 within 128 cycles.
 Requested convergence on MAX density matrix=1.00D-06.
 Requested convergence on             energy=1.00D-06.
 No special actions if energy rises.
 SCF Done:  E(RHF) =  -208.010525443     A.U. after   10 cycles
            NFock= 10  Conv=0.55D-08     -V/T= 2.0023
 ExpMin= 2.97D-02 ExpMax= 1.17D+04 ExpMxC= 4.01D+02 IAcc=3 IRadAn=         5 AccDes= 0.00D+00
 HarFok:  IExCor=  205 AccDes= 0.00D+00 IRadAn=         5 IDoV=-2 UseB2=F ITyADJ=14
 ICtDFT= 12500011 ScaDFX=  1.000000  1.000000  1.000000  1.000000
 Range of M.O.s used for correlation:     5   137
 NBasis=   137 NAE=    16 NBE=    16 NFC=     4 NFV=     0
 NROrb=    133 NOA=    12 NOB=    12 NVA=   121 NVB=   121

 **** Warning!!: The largest alpha MO coefficient is  0.33433175D+02

 Fully direct method using O(ONN) memory.
 JobTyp=1 Pass  1:  I=   5 to  16 NPSUse= 40 ParTrn=T ParDer=T DoDerP=T.
 Spin components of T(2) and E(2):
     alpha-alpha T2 =       0.2739621829D-01 E2=     -0.8418034953D-01
     alpha-beta  T2 =       0.1539497361D+00 E2=     -0.4907204663D+00
     beta-beta   T2 =       0.2739621829D-01 E2=     -0.8418034953D-01
 ANorm=    0.1099428112D+01
 E2 =    -0.6590811654D+00 EUMP2 =    -0.20866960660818D+03
          IDoAtm=111111111
          Differentiating once with respect to electric field.
                with respect to dipole field.
          Differentiating once with respect to nuclear coordinates.
 Keep R1 ints in memory in canonical form, NReq=53324585.
          There are     1 degrees of freedom in the 1st order CPHF.  IDoFFX=0 NUNeed=     1.
 LinEq1:  Iter=  0 NonCon=     1 RMS=5.46D-03 Max=7.91D-02 NDo=     1
 AX will form     1 AO Fock derivatives at one time.
 LinEq1:  Iter=  1 NonCon=     1 RMS=1.68D-03 Max=1.82D-02 NDo=     1
 LinEq1:  Iter=  2 NonCon=     1 RMS=5.89D-04 Max=6.96D-03 NDo=     1
 LinEq1:  Iter=  3 NonCon=     1 RMS=1.87D-04 Max=1.78D-03 NDo=     1
 LinEq1:  Iter=  4 NonCon=     1 RMS=5.92D-05 Max=6.34D-04 NDo=     1
 LinEq1:  Iter=  5 NonCon=     1 RMS=1.47D-05 Max=1.43D-04 NDo=     1
 LinEq1:  Iter=  6 NonCon=     1 RMS=5.23D-06 Max=4.35D-05 NDo=     1
 LinEq1:  Iter=  7 NonCon=     1 RMS=1.35D-06 Max=2.28D-05 NDo=     1
 LinEq1:  Iter=  8 NonCon=     1 RMS=2.95D-07 Max=3.81D-06 NDo=     1
 LinEq1:  Iter=  9 NonCon=     1 RMS=7.87D-08 Max=6.21D-07 NDo=     1
 LinEq1:  Iter= 10 NonCon=     1 RMS=2.03D-08 Max=1.92D-07 NDo=     1
 LinEq1:  Iter= 11 NonCon=     1 RMS=4.49D-09 Max=3.33D-08 NDo=     1
 LinEq1:  Iter= 12 NonCon=     1 RMS=9.07D-10 Max=6.21D-09 NDo=     1
 LinEq1:  Iter= 13 NonCon=     1 RMS=1.28D-10 Max=1.99D-09 NDo=     1
 LinEq1:  Iter= 14 NonCon=     0 RMS=2.73D-11 Max=6.09D-10 NDo=     1
 Linear equations converged to 1.000D-10 1.000D-09 after    14 iterations.
 End of Minotr F.D. properties file   721 does not exist.
 End of Minotr F.D. properties file   722 does not exist.
 End of Minotr F.D. properties file   788 does not exist.
 Calling FoFJK, ICntrl=  10002127 FMM=F ISym2X=0 I1Cent= 0 IOpClX= 0 NMat=1 NMatS=1 NMatT=0.
 ***** Axes restored to original set *****
 -------------------------------------------------------------------
 Center     Atomic                   Forces (Hartrees/Bohr)
 Number     Number              X              Y              Z
 -------------------------------------------------------------------
      1        6           0.000070360   -0.000037833    0.000777548
      2        8          -0.000166149    0.000031400   -0.000296488
      3        7           0.000179712    0.000039096   -0.000150590
      4        6          -0.000081006   -0.000060326   -0.000227489
      5        1           0.000026297    0.000003306   -0.000014962
      6        1           0.000014180    0.000055716   -0.000008016
      7        1          -0.000012155   -0.000046676   -0.000015489
      8        1           0.000027157   -0.000053744   -0.000042474
      9        1          -0.000058395    0.000069060   -0.000022040
 -------------------------------------------------------------------
 Cartesian Forces:  Max     0.000777548 RMS     0.000179182

 GradGradGradGradGradGradGradGradGradGradGradGradGradGradGradGradGradGrad
 Berny optimization.
 Using GEDIIS/GDIIS optimizer.
 FormGI is forming the generalized inverse of G from B-inverse, IUseBI=4.
 Internal  Forces:  Max     0.000148092 RMS     0.000087923
 Search for a local minimum.
 Step number   4 out of a maximum of   40
 All quantities printed in internal units (Hartrees-Bohrs-Radians)
 Mixed Optimization -- En-DIIS/RFO-DIIS
 Swapping is turned off.
 Update second derivatives using D2CorX and points    1    2    3    4
 DE= -1.18D-06 DEPred=-3.06D-06 R= 3.87D-01
 Trust test= 3.87D-01 RLast= 1.37D-02 DXMaxT set to 3.06D-01
 ITU=  0  1  1  0
     Eigenvalues ---    0.00494   0.02224   0.02257   0.03098   0.07165
     Eigenvalues ---    0.07402   0.09665   0.16000   0.16008   0.16053
     Eigenvalues ---    0.16424   0.25054   0.25186   0.32624   0.33526
     Eigenvalues ---    0.33584   0.34205   0.49616   0.50982   0.53874
     Eigenvalues ---    0.95600
 En-DIIS/RFO-DIIS/Sim-DIIS IScMMF=       -3 using points:     4    3    2
 RFO step:  Lambda=-4.80903627D-06.
 DidBck=T Rises=F RFO-DIIS coefs:    0.50925    0.76085   -0.27010
 Iteration  1 RMS(Cart)=  0.00121719 RMS(Int)=  0.00000238
 Iteration  2 RMS(Cart)=  0.00000291 RMS(Int)=  0.00000139
 Iteration  3 RMS(Cart)=  0.00000000 RMS(Int)=  0.00000139
 Variable       Old X    -DE/DX   Delta X   Delta X   Delta X     New X
                                 (Linear)    (Quad)   (Total)
    R1        2.32999   0.00015  -0.00028   0.00043   0.00015   2.33013
    R2        2.59865   0.00008  -0.00023   0.00034   0.00012   2.59876
    R3        2.87149  -0.00006   0.00109  -0.00172  -0.00063   2.87086
    R4        1.90760   0.00001  -0.00023   0.00016  -0.00007   1.90753
    R5        1.91177  -0.00005   0.00055  -0.00065  -0.00011   1.91166
    R6        2.07139  -0.00002   0.00020  -0.00018   0.00002   2.07141
    R7        2.08162   0.00003  -0.00001  -0.00001  -0.00002   2.08160
    R8        2.08147  -0.00003  -0.00005  -0.00001  -0.00006   2.08141
    A1        2.12641   0.00010  -0.00312   0.00292  -0.00020   2.12622
    A2        2.15221  -0.00008   0.00137  -0.00130   0.00007   2.15228
    A3        2.00456  -0.00002   0.00174  -0.00162   0.00012   2.00468
    A4        2.13089   0.00012  -0.00104   0.00218   0.00114   2.13204
    A5        2.06905  -0.00013   0.00129  -0.00228  -0.00100   2.06806
    A6        2.08324   0.00001  -0.00025   0.00011  -0.00015   2.08309
    A7        1.89630   0.00003   0.00045  -0.00047  -0.00002   1.89628
    A8        1.92454   0.00008   0.00027  -0.00015   0.00012   1.92466
    A9        1.93096  -0.00008  -0.00006  -0.00018  -0.00023   1.93073
   A10        1.91055  -0.00004  -0.00026   0.00022  -0.00004   1.91051
   A11        1.91289   0.00002  -0.00023   0.00024   0.00001   1.91289
   A12        1.88858  -0.00001  -0.00018   0.00034   0.00016   1.88874
    D1       -3.13721  -0.00015  -0.00262  -0.00077  -0.00339  -3.14059
    D2        0.00533  -0.00009  -0.00224  -0.00024  -0.00249   0.00284
    D3        0.00231   0.00008   0.00203   0.00040   0.00244   0.00474
    D4       -3.13835   0.00013   0.00240   0.00093   0.00333  -3.13501
    D5        0.04081   0.00012   0.00184   0.00168   0.00351   0.04433
    D6       -2.05308   0.00011   0.00171   0.00179   0.00350  -2.04959
    D7        2.14148   0.00011   0.00180   0.00157   0.00337   2.14485
    D8       -3.09866  -0.00010  -0.00289   0.00048  -0.00241  -3.10107
    D9        1.09063  -0.00012  -0.00301   0.00059  -0.00242   1.08820
   D10       -0.99799  -0.00011  -0.00293   0.00037  -0.00255  -1.00055
         Item               Value     Threshold  Converged?
 Maximum Force            0.000148     0.000450     YES
 RMS     Force            0.000088     0.000300     YES
 Maximum Displacement     0.004269     0.001800     NO 
 RMS     Displacement     0.001217     0.001200     NO 
 Predicted change in Energy=-2.223704D-06
 GradGradGradGradGradGradGradGradGradGradGradGradGradGradGradGradGradGrad

                          Input orientation:                          
 ---------------------------------------------------------------------
 Center     Atomic      Atomic             Coordinates (Angstroms)
 Number     Number       Type             X           Y           Z
 ---------------------------------------------------------------------
      1          6           0       -1.016475   -0.098143    0.000283
      2          8           0       -2.201164   -0.439985    0.009152
      3          7           0        0.004135   -1.019787   -0.010643
      4          6           0       -0.566714    1.352941   -0.004671
      5          1           0       -1.453647    1.994983    0.046915
      6          1           0       -0.005569    1.575496   -0.926062
      7          1           0        0.089003    1.558789    0.856039
      8          1           0        0.975583   -0.745593   -0.017077
      9          1           0       -0.233606   -2.003055   -0.013858
 ---------------------------------------------------------------------
                    Distance matrix (angstroms):
                    1          2          3          4          5
     1  C    0.000000
     2  O    1.233054   0.000000
     3  N    1.375206   2.280330   0.000000
     4  C    1.519195   2.426150   2.440439   0.000000
     5  H    2.138801   2.547407   3.349221   1.096143   0.000000
     6  H    2.163588   3.123688   2.752013   1.101534   1.794320
     7  H    2.167908   3.155501   2.721653   1.101435   1.795750
     8  H    2.094705   3.191521   1.009423   2.604358   3.662787
     9  H    2.059557   2.512966   1.011607   3.372500   4.180491
                    6          7          8          9
     6  H    0.000000
     7  H    1.784687   0.000000
     8  H    2.678874   2.618880   0.000000
     9  H    3.700020   3.680698   1.744523   0.000000
 Stoichiometry    C2H5NO
 Framework group  C1[X(C2H5NO)]
 Deg. of freedom    21
 Full point group                 C1      NOp   1
 Largest Abelian subgroup         C1      NOp   1
 Largest concise Abelian subgroup C1      NOp   1
                         Standard orientation:                         
 ---------------------------------------------------------------------
 Center     Atomic      Atomic             Coordinates (Angstroms)
 Number     Number       Type             X           Y           Z
 ---------------------------------------------------------------------
      1          6           0        0.075528    0.150232   -0.001521
      2          8           0        0.423604    1.333137    0.000050
      3          7           0        0.991787   -0.875273   -0.000109
      4          6           0       -1.377903   -0.291910    0.000035
      5          1           0       -2.015283    0.598817   -0.043349
      6          1           0       -1.603060   -0.860088    0.916471
      7          1           0       -1.587531   -0.938815   -0.866411
      8          1           0        0.712482   -1.845282   -0.002238
      9          1           0        1.976296   -0.642749    0.004809
 ---------------------------------------------------------------------
 Rotational constants (GHZ):          10.6194011           9.2312005           5.0982966
 Standard basis: Aug-CC-pVDZ (5D, 7F)
 There are   145 symmetry adapted cartesian basis functions of A   symmetry.
 There are   137 symmetry adapted basis functions of A   symmetry.
   137 basis functions,   227 primitive gaussians,   145 cartesian basis functions
    16 alpha electrons       16 beta electrons
       nuclear repulsion energy       120.8303842177 Hartrees.
 NAtoms=    9 NActive=    9 NUniq=    9 SFac= 1.00D+00 NAtFMM=   60 NAOKFM=F Big=F
 Integral buffers will be    131072 words long.
 Raffenetti 1 integral format.
 Two-electron integral symmetry is turned on.
 One-electron integrals computed using PRISM.
 NBasis=   137 RedAO= T EigKep=  8.55D-05  NBF=   137
 NBsUse=   137 1.00D-06 EigRej= -1.00D+00 NBFU=   137
 Initial guess from the checkpoint file:  "/scr/Gau-989.chk"
 B after Tr=    -0.000000   -0.000000    0.000000
         Rot=    1.000000    0.000020   -0.000060   -0.000192 Ang=   0.02 deg.
 Keep R1 ints in memory in canonical form, NReq=53319416.
 Requested convergence on RMS density matrix=1.00D-08 within 128 cycles.
 Requested convergence on MAX density matrix=1.00D-06.
 Requested convergence on             energy=1.00D-06.
 No special actions if energy rises.
 SCF Done:  E(RHF) =  -208.010524396     A.U. after    9 cycles
            NFock=  9  Conv=0.88D-08     -V/T= 2.0023
 ExpMin= 2.97D-02 ExpMax= 1.17D+04 ExpMxC= 4.01D+02 IAcc=3 IRadAn=         5 AccDes= 0.00D+00
 HarFok:  IExCor=  205 AccDes= 0.00D+00 IRadAn=         5 IDoV=-2 UseB2=F ITyADJ=14
 ICtDFT= 12500011 ScaDFX=  1.000000  1.000000  1.000000  1.000000
 Range of M.O.s used for correlation:     5   137
 NBasis=   137 NAE=    16 NBE=    16 NFC=     4 NFV=     0
 NROrb=    133 NOA=    12 NOB=    12 NVA=   121 NVB=   121

 **** Warning!!: The largest alpha MO coefficient is  0.33406603D+02

 Fully direct method using O(ONN) memory.
 JobTyp=1 Pass  1:  I=   5 to  16 NPSUse= 40 ParTrn=T ParDer=T DoDerP=T.
 Spin components of T(2) and E(2):
     alpha-alpha T2 =       0.2739655489D-01 E2=     -0.8418170875D-01
     alpha-beta  T2 =       0.1539478320D+00 E2=     -0.4907204928D+00
     beta-beta   T2 =       0.2739655489D-01 E2=     -0.8418170875D-01
 ANorm=    0.1099427552D+01
 E2 =    -0.6590839103D+00 EUMP2 =    -0.20866960830610D+03
          IDoAtm=111111111
          Differentiating once with respect to electric field.
                with respect to dipole field.
          Differentiating once with respect to nuclear coordinates.
 Keep R1 ints in memory in canonical form, NReq=53324585.
          There are     1 degrees of freedom in the 1st order CPHF.  IDoFFX=0 NUNeed=     1.
 LinEq1:  Iter=  0 NonCon=     1 RMS=5.46D-03 Max=7.90D-02 NDo=     1
 AX will form     1 AO Fock derivatives at one time.
 LinEq1:  Iter=  1 NonCon=     1 RMS=1.68D-03 Max=1.82D-02 NDo=     1
 LinEq1:  Iter=  2 NonCon=     1 RMS=5.89D-04 Max=6.95D-03 NDo=     1
 LinEq1:  Iter=  3 NonCon=     1 RMS=1.87D-04 Max=1.78D-03 NDo=     1
 LinEq1:  Iter=  4 NonCon=     1 RMS=5.92D-05 Max=6.34D-04 NDo=     1
 LinEq1:  Iter=  5 NonCon=     1 RMS=1.47D-05 Max=1.43D-04 NDo=     1
 LinEq1:  Iter=  6 NonCon=     1 RMS=5.24D-06 Max=4.38D-05 NDo=     1
 LinEq1:  Iter=  7 NonCon=     1 RMS=1.35D-06 Max=2.27D-05 NDo=     1
 LinEq1:  Iter=  8 NonCon=     1 RMS=2.95D-07 Max=3.80D-06 NDo=     1
 LinEq1:  Iter=  9 NonCon=     1 RMS=7.87D-08 Max=6.20D-07 NDo=     1
 LinEq1:  Iter= 10 NonCon=     1 RMS=2.02D-08 Max=1.92D-07 NDo=     1
 LinEq1:  Iter= 11 NonCon=     1 RMS=4.48D-09 Max=3.33D-08 NDo=     1
 LinEq1:  Iter= 12 NonCon=     1 RMS=8.91D-10 Max=6.21D-09 NDo=     1
 LinEq1:  Iter= 13 NonCon=     1 RMS=1.10D-10 Max=9.15D-10 NDo=     1
 LinEq1:  Iter= 14 NonCon=     0 RMS=1.46D-11 Max=9.75D-11 NDo=     1
 Linear equations converged to 1.000D-10 1.000D-09 after    14 iterations.
 End of Minotr F.D. properties file   721 does not exist.
 End of Minotr F.D. properties file   722 does not exist.
 End of Minotr F.D. properties file   788 does not exist.
 Calling FoFJK, ICntrl=  10002127 FMM=F ISym2X=0 I1Cent= 0 IOpClX= 0 NMat=1 NMatS=1 NMatT=0.
 ***** Axes restored to original set *****
 -------------------------------------------------------------------
 Center     Atomic                   Forces (Hartrees/Bohr)
 Number     Number              X              Y              Z
 -------------------------------------------------------------------
      1        6           0.000031049   -0.000176536   -0.000071613
      2        8          -0.000066339    0.000051413    0.000014772
      3        7           0.000041083   -0.000014546    0.000035009
      4        6          -0.000079996    0.000077077    0.000043651
      5        1           0.000037290    0.000011850   -0.000000911
      6        1           0.000008553    0.000007191   -0.000003262
      7        1           0.000026364    0.000020953   -0.000010853
      8        1           0.000029915    0.000030382   -0.000001633
      9        1          -0.000027917   -0.000007784   -0.000005161
 -------------------------------------------------------------------
 Cartesian Forces:  Max     0.000176536 RMS     0.000049999

 GradGradGradGradGradGradGradGradGradGradGradGradGradGradGradGradGradGrad
 Berny optimization.
 Using GEDIIS/GDIIS optimizer.
 FormGI is forming the generalized inverse of G from B-inverse, IUseBI=4.
 Internal  Forces:  Max     0.000109423 RMS     0.000035225
 Search for a local minimum.
 Step number   5 out of a maximum of   40
 All quantities printed in internal units (Hartrees-Bohrs-Radians)
 Mixed Optimization -- En-DIIS/RFO-DIIS
 Swapping is turned off.
 Update second derivatives using D2CorX and points    1    2    3    4    5
 DE= -1.70D-06 DEPred=-2.22D-06 R= 7.64D-01
 TightC=F SS=  1.41D+00  RLast= 9.58D-03 DXNew= 5.1436D-01 2.8734D-02
 Trust test= 7.64D-01 RLast= 9.58D-03 DXMaxT set to 3.06D-01
 ITU=  1  0  1  1  0
     Eigenvalues ---    0.00482   0.02233   0.02258   0.04053   0.07285
     Eigenvalues ---    0.07431   0.11587   0.16010   0.16035   0.16328
     Eigenvalues ---    0.16557   0.25021   0.26031   0.33235   0.33548
     Eigenvalues ---    0.33589   0.34136   0.50683   0.51255   0.53750
     Eigenvalues ---    0.94980
 En-DIIS/RFO-DIIS/Sim-DIIS IScMMF=       -3 using points:     5    4    3    2
 RFO step:  Lambda=-1.87815021D-07.
 DidBck=F Rises=F RFO-DIIS coefs:    1.15682    0.00734   -0.16718    0.00302
 Iteration  1 RMS(Cart)=  0.00052687 RMS(Int)=  0.00000017
 Iteration  2 RMS(Cart)=  0.00000018 RMS(Int)=  0.00000004
 Variable       Old X    -DE/DX   Delta X   Delta X   Delta X     New X
                                 (Linear)    (Quad)   (Total)
    R1        2.33013   0.00005   0.00006  -0.00002   0.00004   2.33017
    R2        2.59876   0.00003   0.00003   0.00000   0.00004   2.59880
    R3        2.87086   0.00011  -0.00044   0.00078   0.00034   2.87120
    R4        1.90753   0.00004  -0.00008   0.00015   0.00006   1.90760
    R5        1.91166   0.00001  -0.00011   0.00013   0.00002   1.91168
    R6        2.07141  -0.00002   0.00002  -0.00008  -0.00006   2.07135
    R7        2.08160   0.00001  -0.00003   0.00006   0.00003   2.08163
    R8        2.08141   0.00001  -0.00002   0.00005   0.00003   2.08144
    A1        2.12622   0.00008  -0.00013   0.00045   0.00032   2.12654
    A2        2.15228  -0.00008   0.00008  -0.00037  -0.00030   2.15199
    A3        2.00468  -0.00000   0.00005  -0.00008  -0.00003   2.00465
    A4        2.13204  -0.00001   0.00065  -0.00075  -0.00010   2.13194
    A5        2.06806  -0.00002  -0.00055   0.00048  -0.00008   2.06798
    A6        2.08309   0.00003  -0.00010   0.00027   0.00017   2.08326
    A7        1.89628   0.00004  -0.00007   0.00036   0.00029   1.89657
    A8        1.92466  -0.00001  -0.00005  -0.00000  -0.00006   1.92460
    A9        1.93073   0.00003  -0.00004   0.00017   0.00013   1.93086
   A10        1.91051  -0.00002   0.00002  -0.00013  -0.00010   1.91041
   A11        1.91289  -0.00002   0.00000  -0.00003  -0.00003   1.91286
   A12        1.88874  -0.00003   0.00014  -0.00038  -0.00024   1.88850
    D1       -3.14059   0.00001   0.00020  -0.00013   0.00006  -3.14053
    D2        0.00284   0.00001   0.00028   0.00009   0.00037   0.00321
    D3        0.00474  -0.00001  -0.00016  -0.00013  -0.00029   0.00445
    D4       -3.13501  -0.00000  -0.00007   0.00009   0.00001  -3.13500
    D5        0.04433  -0.00001   0.00016   0.00058   0.00074   0.04507
    D6       -2.04959  -0.00001   0.00021   0.00052   0.00072  -2.04886
    D7        2.14485   0.00001   0.00009   0.00088   0.00097   2.14582
    D8       -3.10107   0.00001   0.00052   0.00058   0.00111  -3.09996
    D9        1.08820   0.00001   0.00057   0.00052   0.00109   1.08929
   D10       -1.00055   0.00003   0.00046   0.00088   0.00133  -0.99921
         Item               Value     Threshold  Converged?
 Maximum Force            0.000109     0.000450     YES
 RMS     Force            0.000035     0.000300     YES
 Maximum Displacement     0.001238     0.001800     YES
 RMS     Displacement     0.000527     0.001200     YES
 Predicted change in Energy=-9.390249D-08
 Optimization completed.
    -- Stationary point found.
                           ----------------------------
                           !   Optimized Parameters   !
                           ! (Angstroms and Degrees)  !
 --------------------------                            --------------------------
 ! Name  Definition              Value          Derivative Info.                !
 --------------------------------------------------------------------------------
 ! R1    R(1,2)                  1.2331         -DE/DX =    0.0                 !
 ! R2    R(1,3)                  1.3752         -DE/DX =    0.0                 !
 ! R3    R(1,4)                  1.5192         -DE/DX =    0.0001              !
 ! R4    R(3,8)                  1.0094         -DE/DX =    0.0                 !
 ! R5    R(3,9)                  1.0116         -DE/DX =    0.0                 !
 ! R6    R(4,5)                  1.0961         -DE/DX =    0.0                 !
 ! R7    R(4,6)                  1.1015         -DE/DX =    0.0                 !
 ! R8    R(4,7)                  1.1014         -DE/DX =    0.0                 !
 ! A1    A(2,1,3)              121.8232         -DE/DX =    0.0001              !
 ! A2    A(2,1,4)              123.3167         -DE/DX =   -0.0001              !
 ! A3    A(3,1,4)              114.8597         -DE/DX =    0.0                 !
 ! A4    A(1,3,8)              122.1566         -DE/DX =    0.0                 !
 ! A5    A(1,3,9)              118.491          -DE/DX =    0.0                 !
 ! A6    A(8,3,9)              119.3522         -DE/DX =    0.0                 !
 ! A7    A(1,4,5)              108.6488         -DE/DX =    0.0                 !
 ! A8    A(1,4,6)              110.2749         -DE/DX =    0.0                 !
 ! A9    A(1,4,7)              110.6227         -DE/DX =    0.0                 !
 ! A10   A(5,4,6)              109.4642         -DE/DX =    0.0                 !
 ! A11   A(5,4,7)              109.6007         -DE/DX =    0.0                 !
 ! A12   A(6,4,7)              108.2169         -DE/DX =    0.0                 !
 ! D1    D(2,1,3,8)           -179.9427         -DE/DX =    0.0                 !
 ! D2    D(2,1,3,9)              0.1625         -DE/DX =    0.0                 !
 ! D3    D(4,1,3,8)              0.2717         -DE/DX =    0.0                 !
 ! D4    D(4,1,3,9)           -179.6231         -DE/DX =    0.0                 !
[...]
 001880,0.00023556,-0.00010329,0.00000453,-0.00005923,-0.00003605,-0.00
 000024,-0.00016420,0.00011033,0.00014826,-0.00019222,0.00011259,-0.000
 14815,0.00025223,0.00017179,0.00006340,-0.00000800,0.00002685,-0.00008
 520,-0.00000710,-0.00004316,0.00033263,0.00003227,-0.00041372,0.000214
 38,0.00000980,0.00013064,0.00005012,-0.00000313,0.00006186,-0.00003196
 ,-0.00017785,0.00003997,-0.00001922,0.00018271,-0.00004501,-0.00050256
 ,0.00001309,0.00003295,-0.00027071,-0.00001860,-0.00003002,0.00010651,
 -0.00000561,0.00002473,-0.00018716,-0.00002958,-0.00001058,-0.00043288
 ,0.00000420,-0.00000499,0.00017068,0.00001083,-0.00009222,0.00024103,0
 .00002455,0.00011389,0.00023442,-0.00000655,-0.00003302,0.00001609,-0.
 00030305,-0.00010599,0.00000836,0.00004406,0.00015158,-0.00000395,0.00
 017408,-0.00014478,0.00000282,0.00028070,0.00019758,-0.00001042,0.0000
 4216,-0.00003300,-0.00000973,-0.00013370,-0.00011981,0.00018639,-0.000
 15510,-0.00013891,-0.00017963,0.00011522,0.00007078,0.00000768,-0.0000
 6437,0.00027447,0.00029972,0.00000981,-0.00013710,-0.00004782,0.000000
 89,-0.00010736,0.00021388,0.00002581,-0.00037177,-0.00067538,0.0000032
 8,-0.00018603,0.00005727,0.00000911,0.00021078,0.00017283,-0.00013979,
 0.00021968,0.00018461,0.00011851,-0.00002523,-0.00002160,-0.00000075,0
 .00012256,-0.00018350,-0.00003794,0.00001406,0.00030186,0.00000503,0.0
 0000499,0.00005904,0.00003067,-0.00000353,0.00006006,-0.00001918,0.000
 02906,0.00020271,0.00000372,-0.00000175,-0.00002693,0.00025249,-0.0003
 1078,-0.00025148,-0.00023995,0.00029049,-0.00021111,0.00000665,0.00000
 432,0.00012201,-0.00000151,-0.00002687,-0.00025616,-0.00062550,-0.0074
 7351,-0.01177207,-0.00070216,0.00007912,-0.00358045,0.00071906,0.00603
 758,0.00027055,-0.00009512,-0.00104696,0.00278652,-0.00002796,-0.00065
 057,-0.00143937,0.00023966,-0.00012949,0.00175281,-0.00013899,0.000003
 63,-0.00042119,-0.00209941,0.00011964,0.00012883,0.00085590,0.00080678
 ,-0.00001955,0.00242237,0.00288923,-0.00053050,-0.00014265,-0.00127924
 ,-0.00020682,0.00007952,-0.00073690,-0.00183482,0.00021361,-0.00005405
 ,0.00003330,-0.00005467,-0.00001866,0.00004982,-0.00012754,0.00003334,
 0.00166634,-0.00766183,-0.00314535,-0.00022519,-0.00471111,-0.00281318
 ,-0.00001644,0.00023132,-0.00006095,0.00008295,0.59542653,0.01812977,0
 .01980312,-0.00037418,-0.00327124,-0.00027557,0.00008530,-0.00050770,-
 0.00237487,-0.00006704,0.44228066,-0.52667673,-0.00021047,0.00113414,-
 0.02047168,0.00008262,-0.00006375,0.00091995,0.00008558,0.00006369,0.0
 0182481,0.06809025,-0.04753424,1.83331662,0.00072220,-0.00043257,0.000
 10332,-0.00022587,0.00041343,0.00002086,-0.00011514,-0.00010602,-0.000
 03037,-0.00425609,-0.01802312,-0.00126045,0.00206328,-0.00125231,-0.00
 005082,0.00006169,-0.00002865,-0.00011215,-0.00001634,0.00013079,0.000
 77453,0.00001487,0.00131118,-0.00153126,0.00038274,0.00079614,-0.00082
 166,0.00015942,-0.00014756,0.00314525,-0.00000922,0.00001096,-0.000049
 63,-0.00002044,-0.00002270,-0.00047718,-0.00114303,0.00142734,-0.01457
 163,0.00058182,-0.00040963,-0.00060715,0.00409076,0.00223937,-0.004705
 66,0.00162458,0.00147941,0.00090405,-0.00034235,-0.00025434,0.00095455
 ,-0.19606892,-0.21189986,0.85155666,0.00078193,-0.00024959,0.00144602,
 0.19879564,-0.00567521,-0.00543370,0.00470733,-0.00028005,-0.00029150,
 -0.00007248,0.00006218,0.00180769,0.00016875,-0.21054002,0.25041439,0.
 33523941,0.00835554,0.00070747,-0.00510372,0.21055760,-0.24415848,-0.0
 0397876,-0.00559626,0.00988253,-0.00048477,-0.00116588,-0.00123594,0.0
 0021508,-0.00022982,-0.00116981,0.84240166,0.33365016,-0.99016663,-0.0
 0435822,0.00272852,0.00640627,-0.84300263,-0.33161716,0.96964003,0.004
 99899,0.00263033,0.00511823,0.00164691,0.00179225,-0.00099537,-0.00044
 981,-0.00023843,-0.00103755,-0.38357723,-0.22726790,-0.91834722,0.0010
 7906,-0.00062817,-0.00100636,-0.00852066,-0.00232205,0.00882265,0.3852
 7485,-0.00610296,-0.00528111,-0.00431153,-0.00037493,-0.00034291,0.000
 05179,0.00013343,0.00192052,-0.00014191,-0.22641005,0.26118366,-0.2892
 1464,0.00879253,0.00082983,0.00425168,-0.00187680,-0.00313150,0.002774
 23,0.22600413,-0.25530715,0.00428029,0.00468799,0.00893223,0.00035002,
 0.00127875,-0.00109250,-0.00028376,0.00018598,-0.00112365,-0.90914239,
 -0.28719546,-0.81100980,0.00494351,-0.00275692,0.00617712,-0.00729764,
 -0.00275613,0.00674513,0.90753490,0.28600062,0.79141563,0.00012323,0.0
 0021742,0.00001312,0.00014980,-0.00008760,0.00000718,-0.00046356,-0.00
 013437,0.00000228,0.00040577,0.00025711,0.00000874,-0.00006065,0.00001
 230,-0.00000526,-0.00031488,-0.00004117,0.00016480,-0.00036690,-0.0000
 2730,-0.00016478,0.00030664,0.00040965,-0.00001545,-0.00000004,-0.0000
 2925,-0.00005925,-0.00000280,-0.00013267,0.00037983,0.00002878,-0.0002
 4860,0.00015121,-0.00003294,0.00017844,0.00003515,0.00000344,-0.000093
 71,0.00005875,-0.00037583,-0.00007985,0.00008236,0.00040664,-0.0001298
 7,-0.00063117,0.00001188,0.00001960,-0.00010363,-0.00001884,-0.0000228
 1,0.00003940,0.00000128,0.00003913,-0.00034157,-0.00005800,-0.00002022
 ,-0.00094727,0.00001014,-0.00000349,0.00032700,-0.00029125,-0.00026111
 ,0.00038237,0.00035809,0.00028023,0.00037259,-0.00002534,-0.00003117,0
 .00012251,-0.00026750,-0.00019291,-0.00000106,0.00003585,0.00010644,-0
 .00000141,-0.00003932,-0.00007899,-0.00000326,0.00021157,0.00030228,-0
 .00000570,0.00001129,-0.00009169,-0.00000294,-0.00004609,-0.00011682,0
 .00022019,-0.00008521,-0.00013805,-0.00022016,0.00022055,0.00012588,0.
 00001203,-0.00004114,0.00012229,0.00049399,0.00000822,-0.00012363,-0.0
 0005898,0.00000086,0.00012445,0.00006445,0.00003593,-0.00037371,-0.000
 69397,0.00002560,0.00002563,0.00016891,-0.00000982,0.00009793,0.000026
 88,-0.00016797,0.00010971,0.00004631,0.00014853,-0.00006652,-0.0000014
 3,-0.00000016,0.00008386,-0.00004617,-0.00001349,0.00000651,0.00040964
 ,0.00000330,0.00000573,0.00003727,0.00002052,-0.00000649,-0.00046206,0
 .00001019,0.00002833,0.00110562,-0.00001061,-0.00000144,-0.00035005,0.
 00043591,-0.00030489,-0.00048395,-0.00044739,0.00030953,-0.00041675,-0
 .00000073,0.00000393,0.00014859,0.00000230,-0.00004120,0.00001168,-0.0
 0909358,-0.00206328,-0.00777553,0.00004716,0.00025922,0.00154058,0.001
 74518,0.00251989,0.00016710,-0.00115419,-0.00196245,0.00124025,0.00006
 998,-0.00137608,-0.00352901,0.00010705,-0.00008143,-0.00078765,-0.0001
 3603,-0.00007337,0.00090560,0.00110149,-0.00116924,-0.00001723,0.00015
 918,0.00042689,0.00002445,-0.00108953,0.00405637,0.00023667,-0.0003141
 4,-0.00057193,0.00034629,0.00008181,-0.00040390,-0.00286588,0.00007932
 ,-0.00018399,0.00066987,0.00000116,0.00000833,0.00023605,-0.00008671,0
 .00007510,-0.00097116,-0.01476477,0.02809796,0.00075204,0.00094864,-0.
 00565893,-0.00026830,0.00070668,0.00223052,0.00005417,1.63473304,0.003
 69428,0.01205365,0.00024847,-0.00600291,-0.00138706,0.00005326,0.00004
 824,0.00056298,0.00003653,-1.50670161,0.49658052,0.00044531,-0.0014892
 0,-0.00814879,-0.00017604,0.00037169,0.00037618,-0.00001594,0.00001308
 ,-0.00025520,-0.09883780,0.08859237,-0.20806925,0.01445056,-0.02316550
 ,-0.00087913,-0.00164039,0.00540923,0.00017656,-0.00135463,-0.00452814
 ,0.00004022,-1.56362971,1.57311762,0.12552860,1.54207675,-0.00233212,-
 0.00456170,-0.00020082,0.00474132,0.00297304,0.00004233,0.00103558,0.0
 0084179,0.00000111,1.56879188,-0.57754277,-0.09199428,-1.55079084,0.57
 639689,-0.00067694,0.00121706,0.00125425,0.00013995,-0.00024637,-0.000
 26839,0.00010130,0.00019680,0.00053334,0.12550194,-0.09206185,0.575846
 76,-0.12397636,0.09091812,-0.56746387,0.00344466,-0.00238637,0.0009925
 0,-0.00000913,0.00154097,0.00006382,-0.00019043,-0.00021144,0.00015073
 ,-0.01317533,-0.02870993,0.11588031,0.00492909,-0.01047457,0.00675124,
 0.00147492,-0.00100129,-0.00078231,-0.00072587,0.00049343,0.00018298,0
 .00029444,0.00007930,0.00036757,-0.00012451,-0.03949580,0.03241627,0.0
 7304384,0.00002779,0.00114125,-0.00177728,0.04083668,-0.03758401,-0.00
 155781,-0.00164659,0.00283426,-0.00015593,-0.00043301,-0.00025744,0.00
 032091,0.00017176,-0.00033862,0.12825690,0.05842660,-0.18760266,-0.006
 61039,0.00926804,-0.00481235,-0.12202733,-0.06823096,0.18909881,0.0034
 6145,-0.00222993,-0.00107832,0.00004073,0.00165234,0.00001782,-0.00023
 634,-0.00017403,-0.00019807,-0.04415805,-0.03528363,-0.14285823,0.0047
 9414,-0.01125668,-0.00782816,0.00347735,-0.00086590,0.00161388,0.03259
 191,-0.00096944,-0.00079803,0.00065743,0.00044674,0.00017837,-0.000309
 49,0.00009464,0.00040389,0.00014775,-0.04727857,0.03783968,-0.06851700
 ,0.00015792,0.00106356,0.00175686,-0.00056157,0.00403390,0.00271966,0.
 04818330,-0.04294479,0.00159305,0.00184138,0.00296319,0.00017096,0.000
 33222,-0.00026591,-0.00036554,-0.00022382,-0.00036195,-0.15544266,-0.0
 5529676,-0.17235700,0.00571407,-0.00802312,-0.00493870,-0.00174044,-0.
 00252561,0.00106712,0.15024495,0.06359729,0.17388894,0.00011062,0.0002
 1454,-0.00001159,-0.00013547,-0.00006558,0.00001235,0.00020082,-0.0001
 6133,-0.00003377,0.00015339,0.00016390,0.00000218,-0.00029771,0.000160
 31,0.00002694,-0.00001494,-0.00005319,0.00011520,-0.00002024,-0.000053
 42,-0.00012643,-0.00000516,0.00006097,-0.00008753,0.00000910,-0.000124
 99,-0.00001352,-0.00001005,0.00021291,0.00025890,0.00000823,-0.0007397
 3,-0.00008951,0.00004505,0.00071373,-0.00030367,-0.00006081,0.00005860
 ,0.00018197,-0.00022298,0.00005874,0.00019049,0.00024154,-0.00023779,-
 0.00020758,0.00006824,0.00004668,-0.00011886,-0.00003162,-0.00002831,-
 0.00000159,-0.00000257,-0.00001515,0.00006382,-0.00002221,0.00004059,0
 .00031129,-0.00003445,0.00000720,-0.00036647,0.00005411,-0.00010162,0.
 00014564,-0.00002913,0.00007564,0.00014427,-0.00000100,-0.00002218,-0.
 00033810,-0.00045562,0.00018193,0.00002747,0.00004548,0.00003361,0.000
 00229,0.00070277,-0.00023612,-0.00000705,-0.00081389,-0.00032595,0.000
 03160,0.00067190,0.00012512,-0.00003990,0.00006381,-0.00002102,0.00004
 458,0.00004905,-0.00001959,-0.00004797,0.00000869,-0.00000245,-0.00000
 138,-0.00027219,0.00051696,0.00047453,-0.00000338,-0.00012547,0.000008
 65,0.00000249,-0.00032443,-0.00015219,0.00003146,0.00075428,-0.0004337
 7,-0.00006557,-0.00094182,-0.00000838,0.00005748,-0.00009236,0.0000423
 9,-0.00005252,-0.00008421,0.00003292,0.00005687,0.00003257,0.00007043,
 -0.00000286,0.00026448,-0.00003458,-0.00010537,0.00003685,-0.00020684,
 0.00002047,-0.00000116,0.00006317,0.00004132,0.00001455,0.00042387,0.0
 0000592,-0.00003921,-0.00010133,0.00004088,-0.00001858,0.00021543,-0.0
 0012493,0.00014757,-0.00013476,0.00011525,-0.00012814,-0.00013996,0.00
 001611,0.00001209,0.00016001,-0.00000965,-0.00002397,-0.00027959,-0.01
 833691,-0.00116157,-0.01515623,-0.00024942,0.00025303,-0.00882496,0.00
 828184,-0.00417305,0.00013515,-0.00574837,0.00293857,0.00510900,-0.000
 02111,0.00055543,-0.00345070,0.00009089,-0.00002800,0.00107262,-0.0000
 7066,-0.00000787,-0.00005718,0.01105080,-0.01499817,-0.00011657,-0.006
 81259,-0.00099230,0.00008893,1.60889380,-0.01271619,0.00396191,-0.0000
 6471,0.00370890,-0.00097617,0.00003818,1.61608148,2.55385173,0.0000381
 9,-0.00002171,0.00012748,0.00003338,-0.00000247,0.00036515,-0.01365131
 ,0.00606190,-1.09631450,0.00283638,0.00175549,-0.00003805,-0.00048904,
 -0.00046398,-0.00002773,-0.00004272,0.00048294,-0.00000730,-0.00189439
 ,-0.00271272,0.00387806,-0.00002026,0.00025238,-0.00066502,-0.00000454
 ,0.00040660,-0.00265773,-0.00000750,0.00111864,-0.00471882,-0.00003455
 ,-0.00011976,0.00204059,-0.00004628,0.00002073,-0.00025171,-0.00003427
 ,0.00003856,-0.00195498,-0.00001838,0.00002256,-0.00020545,-0.00015690
 ,-0.00046954,0.00002450,0.00013136,-0.00006458,-0.00000783,-0.00032235
 ,0.00038729,-0.00000272,-0.00003139,-0.00004519,0.00002718,0.00036679,
 -0.00127171,-0.00098980,0.00004144,0.00023423,0.00017683,-0.00000323,0
 .00008351,0.00025977,-0.00002850,0.00060502,0.00065577,-0.00003576,0.0
 0016911,-0.00068154,0.00003336,0.00001788,0.00005823,-0.00000579,0.000
 00262,0.00002194,0.00002599,-0.00001150,0.00014623,0.00002203,0.000011
 76,0.00010227,-0.00004090,0.00000383,-0.00019609,0.00003640,-0.0003415
 0,-0.00026332,0.00008413,0.00012106,0.00007032,0.00009017,0.00002951,0
 .00003491,-0.00015514,0.00006734,0.00020179,-0.00000054,-0.00000863,-0
 .00000155,0.00015813,0.00036710,-0.00041107,-0.00052134,0.00005204,0.0
 0000637,0.00008214,-0.00016572,0.00016982,0.00036312,-0.00007492,0.000
 34311,-0.00015971,-0.00003659,-0.00002877,0.00018741,0.00000190,0.0001
 1855,0.00004908,0.00014592,0.00018083,-0.00012193,-0.00004671,-0.00006
 438,0.00003470,0.00019569,0.00014569,0.00012427,-0.00007604,-0.0001589
 0,-0.00003611,-0.00001055,0.00002319,-0.00009547,0.00005837,-0.0000402
 5,0.00002535,-0.00040681,0.00029504,0.00011335,0.00012798,-0.00008705,
 0.00009805,0.00003254,-0.00002956,-0.00016186,0.00004549,-0.00015480,0
 .00000320,-0.00001850,0.,-0.00003138,0.00006446,0.00000177,0.00019230,
 0.00043603,-0.00033819,0.00044397,0.00002041,-0.00000759,-0.00007831,-
 0.00022000,0.00018471,-0.00029154,-0.00011442,0.00032127,0.00017541,-0
 .00006270,-0.00001123,-0.00019091,0.00004604,0.00006352,0.00000668,0.0
 0006377,0.00007446,-0.00001341,-0.00015181,0.00017084,0.00012105,0.000
 04466,-0.00005973,-0.00006682,-0.00019090,0.00013799,-0.00009975,0.000
 10237,-0.00013709,0.00003924,0.00001478,0.00002273,0.00000506,-0.00002
 090,0.00003649,0.00005752,-0.00006915,-0.00006343,0.00062198,-0.002819
 55,0.00006479,0.00049295,0.00059286,0.00000715,-1.94515671,-0.74672305
 ,0.01567512,0.00085944,-0.00092460,0.00001963,0.00006480,-0.00010951,-
 0.00003679,-0.00010620,-0.00008549,-0.00003037,-0.00014515,-0.00004377
 ,0.00004999,1.93946958,0.01530093,0.00102744,-0.00007542,0.00117022,-0
 .00132723,-0.00003767,-0.71511773,0.17876494,0.00432492,-0.00263769,0.
 00041923,0.00004149,0.00037412,0.00066272,-0.00002895,-0.00001411,-0.0
 0021039,-0.00025456,-0.00000857,-0.00019317,0.00028518,0.74497859,-0.1
 8611050,0.00009848,0.00004822,0.00125928,-0.00001120,-0.00003610,0.000
 75349,0.01595879,0.00466243,0.46481943,0.00003462,-0.00001762,-0.00020
 918,-0.00001223,0.00000953,-0.00020953,0.00007870,0.00008612,-0.000052
 95,-0.00011187,-0.00004167,-0.00003718,-0.01583697,-0.00463619,-0.4749
 1968,-0.00435894,0.02261470,0.00014788,0.00394634,-0.00281502,-0.00006
 402,0.33220157,-0.86128342,-0.00209071,-0.00092127,0.00179205,0.000039
 69,-0.00005496,0.00031648,0.00000365,-0.00007557,-0.00012276,0.0000740
 5,-0.00009385,-0.00012536,-0.00009288,0.00389930,-0.04404577,-0.000198
 31,-0.33454261,-0.00118044,0.00291888,-0.00003559,-0.00182057,0.001134
 49,0.00003931,-0.88507766,-2.73355898,-0.01039822,-0.00067108,0.002424
 12,0.00001648,-0.00025191,-0.00004375,0.00000785,0.00009838,-0.0000511
 4,-0.00001881,0.00009964,-0.00009379,-0.00001423,0.00513453,0.00696695
 ,-0.00007472,0.88366910,2.72030321,-0.00001263,-0.00014377,0.00391510,
 -0.00003373,0.00004624,-0.00178021,-0.00223944,-0.01072965,0.63252752,
 0.00001030,-0.00001072,0.00077446,0.00000888,0.00000846,0.00003103,-0.
 00003044,-0.00007522,-0.00006973,0.00002896,0.00004552,-0.00007061,0.0
 0008745,0.00038120,0.00859633,0.00218065,0.01047793,-0.64392389,-0.024
 79064,0.01552274,-0.01864993,-0.00003322,0.00004285,0.00650841,0.00464
 498,-0.00648428,0.00015423,-0.00304069,0.00290817,0.00367666,-0.000022
 68,0.00151373,-0.00271925,0.00011433,-0.00001119,0.00047511,-0.0000958
 7,-0.00001748,-0.00053103,0.01505981,-0.02521713,-0.00026355,-0.004141
 60,-0.00080085,0.00005581,2.56481581,-0.03056022,0.00149459,0.00004693
 ,0.00247365,0.00217856,0.00006088,1.56730604,1.78089514,-0.00015669,0.
 00011704,-0.00606697,-0.00000764,0.00001453,-0.00165021,-0.02276730,0.
 00318273,-1.23915584,-0.00001429,0.00278016,0.00002001,0.00004978,-0.0
 0092360,-0.00003414,0.00291506,0.00138255,-0.00006743,-0.00110395,-0.0
 0328172,0.00234894,-0.00000606,0.00064108,-0.00035507,-0.00000331,0.00
 164220,-0.00256671,-0.00006239,0.00095442,-0.00249040,0.00002631,-0.00
 019637,-0.00013500,-0.00003076,0.00003819,0.00034782,-0.00008088,0.000
 02525,-0.00109064,-0.00000118,0.00004219,0.00020018,0.00019784,-0.0003
 1004,0.00001773,0.00002976,0.00008638,-0.00000316,-0.00088067,0.000449
 29,0.00001550,0.00012774,-0.00011842,-0.00001152,0.00003068,-0.0000985
 7,-0.00062472,0.00001915,-0.00003790,0.00023019,0.00000711,-0.00060461
 ,-0.00024388,-0.00002879,0.00016633,0.00025909,-0.00002358,-0.00004075
 ,-0.00025764,-0.00000163,0.00004009,-0.00020019,-0.00000893,-0.0000017
 7,0.00001827,0.00008531,-0.00000055,0.00058035,-0.00000209,-0.00000418
 ,-0.00009516,-0.00001097,0.00000310,-0.00000508,0.00004553,-0.00021238
 ,-0.00003179,0.00004266,0.00003404,0.00001604,0.00007414,0.00006341,-0
 .00011321,-0.00000185,0.00004995,0.00018471,0.00000112,0.00000300,-0.0
 0005013,0.00007814,0.00020048,-0.00006933,0.00003196,-0.00002529,-0.00
 006621,-0.00006344,0.00002706,0.00031133,-0.00018287,-0.00005082,0.000
 18451,-0.00003142,-0.00000132,-0.00001222,0.00008805,0.00008971,-0.000
 20397,-0.00009375,-0.00004333,-0.00004078,-0.00000963,0.00000022,-0.00
 002345,0.00027162,0.00013983,0.00027678,0.00020812,-0.00004704,0.00000
 836,-0.00003554,0.00001022,0.00001955,-0.00012191,0.00006149,-0.000059
 96,0.00003833,-0.00021251,0.00000983,0.00005608,0.00003002,-0.00002401
 ,0.00007002,0.00006336,0.00018053,-0.00003297,0.00003197,-0.00012662,0
 .00000862,-0.00000216,0.00004837,-0.00003489,0.00002701,0.00000201,0.0
 0011915,0.00021913,-0.00004341,-0.00007620,-0.00004614,-0.00006994,0.0
 0005958,0.00007040,0.00034884,0.00021318,-0.00005804,0.00016806,0.0000
 6866,-0.00001923,0.00000040,-0.00009461,0.00001074,0.00005445,0.000000
 87,0.00013193,-0.00025703,0.00012914,0.00005993,-0.00001832,-0.0000002
 8,-0.00000400,-0.00002329,-0.00031271,-0.00013839,0.00024661,-0.000189
 89,0.00007717,0.00002243,0.00003820,-0.00000812,0.00001640,0.00000630,
 -0.00001134,0.00002718,0.00008234,-0.00009129,-0.00008082,0.00741256,0
 .00310971,0.00005435,0.00070343,-0.00232249,0.00000532,-2.94484350,-0.
 94634424,0.02467899,-0.00113723,-0.00047747,0.00007097,0.00012929,0.00
 018346,-0.00006732,-0.00012382,-0.00035486,-0.00005982,-0.00017340,-0.
 00037929,0.00006015,2.93998640,0.01236123,0.00253221,-0.00002991,0.002
 18259,-0.00085816,-0.00004532,-0.95118428,0.42647114,0.00616975,-0.002
 05276,0.00054516,0.00001986,0.00010633,0.00046794,-0.00001564,-0.00011
 835,0.00002799,-0.00019829,-0.00012399,0.00008028,0.00023261,0.9366755
 4,-0.42449507,0.00002332,0.00000018,-0.00110940,0.00000031,-0.00001066
 ,0.00227889,0.02479482,0.00616612,0.71840631,0.00009996,0.00000650,0.0
 0012466,-0.00001817,0.00000851,-0.00041669,0.00017812,0.00004684,-0.00
 023084,-0.00025979,0.00001128,-0.00020436,-0.02477827,-0.00616796,-0.7
 1122945,-0.00259412,0.01102372,0.00007241,0.00165558,-0.00052540,-0.00
 003433,0.36693094,-0.59483385,-0.00176276,-0.00080230,0.00055798,-0.00
 003103,0.00035562,0.00043120,0.00000739,-0.00008103,0.00008804,-0.0001
 6108,-0.00005094,0.00007050,0.00018675,-0.00195372,0.00215369,-0.00004
 031,-0.36346003,0.00272876,0.00933499,-0.00000604,-0.00021745,-0.00201
 677,0.00001318,-0.59123883,-2.20888902,-0.00942317,-0.00219825,0.00190
 641,0.00005722,-0.00015223,0.00018085,-0.00001450,0.00007988,-0.000226
 54,0.00007602,0.00005436,-0.00028164,-0.00011658,0.00990963,-0.0047715
 0,-0.00006081,0.58103412,2.20476322,-0.00000781,-0.00000920,0.00058713
 ,-0.00000143,0.00000365,-0.00089208,-0.00178311,-0.00948280,0.52845361
 ,-0.00003337,-0.00000288,0.00061737,0.00000795,0.00001240,0.00008255,-
 0.00006815,0.00006074,0.00002316,0.00008733,-0.00009148,0.00001418,0.0
 0003563,0.00003491,-0.00761912,0.00176296,0.00947467,-0.52126679\\@
 The archive entry for this job was punched.


 REFRAIN FROM ILLUSIONS, INSIST ON WORK AND NOT WORDS,
 PATIENTLY SEEK DIVINE AND SCIENTIFIC TRUTH.
 LAST WORDS OF MARIA MENDELEEVA TO HER SON DMITRI, C. 1850
 Job cpu time:       1 days  5 hours 35 minutes 42.9 seconds.
 Elapsed time:       0 days  0 hours 45 minutes 21.0 seconds.
 File lengths (MBytes):  RWF=   1741 Int=      0 D2E=      0 Chk=     43 Scr=      1
 Normal termination of Gaussian 16 at Sat Mar 29 14:29:30 2025.
