 Entering Gaussian System, Link 0=g16
 Input=az_mp2_avtz_opt_anharm.gjf
 Output=az_mp2_avtz_opt_anharm.log
 Initial command:
 /sw/contrib/gaussian/g16/A03/g16/l1.exe "/gscratch/scrubbed/gds001/Gau-29877.inp" -scrdir="/gscratch/scrubbed/gds001/"
 Entering Link 1 = /sw/contrib/gaussian/g16/A03/g16/l1.exe PID=     29878.
  
 Copyright (c) 1988,1990,1992,1993,1995,1998,2003,2009,2016,
            Gaussian, Inc.  All Rights Reserved.
  
 This is part of the Gaussian(R) 16 program.  It is based on
 the Gaussian(R) 09 system (copyright 2009, Gaussian, Inc.),
 the Gaussian(R) 03 system (copyright 2003, Gaussian, Inc.),
 the Gaussian(R) 98 system (copyright 1998, Gaussian, Inc.),
 the Gaussian(R) 94 system (copyright 1995, Gaussian, Inc.),
 the Gaussian 92(TM) system (copyright 1992, Gaussian, Inc.),
 the Gaussian 90(TM) system (copyright 1990, Gaussian, Inc.),
 the Gaussian 88(TM) system (copyright 1988, Gaussian, Inc.),
 the Gaussian 86(TM) system (copyright 1986, Carnegie Mellon
 University), and the Gaussian 82(TM) system (copyright 1983,
 Carnegie Mellon University). Gaussian is a federally registered
 trademark of Gaussian, Inc.
  
 This software contains proprietary and confidential information,
 including trade secrets, belonging to Gaussian, Inc.
  
 This software is provided under written license and may be
 used, copied, transmitted, or stored only in accord with that
 written license.
  
 The following legend is applicable only to US Government
 contracts under FAR:
  
                    RESTRICTED RIGHTS LEGEND
  
 Use, reproduction and disclosure by the US Government is
 subject to restrictions as set forth in subparagraphs (a)
 and (c) of the Commercial Computer Software - Restricted
 Rights clause in FAR 52.227-19.
  
 Gaussian, Inc.
 340 Quinnipiac St., Bldg. 40, Wallingford CT 06492
  
  
 ---------------------------------------------------------------
 Warning -- This program may not be used in any manner that
 competes with the business of Gaussian, Inc. or will provide
 assistance to any competitor of Gaussian, Inc.  The licensee
 of this program is prohibited from giving any competitor of
 Gaussian, Inc. access to this program.  By using this program,
 the user acknowledges that Gaussian, Inc. is engaged in the
 business of creating and licensing software in the field of
 computational chemistry and represents and warrants to the
 licensee that it is not a competitor of Gaussian, Inc. and that
 it will not use this program in any manner prohibited above.
 ---------------------------------------------------------------
  

 Cite this work as:
 Gaussian 16, Revision A.03,
 M. J. Frisch, G. W. Trucks, H. B. Schlegel, G. E. Scuseria, 
 M. A. Robb, J. R. Cheeseman, G. Scalmani, V. Barone, 
 G. A. Petersson, H. Nakatsuji, X. Li, M. Caricato, A. V. Marenich, 
 J. Bloino, B. G. Janesko, R. Gomperts, B. Mennucci, H. P. Hratchian, 
 J. V. Ortiz, A. F. Izmaylov, J. L. Sonnenberg, D. Williams-Young, 
 F. Ding, F. Lipparini, F. Egidi, J. Goings, B. Peng, A. Petrone, 
 T. Henderson, D. Ranasinghe, V. G. Zakrzewski, J. Gao, N. Rega, 
 G. Zheng, W. Liang, M. Hada, M. Ehara, K. Toyota, R. Fukuda, 
 J. Hasegawa, M. Ishida, T. Nakajima, Y. Honda, O. Kitao, H. Nakai, 
 T. Vreven, K. Throssell, J. A. Montgomery, Jr., J. E. Peralta, 
 F. Ogliaro, M. J. Bearpark, J. J. Heyd, E. N. Brothers, K. N. Kudin, 
 V. N. Staroverov, T. A. Keith, R. Kobayashi, J. Normand, 
 K. Raghavachari, A. P. Rendell, J. C. Burant, S. S. Iyengar, 
 J. Tomasi, M. Cossi, J. M. Millam, M. Klene, C. Adamo, R. Cammi, 
 J. W. Ochterski, R. L. Martin, K. Morokuma, O. Farkas, 
 J. B. Foresman, and D. J. Fox, Gaussian, Inc., Wallingford CT, 2016.
 
 ******************************************
 Gaussian 16:  ES64L-G16RevA.03 25-Dec-2016
                20-Dec-2021 
 ******************************************
 %nprocshared=28
 Will use up to   28 processors via shared memory.
 %mem=41GB
 ----------------------------------------------
 # MP2/aug-cc-pVTZ opt freq=(vibrot,anharmonic)
 ----------------------------------------------
 1/18=20,19=15,38=1,80=1/1,3;
 2/9=110,12=2,17=6,18=5,40=1/2;
 3/5=16,6=1,7=10,11=9,25=1,30=1,71=1/1,2,3;
 4//1;
 5/5=2,38=5/2;
 8/6=4,10=1/1;
 9/15=2,16=-3/6;
 10/5=1/2;
 6/7=2,8=2,9=2,10=2/1;
 7/12=2/1,2,3,16;
 1/18=20,19=15,80=1/3(2);
 2/9=110/2;
 99//99;
 2/9=110/2;
 3/5=16,6=1,7=10,11=9,25=1,30=1,71=1/1,2,3;
 4/5=5,16=3,69=1/1;
 5/5=2,38=5/2;
 8/6=4,10=1/1;
 9/15=2,16=-3/6;
 10/5=1/2;
 7/12=2/1,2,3,16;
 1/18=20,19=15,80=1/3(-8);
 2/9=110/2;
 6/7=2,8=2,9=2,10=2/1;
 99//99;
 ----
 bleh
 ----
 Symbolic Z-matrix:
 Charge =  0 Multiplicity = 1
 N                     0.00001   0.86928  -0.17388 
 H                     0.00002   1.38748   0.70846 
 C                    -0.74594  -0.40479   0.02334 
 C                     0.74593  -0.40481   0.02334 
 H                    -1.28421  -0.74555  -0.86261 
 H                    -1.25595  -0.56185   0.97693 
 H                     1.25594  -0.56187   0.97693 
 H                     1.2842   -0.74557  -0.86261 
 

 GradGradGradGradGradGradGradGradGradGradGradGradGradGradGradGradGradGrad
 Berny optimization.
 Initialization pass.
                           ----------------------------
                           !    Initial Parameters    !
                           ! (Angstroms and Degrees)  !
 --------------------------                            --------------------------
 ! Name  Definition              Value          Derivative Info.                !
 --------------------------------------------------------------------------------
 ! R1    R(1,2)                  1.0233         estimate D2E/DX2                !
 ! R2    R(1,3)                  1.4895         estimate D2E/DX2                !
 ! R3    R(1,4)                  1.4895         estimate D2E/DX2                !
 ! R4    R(3,4)                  1.4919         estimate D2E/DX2                !
 ! R5    R(3,5)                  1.0912         estimate D2E/DX2                !
 ! R6    R(3,6)                  1.0927         estimate D2E/DX2                !
 ! R7    R(4,7)                  1.0928         estimate D2E/DX2                !
 ! R8    R(4,8)                  1.0912         estimate D2E/DX2                !
 ! A1    A(2,1,3)              108.603          estimate D2E/DX2                !
 ! A2    A(2,1,4)              108.6027         estimate D2E/DX2                !
 ! A3    A(1,3,5)              113.9941         estimate D2E/DX2                !
 ! A4    A(1,3,6)              118.1787         estimate D2E/DX2                !
 ! A5    A(4,3,5)              119.5558         estimate D2E/DX2                !
 ! A6    A(4,3,6)              117.8217         estimate D2E/DX2                !
 ! A7    A(5,3,6)              115.6829         estimate D2E/DX2                !
 ! A8    A(1,4,7)              118.1786         estimate D2E/DX2                !
 ! A9    A(1,4,8)              113.9939         estimate D2E/DX2                !
 ! A10   A(3,4,7)              117.8217         estimate D2E/DX2                !
 ! A11   A(3,4,8)              119.5559         estimate D2E/DX2                !
 ! A12   A(7,4,8)              115.6829         estimate D2E/DX2                !
 ! D1    D(2,1,3,5)            147.2853         estimate D2E/DX2                !
 ! D2    D(2,1,3,6)              6.3335         estimate D2E/DX2                !
 ! D3    D(2,1,4,7)             -6.3331         estimate D2E/DX2                !
 ! D4    D(2,1,4,8)           -147.2847         estimate D2E/DX2                !
 ! D5    D(5,3,4,7)           -149.6089         estimate D2E/DX2                !
 ! D6    D(5,3,4,8)              0.0002         estimate D2E/DX2                !
 ! D7    D(6,3,4,7)             -0.0001         estimate D2E/DX2                !
 ! D8    D(6,3,4,8)            149.609          estimate D2E/DX2                !
 --------------------------------------------------------------------------------
 Trust Radius=3.00D-01 FncErr=1.00D-07 GrdErr=1.00D-07 EigMax=2.50D+02 EigMin=1.00D-04
 Number of steps in this run=     38 maximum allowed number of steps=    100.
 GradGradGradGradGradGradGradGradGradGradGradGradGradGradGradGradGradGrad

                          Input orientation:                          
 ---------------------------------------------------------------------
 Center     Atomic      Atomic             Coordinates (Angstroms)
 Number     Number       Type             X           Y           Z
 ---------------------------------------------------------------------
      1          7           0        0.000010    0.869278   -0.173883
      2          1           0        0.000021    1.387481    0.708463
      3          6           0       -0.745941   -0.404791    0.023341
      4          6           0        0.745931   -0.404807    0.023340
      5          1           0       -1.284212   -0.745548   -0.862609
      6          1           0       -1.255952   -0.561846    0.976926
      7          1           0        1.255941   -0.561871    0.976925
      8          1           0        1.284195   -0.745572   -0.862610
 ---------------------------------------------------------------------
                    Distance matrix (angstroms):
                    1          2          3          4          5
     1  N    0.000000
     2  H    1.023264   0.000000
     3  C    1.489494   2.058662   0.000000
     4  C    1.489492   2.058658   1.491872   0.000000
     5  H    2.175140   2.944034   1.091219   2.241091   0.000000
     6  H    2.224841   2.334398   1.092750   2.222954   1.848901
     7  H    2.224839   2.334391   2.222955   1.092750   3.141656
     8  H    2.175136   2.944026   2.241092   1.091218   2.568407
                    6          7          8
     6  H    0.000000
     7  H    2.511893   0.000000
     8  H    3.141655   1.848901   0.000000
 Stoichiometry    C2H5N
 Framework group  C1[X(C2H5N)]
 Deg. of freedom    18
 Full point group                 C1      NOp   1
 Largest Abelian subgroup         C1      NOp   1
 Largest concise Abelian subgroup C1      NOp   1
                         Standard orientation:                         
 ---------------------------------------------------------------------
 Center     Atomic      Atomic             Coordinates (Angstroms)
 Number     Number       Type             X           Y           Z
 ---------------------------------------------------------------------
      1          7           0        0.000010    0.869278   -0.173883
      2          1           0        0.000020    1.387481    0.708463
      3          6           0       -0.745941   -0.404791    0.023341
      4          6           0        0.745931   -0.404807    0.023340
      5          1           0       -1.284212   -0.745548   -0.862609
      6          1           0       -1.255952   -0.561846    0.976926
      7          1           0        1.255941   -0.561871    0.976925
      8          1           0        1.284195   -0.745572   -0.862610
 ---------------------------------------------------------------------
 Rotational constants (GHZ):          22.4392801          20.9607392          13.2552089
 Standard basis: Aug-CC-pVTZ (5D, 7F)
 There are   290 symmetry adapted cartesian basis functions of A   symmetry.
 There are   253 symmetry adapted basis functions of A   symmetry.
   253 basis functions,   351 primitive gaussians,   290 cartesian basis functions
    12 alpha electrons       12 beta electrons
       nuclear repulsion energy        75.5123254028 Hartrees.
 NAtoms=    8 NActive=    8 NUniq=    8 SFac= 1.00D+00 NAtFMM=   60 NAOKFM=F Big=F
 Integral buffers will be    131072 words long.
 Raffenetti 1 integral format.
 Two-electron integral symmetry is turned on.
 One-electron integrals computed using PRISM.
 NBasis=   253 RedAO= T EigKep=  1.49D-05  NBF=   253
 NBsUse=   253 1.00D-06 EigRej= -1.00D+00 NBFU=   253
 ExpMin= 2.53D-02 ExpMax= 1.14D+04 ExpMxC= 3.89D+02 IAcc=3 IRadAn=         5 AccDes= 0.00D+00
 Harris functional with IExCor=  205 and IRadAn=       5 diagonalized for initial guess.
 HarFok:  IExCor=  205 AccDes= 0.00D+00 IRadAn=         5 IDoV= 1 UseB2=F ITyADJ=14
 ICtDFT=  3500011 ScaDFX=  1.000000  1.000000  1.000000  1.000000
 FoFCou: FMM=F IPFlag=           0 FMFlag=      100000 FMFlg1=           0
         NFxFlg=           0 DoJE=T BraDBF=F KetDBF=T FulRan=T
         wScrn=  0.000000 ICntrl=       500 IOpCl=  0 I1Cent=   200000004 NGrid=           0
         NMat0=    1 NMatS0=      1 NMatT0=    0 NMatD0=    1 NMtDS0=    0 NMtDT0=    0
 Petite list used in FoFCou.
 Keep R1 ints in memory in canonical form, NReq=530241007.
 Requested convergence on RMS density matrix=1.00D-08 within 128 cycles.
 Requested convergence on MAX density matrix=1.00D-06.
 Requested convergence on             energy=1.00D-06.
 No special actions if energy rises.
 SCF Done:  E(RHF) =  -133.089426975     A.U. after   11 cycles
            NFock= 11  Conv=0.26D-08     -V/T= 2.0028
 ExpMin= 2.53D-02 ExpMax= 1.14D+04 ExpMxC= 3.89D+02 IAcc=3 IRadAn=         5 AccDes= 0.00D+00
 HarFok:  IExCor=  205 AccDes= 0.00D+00 IRadAn=         5 IDoV=-2 UseB2=F ITyADJ=14
 ICtDFT= 12500011 ScaDFX=  1.000000  1.000000  1.000000  1.000000
 Range of M.O.s used for correlation:     4   253
 NBasis=   253 NAE=    12 NBE=    12 NFC=     3 NFV=     0
 NROrb=    250 NOA=     9 NOB=     9 NVA=   241 NVB=   241

 **** Warning!!: The largest alpha MO coefficient is  0.60096217D+02

 Fully direct method using O(ONN) memory.
 JobTyp=1 Pass  1:  I=   4 to  12 NPSUse= 28 ParTrn=T ParDer=T DoDerP=T.
 Spin components of T(2) and E(2):
     alpha-alpha T2 =       0.2138465737D-01 E2=     -0.6518624977D-01
     alpha-beta  T2 =       0.1300596274D+00 E2=     -0.4322643311D+00
     beta-beta   T2 =       0.2138465737D-01 E2=     -0.6518624977D-01
 ANorm=    0.1082972272D+01
 E2 =    -0.5626368306D+00 EUMP2 =    -0.13365206380604D+03
          IDoAtm=11111111
          Differentiating once with respect to electric field.
                with respect to dipole field.
          Differentiating once with respect to nuclear coordinates.
 Keep R1 ints in memory in canonical form, NReq=530244555.
          There are     1 degrees of freedom in the 1st order CPHF.  IDoFFX=0 NUNeed=     1.
 LinEq1:  Iter=  0 NonCon=     1 RMS=2.62D-03 Max=2.42D-02 NDo=     1
 AX will form     1 AO Fock derivatives at one time.
 LinEq1:  Iter=  1 NonCon=     1 RMS=7.63D-04 Max=8.05D-03 NDo=     1
 LinEq1:  Iter=  2 NonCon=     1 RMS=2.10D-04 Max=2.13D-03 NDo=     1
 LinEq1:  Iter=  3 NonCon=     1 RMS=4.62D-05 Max=4.75D-04 NDo=     1
 LinEq1:  Iter=  4 NonCon=     1 RMS=9.31D-06 Max=1.31D-04 NDo=     1
 LinEq1:  Iter=  5 NonCon=     1 RMS=2.72D-06 Max=2.60D-05 NDo=     1
 LinEq1:  Iter=  6 NonCon=     1 RMS=1.14D-06 Max=1.86D-05 NDo=     1
 LinEq1:  Iter=  7 NonCon=     1 RMS=2.27D-07 Max=2.08D-06 NDo=     1
 LinEq1:  Iter=  8 NonCon=     1 RMS=5.13D-08 Max=5.36D-07 NDo=     1
 LinEq1:  Iter=  9 NonCon=     1 RMS=8.24D-09 Max=7.38D-08 NDo=     1
 LinEq1:  Iter= 10 NonCon=     1 RMS=1.58D-09 Max=1.33D-08 NDo=     1
 LinEq1:  Iter= 11 NonCon=     1 RMS=2.70D-10 Max=2.34D-09 NDo=     1
 LinEq1:  Iter= 12 NonCon=     0 RMS=4.22D-11 Max=4.13D-10 NDo=     1
 Linear equations converged to 1.000D-10 1.000D-09 after    12 iterations.
 End of Minotr F.D. properties file   721 does not exist.
 End of Minotr F.D. properties file   722 does not exist.
 End of Minotr F.D. properties file   788 does not exist.

 **********************************************************************

            Population analysis using the SCF density.

 **********************************************************************

 Orbital symmetries:
       Occupied  (A) (A) (A) (A) (A) (A) (A) (A) (A) (A) (A) (A)
       Virtual   (A) (A) (A) (A) (A) (A) (A) (A) (A) (A) (A) (A)
                 (A) (A) (A) (A) (A) (A) (A) (A) (A) (A) (A) (A)
                 (A) (A) (A) (A) (A) (A) (A) (A) (A) (A) (A) (A)
                 (A) (A) (A) (A) (A) (A) (A) (A) (A) (A) (A) (A)
                 (A) (A) (A) (A) (A) (A) (A) (A) (A) (A) (A) (A)
                 (A) (A) (A) (A) (A) (A) (A) (A) (A) (A) (A) (A)
                 (A) (A) (A) (A) (A) (A) (A) (A) (A) (A) (A) (A)
                 (A) (A) (A) (A) (A) (A) (A) (A) (A) (A) (A) (A)
                 (A) (A) (A) (A) (A) (A) (A) (A) (A) (A) (A) (A)
                 (A) (A) (A) (A) (A) (A) (A) (A) (A) (A) (A) (A)
                 (A) (A) (A) (A) (A) (A) (A) (A) (A) (A) (A) (A)
                 (A) (A) (A) (A) (A) (A) (A) (A) (A) (A) (A) (A)
                 (A) (A) (A) (A) (A) (A) (A) (A) (A) (A) (A) (A)
                 (A) (A) (A) (A) (A) (A) (A) (A) (A) (A) (A) (A)
                 (A) (A) (A) (A) (A) (A) (A) (A) (A) (A) (A) (A)
                 (A) (A) (A) (A) (A) (A) (A) (A) (A) (A) (A) (A)
                 (A) (A) (A) (A) (A) (A) (A) (A) (A) (A) (A) (A)
                 (A) (A) (A) (A) (A) (A) (A) (A) (A) (A) (A) (A)
                 (A) (A) (A) (A) (A) (A) (A) (A) (A) (A) (A) (A)
                 (A) (A) (A) (A) (A) (A) (A) (A) (A) (A) (A) (A)
                 (A)
 The electronic state is 1-A.
 Alpha  occ. eigenvalues --  -15.56172 -11.26041 -11.25969  -1.24590  -0.89307
 Alpha  occ. eigenvalues --   -0.83617  -0.69291  -0.63186  -0.52897  -0.47808
 Alpha  occ. eigenvalues --   -0.47333  -0.39533
 Alpha virt. eigenvalues --    0.02939   0.04020   0.04079   0.04753   0.06031
 Alpha virt. eigenvalues --    0.09385   0.09786   0.10049   0.11871   0.13335
 Alpha virt. eigenvalues --    0.13958   0.14881   0.16462   0.16494   0.17962
 Alpha virt. eigenvalues --    0.19402   0.23159   0.25087   0.25676   0.25778
 Alpha virt. eigenvalues --    0.26061   0.28154   0.28754   0.29547   0.30473
 Alpha virt. eigenvalues --    0.34092   0.35076   0.36592   0.36799   0.36817
 Alpha virt. eigenvalues --    0.37607   0.39185   0.39974   0.40328   0.41601
 Alpha virt. eigenvalues --    0.42195   0.43321   0.43961   0.44392   0.46429
 Alpha virt. eigenvalues --    0.48161   0.49168   0.49545   0.51233   0.51660
 Alpha virt. eigenvalues --    0.52197   0.53343   0.54016   0.59599   0.60610
 Alpha virt. eigenvalues --    0.61688   0.61984   0.64170   0.64238   0.68688
 Alpha virt. eigenvalues --    0.76066   0.76225   0.79117   0.80259   0.80485
 Alpha virt. eigenvalues --    0.82430   0.85367   0.85893   0.88946   0.89223
 Alpha virt. eigenvalues --    0.89610   0.91604   0.92864   0.95067   0.95607
 Alpha virt. eigenvalues --    0.95910   0.98510   0.99392   1.00801   1.03429
 Alpha virt. eigenvalues --    1.04265   1.04868   1.04884   1.05886   1.08815
 Alpha virt. eigenvalues --    1.09274   1.10959   1.11748   1.12219   1.14495
 Alpha virt. eigenvalues --    1.16008   1.17083   1.21580   1.22526   1.23504
 Alpha virt. eigenvalues --    1.25656   1.27811   1.28656   1.30291   1.34266
 Alpha virt. eigenvalues --    1.38711   1.39361   1.41163   1.46223   1.46483
 Alpha virt. eigenvalues --    1.47448   1.50601   1.51830   1.53602   1.58778
 Alpha virt. eigenvalues --    1.59363   1.59860   1.60781   1.63194   1.65291
 Alpha virt. eigenvalues --    1.69929   1.71203   1.75654   1.76297   1.83625
 Alpha virt. eigenvalues --    1.84506   1.85687   1.87460   1.92597   1.93604
 Alpha virt. eigenvalues --    1.94914   1.95672   1.97521   2.00190   2.02028
 Alpha virt. eigenvalues --    2.05846   2.08523   2.11591   2.13443   2.14292
 Alpha virt. eigenvalues --    2.17592   2.19641   2.22609   2.28390   2.30204
 Alpha virt. eigenvalues --    2.32408   2.37175   2.37863   2.38945   2.43362
 Alpha virt. eigenvalues --    2.47137   2.50600   2.57987   2.58251   2.59825
 Alpha virt. eigenvalues --    2.60998   2.70868   2.77411   3.07262   3.16381
 Alpha virt. eigenvalues --    3.27660   3.28269   3.41760   3.41788   3.49825
 Alpha virt. eigenvalues --    3.50968   3.52645   3.56268   3.59313   3.60102
 Alpha virt. eigenvalues --    3.62785   3.62979   3.69717   3.73979   3.76084
 Alpha virt. eigenvalues --    3.77130   3.81456   3.86886   3.87209   3.90972
 Alpha virt. eigenvalues --    3.96912   3.99589   4.02877   4.02953   4.03244
 Alpha virt. eigenvalues --    4.05870   4.08098   4.10836   4.14610   4.22765
 Alpha virt. eigenvalues --    4.22973   4.25740   4.27313   4.33718   4.38642
 Alpha virt. eigenvalues --    4.44654   4.44776   4.48276   4.48700   4.55640
 Alpha virt. eigenvalues --    4.61928   4.64916   4.72470   4.76507   4.79873
 Alpha virt. eigenvalues --    4.80230   4.81670   4.84121   4.88092   4.90999
 Alpha virt. eigenvalues --    4.98358   4.98475   4.98770   5.05929   5.13096
 Alpha virt. eigenvalues --    5.15269   5.16183   5.22563   5.22880   5.26537
 Alpha virt. eigenvalues --    5.31556   5.35008   5.39991   5.41496   5.46746
 Alpha virt. eigenvalues --    5.53515   5.62242   5.66682   5.66885   5.71510
 Alpha virt. eigenvalues --    5.79795   5.81487   5.93953   6.02674   6.06579
 Alpha virt. eigenvalues --    6.11056   6.21543   6.23507   6.29464   6.29866
 Alpha virt. eigenvalues --    6.52274   6.55702   6.55952   6.66555   6.74856
 Alpha virt. eigenvalues --    6.76397   6.91629   7.30944  15.53232  16.84791
 Alpha virt. eigenvalues --   17.05974
          Condensed to atoms (all electrons):
               1          2          3          4          5          6
     1  N    7.266703   0.185244   0.064074   0.064072  -0.037958  -0.011815
     2  H    0.185244   0.641917   0.009813   0.009813   0.004173   0.006143
     3  C    0.064074   0.009813   5.492456   0.362223   0.353231   0.368256
     4  C    0.064072   0.009813   0.362223   5.492456  -0.020767  -0.011279
     5  H   -0.037958   0.004173   0.353231  -0.020767   0.253731   0.022738
     6  H   -0.011815   0.006143   0.368256  -0.011279   0.022738   0.248103
     7  H   -0.011815   0.006143  -0.011279   0.368257   0.002081   0.002795
     8  H   -0.037957   0.004173  -0.020767   0.353230   0.003762   0.002081
               7          8
     1  N   -0.011815  -0.037957
     2  H    0.006143   0.004173
     3  C   -0.011279  -0.020767
     4  C    0.368257   0.353230
     5  H    0.002081   0.003762
     6  H    0.002795   0.002081
     7  H    0.248103   0.022738
     8  H    0.022738   0.253732
 Mulliken charges:
               1
     1  N   -0.480548
     2  H    0.132582
     3  C   -0.618006
     4  C   -0.618003
     5  H    0.419009
     6  H    0.372979
     7  H    0.372977
     8  H    0.419009
 Sum of Mulliken charges =  -0.00000
 Mulliken charges with hydrogens summed into heavy atoms:
               1
     1  N   -0.347966
     3  C    0.173982
     4  C    0.173984
 Electronic spatial extent (au):  <R**2>=            143.7258
 Charge=             -0.0000 electrons
 Dipole moment (field-independent basis, Debye):
    X=             -0.0000    Y=             -1.0867    Z=              1.5269  Tot=              1.8741
 Quadrupole moment (field-independent basis, Debye-Ang):
   XX=            -18.6178   YY=            -21.0036   ZZ=            -18.3820
   XY=             -0.0000   XZ=              0.0000   YZ=              2.7178
 Traceless Quadrupole moment (field-independent basis, Debye-Ang):
   XX=              0.7166   YY=             -1.6691   ZZ=              0.9525
   XY=             -0.0000   XZ=              0.0000   YZ=              2.7178
 Octapole moment (field-independent basis, Debye-Ang**2):
  XXX=             -0.0000  YYY=              1.9575  ZZZ=              1.8879  XYY=              0.0001
  XXY=             -1.3130  XXZ=              0.1625  XZZ=             -0.0000  YZZ=             -0.7222
  YYZ=              3.3246  XYZ=              0.0000
 Hexadecapole moment (field-independent basis, Debye-Ang**3):
 XXXX=            -83.2641 YYYY=            -74.0404 ZZZZ=            -35.4432 XXXY=              0.0000
 XXXZ=              0.0000 YYYX=              0.0000 YYYZ=              6.6823 ZZZX=              0.0000
 ZZZY=              3.4878 XXYY=            -25.8199 XXZZ=            -17.1156 YYZZ=            -17.9873
 XXYZ=              0.9228 YYXZ=              0.0001 ZZXY=             -0.0000
 N-N= 7.551232540281D+01 E-N=-4.614111878547D+02  KE= 1.327225564500D+02
 Calling FoFJK, ICntrl=  10002127 FMM=F ISym2X=0 I1Cent= 0 IOpClX= 0 NMat=1 NMatS=1 NMatT=0.
 ***** Axes restored to original set *****
 -------------------------------------------------------------------
 Center     Atomic                   Forces (Hartrees/Bohr)
 Number     Number              X              Y              Z
 -------------------------------------------------------------------
      1        7          -0.000000272   -0.006898462    0.006773214
      2        1          -0.000000531   -0.003738855   -0.005428164
      3        6           0.002910227    0.001677511   -0.000132102
      4        6          -0.002909438    0.001677421   -0.000131550
      5        1           0.004239696    0.002451539    0.006384465
      6        1           0.003997857    0.001189971   -0.006924723
      7        1          -0.003998118    0.001189927   -0.006925172
      8        1          -0.004239420    0.002450949    0.006384032
 -------------------------------------------------------------------
 Cartesian Forces:  Max     0.006925172 RMS     0.004181795

 GradGradGradGradGradGradGradGradGradGradGradGradGradGradGradGradGradGrad
 Berny optimization.
 FormGI is forming the generalized inverse of G from B-inverse, IUseBI=4.
 Internal  Forces:  Max     0.008080267 RMS     0.003987619
 Search for a local minimum.
 Step number   1 out of a maximum of   38
 All quantities printed in internal units (Hartrees-Bohrs-Radians)
 Mixed Optimization -- RFO/linear search
 Second derivative matrix not updated -- first step.
 ITU=  0
     Eigenvalues ---    0.02135   0.03306   0.03649   0.03652   0.04906
     Eigenvalues ---    0.12148   0.12324   0.16000   0.16000   0.16000
     Eigenvalues ---    0.30105   0.31757   0.33427   0.34497   0.34497
     Eigenvalues ---    0.34672   0.34672   0.43821
 RFO step:  Lambda=-1.27766436D-03 EMin= 2.13533442D-02
 Linear search not attempted -- first point.
 Iteration  1 RMS(Cart)=  0.01399051 RMS(Int)=  0.00002141
 Iteration  2 RMS(Cart)=  0.00001908 RMS(Int)=  0.00000245
 Iteration  3 RMS(Cart)=  0.00000000 RMS(Int)=  0.00000245
 Variable       Old X    -DE/DX   Delta X   Delta X   Delta X     New X
                                 (Linear)    (Quad)   (Total)
    R1        1.93369  -0.00657   0.00000  -0.01496  -0.01496   1.91873
    R2        2.81474  -0.00621   0.00000  -0.01832  -0.01832   2.79641
    R3        2.81473  -0.00621   0.00000  -0.01832  -0.01832   2.79641
    R4        2.81923  -0.00800   0.00000  -0.02429  -0.02429   2.79494
    R5        2.06210  -0.00804   0.00000  -0.02310  -0.02310   2.03900
    R6        2.06500  -0.00808   0.00000  -0.02334  -0.02334   2.04166
    R7        2.06500  -0.00808   0.00000  -0.02334  -0.02334   2.04166
    R8        2.06210  -0.00804   0.00000  -0.02310  -0.02310   2.03900
    A1        1.89548  -0.00029   0.00000  -0.00319  -0.00319   1.89229
    A2        1.89547  -0.00029   0.00000  -0.00318  -0.00318   1.89229
    A3        1.98957  -0.00016   0.00000   0.00069   0.00069   1.99026
    A4        2.06261  -0.00010   0.00000   0.00006   0.00006   2.06267
    A5        2.08664  -0.00006   0.00000  -0.00240  -0.00241   2.08423
    A6        2.05638  -0.00035   0.00000  -0.00168  -0.00168   2.05469
    A7        2.01905   0.00029   0.00000   0.00191   0.00191   2.02096
    A8        2.06261  -0.00010   0.00000   0.00007   0.00006   2.06267
    A9        1.98957  -0.00016   0.00000   0.00069   0.00069   1.99026
   A10        2.05638  -0.00035   0.00000  -0.00168  -0.00168   2.05469
   A11        2.08664  -0.00006   0.00000  -0.00240  -0.00241   2.08423
   A12        2.01905   0.00029   0.00000   0.00191   0.00191   2.02096
    D1        2.57061   0.00027   0.00000   0.00548   0.00548   2.57610
    D2        0.11054   0.00011   0.00000   0.00103   0.00103   0.11157
    D3       -0.11053  -0.00011   0.00000  -0.00104  -0.00104  -0.11158
    D4       -2.57060  -0.00027   0.00000  -0.00550  -0.00550  -2.57610
    D5       -2.61117   0.00016   0.00000   0.00380   0.00379  -2.60737
    D6        0.00000  -0.00000   0.00000  -0.00001  -0.00001  -0.00000
    D7       -0.00000   0.00000   0.00000   0.00000   0.00000   0.00000
    D8        2.61117  -0.00016   0.00000  -0.00380  -0.00380   2.60737
         Item               Value     Threshold  Converged?
 Maximum Force            0.008080     0.000450     NO 
 RMS     Force            0.003988     0.000300     NO 
 Maximum Displacement     0.027816     0.001800     NO 
 RMS     Displacement     0.013986     0.001200     NO 
 Predicted change in Energy=-6.412408D-04
 GradGradGradGradGradGradGradGradGradGradGradGradGradGradGradGradGradGrad

                          Input orientation:                          
 ---------------------------------------------------------------------
 Center     Atomic      Atomic             Coordinates (Angstroms)
 Number     Number       Type             X           Y           Z
 ---------------------------------------------------------------------
      1          7           0        0.000010    0.864246   -0.172411
      2          1           0        0.000013    1.375009    0.705116
      3          6           0       -0.739513   -0.402404    0.023816
      4          6           0        0.739507   -0.402420    0.023814
      5          1           0       -1.269492   -0.742128   -0.852503
      6          1           0       -1.242152   -0.558895    0.967284
      7          1           0        1.242144   -0.558924    0.967281
      8          1           0        1.269476   -0.742159   -0.852505
 ---------------------------------------------------------------------
                    Distance matrix (angstroms):
                    1          2          3          4          5
     1  N    0.000000
     2  H    1.015348   0.000000
     3  C    1.479797   2.042122   0.000000
     4  C    1.479798   2.042125   1.479020   0.000000
     5  H    2.157452   2.918919   1.078992   2.217975   0.000000
     6  H    2.206173   2.313372   1.080401   2.200362   1.829192
     7  H    2.206174   2.313377   2.200361   1.080401   3.107007
     8  H    2.157454   2.918924   2.217974   1.078992   2.538968
                    6          7          8
     6  H    0.000000
     7  H    2.484296   0.000000
     8  H    3.107007   1.829192   0.000000
 Stoichiometry    C2H5N
 Framework group  C1[X(C2H5N)]
 Deg. of freedom    18
 Full point group                 C1      NOp   1
 Largest Abelian subgroup         C1      NOp   1
 Largest concise Abelian subgroup C1      NOp   1
                         Standard orientation:                         
 ---------------------------------------------------------------------
 Center     Atomic      Atomic             Coordinates (Angstroms)
 Number     Number       Type             X           Y           Z
 ---------------------------------------------------------------------
      1          7           0       -0.000006    0.864621   -0.172416
      2          1           0       -0.000013    1.374815    0.705442
      3          6           0       -0.739507   -0.402168    0.022988
      4          6           0        0.739513   -0.402159    0.022989
      5          1           0       -1.269479   -0.741333   -0.853551
      6          1           0       -1.242145   -0.559280    0.966354
      7          1           0        1.242151   -0.559266    0.966354
      8          1           0        1.269489   -0.741320   -0.853550
 ---------------------------------------------------------------------
 Rotational constants (GHZ):          22.7444083          21.3655387          13.4649861
 Standard basis: Aug-CC-pVTZ (5D, 7F)
 There are   290 symmetry adapted cartesian basis functions of A   symmetry.
 There are   253 symmetry adapted basis functions of A   symmetry.
   253 basis functions,   351 primitive gaussians,   290 cartesian basis functions
    12 alpha electrons       12 beta electrons
       nuclear repulsion energy        76.1411900758 Hartrees.
 NAtoms=    8 NActive=    8 NUniq=    8 SFac= 1.00D+00 NAtFMM=   60 NAOKFM=F Big=F
 Integral buffers will be    131072 words long.
 Raffenetti 1 integral format.
 Two-electron integral symmetry is turned on.
 One-electron integrals computed using PRISM.
 NBasis=   253 RedAO= T EigKep=  1.37D-05  NBF=   253
 NBsUse=   253 1.00D-06 EigRej= -1.00D+00 NBFU=   253
 Initial guess from the checkpoint file:  "/gscratch/scrubbed/gds001/Gau-29878.chk"
 B after Tr=    -0.000000   -0.000000   -0.000000
         Rot=    1.000000   -0.000323    0.000001   -0.000009 Ang=  -0.04 deg.
 ExpMin= 2.53D-02 ExpMax= 1.14D+04 ExpMxC= 3.89D+02 IAcc=3 IRadAn=         5 AccDes= 0.00D+00
 Harris functional with IExCor=  205 and IRadAn=       5 diagonalized for initial guess.
 HarFok:  IExCor=  205 AccDes= 0.00D+00 IRadAn=         5 IDoV= 1 UseB2=F ITyADJ=14
 ICtDFT=  3500011 ScaDFX=  1.000000  1.000000  1.000000  1.000000
 FoFCou: FMM=F IPFlag=           0 FMFlag=      100000 FMFlg1=           0
         NFxFlg=           0 DoJE=T BraDBF=F KetDBF=T FulRan=T
         wScrn=  0.000000 ICntrl=       500 IOpCl=  0 I1Cent=   200000004 NGrid=           0
         NMat0=    1 NMatS0=      1 NMatT0=    0 NMatD0=    1 NMtDS0=    0 NMtDT0=    0
 Petite list used in FoFCou.
 Keep R1 ints in memory in canonical form, NReq=530241139.
 Requested convergence on RMS density matrix=1.00D-08 within 128 cycles.
 Requested convergence on MAX density matrix=1.00D-06.
 Requested convergence on             energy=1.00D-06.
 No special actions if energy rises.
 SCF Done:  E(RHF) =  -133.091385337     A.U. after    9 cycles
            NFock=  9  Conv=0.38D-08     -V/T= 2.0017
 ExpMin= 2.53D-02 ExpMax= 1.14D+04 ExpMxC= 3.89D+02 IAcc=3 IRadAn=         5 AccDes= 0.00D+00
 HarFok:  IExCor=  205 AccDes= 0.00D+00 IRadAn=         5 IDoV=-2 UseB2=F ITyADJ=14
 ICtDFT= 12500011 ScaDFX=  1.000000  1.000000  1.000000  1.000000
 Range of M.O.s used for correlation:     4   253
 NBasis=   253 NAE=    12 NBE=    12 NFC=     3 NFV=     0
 NROrb=    250 NOA=     9 NOB=     9 NVA=   241 NVB=   241

 **** Warning!!: The largest alpha MO coefficient is  0.61479485D+02

 Fully direct method using O(ONN) memory.
 JobTyp=1 Pass  1:  I=   4 to  12 NPSUse= 28 ParTrn=T ParDer=T DoDerP=T.
 Spin components of T(2) and E(2):
     alpha-alpha T2 =       0.2116163238D-01 E2=     -0.6512710160D-01
     alpha-beta  T2 =       0.1282868236D+00 E2=     -0.4310836013D+00
     beta-beta   T2 =       0.2116163238D-01 E2=     -0.6512710160D-01
 ANorm=    0.1081947359D+01
 E2 =    -0.5613378045D+00 EUMP2 =    -0.13365272314196D+03
          IDoAtm=11111111
          Differentiating once with respect to electric field.
                with respect to dipole field.
          Differentiating once with respect to nuclear coordinates.
 Keep R1 ints in memory in canonical form, NReq=530244731.
          There are     1 degrees of freedom in the 1st order CPHF.  IDoFFX=0 NUNeed=     1.
 LinEq1:  Iter=  0 NonCon=     1 RMS=2.58D-03 Max=2.42D-02 NDo=     1
 AX will form     1 AO Fock derivatives at one time.
 LinEq1:  Iter=  1 NonCon=     1 RMS=7.39D-04 Max=7.78D-03 NDo=     1
 LinEq1:  Iter=  2 NonCon=     1 RMS=2.03D-04 Max=2.07D-03 NDo=     1
 LinEq1:  Iter=  3 NonCon=     1 RMS=4.45D-05 Max=4.52D-04 NDo=     1
 LinEq1:  Iter=  4 NonCon=     1 RMS=9.10D-06 Max=1.64D-04 NDo=     1
 LinEq1:  Iter=  5 NonCon=     1 RMS=2.90D-06 Max=3.02D-05 NDo=     1
 LinEq1:  Iter=  6 NonCon=     1 RMS=1.11D-06 Max=2.35D-05 NDo=     1
 LinEq1:  Iter=  7 NonCon=     1 RMS=2.15D-07 Max=1.99D-06 NDo=     1
 LinEq1:  Iter=  8 NonCon=     1 RMS=4.85D-08 Max=5.12D-07 NDo=     1
 LinEq1:  Iter=  9 NonCon=     1 RMS=7.75D-09 Max=7.11D-08 NDo=     1
 LinEq1:  Iter= 10 NonCon=     1 RMS=1.49D-09 Max=1.36D-08 NDo=     1
 LinEq1:  Iter= 11 NonCon=     1 RMS=2.54D-10 Max=2.31D-09 NDo=     1
 LinEq1:  Iter= 12 NonCon=     0 RMS=3.96D-11 Max=3.82D-10 NDo=     1
 Linear equations converged to 1.000D-10 1.000D-09 after    12 iterations.
 End of Minotr F.D. properties file   721 does not exist.
 End of Minotr F.D. properties file   722 does not exist.
 End of Minotr F.D. properties file   788 does not exist.
 Calling FoFJK, ICntrl=  10002127 FMM=F ISym2X=0 I1Cent= 0 IOpClX= 0 NMat=1 NMatS=1 NMatT=0.
 ***** Axes restored to original set *****
 -------------------------------------------------------------------
 Center     Atomic                   Forces (Hartrees/Bohr)
 Number     Number              X              Y              Z
 -------------------------------------------------------------------
      1        7          -0.000000003   -0.002806884    0.001641198
      2        1           0.000000349    0.000381997   -0.000521624
      3        6           0.001122460    0.001326507   -0.000547388
      4        6          -0.001122823    0.001326704   -0.000546928
      5        1          -0.000207868   -0.000171226   -0.000170649
      6        1          -0.000212983    0.000056856    0.000158039
      7        1           0.000213026    0.000056924    0.000158011
      8        1           0.000207841   -0.000170878   -0.000170659
 -------------------------------------------------------------------
 Cartesian Forces:  Max     0.002806884 RMS     0.000865536

 GradGradGradGradGradGradGradGradGradGradGradGradGradGradGradGradGradGrad
 Berny optimization.
 Using GEDIIS/GDIIS optimizer.
 FormGI is forming the generalized inverse of G from B-inverse, IUseBI=4.
 Internal  Forces:  Max     0.001469081 RMS     0.000457660
 Search for a local minimum.
 Step number   2 out of a maximum of   38
 All quantities printed in internal units (Hartrees-Bohrs-Radians)
 Mixed Optimization -- En-DIIS/RFO-DIIS
 Update second derivatives using D2CorX and points    1    2
 DE= -6.59D-04 DEPred=-6.41D-04 R= 1.03D+00
 TightC=F SS=  1.41D+00  RLast= 6.15D-02 DXNew= 5.0454D-01 1.8442D-01
 Trust test= 1.03D+00 RLast= 6.15D-02 DXMaxT set to 3.00D-01
 ITU=  1  0
 Use linear search instead of GDIIS.
     Eigenvalues ---    0.02133   0.03304   0.03660   0.03664   0.04931
     Eigenvalues ---    0.12137   0.12325   0.15985   0.16000   0.16016
     Eigenvalues ---    0.29812   0.30061   0.32305   0.34497   0.34578
     Eigenvalues ---    0.34672   0.37344   0.43758
 RFO step:  Lambda=-2.22877592D-05 EMin= 2.13290972D-02
 Quartic linear search produced a step of  0.02115.
 Iteration  1 RMS(Cart)=  0.00163256 RMS(Int)=  0.00000472
 Iteration  2 RMS(Cart)=  0.00000442 RMS(Int)=  0.00000224
 Iteration  3 RMS(Cart)=  0.00000000 RMS(Int)=  0.00000224
 Variable       Old X    -DE/DX   Delta X   Delta X   Delta X     New X
                                 (Linear)    (Quad)   (Total)
    R1        1.91873  -0.00026  -0.00032  -0.00054  -0.00086   1.91787
    R2        2.79641  -0.00147  -0.00039  -0.00451  -0.00490   2.79152
    R3        2.79641  -0.00147  -0.00039  -0.00451  -0.00490   2.79151
    R4        2.79494   0.00001  -0.00051   0.00038  -0.00014   2.79481
    R5        2.03900   0.00029  -0.00049   0.00097   0.00048   2.03948
    R6        2.04166   0.00023  -0.00049   0.00078   0.00029   2.04195
    R7        2.04166   0.00023  -0.00049   0.00078   0.00029   2.04195
    R8        2.03900   0.00029  -0.00049   0.00097   0.00048   2.03948
    A1        1.89229   0.00053  -0.00007   0.00422   0.00415   1.89644
    A2        1.89229   0.00053  -0.00007   0.00422   0.00415   1.89644
    A3        1.99026   0.00033   0.00001   0.00119   0.00120   1.99147
    A4        2.06267  -0.00016   0.00000  -0.00137  -0.00137   2.06130
    A5        2.08423  -0.00015  -0.00005  -0.00007  -0.00012   2.08411
    A6        2.05469   0.00034  -0.00004   0.00159   0.00156   2.05625
    A7        2.02096  -0.00011   0.00004  -0.00060  -0.00056   2.02040
    A8        2.06267  -0.00016   0.00000  -0.00137  -0.00137   2.06130
    A9        1.99026   0.00033   0.00001   0.00118   0.00120   1.99146
   A10        2.05469   0.00034  -0.00004   0.00159   0.00156   2.05625
   A11        2.08423  -0.00015  -0.00005  -0.00007  -0.00012   2.08411
   A12        2.02096  -0.00011   0.00004  -0.00060  -0.00056   2.02040
    D1        2.57610  -0.00008   0.00012  -0.00234  -0.00223   2.57387
    D2        0.11157  -0.00012   0.00002  -0.00106  -0.00105   0.11053
    D3       -0.11158   0.00012  -0.00002   0.00107   0.00105  -0.11052
    D4       -2.57610   0.00008  -0.00012   0.00236   0.00224  -2.57386
    D5       -2.60737  -0.00011   0.00008  -0.00166  -0.00159  -2.60896
    D6       -0.00000   0.00000  -0.00000   0.00000   0.00000   0.00000
    D7        0.00000  -0.00000   0.00000  -0.00000  -0.00000  -0.00000
    D8        2.60737   0.00011  -0.00008   0.00167   0.00159   2.60896
         Item               Value     Threshold  Converged?
 Maximum Force            0.001469     0.000450     NO 
 RMS     Force            0.000458     0.000300     NO 
 Maximum Displacement     0.005189     0.001800     NO 
 RMS     Displacement     0.001634     0.001200     NO 
 Predicted change in Energy=-1.144974D-05
 GradGradGradGradGradGradGradGradGradGradGradGradGradGradGradGradGradGrad

                          Input orientation:                          
 ---------------------------------------------------------------------
 Center     Atomic      Atomic             Coordinates (Angstroms)
 Number     Number       Type             X           Y           Z
 ---------------------------------------------------------------------
      1          7           0        0.000010    0.861500   -0.170255
      2          1           0        0.000019    1.375285    0.704981
      3          6           0       -0.739479   -0.402486    0.023748
      4          6           0        0.739470   -0.402502    0.023747
      5          1           0       -1.269467   -0.742058   -0.852938
      6          1           0       -1.243677   -0.557653    0.966776
      7          1           0        1.243666   -0.557679    0.966774
      8          1           0        1.269450   -0.742083   -0.852939
 ---------------------------------------------------------------------
                    Distance matrix (angstroms):
                    1          2          3          4          5
     1  N    0.000000
     2  H    1.014896   0.000000
     3  C    1.477206   2.042401   0.000000
     4  C    1.477206   2.042399   1.478948   0.000000
     5  H    2.156159   2.919219   1.079247   2.218040   0.000000
     6  H    2.203086   2.313345   1.080553   2.201419   1.829215
     7  H    2.203086   2.313341   2.201419   1.080553   3.108245
     8  H    2.156158   2.919216   2.218040   1.079247   2.538917
                    6          7          8
     6  H    0.000000
     7  H    2.487343   0.000000
     8  H    3.108245   1.829215   0.000000
 Stoichiometry    C2H5N
 Framework group  C1[X(C2H5N)]
 Deg. of freedom    18
 Full point group                 C1      NOp   1
 Largest Abelian subgroup         C1      NOp   1
 Largest concise Abelian subgroup C1      NOp   1
                         Standard orientation:                         
 ---------------------------------------------------------------------
 Center     Atomic      Atomic             Coordinates (Angstroms)
 Number     Number       Type             X           Y           Z
 ---------------------------------------------------------------------
      1          7           0        0.000004    0.862080   -0.173353
      2          1           0        0.000010    1.377915    0.700676
      3          6           0       -0.739476   -0.401452    0.023612
      4          6           0        0.739472   -0.401459    0.023612
      5          1           0       -1.269462   -0.743081   -0.852275
      6          1           0       -1.243674   -0.554411    0.967001
      7          1           0        1.243669   -0.554422    0.967001
      8          1           0        1.269455   -0.743092   -0.852276
 ---------------------------------------------------------------------
 Rotational constants (GHZ):          22.8214031          21.3641593          13.4880001
 Standard basis: Aug-CC-pVTZ (5D, 7F)
 There are   290 symmetry adapted cartesian basis functions of A   symmetry.
 There are   253 symmetry adapted basis functions of A   symmetry.
   253 basis functions,   351 primitive gaussians,   290 cartesian basis functions
    12 alpha electrons       12 beta electrons
       nuclear repulsion energy        76.1983756573 Hartrees.
 NAtoms=    8 NActive=    8 NUniq=    8 SFac= 1.00D+00 NAtFMM=   60 NAOKFM=F Big=F
 Integral buffers will be    131072 words long.
 Raffenetti 1 integral format.
 Two-electron integral symmetry is turned on.
 One-electron integrals computed using PRISM.
 NBasis=   253 RedAO= T EigKep=  1.36D-05  NBF=   253
 NBsUse=   253 1.00D-06 EigRej= -1.00D+00 NBFU=   253
 Initial guess from the checkpoint file:  "/gscratch/scrubbed/gds001/Gau-29878.chk"
 B after Tr=    -0.000000    0.000000    0.000000
         Rot=    0.999999    0.001205   -0.000000    0.000006 Ang=   0.14 deg.
 Keep R1 ints in memory in canonical form, NReq=530241139.
 Requested convergence on RMS density matrix=1.00D-08 within 128 cycles.
 Requested convergence on MAX density matrix=1.00D-06.
 Requested convergence on             energy=1.00D-06.
 No special actions if energy rises.
 SCF Done:  E(RHF) =  -133.091575075     A.U. after    8 cycles
            NFock=  8  Conv=0.51D-08     -V/T= 2.0017
 ExpMin= 2.53D-02 ExpMax= 1.14D+04 ExpMxC= 3.89D+02 IAcc=3 IRadAn=         5 AccDes= 0.00D+00
 HarFok:  IExCor=  205 AccDes= 0.00D+00 IRadAn=         5 IDoV=-2 UseB2=F ITyADJ=14
 ICtDFT= 12500011 ScaDFX=  1.000000  1.000000  1.000000  1.000000
 Range of M.O.s used for correlation:     4   253
 NBasis=   253 NAE=    12 NBE=    12 NFC=     3 NFV=     0
 NROrb=    250 NOA=     9 NOB=     9 NVA=   241 NVB=   241

 **** Warning!!: The largest alpha MO coefficient is  0.61242964D+02

 Fully direct method using O(ONN) memory.
 JobTyp=1 Pass  1:  I=   4 to  12 NPSUse= 28 ParTrn=T ParDer=T DoDerP=T.
 Spin components of T(2) and E(2):
     alpha-alpha T2 =       0.2113411690D-01 E2=     -0.6511130660D-01
     alpha-beta  T2 =       0.1281224686D+00 E2=     -0.4309402607D+00
     beta-beta   T2 =       0.2113411690D-01 E2=     -0.6511130660D-01
 ANorm=    0.1081845970D+01
 E2 =    -0.5611628739D+00 EUMP2 =    -0.13365273794904D+03
          IDoAtm=11111111
          Differentiating once with respect to electric field.
                with respect to dipole field.
          Differentiating once with respect to nuclear coordinates.
 Keep R1 ints in memory in canonical form, NReq=530244819.
          There are     1 degrees of freedom in the 1st order CPHF.  IDoFFX=0 NUNeed=     1.
 LinEq1:  Iter=  0 NonCon=     1 RMS=2.57D-03 Max=2.42D-02 NDo=     1
 AX will form     1 AO Fock derivatives at one time.
 LinEq1:  Iter=  1 NonCon=     1 RMS=7.38D-04 Max=7.78D-03 NDo=     1
 LinEq1:  Iter=  2 NonCon=     1 RMS=2.03D-04 Max=2.07D-03 NDo=     1
 LinEq1:  Iter=  3 NonCon=     1 RMS=4.44D-05 Max=4.51D-04 NDo=     1
 LinEq1:  Iter=  4 NonCon=     1 RMS=9.19D-06 Max=1.70D-04 NDo=     1
 LinEq1:  Iter=  5 NonCon=     1 RMS=3.07D-06 Max=3.27D-05 NDo=     1
 LinEq1:  Iter=  6 NonCon=     1 RMS=1.11D-06 Max=2.34D-05 NDo=     1
 LinEq1:  Iter=  7 NonCon=     1 RMS=2.14D-07 Max=1.99D-06 NDo=     1
 LinEq1:  Iter=  8 NonCon=     1 RMS=4.80D-08 Max=5.03D-07 NDo=     1
 LinEq1:  Iter=  9 NonCon=     1 RMS=7.62D-09 Max=7.05D-08 NDo=     1
 LinEq1:  Iter= 10 NonCon=     1 RMS=1.45D-09 Max=1.33D-08 NDo=     1
 LinEq1:  Iter= 11 NonCon=     1 RMS=2.48D-10 Max=2.33D-09 NDo=     1
 LinEq1:  Iter= 12 NonCon=     0 RMS=3.88D-11 Max=3.77D-10 NDo=     1
 Linear equations converged to 1.000D-10 1.000D-09 after    12 iterations.
 End of Minotr F.D. properties file   721 does not exist.
 End of Minotr F.D. properties file   722 does not exist.
 End of Minotr F.D. properties file   788 does not exist.
 Calling FoFJK, ICntrl=  10002127 FMM=F ISym2X=0 I1Cent= 0 IOpClX= 0 NMat=1 NMatS=1 NMatT=0.
 ***** Axes restored to original set *****
 -------------------------------------------------------------------
 Center     Atomic                   Forces (Hartrees/Bohr)
 Number     Number              X              Y              Z
 -------------------------------------------------------------------
      1        7          -0.000000012   -0.001006114    0.000497904
      2        1          -0.000000281    0.000279915   -0.000225043
      3        6           0.000333058    0.000649518   -0.000172555
      4        6          -0.000332729    0.000649353   -0.000172826
      5        1          -0.000127432   -0.000108619   -0.000063957
      6        1          -0.000061833   -0.000177571    0.000100197
      7        1           0.000061838   -0.000177611    0.000100232
      8        1           0.000127390   -0.000108870   -0.000063953
 -------------------------------------------------------------------
 Cartesian Forces:  Max     0.001006114 RMS     0.000333485

 GradGradGradGradGradGradGradGradGradGradGradGradGradGradGradGradGradGrad
 Berny optimization.
 Using GEDIIS/GDIIS optimizer.
 FormGI is forming the generalized inverse of G from B-inverse, IUseBI=4.
 Internal  Forces:  Max     0.000408609 RMS     0.000155385
 Search for a local minimum.
 Step number   3 out of a maximum of   38
 All quantities printed in internal units (Hartrees-Bohrs-Radians)
 Mixed Optimization -- En-DIIS/RFO-DIIS
 Swapping is turned off.
 Update second derivatives using D2CorX and points    1    2    3
 DE= -1.48D-05 DEPred=-1.14D-05 R= 1.29D+00
 TightC=F SS=  1.41D+00  RLast= 1.06D-02 DXNew= 5.0454D-01 3.1912D-02
 Trust test= 1.29D+00 RLast= 1.06D-02 DXMaxT set to 3.00D-01
 ITU=  1  1  0
     Eigenvalues ---    0.02135   0.03309   0.03654   0.03805   0.04249
     Eigenvalues ---    0.12025   0.12142   0.14349   0.16000   0.16716
     Eigenvalues ---    0.26870   0.30061   0.32296   0.34497   0.34582
     Eigenvalues ---    0.34672   0.36163   0.43815
 En-DIIS/RFO-DIIS/Sim-DIIS IScMMF=       -3 using points:     3    2
 RFO step:  Lambda=-8.58163024D-06.
 DidBck=F Rises=F RFO-DIIS coefs:    1.66464   -0.66464
 Iteration  1 RMS(Cart)=  0.00186789 RMS(Int)=  0.00000687
 Iteration  2 RMS(Cart)=  0.00000477 RMS(Int)=  0.00000409
 Iteration  3 RMS(Cart)=  0.00000000 RMS(Int)=  0.00000409
 Variable       Old X    -DE/DX   Delta X   Delta X   Delta X     New X
                                 (Linear)    (Quad)   (Total)
    R1        1.91787  -0.00005  -0.00057   0.00003  -0.00054   1.91734
    R2        2.79152  -0.00041  -0.00325   0.00005  -0.00321   2.78831
    R3        2.79151  -0.00041  -0.00326   0.00005  -0.00321   2.78831
    R4        2.79481   0.00002  -0.00009   0.00003  -0.00007   2.79474
    R5        2.03948   0.00015   0.00032   0.00017   0.00049   2.03997
    R6        2.04195   0.00014   0.00019   0.00022   0.00041   2.04236
    R7        2.04195   0.00014   0.00019   0.00022   0.00041   2.04236
    R8        2.03948   0.00015   0.00032   0.00017   0.00049   2.03997
    A1        1.89644   0.00023   0.00276   0.00162   0.00438   1.90082
    A2        1.89644   0.00023   0.00276   0.00163   0.00438   1.90082
    A3        1.99147   0.00005   0.00080   0.00039   0.00119   1.99266
    A4        2.06130   0.00011  -0.00091   0.00291   0.00200   2.06330
    A5        2.08411  -0.00005  -0.00008   0.00014   0.00005   2.08416
    A6        2.05625   0.00008   0.00103  -0.00203  -0.00099   2.05526
    A7        2.02040  -0.00007  -0.00037  -0.00045  -0.00083   2.01957
    A8        2.06130   0.00011  -0.00091   0.00291   0.00200   2.06330
    A9        1.99146   0.00005   0.00080   0.00040   0.00120   1.99266
   A10        2.05625   0.00008   0.00104  -0.00203  -0.00099   2.05526
   A11        2.08411  -0.00005  -0.00008   0.00014   0.00005   2.08416
   A12        2.02040  -0.00007  -0.00037  -0.00045  -0.00083   2.01957
    D1        2.57387  -0.00009  -0.00148  -0.00107  -0.00255   2.57132
    D2        0.11053  -0.00018  -0.00069  -0.00481  -0.00551   0.10501
    D3       -0.11052   0.00018   0.00070   0.00480   0.00551  -0.10502
    D4       -2.57386   0.00009   0.00149   0.00105   0.00254  -2.57132
    D5       -2.60896   0.00010  -0.00105   0.00483   0.00378  -2.60518
    D6        0.00000  -0.00000   0.00000  -0.00001  -0.00000  -0.00000
    D7       -0.00000   0.00000  -0.00000   0.00000   0.00000   0.00000
    D8        2.60896  -0.00010   0.00106  -0.00484  -0.00378   2.60518
         Item               Value     Threshold  Converged?
 Maximum Force            0.000409     0.000450     YES
 RMS     Force            0.000155     0.000300     YES
 Maximum Displacement     0.005894     0.001800     NO 
 RMS     Displacement     0.001867     0.001200     NO 
 Predicted change in Energy=-4.297276D-06
 GradGradGradGradGradGradGradGradGradGradGradGradGradGradGradGradGradGrad

                          Input orientation:                          
 ---------------------------------------------------------------------
 Center     Atomic      Atomic             Coordinates (Angstroms)
 Number     Number       Type             X           Y           Z
 ---------------------------------------------------------------------
      1          7           0        0.000010    0.860539   -0.169299
      2          1           0        0.000014    1.378404    0.703198
      3          6           0       -0.739460   -0.401611    0.023804
      4          6           0        0.739453   -0.401627    0.023802
      5          1           0       -1.269623   -0.741853   -0.852833
      6          1           0       -1.242813   -0.559808    0.967029
      7          1           0        1.242805   -0.559836    0.967026
      8          1           0        1.269607   -0.741883   -0.852835
 ---------------------------------------------------------------------
                    Distance matrix (angstroms):
                    1          2          3          4          5
     1  N    0.000000
     2  H    1.014611   0.000000
     3  C    1.475509   2.043735   0.000000
     4  C    1.475510   2.043737   1.478913   0.000000
     5  H    2.155655   2.920394   1.079504   2.218249   0.000000
     6  H    2.203006   2.317518   1.080770   2.200926   1.829140
     7  H    2.203007   2.317522   2.200926   1.080770   3.107622
     8  H    2.155656   2.920398   2.218249   1.079504   2.539230
                    6          7          8
     6  H    0.000000
     7  H    2.485618   0.000000
     8  H    3.107621   1.829140   0.000000
 Stoichiometry    C2H5N
 Framework group  C1[X(C2H5N)]
 Deg. of freedom    18
 Full point group                 C1      NOp   1
 Largest Abelian subgroup         C1      NOp   1
 Largest concise Abelian subgroup C1      NOp   1
                         Standard orientation:                         
 ---------------------------------------------------------------------
 Center     Atomic      Atomic             Coordinates (Angstroms)
 Number     Number       Type             X           Y           Z
 ---------------------------------------------------------------------
      1          7           0       -0.000004    0.860953   -0.172872
      2          1           0       -0.000009    1.381080    0.698279
      3          6           0       -0.739454   -0.400703    0.023504
      4          6           0        0.739458   -0.400697    0.023504
      5          1           0       -1.269612   -0.743227   -0.852247
      6          1           0       -1.242807   -0.556460    0.967136
      7          1           0        1.242812   -0.556449    0.967136
      8          1           0        1.269618   -0.743217   -0.852247
 ---------------------------------------------------------------------
 Rotational constants (GHZ):          22.8558093          21.3721288          13.4998264
 Standard basis: Aug-CC-pVTZ (5D, 7F)
 There are   290 symmetry adapted cartesian basis functions of A   symmetry.
 There are   253 symmetry adapted basis functions of A   symmetry.
   253 basis functions,   351 primitive gaussians,   290 cartesian basis functions
    12 alpha electrons       12 beta electrons
       nuclear repulsion energy        76.2302393765 Hartrees.
 NAtoms=    8 NActive=    8 NUniq=    8 SFac= 1.00D+00 NAtFMM=   60 NAOKFM=F Big=F
 Integral buffers will be    131072 words long.
 Raffenetti 1 integral format.
 Two-electron integral symmetry is turned on.
 One-electron integrals computed using PRISM.
 NBasis=   253 RedAO= T EigKep=  1.36D-05  NBF=   253
 NBsUse=   253 1.00D-06 EigRej= -1.00D+00 NBFU=   253
 Initial guess from the checkpoint file:  "/gscratch/scrubbed/gds001/Gau-29878.chk"
 B after Tr=     0.000000   -0.000000    0.000000
         Rot=    1.000000    0.000006    0.000000   -0.000005 Ang=   0.00 deg.
 Keep R1 ints in memory in canonical form, NReq=530241139.
 Requested convergence on RMS density matrix=1.00D-08 within 128 cycles.
 Requested convergence on MAX density matrix=1.00D-06.
 Requested convergence on             energy=1.00D-06.
 No special actions if energy rises.
 SCF Done:  E(RHF) =  -133.091685478     A.U. after    7 cycles
            NFock=  7  Conv=0.92D-08     -V/T= 2.0017
 ExpMin= 2.53D-02 ExpMax= 1.14D+04 ExpMxC= 3.89D+02 IAcc=3 IRadAn=         5 AccDes= 0.00D+00
 HarFok:  IExCor=  205 AccDes= 0.00D+00 IRadAn=         5 IDoV=-2 UseB2=F ITyADJ=14
 ICtDFT= 12500011 ScaDFX=  1.000000  1.000000  1.000000  1.000000
 Range of M.O.s used for correlation:     4   253
 NBasis=   253 NAE=    12 NBE=    12 NFC=     3 NFV=     0
 NROrb=    250 NOA=     9 NOB=     9 NVA=   241 NVB=   241

 **** Warning!!: The largest alpha MO coefficient is  0.61243743D+02

 Fully direct method using O(ONN) memory.
 JobTyp=1 Pass  1:  I=   4 to  12 NPSUse= 28 ParTrn=T ParDer=T DoDerP=T.
 Spin components of T(2) and E(2):
     alpha-alpha T2 =       0.2111817732D-01 E2=     -0.6510253454D-01
     alpha-beta  T2 =       0.1280258690D+00 E2=     -0.4308519598D+00
     beta-beta   T2 =       0.2111817732D-01 E2=     -0.6510253454D-01
 ANorm=    0.1081786589D+01
 E2 =    -0.5610570289D+00 EUMP2 =    -0.13365274250643D+03
          IDoAtm=11111111
          Differentiating once with respect to electric field.
                with respect to dipole field.
          Differentiating once with respect to nuclear coordinates.
 Keep R1 ints in memory in canonical form, NReq=530244819.
          There are     1 degrees of freedom in the 1st order CPHF.  IDoFFX=0 NUNeed=     1.
 LinEq1:  Iter=  0 NonCon=     1 RMS=2.57D-03 Max=2.42D-02 NDo=     1
 AX will form     1 AO Fock derivatives at one time.
 LinEq1:  Iter=  1 NonCon=     1 RMS=7.37D-04 Max=7.75D-03 NDo=     1
 LinEq1:  Iter=  2 NonCon=     1 RMS=2.03D-04 Max=2.08D-03 NDo=     1
 LinEq1:  Iter=  3 NonCon=     1 RMS=4.44D-05 Max=4.54D-04 NDo=     1
 LinEq1:  Iter=  4 NonCon=     1 RMS=9.32D-06 Max=1.77D-04 NDo=     1
 LinEq1:  Iter=  5 NonCon=     1 RMS=3.24D-06 Max=3.51D-05 NDo=     1
 LinEq1:  Iter=  6 NonCon=     1 RMS=1.12D-06 Max=2.33D-05 NDo=     1
 LinEq1:  Iter=  7 NonCon=     1 RMS=2.13D-07 Max=1.98D-06 NDo=     1
 LinEq1:  Iter=  8 NonCon=     1 RMS=4.78D-08 Max=4.98D-07 NDo=     1
 LinEq1:  Iter=  9 NonCon=     1 RMS=7.52D-09 Max=6.94D-08 NDo=     1
 LinEq1:  Iter= 10 NonCon=     1 RMS=1.42D-09 Max=1.31D-08 NDo=     1
 LinEq1:  Iter= 11 NonCon=     1 RMS=2.43D-10 Max=2.34D-09 NDo=     1
 LinEq1:  Iter= 12 NonCon=     0 RMS=3.82D-11 Max=3.71D-10 NDo=     1
 Linear equations converged to 1.000D-10 1.000D-09 after    12 iterations.
 End of Minotr F.D. properties file   721 does not exist.
 End of Minotr F.D. properties file   722 does not exist.
 End of Minotr F.D. properties file   788 does not exist.
 Calling FoFJK, ICntrl=  10002127 FMM=F ISym2X=0 I1Cent= 0 IOpClX= 0 NMat=1 NMatS=1 NMatT=0.
 ***** Axes restored to original set *****
 -------------------------------------------------------------------
 Center     Atomic                   Forces (Hartrees/Bohr)
 Number     Number              X              Y              Z
 -------------------------------------------------------------------
      1        7           0.000000012   -0.000002946   -0.000006583
      2        1           0.000000271    0.000100247    0.000017681
      3        6          -0.000175538   -0.000049717   -0.000061266
      4        6           0.000175249   -0.000049555   -0.000060993
      5        1          -0.000061222    0.000021117    0.000033594
      6        1          -0.000016819   -0.000020272    0.000022012
      7        1           0.000016796   -0.000020247    0.000021981
      8        1           0.000061251    0.000021374    0.000033573
 -------------------------------------------------------------------
 Cartesian Forces:  Max     0.000175538 RMS     0.000063690

 GradGradGradGradGradGradGradGradGradGradGradGradGradGradGradGradGradGrad
 Berny optimization.
 Using GEDIIS/GDIIS optimizer.
 FormGI is forming the generalized inverse of G from B-inverse, IUseBI=4.
 Internal  Forces:  Max     0.000212875 RMS     0.000053267
 Search for a local minimum.
 Step number   4 out of a maximum of   38
 All quantities printed in internal units (Hartrees-Bohrs-Radians)
 Mixed Optimization -- En-DIIS/RFO-DIIS
 Swapping is turned off.
 Update second derivatives using D2CorX and points    1    2    3    4
 DE= -4.56D-06 DEPred=-4.30D-06 R= 1.06D+00
 TightC=F SS=  1.41D+00  RLast= 1.33D-02 DXNew= 5.0454D-01 3.9850D-02
 Trust test= 1.06D+00 RLast= 1.33D-02 DXMaxT set to 3.00D-01
 ITU=  1  1  1  0
     Eigenvalues ---    0.02138   0.03313   0.03353   0.03654   0.04144
     Eigenvalues ---    0.11835   0.12137   0.15041   0.16000   0.16769
     Eigenvalues ---    0.27593   0.30057   0.33433   0.34497   0.34581
     Eigenvalues ---    0.34672   0.35881   0.43806
 En-DIIS/RFO-DIIS/Sim-DIIS IScMMF=       -3 using points:     4    3    2
 RFO step:  Lambda=-5.66291702D-07.
 DidBck=F Rises=F RFO-DIIS coefs:    1.08854    0.03691   -0.12545
 Iteration  1 RMS(Cart)=  0.00058320 RMS(Int)=  0.00000112
 Iteration  2 RMS(Cart)=  0.00000023 RMS(Int)=  0.00000109
 Variable       Old X    -DE/DX   Delta X   Delta X   Delta X     New X
                                 (Linear)    (Quad)   (Total)
    R1        1.91734   0.00007  -0.00015   0.00025   0.00010   1.91743
    R2        2.78831   0.00006  -0.00090   0.00076  -0.00014   2.78817
    R3        2.78831   0.00006  -0.00090   0.00076  -0.00014   2.78817
    R4        2.79474   0.00021  -0.00002   0.00067   0.00064   2.79538
    R5        2.03997  -0.00000   0.00010  -0.00006   0.00004   2.04001
    R6        2.04236   0.00003   0.00007   0.00005   0.00012   2.04248
    R7        2.04236   0.00003   0.00007   0.00005   0.00012   2.04248
    R8        2.03997  -0.00000   0.00010  -0.00006   0.00004   2.04001
    A1        1.90082   0.00002   0.00091  -0.00012   0.00079   1.90161
    A2        1.90082   0.00002   0.00091  -0.00012   0.00079   1.90161
    A3        1.99266   0.00001   0.00026  -0.00034  -0.00008   1.99258
    A4        2.06330   0.00002   0.00001   0.00017   0.00017   2.06347
    A5        2.08416   0.00004  -0.00001   0.00067   0.00066   2.08482
    A6        2.05526   0.00001   0.00011  -0.00030  -0.00019   2.05507
    A7        2.01957  -0.00004  -0.00014  -0.00015  -0.00029   2.01927
    A8        2.06330   0.00002   0.00001   0.00017   0.00017   2.06347
    A9        1.99266   0.00001   0.00026  -0.00034  -0.00009   1.99257
   A10        2.05526   0.00001   0.00011  -0.00030  -0.00019   2.05507
   A11        2.08416   0.00004  -0.00001   0.00067   0.00066   2.08482
   A12        2.01957  -0.00004  -0.00014  -0.00015  -0.00029   2.01927
    D1        2.57132  -0.00007  -0.00051  -0.00086  -0.00137   2.56995
    D2        0.10501  -0.00004  -0.00062  -0.00034  -0.00097   0.10405
    D3       -0.10502   0.00004   0.00062   0.00035   0.00097  -0.10404
    D4       -2.57132   0.00007   0.00051   0.00087   0.00138  -2.56994
    D5       -2.60518  -0.00001   0.00014  -0.00039  -0.00025  -2.60544
    D6       -0.00000   0.00000   0.00000   0.00000   0.00000   0.00000
    D7        0.00000  -0.00000  -0.00000  -0.00000  -0.00000  -0.00000
    D8        2.60518   0.00001  -0.00014   0.00039   0.00026   2.60544
         Item               Value     Threshold  Converged?
 Maximum Force            0.000213     0.000450     YES
 RMS     Force            0.000053     0.000300     YES
 Maximum Displacement     0.001517     0.001800     YES
 RMS     Displacement     0.000583     0.001200     YES
 Predicted change in Energy=-2.792807D-07
 Optimization completed.
    -- Stationary point found.
                           ----------------------------
                           !   Optimized Parameters   !
                           ! (Angstroms and Degrees)  !
 --------------------------                            --------------------------
 ! Name  Definition              Value          Derivative Info.                !
 --------------------------------------------------------------------------------
 ! R1    R(1,2)                  1.0146         -DE/DX =    0.0001              !
 ! R2    R(1,3)                  1.4755         -DE/DX =    0.0001              !
 ! R3    R(1,4)                  1.4755         -DE/DX =    0.0001              !
 ! R4    R(3,4)                  1.4789         -DE/DX =    0.0002              !
 ! R5    R(3,5)                  1.0795         -DE/DX =    0.0                 !
 ! R6    R(3,6)                  1.0808         -DE/DX =    0.0                 !
 ! R7    R(4,7)                  1.0808         -DE/DX =    0.0                 !
 ! R8    R(4,8)                  1.0795         -DE/DX =    0.0                 !
 ! A1    A(2,1,3)              108.9088         -DE/DX =    0.0                 !
 ! A2    A(2,1,4)              108.909          -DE/DX =    0.0                 !
 ! A3    A(1,3,5)              114.1709         -DE/DX =    0.0                 !
 ! A4    A(1,3,6)              118.2185         -DE/DX =    0.0                 !
 ! A5    A(4,3,5)              119.4138         -DE/DX =    0.0                 !
 ! A6    A(4,3,6)              117.7578         -DE/DX =    0.0                 !
 ! A7    A(5,3,6)              115.7126         -DE/DX =    0.0                 !
 ! A8    A(1,4,7)              118.2185         -DE/DX =    0.0                 !
 ! A9    A(1,4,8)              114.171          -DE/DX =    0.0                 !
 ! A10   A(3,4,7)              117.7578         -DE/DX =    0.0                 !
 ! A11   A(3,4,8)              119.4137         -DE/DX =    0.0                 !
 ! A12   A(7,4,8)              115.7126         -DE/DX =    0.0                 !
 ! D1    D(2,1,3,5)            147.3255         -DE/DX =   -0.0001              !
 ! D2    D(2,1,3,6)              6.0167         -DE/DX =    0.0                 !
 ! D3    D(2,1,4,7)             -6.017          -DE/DX =    0.0                 !
 ! D4    D(2,1,4,8)           -147.3259         -DE/DX =    0.0001              !
 ! D5    D(5,3,4,7)           -149.266          -DE/DX =    0.0                 !
 ! D6    D(5,3,4,8)             -0.0001         -DE/DX =    0.0                 !
 ! D7    D(6,3,4,7)              0.0            -DE/DX =    0.0                 !
 ! D8    D(6,3,4,8)            149.2659         -DE/DX =    0.0                 !
 --------------------------------------------------------------------------------
 GradGradGradGradGradGradGradGradGradGradGradGradGradGradGradGradGradGrad

                          Input orientation:                          
 ---------------------------------------------------------------------
 Center     Atomic      Atomic             Coordinates (Angstroms)
 Number     Number       Type             X           Y           Z
 ---------------------------------------------------------------------
      1          7           0        0.000010    0.860539   -0.169299
      2          1           0        0.000014    1.378404    0.703198
      3          6           0       -0.739460   -0.401611    0.023804
      4          6           0        0.739453   -0.401627    0.023802
      5          1           0       -1.269623   -0.741853   -0.852833
      6          1           0       -1.242813   -0.559808    0.967029
      7          1           0        1.242805   -0.559836    0.967026
      8          1           0        1.269607   -0.741883   -0.852835
 ---------------------------------------------------------------------
                    Distance matrix (angstroms):
                    1          2          3          4          5
     1  N    0.000000
     2  H    1.014611   0.000000
     3  C    1.475509   2.043735   0.000000
     4  C    1.475510   2.043737   1.478913   0.000000
     5  H    2.155655   2.920394   1.079504   2.218249   0.000000
     6  H    2.203006   2.317518   1.080770   2.200926   1.829140
     7  H    2.203007   2.317522   2.200926   1.080770   3.107622
     8  H    2.155656   2.920398   2.218249   1.079504   2.539230
                    6          7          8
     6  H    0.000000
     7  H    2.485618   0.000000
     8  H    3.107621   1.829140   0.000000
 Stoichiometry    C2H5N
 Framework group  C1[X(C2H5N)]
 Deg. of freedom    18
 Full point group                 C1      NOp   1
 Largest Abelian subgroup         C1      NOp   1
 Largest concise Abelian subgroup C1      NOp   1
                         Standard orientation:                         
 ---------------------------------------------------------------------
 Center     Atomic      Atomic             Coordinates (Angstroms)
 Number     Number       Type             X           Y           Z
 ---------------------------------------------------------------------
      1          7           0       -0.000004    0.860953   -0.172872
      2          1           0       -0.000009    1.381080    0.698279
      3          6           0       -0.739454   -0.400703    0.023504
      4          6           0        0.739458   -0.400697    0.023504
      5          1           0       -1.269612   -0.743227   -0.852247
      6          1           0       -1.242807   -0.556460    0.967136
      7          1           0        1.242812   -0.556449    0.967136
      8          1           0        1.269618   -0.743217   -0.852247
 ---------------------------------------------------------------------
 Rotational constants (GHZ):          22.8558093          21.3721288          13.4998264

 **********************************************************************

            Population analysis using the SCF density.

 **********************************************************************

 Orbital symmetries:
       Occupied  (A) (A) (A) (A) (A) (A) (A) (A) (A) (A) (A) (A)
       Virtual   (A) (A) (A) (A) (A) (A) (A) (A) (A) (A) (A) (A)
                 (A) (A) (A) (A) (A) (A) (A) (A) (A) (A) (A) (A)
                 (A) (A) (A) (A) (A) (A) (A) (A) (A) (A) (A) (A)
                 (A) (A) (A) (A) (A) (A) (A) (A) (A) (A) (A) (A)
                 (A) (A) (A) (A) (A) (A) (A) (A) (A) (A) (A) (A)
                 (A) (A) (A) (A) (A) (A) (A) (A) (A) (A) (A) (A)
                 (A) (A) (A) (A) (A) (A) (A) (A) (A) (A) (A) (A)
                 (A) (A) (A) (A) (A) (A) (A) (A) (A) (A) (A) (A)
                 (A) (A) (A) (A) (A) (A) (A) (A) (A) (A) (A) (A)
                 (A) (A) (A) (A) (A) (A) (A) (A) (A) (A) (A) (A)
                 (A) (A) (A) (A) (A) (A) (A) (A) (A) (A) (A) (A)
                 (A) (A) (A) (A) (A) (A) (A) (A) (A) (A) (A) (A)
                 (A) (A) (A) (A) (A) (A) (A) (A) (A) (A) (A) (A)
                 (A) (A) (A) (A) (A) (A) (A) (A) (A) (A) (A) (A)
                 (A) (A) (A) (A) (A) (A) (A) (A) (A) (A) (A) (A)
                 (A) (A) (A) (A) (A) (A) (A) (A) (A) (A) (A) (A)
                 (A) (A) (A) (A) (A) (A) (A) (A) (A) (A) (A) (A)
                 (A) (A) (A) (A) (A) (A) (A) (A) (A) (A) (A) (A)
                 (A) (A) (A) (A) (A) (A) (A) (A) (A) (A) (A) (A)
                 (A) (A) (A) (A) (A) (A) (A) (A) (A) (A) (A) (A)
                 (A)
 The electronic state is 1-A.
 Alpha  occ. eigenvalues --  -15.55867 -11.25504 -11.25428  -1.25520  -0.89636
 Alpha  occ. eigenvalues --   -0.83988  -0.69934  -0.63716  -0.53105  -0.47967
 Alpha  occ. eigenvalues --   -0.47705  -0.39545
 Alpha virt. eigenvalues --    0.02940   0.04026   0.04081   0.04747   0.06038
 Alpha virt. eigenvalues --    0.09397   0.09781   0.10058   0.11881   0.13325
 Alpha virt. eigenvalues --    0.13942   0.14883   0.16458   0.16507   0.18027
 Alpha virt. eigenvalues --    0.19436   0.23266   0.25198   0.25804   0.26010
 Alpha virt. eigenvalues --    0.26209   0.28253   0.28848   0.29611   0.30593
 Alpha virt. eigenvalues --    0.34070   0.35292   0.36744   0.36788   0.36958
 Alpha virt. eigenvalues --    0.37802   0.39292   0.39984   0.40471   0.41705
 Alpha virt. eigenvalues --    0.42330   0.43493   0.44059   0.44509   0.46704
 Alpha virt. eigenvalues --    0.48342   0.49292   0.49594   0.51591   0.51853
 Alpha virt. eigenvalues --    0.52318   0.53529   0.54382   0.59782   0.60894
 Alpha virt. eigenvalues --    0.61716   0.62344   0.64287   0.64316   0.68789
 Alpha virt. eigenvalues --    0.76301   0.76562   0.79402   0.80472   0.80477
 Alpha virt. eigenvalues --    0.82495   0.85568   0.86278   0.89125   0.89499
 Alpha virt. eigenvalues --    0.89978   0.91697   0.93056   0.95244   0.95708
 Alpha virt. eigenvalues --    0.95993   0.98646   0.99807   1.00922   1.03559
 Alpha virt. eigenvalues --    1.04735   1.04867   1.05116   1.05996   1.09204
 Alpha virt. eigenvalues --    1.09515   1.11196   1.12125   1.12468   1.14683
 Alpha virt. eigenvalues --    1.16331   1.17457   1.22179   1.22674   1.23894
 Alpha virt. eigenvalues --    1.26014   1.28452   1.28546   1.30331   1.34727
 Alpha virt. eigenvalues --    1.39360   1.39710   1.41820   1.46665   1.46959
 Alpha virt. eigenvalues --    1.47772   1.51087   1.52332   1.54304   1.59500
 Alpha virt. eigenvalues --    1.59984   1.60652   1.61369   1.63560   1.65738
 Alpha virt. eigenvalues --    1.70366   1.71357   1.76640   1.76742   1.83319
 Alpha virt. eigenvalues --    1.85041   1.86000   1.88189   1.93023   1.94285
 Alpha virt. eigenvalues --    1.95409   1.96285   1.97974   2.01069   2.02939
 Alpha virt. eigenvalues --    2.06590   2.09282   2.12400   2.14474   2.15138
 Alpha virt. eigenvalues --    2.17120   2.20056   2.23331   2.28886   2.30482
 Alpha virt. eigenvalues --    2.33056   2.36997   2.38345   2.39957   2.43913
 Alpha virt. eigenvalues --    2.47818   2.51465   2.58773   2.58970   2.60907
 Alpha virt. eigenvalues --    2.61969   2.71499   2.78789   3.07175   3.16754
 Alpha virt. eigenvalues --    3.28574   3.28792   3.42070   3.42611   3.50089
 Alpha virt. eigenvalues --    3.51782   3.53858   3.57297   3.60502   3.60695
 Alpha virt. eigenvalues --    3.63481   3.63966   3.69751   3.74732   3.76799
 Alpha virt. eigenvalues --    3.78065   3.81449   3.88010   3.88993   3.93142
 Alpha virt. eigenvalues --    3.96760   4.00738   4.04078   4.04268   4.05732
 Alpha virt. eigenvalues --    4.07233   4.09545   4.11711   4.16110   4.24056
 Alpha virt. eigenvalues --    4.24203   4.27725   4.29368   4.35147   4.40864
 Alpha virt. eigenvalues --    4.45921   4.46910   4.50144   4.50908   4.57727
 Alpha virt. eigenvalues --    4.64356   4.66673   4.75065   4.78849   4.81415
 Alpha virt. eigenvalues --    4.82048   4.84492   4.86052   4.89876   4.92758
 Alpha virt. eigenvalues --    5.00170   5.00198   5.01233   5.08507   5.15931
 Alpha virt. eigenvalues --    5.16773   5.19905   5.24965   5.25729   5.27747
 Alpha virt. eigenvalues --    5.34586   5.38626   5.42613   5.45064   5.49601
 Alpha virt. eigenvalues --    5.57681   5.66055   5.71240   5.71351   5.76682
 Alpha virt. eigenvalues --    5.83803   5.83893   5.98234   6.06949   6.09396
 Alpha virt. eigenvalues --    6.14041   6.25838   6.27931   6.32460   6.33115
 Alpha virt. eigenvalues --    6.53649   6.57081   6.59784   6.69964   6.78509
 Alpha virt. eigenvalues --    6.80101   6.96352   7.34483  15.84845  17.21088
 Alpha virt. eigenvalues --   17.40325
          Condensed to atoms (all electrons):
               1          2          3          4          5          6
     1  N    7.289782   0.182882   0.057327   0.057328  -0.038975  -0.013285
     2  H    0.182882   0.653146   0.007620   0.007620   0.004378   0.006997
     3  C    0.057327   0.007620   5.529407   0.344076   0.351812   0.368154
     4  C    0.057328   0.007620   0.344076   5.529408  -0.021412  -0.010888
     5  H   -0.038975   0.004378   0.351812  -0.021412   0.249421   0.022525
     6  H   -0.013285   0.006997   0.368154  -0.010888   0.022525   0.243123
     7  H   -0.013285   0.006997  -0.010888   0.368154   0.002412   0.002638
     8  H   -0.038975   0.004378  -0.021413   0.351812   0.003660   0.002412
               7          8
     1  N   -0.013285  -0.038975
     2  H    0.006997   0.004378
     3  C   -0.010888  -0.021413
     4  C    0.368154   0.351812
     5  H    0.002412   0.003660
     6  H    0.002638   0.002412
     7  H    0.243123   0.022525
     8  H    0.022525   0.249421
 Mulliken charges:
               1
     1  N   -0.482798
     2  H    0.125983
     3  C   -0.626094
     4  C   -0.626096
     5  H    0.426179
     6  H    0.378324
     7  H    0.378324
     8  H    0.426179
 Sum of Mulliken charges =  -0.00000
 Mulliken charges with hydrogens summed into heavy atoms:
               1
     1  N   -0.356815
     3  C    0.178408
     4  C    0.178407
 Electronic spatial extent (au):  <R**2>=            141.7345
 Charge=             -0.0000 electrons
 Dipole moment (field-independent basis, Debye):
    X=              0.0000    Y=             -1.0668    Z=              1.5285  Tot=              1.8639
 Quadrupole moment (field-independent basis, Debye-Ang):
   XX=            -18.5976   YY=            -20.8776   ZZ=            -18.3628
   XY=             -0.0000   XZ=             -0.0000   YZ=              2.7059
 Traceless Quadrupole moment (field-independent basis, Debye-Ang):
   XX=              0.6817   YY=             -1.5983   ZZ=              0.9165
   XY=             -0.0000   XZ=             -0.0000   YZ=              2.7059
 Octapole moment (field-independent basis, Debye-Ang**2):
  XXX=              0.0000  YYY=              1.8726  ZZZ=              1.8850  XYY=             -0.0000
  XXY=             -1.2388  XXZ=              0.1836  XZZ=              0.0000  YZZ=             -0.7153
  YYZ=              3.2984  XYZ=             -0.0000
 Hexadecapole moment (field-independent basis, Debye-Ang**3):
 XXXX=            -81.6663 YYYY=            -72.6465 ZZZZ=            -34.9205 XXXY=             -0.0000
 XXXZ=             -0.0000 YYYX=             -0.0000 YYYZ=              6.6149 ZZZX=             -0.0000
 ZZZY=              3.4683 XXYY=            -25.3201 XXZZ=            -16.9365 YYZZ=            -17.7259
 XXYZ=              0.9071 YYXZ=             -0.0000 ZZXY=              0.0000
 N-N= 7.623023937653D+01 E-N=-4.629569127277D+02  KE= 1.328714128642D+02
 1\1\GINC-N2228\FOpt\RMP2-FC\Aug-CC-pVTZ\C2H5N1\GDS001\20-Dec-2021\0\\#
  MP2/aug-cc-pVTZ opt freq=(vibrot,anharmonic)\\bleh\\0,1\N,0.000010204
 8,0.8605390225,-0.1692990202\H,0.0000139123,1.3784038677,0.7031983524\
 C,-0.7394595653,-0.4016109881,0.0238038043\C,0.7394531743,-0.401627454
 9,0.02380249\H,-1.2696230601,-0.7418530615,-0.8528327538\H,-1.24281344
 9,-0.5598081315,0.9670285025\H,1.2428050072,-0.5598360585,0.9670264162
 \H,1.2696067758,-0.7418831958,-0.8528347915\\Version=ES64L-G16RevA.03\
 State=1-A\HF=-133.0916855\MP2=-133.6527425\RMSD=9.152e-09\RMSF=6.369e-
 05\Dipole=-0.0000045,-0.3731253,0.5724146\PG=C01 [X(C2H5N1)]\\@


 THERE'S NOTHING SO GREAT AS THE GREAT OUTDOORS.

                                       -- ZIGGY
 Job cpu time:       0 days  1 hours 20 minutes 18.9 seconds.
 Elapsed time:       0 days  0 hours  4 minutes 12.3 seconds.
[...]
 .01251682,-0.00687314,-0.00808153,0.08519278,0.03070346,-0.11752673,0.
 00018057,0.00225554,0.00028803,-0.00016456,0.00035299,-0.00029305,-0.0
 0233004,-0.00054640,0.00263285,0.03736013,-0.01178672,0.09738751,-0.00
 008372,-0.00027667,-0.00040873,-0.00212641,0.00000266,-0.00122553,-0.0
 2757944,-0.00100497,-0.00037488,-0.00244876,0.00044457,-0.00072475,0.0
 0032548,0.00053906,0.00082248,0.00139208,-0.01275059,-0.00373812,-0.03
 544140,0.00026990,-0.00020125,-0.00066144,-0.00000633,0.00027916,0.000
 16346,0.00868882,0.00493887,-0.00378782,0.00272830,-0.00472960,0.00013
 983,-0.00043373,0.00008525,-0.00250751,0.00005839,-0.00398856,0.078013
 10,-0.02689027,0.13369694,-0.00040420,0.00053407,-0.00039861,0.0012197
 8,0.00016024,0.00094653,-0.08518472,0.03071360,-0.11753873,-0.00028361
 ,0.00150511,-0.00015210,0.00009741,-0.00002678,0.00000132,-0.00242871,
 -0.00013889,-0.00196682,0.04032727,-0.03031526,-0.08932356,-0.00123631
 ,0.00026695,0.00112340,-0.00007177,-0.00026569,0.00040428,-0.00525638,
 0.00381952,0.01251138,-0.03114806,0.00058061,-0.00053794,0.00061094,-0
 .00038699,-0.00001209,-0.00008020,0.00113090,0.00012341,-0.00188778,-0
 .02779934,0.01300398,0.05342820,-0.00025620,0.00025527,0.00021379,0.00
 026611,-0.00019961,0.00053499,0.00130989,-0.00100156,-0.00687067,0.025
 15497,-0.01163143,0.00240419,-0.00381595,-0.00292961,0.00112612,-0.000
 33162,-0.00052665,0.00247742,-0.00074772,-0.00325205,-0.06950489,0.045
 32946,0.10220928,-0.00110595,0.00021928,0.00084166,0.00039747,-0.00066
 106,-0.00039423,-0.01319609,0.00595706,-0.00807334,0.07740188,-0.04594
 941,-0.08787510,-0.00388128,0.00000310,-0.00574673,-0.00000433,0.00475
 749,-0.00429272,0.00043334,-0.00000139,0.00000166,-0.00134015,0.000000
 98,0.00152722,-0.00266081,0.00000172,-0.00064663,-0.00000277,-0.002036
 38,0.00147480,-0.00000260,0.00225591,0.00001249,0.00131416,0.00343908,
 -0.00008126,-0.00015555,0.00038893,-0.00037342,0.08687266,0.00517673,0
 .00150980,-0.00297143,-0.00004506,-0.00114844,0.00021274,0.19366826,-0
 .22152931,-0.00024899,-0.00173277,-0.00128411,0.00008579,0.00029362,0.
 00002844,-0.12370302,0.07287840,1.10637808,0.00133866,-0.00344223,0.00
 007977,-0.00015803,-0.00039429,0.00037573,0.01348445,-0.00155502,0.002
 13295,0.08686455,-0.00517671,0.00147916,-0.00298055,0.00004469,-0.0011
 3765,0.00022094,0.00154059,-0.00427596,0.00123253,-0.19366804,-0.22149
 982,0.00024214,-0.00172823,-0.00129015,-0.00008735,0.00027948,0.000026
 53,-0.00210450,0.00122699,-0.01127393,0.12372888,0.07291192,1.10648197
 ,0.00044789,-0.00039299,0.00053153,0.00008292,0.00010476,-0.00005965,-
 0.05236457,-0.12432258,-0.32191345,-0.00134260,-0.00100693,-0.00230632
 ,0.04297336,-0.00025902,0.00047508,-0.00242826,-0.00035979,-0.00034867
 ,0.00003861,-0.12275061,0.05986488,-0.21035477,0.00023773,0.00033160,0
 .00164623,0.12221674,-0.06535491,0.00231373,0.00257518,0.00128371,0.00
 033365,0.00026496,-0.00034295,-0.31050706,-0.20435211,-0.42415289,0.00
 338489,0.00086057,0.00222627,0.31540585,0.20642885,0.41748107,-0.00004
 598,0.00033036,-0.00074241,0.00052764,0.00033900,0.00016511,-0.0458305
 8,-0.07555946,0.44473560,-0.00198034,-0.00163965,0.00338398,0.00844437
 ,0.00138437,-0.01090342,0.03646460,-0.00206344,0.00013760,0.00436032,0
 .00120389,0.00105424,-0.00036265,-0.07623942,0.16475002,0.13799782,-0.
 00017577,0.00049602,-0.00196542,0.00320923,0.00480706,-0.00557985,0.07
 446544,-0.17121601,-0.00274262,-0.00220261,0.00141519,-0.00018119,-0.0
 0034224,-0.00042901,0.43579734,0.13293200,-0.67583492,-0.00433168,-0.0
 0080231,0.00390532,0.00848251,0.00454138,0.00471337,-0.43691736,-0.134
 01118,0.66800401,-0.00005005,-0.00034541,0.00072903,0.00052151,-0.0003
 2453,-0.00014823,-0.00194562,0.00163920,-0.00340809,-0.04586184,0.0755
 7705,-0.44476208,0.00025017,0.00000294,-0.00020364,0.00216263,-0.00069
 541,-0.00009056,0.03646676,0.00205525,0.00013981,0.00435454,-0.0012038
 0,0.00105604,-0.00036747,0.00017938,0.00050315,-0.00196675,0.07624806,
 0.16476667,0.13800770,-0.00028972,0.00024532,-0.00027959,0.00069148,-0
 .00027439,-0.00015527,-0.07447981,-0.17123859,0.00274966,-0.00221664,0
 .00141027,0.00018152,-0.00034442,-0.00042505,0.00435152,-0.00078561,0.
 00391343,-0.43586547,0.13293707,-0.67589115,0.00002089,0.00003990,-0.0
 0018315,0.00008385,-0.00015796,-0.00159351,0.43696684,-0.13401865,0.66
 804282,0.00044328,0.00040953,-0.00051399,0.00008833,-0.00011656,0.0000
 4581,-0.00137475,0.00099773,0.00231920,-0.05234502,0.12432903,0.321905
 18,0.00150845,-0.00047223,0.00017601,0.00025762,0.00029545,-0.00001642
 ,0.00845644,-0.00320089,-0.00848882,0.04296567,0.00026305,0.00047805,-
 0.00243131,0.00035975,-0.00035612,0.00003832,-0.00022617,0.00032580,0.
 00165193,0.12274965,0.05984007,-0.21037874,0.00048136,-0.00002042,0.00
 008195,-0.00001146,0.00024553,0.00004031,-0.00137401,0.00480194,0.0045
 4625,-0.12224213,-0.06531484,-0.00230683,0.00258396,0.00128303,-0.0003
 3148,0.00025352,-0.00034528,-0.00337990,0.00085897,0.00222643,0.310494
 77,-0.20438010,-0.42418530,-0.00016129,0.00008824,-0.00102556,0.000194
 98,-0.00028120,-0.00018036,0.01091693,-0.00557447,0.00472620,-0.315427
 08,0.20645114,0.41750092,-0.00601071,0.00000425,-0.00515730,-0.0000032
 4,0.00581137,-0.00637913,0.00085575,-0.00000144,0.00000273,-0.00210015
 ,-0.00000008,0.00254130,-0.00380193,-0.00000025,-0.00065451,-0.0000015
 1,-0.00188323,0.00132463,-0.00000244,0.00277819,0.00013134,0.00239283,
 0.00600808,-0.00099142,0.00026411,-0.00054906,-0.00049231,0.09468576,0
 .00652749,0.00061543,-0.00273887,0.00004572,-0.00162529,-0.00003945,0.
 19470402,-0.22748689,-0.00093724,-0.00205834,-0.00071911,0.00051038,0.
 00032224,0.00027820,-0.10127895,0.08265748,1.09819638,0.00239607,-0.00
 601528,0.00098718,0.00026380,0.00054975,0.00049449,-0.00295334,-0.0015
 6684,0.00112978,0.09467079,-0.00652239,0.00060565,-0.00273367,-0.00004
 463,-0.00161972,-0.00003723,0.00158230,0.00222727,0.00137666,-0.194710
 88,-0.22743514,0.00091453,-0.00204774,-0.00072350,-0.00051096,0.000315
 66,0.00027489,-0.00109108,0.00137832,-0.00223056,0.10131188,0.08266347
 ,1.09808963,0.00012288,0.00008933,-0.00003617,0.00017578,0.00004629,0.
 00005797,-0.05141219,-0.12827766,-0.33236720,-0.00067987,-0.00107142,-
 0.00158327,0.04257807,-0.00048258,0.00015834,-0.00171993,-0.00039243,-
 0.00008427,-0.00015128,-0.12611617,0.06420282,-0.21604238,0.00042938,-
 0.00043845,0.00134231,0.12558613,-0.06863271,0.00203475,0.00201370,0.0
 0163874,0.00018955,0.00048257,-0.00036025,-0.32014289,-0.20991269,-0.4
 3741036,0.00303356,0.00021695,0.00105751,0.32502333,0.21251127,0.43075
 137,0.00005947,0.00063490,0.00002282,0.00018321,0.00049373,0.00005209,
 -0.04049774,-0.07389802,0.43362610,-0.00179537,-0.00140356,0.00223638,
 0.00850282,0.00129322,-0.01028414,0.03225893,-0.00208960,0.00054016,0.
 00345870,0.00121619,0.00076304,-0.00025722,-0.07449166,0.16257315,0.13
 402361,0.00072198,-0.00007612,-0.00162829,0.00317694,0.00441211,-0.005
 49107,0.07223960,-0.16841822,-0.00230945,-0.00191405,0.00160933,-0.000
 18271,-0.00029002,-0.00064509,0.42303758,0.12883745,-0.66151591,-0.003
 98485,-0.00039929,0.00235245,0.00830625,0.00463518,0.00455171,-0.42488
 929,-0.13057284,0.65407191,0.00005251,-0.00064458,-0.00002039,0.000180
 90,-0.00049400,-0.00004944,-0.00177178,0.00139620,-0.00225155,-0.04050
 038,0.07389400,-0.43360573,-0.00041676,0.00032734,0.00032515,0.0017079
 3,-0.00096262,0.00044399,0.03225294,0.00207269,0.00054758,0.00344647,-
 0.00121459,0.00076475,-0.00025931,-0.00070522,-0.00005677,-0.00162555,
 0.07448429,0.16259512,0.13401399,-0.00019094,0.00088880,0.00022639,0.0
 0096259,-0.00068680,0.00023903,-0.07222942,-0.16845958,0.00232219,-0.0
 0193108,0.00160449,0.00018221,-0.00028931,-0.00064398,0.00399546,-0.00
 039606,0.00235538,-0.42303733,0.12882209,-0.66143175,0.00042103,-0.000
 53177,-0.00015440,-0.00044373,0.00023958,-0.00026841,0.42486885,-0.130
 55584,0.65397095,0.00013125,-0.00007524,0.00003848,0.00017660,-0.00004
 638,-0.00005886,-0.00070757,0.00106919,0.00156841,-0.05140187,0.128276
 44,0.33232847,0.00112928,-0.00064491,-0.00017929,-0.00041932,0.0001892
 0,-0.00042157,0.00849476,-0.00317942,-0.00830874,0.04259683,0.00049014
 ,0.00014882,-0.00172215,0.00039143,-0.00008528,-0.00015047,-0.00043231
 ,-0.00044997,0.00134637,0.12610763,0.06414165,-0.21603780,0.00064119,-
 0.00050657,-0.00004719,-0.00032233,0.00089266,-0.00053541,-0.00128685,
 0.00440689,0.00464230,-0.12558892,-0.06854824,-0.00202005,0.00200937,0
 .00164454,-0.00018876,0.00048260,-0.00035975,-0.00303639,0.00021390,0.
 00104662,0.32006511,-0.20990894,-0.43738926,0.00017796,-0.00004336,-0.
 00007457,-0.00032005,0.00022742,-0.00015583,0.01028937,-0.00548517,0.0
 0456777,-0.32496707,0.21250427,0.43072048,-0.00378907,-0.00000474,-0.0
 1891292,0.00000257,0.00848888,-0.00640797,-0.00001258,-0.00000168,0.00
 000232,-0.00144907,-0.00000093,0.00302986,-0.00347331,0.00000003,-0.00
 056235,-0.00000311,-0.00244531,0.00255224,-0.00000221,0.00214625,-0.00
 112370,0.00061208,0.00405645,-0.00137331,0.00059792,-0.00122169,0.0001
 0687,0.12868887,0.00990375,0.00952769,-0.00241240,0.00094407,-0.001798
 38,0.00051954,0.26166694,-0.22927172,-0.00145074,-0.00462136,-0.002396
 86,-0.00026481,0.00049064,0.00003847,0.11533634,0.19067672,1.08152764,
 0.00065848,-0.00405677,0.00137214,0.00059480,0.00122280,-0.00010277,0.
 02285110,-0.00545247,-0.00134137,0.12865333,-0.00990053,0.00949066,-0.
 00240442,-0.00094328,-0.00179290,0.00052827,0.00544654,-0.00531782,-0.
 00065767,-0.26167671,-0.22922534,0.00144197,-0.00459866,-0.00237705,0.
 00026314,0.00047469,0.00003310,0.00138207,-0.00066118,-0.01562109,-0.1
 1531383,0.19070474,1.08154826,0.00058715,-0.00009012,0.00158476,0.0001
 0380,0.00051006,-0.00040365,-0.09812826,-0.19867312,-0.49745634,-0.000
 63223,-0.00077065,-0.00066790,0.10114750,-0.00152934,-0.00123710,-0.00
 187864,-0.00066219,-0.00010704,-0.00022529,-0.19869533,0.08957701,-0.3
 1271569,0.00166521,-0.00026746,0.00315126,0.20042198,-0.08646935,0.002
 48032,0.00329068,0.00264279,0.00063886,0.00030361,-0.00031894,-0.49680
 384,-0.31399257,-0.56151756,0.00204766,0.00027035,0.00363755,0.4931253
 9,0.30995942,0.55288465,0.00068053,-0.00026524,-0.00073535,0.00003169,
 0.00058652,0.00009716,-0.05360477,-0.06924635,0.38470046,-0.00038961,-
 0.00009768,0.00016529,-0.00473379,-0.00153411,-0.00228963,0.05674105,-
 0.00191981,-0.00033286,0.00178050,0.00075262,0.00067094,-0.00014751,-0
 .06935128,0.13775088,0.12548229,0.00024851,-0.00020304,-0.00181568,-0.
 00113371,-0.00238445,-0.00020329,0.07101458,-0.13622733,-0.00175411,-0
 .00170439,0.00167116,-0.00022147,-0.00011758,-0.00043269,0.38197606,0.
 12556603,-0.50942215,-0.00141854,0.00001964,0.00375383,0.00445864,0.00
 266943,0.00481641,-0.38240719,-0.12577192,0.50179007,0.00067455,0.0002
 5594,0.00071792,0.00002505,-0.00057093,-0.00008036,-0.00036047,0.00009
 370,-0.00020062,-0.05360572,0.06925971,-0.38471011,-0.00047900,0.00041
 696,0.00011722,0.00174518,0.00003016,-0.00060282,0.05672247,0.00191579
 ,-0.00032965,0.00177426,-0.00075084,0.00067310,-0.00015131,-0.00023536
 ,-0.00018400,-0.00181037,0.06934656,0.13779747,0.12548423,-0.00035707,
 0.00121619,0.00053392,-0.00003166,-0.00049191,0.00014059,-0.07103131,-
 0.13629448,0.00175623,-0.00171321,0.00166424,0.00022356,-0.00011933,-0
 .00042832,0.00143143,0.00003470,0.00376233,-0.38202988,0.12556556,-0.5
 0940813,0.00002987,-0.00080342,-0.00062548,0.00059917,0.00014053,-0.00
 155745,0.38245306,-0.12577289,0.50177045,0.00058881,0.00010618,-0.0015
 7105,0.00010841,-0.00052586,0.00038807,-0.00065622,0.00076364,0.000676
 87,-0.09813032,0.19868242,0.49743951,0.00213468,-0.00008305,0.00068399
 ,-0.00047019,0.00035883,-0.00003041,-0.00472191,0.00114394,-0.00446358
 ,0.10114659,0.00153574,-0.00123570,-0.00187488,0.00066128,-0.00011322,
 -0.00022462,-0.00166628,-0.00028370,0.00315556,0.19870294,0.08951860,-
 0.31273955,0.00009254,-0.00032781,-0.00016214,-0.00042595,0.00121776,-
 0.00080175,0.00154582,-0.00238689,0.00266796,-0.20044615,-0.08638900,-
 0.00247314,0.00330335,0.00265149,-0.00063939,0.00029504,-0.00032019,-0
 .00205588,0.00026900,0.00362967,0.49678651,-0.31402622,-0.56156704,-0.
 00067063,-0.00015692,-0.00151933,-0.00012974,0.00053498,-0.00061915,0.
 00230604,-0.00019850,0.00482235,-0.49312371,0.30997937,0.55292218,-0.0
 0614500,-0.00001370,-0.02027111,0.00000096,0.01240998,-0.00067539,0.00
 202272,-0.00000131,0.00000231,-0.00340830,-0.00000143,0.00194725,-0.00
 817181,-0.00000235,0.00054673,-0.00000243,-0.00646318,-0.00274788,-0.0
 0000148,0.00691166,0.00426249,0.00077301,0.00543836,-0.00104428,0.0006
 3142,-0.00122962,0.00006733,0.13441920,0.00991465,0.00866965,-0.001992
 44,0.00115899,-0.00189267,0.00006561,0.25923984,-0.22763499,-0.0014277
 9,-0.00532445,-0.00155147,-0.00021395,0.00079650,0.00000060,0.09513626
 ,0.17992732,1.07699987,0.00082125,-0.00542965,0.00104589,0.00062991,0.
 00122744,-0.00006683,0.01060518,-0.00592050,-0.00118732,0.13433288,-0.
 00989471,0.00865109,-0.00199658,-0.00115792,-0.00188304,0.00007831,0.0
 0588980,-0.00501285,0.00084813,-0.25922133,-0.22761491,0.00141732,-0.0
 0531189,-0.00152472,0.00021403,0.00078125,-0.00000544,0.00121442,0.000
 86434,-0.00984657,-0.09512212,0.17993259,1.07689805,0.00052917,-0.0001
 1605,0.00135698,0.00012304,0.00045144,-0.00030637,-0.09222861,-0.19460
 653,-0.48229600,-0.00146471,-0.00091810,-0.00048617,0.09639378,-0.0012
 7055,0.00007255,-0.00189374,-0.00071987,-0.00019435,-0.00010038,-0.194
 76847,0.08488903,-0.30694674,0.00269734,0.00071518,0.00170142,0.196087
 12,-0.08292851,0.00242274,0.00361178,0.00204084,0.00069282,0.00016863,
 -0.00030510,-0.48405296,-0.30901324,-0.54912681,0.00403183,0.00088459,
 0.00277837,0.47840103,0.30496519,0.54067566,0.00073379,-0.00041643,-0.
 00071320,-0.00005989,0.00071317,0.00001552,-0.05151943,-0.07167336,0.3
 8967760,-0.00121090,-0.00096798,0.00016321,-0.00460574,-0.00141877,-0.
 00145189,0.05551823,-0.00162303,0.00042781,0.00177006,0.00067068,0.000
 83976,-0.00019314,-0.07128911,0.13918714,0.12991331,0.00060568,0.00106
 467,-0.00092366,-0.00129542,-0.00231269,-0.00031404,0.07324257,-0.1389
 3232,-0.00203352,-0.00126527,0.00120818,-0.00005133,-0.00032236,-0.000
 45239,0.38951047,0.13016948,-0.52268766,-0.00317596,-0.00090480,0.0034
 2923,0.00341631,0.00258406,0.00436389,-0.38774362,-0.13037684,0.514877
 26,0.00073093,0.00040425,0.00069603,-0.00006644,-0.00069392,0.00000216
 ,-0.00116751,0.00097248,-0.00019416,-0.05155146,0.07168274,-0.38965189
 ,0.00024838,-0.00013832,-0.00008842,0.00088755,-0.00039413,0.00002613,
 0.05551324,0.00161083,0.00043184,0.00176435,-0.00066655,0.00083859,-0.
 00019813,-0.00060219,0.00108094,-0.00091737,0.07130397,0.13918281,0.12
 990997,-0.00007741,0.00024551,-0.00011172,0.00038959,-0.00052121,0.000
 23718,-0.07326372,-0.13894226,0.00203513,-0.00127581,0.00120516,0.0000
 5029,-0.00032224,-0.00044525,0.00319088,-0.00088900,0.00342643,-0.3895
 1740,0.13016148,-0.52263329,-0.00005042,-0.00012310,-0.00027354,-0.000
 03007,0.00023588,-0.00046809,0.38774840,-0.13037874,0.51481892,0.00053
 411,0.00013454,-0.00134469,0.00012756,-0.00046474,0.00029212,-0.001513
 13,0.00091454,0.00050521,-0.09216206,0.19458743,0.48225131,0.00100454,
 -0.00046854,0.00004485,0.00025641,0.00008283,0.00005153,-0.00459454,0.
 00130544,-0.00342685,0.09634692,0.00127786,0.00007090,-0.00188985,0.00
 071835,-0.00020226,-0.00010075,-0.00267856,0.00071373,0.00170325,0.194
 73707,0.08489719,-0.30695399,0.00047483,-0.00048675,-0.00019117,0.0001
 3128,0.00024684,-0.00012140,0.00143069,-0.00231633,0.00259145,-0.19609
 153,-0.08292330,-0.00241244,0.00361882,0.00204528,-0.00069267,0.000158
 39,-0.00030703,-0.00402226,0.00086774,0.00278574,0.48399176,-0.3090035
 2,-0.54909585,-0.00003517,-0.00018652,-0.00015333,0.00008250,-0.000111
 68,-0.00027051,0.00146195,-0.00030558,0.00436969,-0.47837357,0.3049624
 2,0.54062612,-1.03627164,0.00001350,0.42156931,0.00001316,2.60901396,3
 .49183256,1.02843565,-0.00001136,-0.00001500,-1.02715125,-0.00001169,-
 0.46863902,-2.58805550,0.00001361,0.48892606,-0.00002074,-2.62254710,-
 3.45662486,0.00001654,2.59851675,3.42643541,0.00578855,0.00776397,-0.0
 0268215,-0.00235849,-0.00259503,0.00097826,-0.00342814,0.02081850,0.02
 380896,-0.01071550,-0.01578730,-0.01443216,0.01318030,-0.00316449,-0.0
 0694950,0.01497207,0.00666583,-0.01783788,-0.01381580,-0.00407274,0.01
 857148,-0.00123728,-0.00316380,-0.00229973,0.00580408,-0.00777064,0.00
 267405,-0.00236049,0.00259099,-0.00097656,0.00001346,-0.00013425,-0.00
 136443,-0.00340493,-0.02081657,0.02376507,-0.01071857,0.01578451,-0.01
 441867,0.01319460,0.00013139,-0.00276297,-0.00053565,0.00317106,-0.006
 88701,-0.01498596,0.00668699,-0.01784885,0.01381197,-0.00408221,0.0185
 6958,0.00138066,-0.00054872,0.00218578,0.00128043,-0.00313723,-0.00225
 361,-0.00157611,-0.00195079,0.00053097,0.00076340,0.00055943,0.0002494
 5,-0.00002219,0.00106419,-0.00170847,0.00015558,0.00083877,-0.00023064
 ,0.00047950,0.00452023,0.00288592,-0.00227858,-0.00259667,0.00032509,0
 .00231081,-0.00104090,-0.00216058,-0.00191992,-0.00103235,-0.00006149,
 0.00116020,-0.00012053,-0.00147144,-0.00066348,-0.00028465,0.00014155,
 0.00025569,0.00041591,-0.00125641,-0.00091602,-0.00039192,0.00114065,0
 .00021013,-0.00039994,-0.00029978,0.00132036,0.00077339,-0.00029131,-0
 .00030017,0.00179705,-0.00055975,0.00095438,0.00084029,-0.00045540,0.0
 0089069,-0.00185752,0.00320574,-0.00104741,0.00008935,0.00026159,0.000
 26629,0.00017645,-0.00027763,-0.00067356,-0.00383087,-0.00314117,0.002
 52352,0.00554258,0.00395959,-0.00348076,-0.00124009,0.00129257,0.00209
 586,0.00089391,0.00126404,-0.00023441,-0.00024724,0.00024535,-0.000048
 36,-0.00110710,-0.00315907,-0.00069728,0.00038267,0.00010054,0.0001072
 7,-0.00156304,-0.00222007,0.00300739,0.00223670,-0.00156349,0.00033860
 ,-0.00021438,0.00009536,-0.00028643,0.00019337,0.00024216,-0.00222466,
 -0.00109320,0.00312084,-0.00030100,-0.00181746,0.00054807,0.00094694,-
 0.00082691,0.00047087,-0.00100848,-0.00008957,-0.00028713,0.00084940,0
 .00186791,-0.00320585,-0.00052479,0.00027997,0.00000702,0.00042476,-0.
 00035524,-0.00007246,-0.00066643,0.00382296,-0.00313887,0.00251700,-0.
 00554200,0.00396172,-0.00348504,-0.00088836,0.00126972,-0.00023420,0.0
 0123150,0.00130110,0.00208460,-0.00033942,-0.00004699,0.00011344,0.000
 35207,-0.00041464,0.00012320,0.00110609,-0.00317380,0.00070762,0.00036
 783,0.00009174,-0.00010783,-0.00156264,-0.00221590,-0.00030661,-0.0002
 0337,0.00010793,-0.00306323,0.00222212,-0.00157616,0.00017324,-0.00006
 708,0.00008434,0.00006733,0.00012313,0.00013448,0.00225046,-0.00107816
 ,0.00312420,-0.00157935,0.00197573,-0.00050936,0.00076985,-0.00057068,
 -0.00026242,0.00012496,-0.00084946,0.00023528,-0.00000991,-0.00106649,
 0.00168778,0.00045826,-0.00018622,0.00006381,-0.00051518,0.00034403,-0
 .00017246,0.00027961,0.00025711,0.00027900,0.00047183,-0.00451611,0.00
 288977,-0.00228633,0.00259667,0.00031740,0.00231044,0.00103347,-0.0000
 6618,0.00116462,0.00104978,-0.00219986,-0.00192928,0.00019550,0.000284
 09,-0.00017788,-0.00029050,-0.00004664,-0.00006527,-0.00016471,0.00024
 161,0.00019814,0.00009595,-0.00142013,0.00067460,-0.00028554,0.0001451
 8,-0.00025284,0.00040348,-0.00125922,-0.00022416,-0.00039376,-0.000304
 22,0.00090080,-0.00041089,0.00112739,-0.00004866,-0.00017204,0.0002387
 0,-0.00001691,0.00011414,0.00009017,0.00028917,-0.00004082,0.00024930,
 -0.00132182,0.00078548,-0.00028734\\@


 GOD GAVE US TWO ENDS... ONE TO SIT ON...    
 AND THE OTHER TO THINK WITH...              
 YOUR SUCCESS DEPENDS UPON WHICH END YOU     
 USE THE MOST...                             
                                             
 IT'S A CASE OF HEADS YOU WIN TAILS YOU LOSE.
          SOURCE UNKNOWN(IT'S JUST AS WELL.) 
 Job cpu time:       7 days  7 hours 43 minutes  9.4 seconds.
 Elapsed time:       0 days  6 hours 22 minutes 41.3 seconds.
 File lengths (MBytes):  RWF=   9420 Int=      0 D2E=      0 Chk=     56 Scr=      8
 Normal termination of Gaussian 16 at Mon Dec 20 19:01:17 2021.
