3385.259 Entering Gaussian System, Link 0=g16
 Input=az_mp2_avdz_opt_anharm.gjf
 Output=az_mp2_avdz_opt_anharm.log
 Initial command:
 /sw/contrib/gaussian/g16/A03/g16/l1.exe "/gscratch/scrubbed/gds001/Gau-23230.inp" -scrdir="/gscratch/scrubbed/gds001/"
 Entering Link 1 = /sw/contrib/gaussian/g16/A03/g16/l1.exe PID=     23231.
  
 Copyright (c) 1988,1990,1992,1993,1995,1998,2003,2009,2016,
            Gaussian, Inc.  All Rights Reserved.
  
 This is part of the Gaussian(R) 16 program.  It is based on
 the Gaussian(R) 09 system (copyright 2009, Gaussian, Inc.),
 the Gaussian(R) 03 system (copyright 2003, Gaussian, Inc.),
 the Gaussian(R) 98 system (copyright 1998, Gaussian, Inc.),
 the Gaussian(R) 94 system (copyright 1995, Gaussian, Inc.),
 the Gaussian 92(TM) system (copyright 1992, Gaussian, Inc.),
 the Gaussian 90(TM) system (copyright 1990, Gaussian, Inc.),
 the Gaussian 88(TM) system (copyright 1988, Gaussian, Inc.),
 the Gaussian 86(TM) system (copyright 1986, Carnegie Mellon
 University), and the Gaussian 82(TM) system (copyright 1983,
 Carnegie Mellon University). Gaussian is a federally registered
 trademark of Gaussian, Inc.
  
 This software contains proprietary and confidential information,
 including trade secrets, belonging to Gaussian, Inc.
  
 This software is provided under written license and may be
 used, copied, transmitted, or stored only in accord with that
 written license.
  
 The following legend is applicable only to US Government
 contracts under FAR:
  
                    RESTRICTED RIGHTS LEGEND
  
 Use, reproduction and disclosure by the US Government is
 subject to restrictions as set forth in subparagraphs (a)
 and (c) of the Commercial Computer Software - Restricted
 Rights clause in FAR 52.227-19.
  
 Gaussian, Inc.
 340 Quinnipiac St., Bldg. 40, Wallingford CT 06492
  
  
 ---------------------------------------------------------------
 Warning -- This program may not be used in any manner that
 competes with the business of Gaussian, Inc. or will provide
 assistance to any competitor of Gaussian, Inc.  The licensee
 of this program is prohibited from giving any competitor of
 Gaussian, Inc. access to this program.  By using this program,
 the user acknowledges that Gaussian, Inc. is engaged in the
 business of creating and licensing software in the field of
 computational chemistry and represents and warrants to the
 licensee that it is not a competitor of Gaussian, Inc. and that
 it will not use this program in any manner prohibited above.
 ---------------------------------------------------------------
  

 Cite this work as:
 Gaussian 16, Revision A.03,
 M. J. Frisch, G. W. Trucks, H. B. Schlegel, G. E. Scuseria, 
 M. A. Robb, J. R. Cheeseman, G. Scalmani, V. Barone, 
 G. A. Petersson, H. Nakatsuji, X. Li, M. Caricato, A. V. Marenich, 
 J. Bloino, B. G. Janesko, R. Gomperts, B. Mennucci, H. P. Hratchian, 
 J. V. Ortiz, A. F. Izmaylov, J. L. Sonnenberg, D. Williams-Young, 
 F. Ding, F. Lipparini, F. Egidi, J. Goings, B. Peng, A. Petrone, 
 T. Henderson, D. Ranasinghe, V. G. Zakrzewski, J. Gao, N. Rega, 
 G. Zheng, W. Liang, M. Hada, M. Ehara, K. Toyota, R. Fukuda, 
 J. Hasegawa, M. Ishida, T. Nakajima, Y. Honda, O. Kitao, H. Nakai, 
 T. Vreven, K. Throssell, J. A. Montgomery, Jr., J. E. Peralta, 
 F. Ogliaro, M. J. Bearpark, J. J. Heyd, E. N. Brothers, K. N. Kudin, 
 V. N. Staroverov, T. A. Keith, R. Kobayashi, J. Normand, 
 K. Raghavachari, A. P. Rendell, J. C. Burant, S. S. Iyengar, 
 J. Tomasi, M. Cossi, J. M. Millam, M. Klene, C. Adamo, R. Cammi, 
 J. W. Ochterski, R. L. Martin, K. Morokuma, O. Farkas, 
 J. B. Foresman, and D. J. Fox, Gaussian, Inc., Wallingford CT, 2016.
 
 ******************************************
 Gaussian 16:  ES64L-G16RevA.03 25-Dec-2016
                20-Dec-2021 
 ******************************************
 %nprocshared=28
 Will use up to   28 processors via shared memory.
 %mem=41GB
 ----------------------------------------------
 # MP2/aug-cc-pVDZ opt freq=(vibrot,anharmonic)
 ----------------------------------------------
 1/18=20,19=15,38=1,80=1/1,3;
 2/9=110,12=2,17=6,18=5,40=1/2;
 3/5=16,7=10,11=9,25=1,30=1,71=1/1,2,3;
 4//1;
 5/5=2,38=5/2;
 8/6=4,10=1/1;
 9/15=2,16=-3/6;
 10/5=1/2;
 6/7=2,8=2,9=2,10=2/1;
 7/12=2/1,2,3,16;
 1/18=20,19=15,80=1/3(2);
 2/9=110/2;
 99//99;
 2/9=110/2;
 3/5=16,7=10,11=9,25=1,30=1,71=1/1,2,3;
 4/5=5,16=3,69=1/1;
 5/5=2,38=5/2;
 8/6=4,10=1/1;
 9/15=2,16=-3/6;
 10/5=1/2;
 7/12=2/1,2,3,16;
 1/18=20,19=15,80=1/3(-8);
 2/9=110/2;
 6/7=2,8=2,9=2,10=2/1;
 99//99;
 ----
 bleh
 ----
 Symbolic Z-matrix:
 Charge =  0 Multiplicity = 1
 N                    -0.39396   0.05916   0.57745 
 H                     0.58235  -0.02759   0.24903 
 C                    -1.29335  -0.67166  -0.30933 
 C                    -1.18427   0.82498  -0.38086 
 H                    -2.17183  -1.09998   0.15553 
 H                    -0.82793  -1.26579  -1.08512 
 H                    -0.6431    1.26922  -1.20625 
 H                    -1.9883    1.41804   0.03517 
 

 GradGradGradGradGradGradGradGradGradGradGradGradGradGradGradGradGradGrad
 Berny optimization.
 Initialization pass.
                           ----------------------------
                           !    Initial Parameters    !
                           ! (Angstroms and Degrees)  !
 --------------------------                            --------------------------
 ! Name  Definition              Value          Derivative Info.                !
 --------------------------------------------------------------------------------
 ! R1    R(1,2)                  1.0337         estimate D2E/DX2                !
 ! R2    R(1,3)                  1.4592         estimate D2E/DX2                !
 ! R3    R(1,4)                  1.4593         estimate D2E/DX2                !
 ! R4    R(3,4)                  1.5023         estimate D2E/DX2                !
 ! R5    R(3,5)                  1.0823         estimate D2E/DX2                !
 ! R6    R(3,6)                  1.0823         estimate D2E/DX2                !
 ! R7    R(4,7)                  1.0823         estimate D2E/DX2                !
 ! R8    R(4,8)                  1.0823         estimate D2E/DX2                !
 ! A1    A(2,1,3)              110.305          estimate D2E/DX2                !
 ! A2    A(2,1,4)              110.298          estimate D2E/DX2                !
 ! A3    A(1,3,5)              115.9431         estimate D2E/DX2                !
 ! A4    A(1,3,6)              116.4526         estimate D2E/DX2                !
 ! A5    A(4,3,5)              118.2726         estimate D2E/DX2                !
 ! A6    A(4,3,6)              118.7838         estimate D2E/DX2                !
 ! A7    A(5,3,6)              116.0829         estimate D2E/DX2                !
 ! A8    A(1,4,7)              116.4499         estimate D2E/DX2                !
 ! A9    A(1,4,8)              115.9439         estimate D2E/DX2                !
 ! A10   A(3,4,7)              118.7841         estimate D2E/DX2                !
 ! A11   A(3,4,8)              118.2727         estimate D2E/DX2                !
 ! A12   A(7,4,8)              116.0841         estimate D2E/DX2                !
 ! D1    D(2,1,3,5)            148.3702         estimate D2E/DX2                !
 ! D2    D(2,1,3,6)              6.3545         estimate D2E/DX2                !
 ! D3    D(2,1,4,7)             -6.3444         estimate D2E/DX2                !
 ! D4    D(2,1,4,8)           -148.3594         estimate D2E/DX2                !
 ! D5    D(5,3,4,7)           -149.8959         estimate D2E/DX2                !
 ! D6    D(5,3,4,8)             -0.0006         estimate D2E/DX2                !
 ! D7    D(6,3,4,7)             -0.004          estimate D2E/DX2                !
 ! D8    D(6,3,4,8)            149.8914         estimate D2E/DX2                !
 --------------------------------------------------------------------------------
 Trust Radius=3.00D-01 FncErr=1.00D-07 GrdErr=1.00D-07 EigMax=2.50D+02 EigMin=1.00D-04
 Number of steps in this run=     38 maximum allowed number of steps=    100.
 GradGradGradGradGradGradGradGradGradGradGradGradGradGradGradGradGradGrad

                          Input orientation:                          
 ---------------------------------------------------------------------
 Center     Atomic      Atomic             Coordinates (Angstroms)
 Number     Number       Type             X           Y           Z
 ---------------------------------------------------------------------
      1          7           0       -0.393963    0.059160    0.577446
      2          1           0        0.582350   -0.027587    0.249026
      3          6           0       -1.293354   -0.671656   -0.309333
      4          6           0       -1.184267    0.824981   -0.380865
      5          1           0       -2.171835   -1.099981    0.155526
      6          1           0       -0.827929   -1.265786   -1.085118
      7          1           0       -0.643099    1.269224   -1.206247
      8          1           0       -1.988303    1.418043    0.035168
 ---------------------------------------------------------------------
                    Distance matrix (angstroms):
                    1          2          3          4          5
     1  N    0.000000
     2  H    1.033718   0.000000
     3  C    1.459238   2.060305   0.000000
     4  C    1.459254   2.060236   1.502312   0.000000
     5  H    2.163898   2.957077   1.082259   2.229010   0.000000
     6  H    2.169776   2.302600   1.082337   2.234784   1.836511
     7  H    2.169766   2.302447   2.234793   1.082345   3.131228
     8  H    2.163920   2.956998   2.229009   1.082256   2.527571
                    6          7          8
     6  H    0.000000
     7  H    2.544624   0.000000
     8  H    3.131206   1.836527   0.000000
 Stoichiometry    C2H5N
 Framework group  C1[X(C2H5N)]
 Deg. of freedom    18
 Full point group                 C1      NOp   1
 Largest Abelian subgroup         C1      NOp   1
 Largest concise Abelian subgroup C1      NOp   1
                         Standard orientation:                         
 ---------------------------------------------------------------------
 Center     Atomic      Atomic             Coordinates (Angstroms)
 Number     Number       Type             X           Y           Z
 ---------------------------------------------------------------------
      1          7           0        0.000017    0.835055   -0.199913
      2          1           0        0.000163    1.424120    0.649543
      3          6           0       -0.751172   -0.393540    0.035975
      4          6           0        0.751140   -0.393604    0.035957
      5          1           0       -1.263829   -0.807296   -0.822670
      6          1           0       -1.272315   -0.465948    0.981819
      7          1           0        1.272309   -0.465990    0.981798
      8          1           0        1.263742   -0.807410   -0.822694
 ---------------------------------------------------------------------
 Rotational constants (GHZ):          23.4511238          20.8872989          13.5119182
 Standard basis: Aug-CC-pVDZ (5D, 7F)
 There are   120 symmetry adapted cartesian basis functions of A   symmetry.
 There are   114 symmetry adapted basis functions of A   symmetry.
   114 basis functions,   184 primitive gaussians,   120 cartesian basis functions
    12 alpha electrons       12 beta electrons
       nuclear repulsion energy        76.2199354242 Hartrees.
 NAtoms=    8 NActive=    8 NUniq=    8 SFac= 1.00D+00 NAtFMM=   60 NAOKFM=F Big=F
 Integral buffers will be    131072 words long.
 Raffenetti 1 integral format.
 Two-electron integral symmetry is turned on.
 One-electron integrals computed using PRISM.
 NBasis=   114 RedAO= T EigKep=  6.03D-05  NBF=   114
 NBsUse=   114 1.00D-06 EigRej= -1.00D+00 NBFU=   114
 ExpMin= 2.97D-02 ExpMax= 9.05D+03 ExpMxC= 3.09D+02 IAcc=3 IRadAn=         5 AccDes= 0.00D+00
 Harris functional with IExCor=  205 and IRadAn=       5 diagonalized for initial guess.
 HarFok:  IExCor=  205 AccDes= 0.00D+00 IRadAn=         5 IDoV= 1 UseB2=F ITyADJ=14
 ICtDFT=  3500011 ScaDFX=  1.000000  1.000000  1.000000  1.000000
 FoFCou: FMM=F IPFlag=           0 FMFlag=      100000 FMFlg1=           0
         NFxFlg=           0 DoJE=T BraDBF=F KetDBF=T FulRan=T
         wScrn=  0.000000 ICntrl=       500 IOpCl=  0 I1Cent=   200000004 NGrid=           0
         NMat0=    1 NMatS0=      1 NMatT0=    0 NMatD0=    1 NMtDS0=    0 NMtDT0=    0
 Petite list used in FoFCou.
 Keep R1 ints in memory in canonical form, NReq=27469117.
 Requested convergence on RMS density matrix=1.00D-08 within 128 cycles.
 Requested convergence on MAX density matrix=1.00D-06.
 Requested convergence on             energy=1.00D-06.
 No special actions if energy rises.
 SCF Done:  E(RHF) =  -133.058097914     A.U. after   11 cycles
            NFock= 11  Conv=0.60D-08     -V/T= 2.0017
 ExpMin= 2.97D-02 ExpMax= 9.05D+03 ExpMxC= 3.09D+02 IAcc=3 IRadAn=         5 AccDes= 0.00D+00
 HarFok:  IExCor=  205 AccDes= 0.00D+00 IRadAn=         5 IDoV=-2 UseB2=F ITyADJ=14
 ICtDFT= 12500011 ScaDFX=  1.000000  1.000000  1.000000  1.000000
 Range of M.O.s used for correlation:     4   114
 NBasis=   114 NAE=    12 NBE=    12 NFC=     3 NFV=     0
 NROrb=    111 NOA=     9 NOB=     9 NVA=   102 NVB=   102

 **** Warning!!: The largest alpha MO coefficient is  0.32625881D+02

 Fully direct method using O(ONN) memory.
 JobTyp=1 Pass  1:  I=   4 to  12 NPSUse= 28 ParTrn=T ParDer=T DoDerP=T.
 Spin components of T(2) and E(2):
     alpha-alpha T2 =       0.1986045820D-01 E2=     -0.5667477920D-01
     alpha-beta  T2 =       0.1182676739D+00 E2=     -0.3547010770D+00
     beta-beta   T2 =       0.1986045820D-01 E2=     -0.5667477920D-01
 ANorm=    0.1076098783D+01
 E2 =    -0.4680506354D+00 EUMP2 =    -0.13352614854951D+03
          IDoAtm=11111111
          Differentiating once with respect to electric field.
                with respect to dipole field.
          Differentiating once with respect to nuclear coordinates.
 Keep R1 ints in memory in canonical form, NReq=27472820.
          There are     1 degrees of freedom in the 1st order CPHF.  IDoFFX=0 NUNeed=     1.
 LinEq1:  Iter=  0 NonCon=     1 RMS=3.96D-03 Max=3.35D-02 NDo=     1
 AX will form     1 AO Fock derivatives at one time.
 LinEq1:  Iter=  1 NonCon=     1 RMS=6.89D-04 Max=5.40D-03 NDo=     1
 LinEq1:  Iter=  2 NonCon=     1 RMS=2.77D-04 Max=2.15D-03 NDo=     1
 LinEq1:  Iter=  3 NonCon=     1 RMS=6.59D-05 Max=5.53D-04 NDo=     1
 LinEq1:  Iter=  4 NonCon=     1 RMS=2.67D-05 Max=2.34D-04 NDo=     1
 LinEq1:  Iter=  5 NonCon=     1 RMS=6.62D-06 Max=8.51D-05 NDo=     1
 LinEq1:  Iter=  6 NonCon=     1 RMS=1.17D-06 Max=9.93D-06 NDo=     1
 LinEq1:  Iter=  7 NonCon=     1 RMS=1.59D-07 Max=9.87D-07 NDo=     1
 LinEq1:  Iter=  8 NonCon=     1 RMS=3.15D-08 Max=2.11D-07 NDo=     1
 LinEq1:  Iter=  9 NonCon=     1 RMS=6.52D-09 Max=4.04D-08 NDo=     1
 LinEq1:  Iter= 10 NonCon=     1 RMS=1.18D-09 Max=8.17D-09 NDo=     1
 LinEq1:  Iter= 11 NonCon=     1 RMS=2.14D-10 Max=1.78D-09 NDo=     1
 LinEq1:  Iter= 12 NonCon=     0 RMS=3.36D-11 Max=2.46D-10 NDo=     1
 Linear equations converged to 1.000D-10 1.000D-09 after    12 iterations.
 End of Minotr F.D. properties file   721 does not exist.
 End of Minotr F.D. properties file   722 does not exist.
 End of Minotr F.D. properties file   788 does not exist.

 **********************************************************************

            Population analysis using the SCF density.

 **********************************************************************

 Orbital symmetries:
       Occupied  (A) (A) (A) (A) (A) (A) (A) (A) (A) (A) (A) (A)
       Virtual   (A) (A) (A) (A) (A) (A) (A) (A) (A) (A) (A) (A)
                 (A) (A) (A) (A) (A) (A) (A) (A) (A) (A) (A) (A)
                 (A) (A) (A) (A) (A) (A) (A) (A) (A) (A) (A) (A)
                 (A) (A) (A) (A) (A) (A) (A) (A) (A) (A) (A) (A)
                 (A) (A) (A) (A) (A) (A) (A) (A) (A) (A) (A) (A)
                 (A) (A) (A) (A) (A) (A) (A) (A) (A) (A) (A) (A)
                 (A) (A) (A) (A) (A) (A) (A) (A) (A) (A) (A) (A)
                 (A) (A) (A) (A) (A) (A) (A) (A) (A) (A) (A) (A)
                 (A) (A) (A) (A) (A) (A)
 The electronic state is 1-A.
 Alpha  occ. eigenvalues --  -15.56681 -11.26190 -11.26123  -1.26173  -0.88788
 Alpha  occ. eigenvalues --   -0.84329  -0.69729  -0.63701  -0.53212  -0.48495
 Alpha  occ. eigenvalues --   -0.47669  -0.38485
 Alpha virt. eigenvalues --    0.03633   0.04856   0.04947   0.05816   0.07198
 Alpha virt. eigenvalues --    0.11094   0.11865   0.12290   0.14360   0.16259
 Alpha virt. eigenvalues --    0.17473   0.18520   0.19630   0.20653   0.20918
 Alpha virt. eigenvalues --    0.24331   0.29296   0.30102   0.30807   0.31863
 Alpha virt. eigenvalues --    0.34750   0.35596   0.37102   0.38982   0.40685
 Alpha virt. eigenvalues --    0.43618   0.46176   0.46494   0.47274   0.49371
 Alpha virt. eigenvalues --    0.53501   0.53845   0.55480   0.56131   0.59282
 Alpha virt. eigenvalues --    0.60334   0.61930   0.62284   0.63314   0.63912
 Alpha virt. eigenvalues --    0.67955   0.68407   0.69768   0.72064   0.72572
 Alpha virt. eigenvalues --    0.73775   0.75844   0.76053   0.79600   0.84217
 Alpha virt. eigenvalues --    0.89848   0.93319   0.94150   0.96102   1.06622
 Alpha virt. eigenvalues --    1.15456   1.15480   1.18279   1.22808   1.25247
 Alpha virt. eigenvalues --    1.26193   1.33497   1.40982   1.57756   1.61087
 Alpha virt. eigenvalues --    1.66003   1.67680   1.68236   1.71638   1.81457
 Alpha virt. eigenvalues --    1.85863   1.88218   1.91835   1.92009   1.99778
 Alpha virt. eigenvalues --    2.04162   2.05698   2.08121   2.17259   2.18013
 Alpha virt. eigenvalues --    2.18372   2.26289   2.32616   2.37069   2.38294
 Alpha virt. eigenvalues --    2.41263   2.45973   2.49937   2.58822   2.66815
 Alpha virt. eigenvalues --    2.68440   2.70558   2.80663   2.80888   2.89039
 Alpha virt. eigenvalues --    3.01182   3.08703   3.13511   3.29970   3.31258
 Alpha virt. eigenvalues --    3.43972   3.55001
          Condensed to atoms (all electrons):
               1          2          3          4          5          6
     1  N    7.300671   0.305806   0.123275   0.123311  -0.097809  -0.019615
     2  H    0.305806   0.700584  -0.022680  -0.022686   0.015071  -0.015454
     3  C    0.123275  -0.022680   4.236430   0.275084   0.298130   0.250076
     4  C    0.123311  -0.022686   0.275084   4.236431   0.009530  -0.018571
     5  H   -0.097809   0.015071   0.298130   0.009530   1.267414  -0.220539
     6  H   -0.019615  -0.015454   0.250076  -0.018571  -0.220539   1.341314
     7  H   -0.019608  -0.015470  -0.018567   0.250101   0.059659  -0.087089
     8  H   -0.097815   0.015074   0.009531   0.298121  -0.061773   0.059663
               7          8
     1  N   -0.019608  -0.097815
     2  H   -0.015470   0.015074
     3  C   -0.018567   0.009531
     4  C    0.250101   0.298121
     5  H    0.059659  -0.061773
     6  H   -0.087089   0.059663
     7  H    1.341299  -0.220553
     8  H   -0.220553   1.267450
 Mulliken charges:
               1
     1  N   -0.618217
     2  H    0.039754
     3  C    0.848721
     4  C    0.848680
     5  H   -0.269685
     6  H   -0.289785
     7  H   -0.289771
     8  H   -0.269698
 Sum of Mulliken charges =  -0.00000
 Mulliken charges with hydrogens summed into heavy atoms:
               1
     1  N   -0.578462
     3  C    0.289251
     4  C    0.289211
 Electronic spatial extent (au):  <R**2>=            142.0553
 Charge=             -0.0000 electrons
 Dipole moment (field-independent basis, Debye):
    X=              0.0001    Y=             -0.8706    Z=              1.5349  Tot=              1.7646
 Quadrupole moment (field-independent basis, Debye-Ang):
   XX=            -18.6062   YY=            -20.6624   ZZ=            -18.7164
   XY=              0.0003   XZ=              0.0003   YZ=              3.0375
 Traceless Quadrupole moment (field-independent basis, Debye-Ang):
   XX=              0.7222   YY=             -1.3341   ZZ=              0.6119
   XY=              0.0003   XZ=              0.0003   YZ=              3.0375
 Octapole moment (field-independent basis, Debye-Ang**2):
  XXX=             -0.0002  YYY=              2.6800  ZZZ=              1.9490  XYY=              0.0006
  XXY=             -1.1110  XXZ=              0.3898  XZZ=              0.0001  YZZ=             -0.7873
  YYZ=              2.9544  XYZ=              0.0003
 Hexadecapole moment (field-independent basis, Debye-Ang**3):
 XXXX=            -84.0747 YYYY=            -70.5378 ZZZZ=            -35.7592 XXXY=              0.0004
 XXXZ=              0.0005 YYYX=              0.0010 YYYZ=              7.2996 ZZZX=              0.0003
 ZZZY=              3.9251 XXYY=            -25.4103 XXZZ=            -17.3301 YYZZ=            -17.8836
 XXYZ=              1.2907 YYXZ=              0.0004 ZZXY=              0.0002
 N-N= 7.621993542424D+01 E-N=-4.627933750579D+02  KE= 1.328288179807D+02
 Calling FoFJK, ICntrl=  10002127 FMM=F ISym2X=0 I1Cent= 0 IOpClX= 0 NMat=1 NMatS=1 NMatT=0.
 ***** Axes restored to original set *****
 -------------------------------------------------------------------
 Center     Atomic                   Forces (Hartrees/Bohr)
 Number     Number              X              Y              Z
 -------------------------------------------------------------------
      1        7           0.018753851   -0.000216712    0.023838108
      2        1          -0.010369314    0.000838159    0.001931657
      3        6          -0.000393527    0.004196181   -0.009804655
      4        6          -0.001066444   -0.005005414   -0.009359160
      5        1          -0.003832882   -0.003454844    0.004818865
      6        1          -0.000116927   -0.003188983   -0.007801200
      7        1           0.000286056    0.002415161   -0.008065740
      8        1          -0.003260815    0.004416451    0.004442124
 -------------------------------------------------------------------
 Cartesian Forces:  Max     0.023838108 RMS     0.007909322

 GradGradGradGradGradGradGradGradGradGradGradGradGradGradGradGradGradGrad
 Berny optimization.
 FormGI is forming the generalized inverse of G from B-inverse, IUseBI=4.
 Internal  Forces:  Max     0.014524132 RMS     0.006029179
 Search for a local minimum.
 Step number   1 out of a maximum of   38
 All quantities printed in internal units (Hartrees-Bohrs-Radians)
 Mixed Optimization -- RFO/linear search
 Second derivative matrix not updated -- first step.
 ITU=  0
     Eigenvalues ---    0.02295   0.03502   0.03568   0.03576   0.05004
     Eigenvalues ---    0.12342   0.12458   0.16000   0.16000   0.16000
     Eigenvalues ---    0.30965   0.33277   0.35712   0.35713   0.35723
     Eigenvalues ---    0.35723   0.36509   0.42220
 RFO step:  Lambda=-3.89709088D-03 EMin= 2.29459713D-02
 Linear search not attempted -- first point.
 Iteration  1 RMS(Cart)=  0.04229201 RMS(Int)=  0.00101449
 Iteration  2 RMS(Cart)=  0.00092620 RMS(Int)=  0.00028308
 Iteration  3 RMS(Cart)=  0.00000048 RMS(Int)=  0.00028308
 Variable       Old X    -DE/DX   Delta X   Delta X   Delta X     New X
                                 (Linear)    (Quad)   (Total)
    R1        1.95344  -0.01048   0.00000  -0.02459  -0.02459   1.92885
    R2        2.75756   0.01452   0.00000   0.03933   0.03944   2.79700
    R3        2.75759   0.01452   0.00000   0.03934   0.03944   2.79703
    R4        2.83896  -0.00554   0.00000  -0.01826  -0.01846   2.82049
    R5        2.04517   0.00655   0.00000   0.01813   0.01813   2.06331
    R6        2.04532   0.00729   0.00000   0.02020   0.02020   2.06552
    R7        2.04534   0.00729   0.00000   0.02018   0.02018   2.06552
    R8        2.04517   0.00655   0.00000   0.01814   0.01814   2.06331
    A1        1.92519  -0.00385   0.00000  -0.01435  -0.01420   1.91098
    A2        1.92506  -0.00384   0.00000  -0.01420  -0.01406   1.91100
    A3        2.02359  -0.00727   0.00000  -0.03716  -0.03671   1.98688
    A4        2.03248   0.00596   0.00000   0.04970   0.05022   2.08271
    A5        2.06425   0.00221   0.00000   0.02010   0.02024   2.08449
    A6        2.07317  -0.00338   0.00000  -0.02975  -0.02982   2.04334
    A7        2.02603  -0.00003   0.00000  -0.00456  -0.00468   2.02135
    A8        2.03243   0.00595   0.00000   0.04973   0.05026   2.08269
    A9        2.02360  -0.00727   0.00000  -0.03715  -0.03670   1.98690
   A10        2.07317  -0.00338   0.00000  -0.02978  -0.02986   2.04331
   A11        2.06425   0.00222   0.00000   0.02012   0.02026   2.08451
   A12        2.02605  -0.00003   0.00000  -0.00457  -0.00469   2.02136
    D1        2.58955  -0.00250   0.00000  -0.02922  -0.02880   2.56075
    D2        0.11091  -0.00054   0.00000  -0.03871  -0.03891   0.07199
    D3       -0.11073   0.00053   0.00000   0.03854   0.03875  -0.07198
    D4       -2.58936   0.00249   0.00000   0.02901   0.02859  -2.56077
    D5       -2.61618   0.00241   0.00000   0.03006   0.02949  -2.58669
    D6       -0.00001   0.00000   0.00000   0.00000   0.00000  -0.00001
    D7       -0.00007   0.00000   0.00000   0.00006   0.00006  -0.00001
    D8        2.61610  -0.00241   0.00000  -0.03000  -0.02943   2.58667
         Item               Value     Threshold  Converged?
 Maximum Force            0.014524     0.000450     NO 
 RMS     Force            0.006029     0.000300     NO 
 Maximum Displacement     0.100291     0.001800     NO 
 RMS     Displacement     0.042384     0.001200     NO 
 Predicted change in Energy=-1.983914D-03
 GradGradGradGradGradGradGradGradGradGradGradGradGradGradGradGradGradGrad

                          Input orientation:                          
 ---------------------------------------------------------------------
 Center     Atomic      Atomic             Coordinates (Angstroms)
 Number     Number       Type             X           Y           Z
 ---------------------------------------------------------------------
      1          7           0       -0.393825    0.060999    0.615609
      2          1           0        0.572556   -0.024604    0.298405
      3          6           0       -1.285294   -0.667573   -0.314544
      4          6           0       -1.176940    0.819332   -0.385606
      5          1           0       -2.153344   -1.119755    0.169363
      6          1           0       -0.848537   -1.238147   -1.138190
      7          1           0       -0.667935    1.239963   -1.256631
      8          1           0       -1.967081    1.436183    0.047197
 ---------------------------------------------------------------------
                    Distance matrix (angstroms):
                    1          2          3          4          5
     1  N    0.000000
     2  H    1.020705   0.000000
     3  C    1.480107   2.059301   0.000000
     4  C    1.480125   2.059329   1.492540   0.000000
     5  H    2.165461   2.940499   1.091854   2.240851   0.000000
     6  H    2.229429   2.357116   1.093025   2.215277   1.851009
     7  H    2.229434   2.357136   2.215255   1.093024   3.131799
     8  H    2.165492   2.940538   2.240866   1.091855   2.565626
                    6          7          8
     6  H    0.000000
     7  H    2.487504   0.000000
     8  H    3.131825   1.851013   0.000000
 Stoichiometry    C2H5N
 Framework group  C1[X(C2H5N)]
 Deg. of freedom    18
 Full point group                 C1      NOp   1
 Largest Abelian subgroup         C1      NOp   1
 Largest concise Abelian subgroup C1      NOp   1
                         Standard orientation:                         
 ---------------------------------------------------------------------
 Center     Atomic      Atomic             Coordinates (Angstroms)
 Number     Number       Type             X           Y           Z
 ---------------------------------------------------------------------
      1          7           0       -0.000069    0.864650   -0.166164
      2          1           0       -0.000128    1.392366    0.707538
      3          6           0       -0.746236   -0.399891    0.020619
      4          6           0        0.746305   -0.399789    0.020622
      5          1           0       -1.282743   -0.731495   -0.870641
      6          1           0       -1.243723   -0.592097    0.974699
      7          1           0        1.243781   -0.591920    0.974721
      8          1           0        1.282882   -0.731323   -0.870622
 ---------------------------------------------------------------------
 Rotational constants (GHZ):          22.6288964          21.0198769          13.3371425
 Standard basis: Aug-CC-pVDZ (5D, 7F)
 There are   120 symmetry adapted cartesian basis functions of A   symmetry.
 There are   114 symmetry adapted basis functions of A   symmetry.
   114 basis functions,   184 primitive gaussians,   120 cartesian basis functions
    12 alpha electrons       12 beta electrons
       nuclear repulsion energy        75.7162187393 Hartrees.
 NAtoms=    8 NActive=    8 NUniq=    8 SFac= 1.00D+00 NAtFMM=   60 NAOKFM=F Big=F
 Integral buffers will be    131072 words long.
 Raffenetti 1 integral format.
 Two-electron integral symmetry is turned on.
 One-electron integrals computed using PRISM.
 NBasis=   114 RedAO= T EigKep=  6.02D-05  NBF=   114
 NBsUse=   114 1.00D-06 EigRej= -1.00D+00 NBFU=   114
 Initial guess from the checkpoint file:  "/gscratch/scrubbed/gds001/Gau-23231.chk"
 B after Tr=     0.000000   -0.000000   -0.000000
         Rot=    0.999560   -0.029663    0.000012   -0.000058 Ang=  -3.40 deg.
 ExpMin= 2.97D-02 ExpMax= 9.05D+03 ExpMxC= 3.09D+02 IAcc=3 IRadAn=         5 AccDes= 0.00D+00
 Harris functional with IExCor=  205 and IRadAn=       5 diagonalized for initial guess.
 HarFok:  IExCor=  205 AccDes= 0.00D+00 IRadAn=         5 IDoV= 1 UseB2=F ITyADJ=14
 ICtDFT=  3500011 ScaDFX=  1.000000  1.000000  1.000000  1.000000
 FoFCou: FMM=F IPFlag=           0 FMFlag=      100000 FMFlg1=           0
         NFxFlg=           0 DoJE=T BraDBF=F KetDBF=T FulRan=T
         wScrn=  0.000000 ICntrl=       500 IOpCl=  0 I1Cent=   200000004 NGrid=           0
         NMat0=    1 NMatS0=      1 NMatT0=    0 NMatD0=    1 NMtDS0=    0 NMtDT0=    0
 Petite list used in FoFCou.
 Keep R1 ints in memory in canonical form, NReq=27468765.
 Requested convergence on RMS density matrix=1.00D-08 within 128 cycles.
 Requested convergence on MAX density matrix=1.00D-06.
 Requested convergence on             energy=1.00D-06.
 No special actions if energy rises.
 SCF Done:  E(RHF) =  -133.058219331     A.U. after   11 cycles
            NFock= 11  Conv=0.23D-08     -V/T= 2.0024
 ExpMin= 2.97D-02 ExpMax= 9.05D+03 ExpMxC= 3.09D+02 IAcc=3 IRadAn=         5 AccDes= 0.00D+00
 HarFok:  IExCor=  205 AccDes= 0.00D+00 IRadAn=         5 IDoV=-2 UseB2=F ITyADJ=14
 ICtDFT= 12500011 ScaDFX=  1.000000  1.000000  1.000000  1.000000
 Range of M.O.s used for correlation:     4   114
 NBasis=   114 NAE=    12 NBE=    12 NFC=     3 NFV=     0
 NROrb=    111 NOA=     9 NOB=     9 NVA=   102 NVB=   102

 **** Warning!!: The largest alpha MO coefficient is  0.33256390D+02

 Fully direct method using O(ONN) memory.
 JobTyp=1 Pass  1:  I=   4 to  12 NPSUse= 28 ParTrn=T ParDer=T DoDerP=T.
 Spin components of T(2) and E(2):
     alpha-alpha T2 =       0.2007334166D-01 E2=     -0.5682054211D-01
     alpha-beta  T2 =       0.1196668839D+00 E2=     -0.3560226964D+00
     beta-beta   T2 =       0.2007334166D-01 E2=     -0.5682054211D-01
 ANorm=    0.1076946409D+01
 E2 =    -0.4696637807D+00 EUMP2 =    -0.13352788311167D+03
          IDoAtm=11111111
          Differentiating once with respect to electric field.
                with respect to dipole field.
          Differentiating once with respect to nuclear coordinates.
 Keep R1 ints in memory in canonical form, NReq=27472468.
          There are     1 degrees of freedom in the 1st order CPHF.  IDoFFX=0 NUNeed=     1.
 LinEq1:  Iter=  0 NonCon=     1 RMS=4.02D-03 Max=3.28D-02 NDo=     1
 AX will form     1 AO Fock derivatives at one time.
 LinEq1:  Iter=  1 NonCon=     1 RMS=7.27D-04 Max=6.12D-03 NDo=     1
 LinEq1:  Iter=  2 NonCon=     1 RMS=2.91D-04 Max=2.36D-03 NDo=     1
 LinEq1:  Iter=  3 NonCon=     1 RMS=7.22D-05 Max=6.71D-04 NDo=     1
 LinEq1:  Iter=  4 NonCon=     1 RMS=2.96D-05 Max=2.75D-04 NDo=     1
 LinEq1:  Iter=  5 NonCon=     1 RMS=7.37D-06 Max=9.74D-05 NDo=     1
 LinEq1:  Iter=  6 NonCon=     1 RMS=1.28D-06 Max=1.18D-05 NDo=     1
 LinEq1:  Iter=  7 NonCon=     1 RMS=1.78D-07 Max=9.76D-07 NDo=     1
 LinEq1:  Iter=  8 NonCon=     1 RMS=3.53D-08 Max=2.32D-07 NDo=     1
 LinEq1:  Iter=  9 NonCon=     1 RMS=6.93D-09 Max=3.99D-08 NDo=     1
 LinEq1:  Iter= 10 NonCon=     1 RMS=1.32D-09 Max=7.29D-09 NDo=     1
 LinEq1:  Iter= 11 NonCon=     1 RMS=2.25D-10 Max=1.49D-09 NDo=     1
 LinEq1:  Iter= 12 NonCon=     0 RMS=3.49D-11 Max=2.69D-10 NDo=     1
 Linear equations converged to 1.000D-10 1.000D-09 after    12 iterations.
 End of Minotr F.D. properties file   721 does not exist.
 End of Minotr F.D. properties file   722 does not exist.
 End of Minotr F.D. properties file   788 does not exist.
 Calling FoFJK, ICntrl=  10002127 FMM=F ISym2X=0 I1Cent= 0 IOpClX= 0 NMat=1 NMatS=1 NMatT=0.
 ***** Axes restored to original set *****
 -------------------------------------------------------------------
 Center     Atomic                   Forces (Hartrees/Bohr)
 Number     Number              X              Y              Z
 -------------------------------------------------------------------
      1        7           0.004023556   -0.000124559    0.003462659
      2        1           0.001574828   -0.000159714   -0.000987506
      3        6          -0.004334025   -0.001404693   -0.001659277
      4        6          -0.004087129    0.001846000   -0.001815597
      5        1           0.000242048   -0.000244503   -0.000603737
      6        1           0.001109296   -0.000647293    0.001141552
      7        1           0.001199569    0.000587895    0.001082819
      8        1           0.000271856    0.000146868   -0.000620911
 -------------------------------------------------------------------
 Cartesian Forces:  Max     0.004334025 RMS     0.001887103

 GradGradGradGradGradGradGradGradGradGradGradGradGradGradGradGradGradGrad
 Berny optimization.
 Using GEDIIS/GDIIS optimizer.
 FormGI is forming the generalized inverse of G from B-inverse, IUseBI=4.
 Internal  Forces:  Max     0.002917404 RMS     0.001236892
 Search for a local minimum.
 Step number   2 out of a maximum of   38
 All quantities printed in internal units (Hartrees-Bohrs-Radians)
 Mixed Optimization -- RFO/linear search
 Update second derivatives using D2CorX and points    1    2
 DE= -1.73D-03 DEPred=-1.98D-03 R= 8.74D-01
 TightC=F SS=  1.41D+00  RLast= 1.51D-01 DXNew= 5.0454D-01 4.5215D-01
 Trust test= 8.74D-01 RLast= 1.51D-01 DXMaxT set to 4.52D-01
 ITU=  1  0
 Use linear search instead of GDIIS.
     Eigenvalues ---    0.02301   0.03403   0.03665   0.03740   0.05473
     Eigenvalues ---    0.12233   0.12284   0.15907   0.16000   0.18331
     Eigenvalues ---    0.30240   0.32148   0.33151   0.35713   0.35721
     Eigenvalues ---    0.35723   0.36420   0.43184
 RFO step:  Lambda=-2.13638723D-04 EMin= 2.30122531D-02
 Quartic linear search produced a step of -0.09159.
 Iteration  1 RMS(Cart)=  0.01043509 RMS(Int)=  0.00012509
 Iteration  2 RMS(Cart)=  0.00010201 RMS(Int)=  0.00005878
 Iteration  3 RMS(Cart)=  0.00000001 RMS(Int)=  0.00005878
 Variable       Old X    -DE/DX   Delta X   Delta X   Delta X     New X
                                 (Linear)    (Quad)   (Total)
    R1        1.92885   0.00181   0.00225   0.00025   0.00250   1.93135
    R2        2.79700   0.00292  -0.00361   0.01333   0.00973   2.80673
    R3        2.79703   0.00291  -0.00361   0.01331   0.00970   2.80673
    R4        2.82049   0.00142   0.00169   0.00050   0.00218   2.82267
    R5        2.06331  -0.00036  -0.00166   0.00178   0.00012   2.06342
    R6        2.06552  -0.00008  -0.00185   0.00279   0.00094   2.06646
    R7        2.06552  -0.00008  -0.00185   0.00279   0.00095   2.06646
    R8        2.06331  -0.00036  -0.00166   0.00177   0.00011   2.06342
    A1        1.91098   0.00057   0.00130  -0.00399  -0.00272   1.90826
    A2        1.91100   0.00057   0.00129  -0.00400  -0.00275   1.90825
    A3        1.98688   0.00155   0.00336  -0.00013   0.00317   1.99005
    A4        2.08271  -0.00211  -0.00460  -0.01140  -0.01609   2.06662
    A5        2.08449   0.00021  -0.00185   0.00439   0.00246   2.08695
    A6        2.04334   0.00049   0.00273   0.00783   0.01056   2.05390
    A7        2.02135  -0.00028   0.00043  -0.00263  -0.00234   2.01901
    A8        2.08269  -0.00211  -0.00460  -0.01140  -0.01609   2.06660
    A9        1.98690   0.00154   0.00336  -0.00015   0.00315   1.99005
   A10        2.04331   0.00049   0.00274   0.00786   0.01059   2.05390
   A11        2.08451   0.00020  -0.00186   0.00438   0.00245   2.08696
   A12        2.02136  -0.00028   0.00043  -0.00263  -0.00235   2.01901
    D1        2.56075   0.00016   0.00264  -0.00191   0.00075   2.56150
    D2        0.07199   0.00145   0.00356   0.01983   0.02331   0.09531
    D3       -0.07198  -0.00145  -0.00355  -0.01984  -0.02331  -0.09529
    D4       -2.56077  -0.00015  -0.00262   0.00195  -0.00070  -2.56147
    D5       -2.58669  -0.00069  -0.00270  -0.01732  -0.02004  -2.60673
    D6       -0.00001  -0.00000  -0.00000   0.00002   0.00002   0.00001
    D7       -0.00001   0.00000  -0.00001  -0.00001  -0.00001  -0.00002
    D8        2.58667   0.00069   0.00270   0.01733   0.02005   2.60671
         Item               Value     Threshold  Converged?
 Maximum Force            0.002917     0.000450     NO 
 RMS     Force            0.001237     0.000300     NO 
 Maximum Displacement     0.022303     0.001800     NO 
 RMS     Displacement     0.010457     0.001200     NO 
 Predicted change in Energy=-1.221654D-04
 GradGradGradGradGradGradGradGradGradGradGradGradGradGradGradGradGradGrad

                          Input orientation:                          
 ---------------------------------------------------------------------
 Center     Atomic      Atomic             Coordinates (Angstroms)
 Number     Number       Type             X           Y           Z
 ---------------------------------------------------------------------
      1          7           0       -0.390620    0.060644    0.613006
      2          1           0        0.574070   -0.025252    0.286603
      3          6           0       -1.291064   -0.667845   -0.316772
      4          6           0       -1.182616    0.820206   -0.387894
      5          1           0       -2.157278   -1.122474    0.168271
      6          1           0       -0.842277   -1.249181   -1.126978
      7          1           0       -0.660047    1.250986   -1.246465
      8          1           0       -1.970567    1.439313    0.045831
 ---------------------------------------------------------------------
                    Distance matrix (angstroms):
                    1          2          3          4          5
     1  N    0.000000
     2  H    1.022029   0.000000
     3  C    1.485255   2.062937   0.000000
     4  C    1.485259   2.062932   1.493692   0.000000
     5  H    2.172243   2.945871   1.091916   2.243499   0.000000
     6  H    2.224226   2.345688   1.093525   2.223609   1.850122
     7  H    2.224217   2.345661   2.223606   1.093524   3.142688
     8  H    2.172245   2.945861   2.243506   1.091915   2.571498
                    6          7          8
     6  H    0.000000
     7  H    2.509645   0.000000
     8  H    3.142693   1.850125   0.000000
 Stoichiometry    C2H5N
 Framework group  C1[X(C2H5N)]
 Deg. of freedom    18
 Full point group                 C1      NOp   1
 Largest Abelian subgroup         C1      NOp   1
 Largest concise Abelian subgroup C1      NOp   1
                         Standard orientation:                         
 ---------------------------------------------------------------------
 Center     Atomic      Atomic             Coordinates (Angstroms)
 Number     Number       Type             X           Y           Z
 ---------------------------------------------------------------------
      1          7           0        0.000004    0.865704   -0.172238
      2          1           0        0.000020    1.396239    0.701304
      3          6           0       -0.746849   -0.403174    0.023062
      4          6           0        0.746843   -0.403186    0.023061
      5          1           0       -1.285750   -0.742775   -0.863806
      6          1           0       -1.254828   -0.566223    0.977613
      7          1           0        1.254816   -0.566224    0.977617
      8          1           0        1.285748   -0.742789   -0.863804
 ---------------------------------------------------------------------
 Rotational constants (GHZ):          22.5423389          20.9384344          13.2756910
 Standard basis: Aug-CC-pVDZ (5D, 7F)
 There are   120 symmetry adapted cartesian basis functions of A   symmetry.
 There are   114 symmetry adapted basis functions of A   symmetry.
   114 basis functions,   184 primitive gaussians,   120 cartesian basis functions
    12 alpha electrons       12 beta electrons
       nuclear repulsion energy        75.5706657182 Hartrees.
 NAtoms=    8 NActive=    8 NUniq=    8 SFac= 1.00D+00 NAtFMM=   60 NAOKFM=F Big=F
 Integral buffers will be    131072 words long.
 Raffenetti 1 integral format.
 Two-electron integral symmetry is turned on.
 One-electron integrals computed using PRISM.
 NBasis=   114 RedAO= T EigKep=  6.05D-05  NBF=   114
 NBsUse=   114 1.00D-06 EigRej= -1.00D+00 NBFU=   114
 Initial guess from the checkpoint file:  "/gscratch/scrubbed/gds001/Gau-23231.chk"
 B after Tr=    -0.000000    0.000000    0.000000
         Rot=    0.999989    0.004715   -0.000004    0.000041 Ang=   0.54 deg.
 ExpMin= 2.97D-02 ExpMax= 9.05D+03 ExpMxC= 3.09D+02 IAcc=3 IRadAn=         5 AccDes= 0.00D+00
 Harris functional with IExCor=  205 and IRadAn=       5 diagonalized for initial guess.
 HarFok:  IExCor=  205 AccDes= 0.00D+00 IRadAn=         5 IDoV= 1 UseB2=F ITyADJ=14
 ICtDFT=  3500011 ScaDFX=  1.000000  1.000000  1.000000  1.000000
 FoFCou: FMM=F IPFlag=           0 FMFlag=      100000 FMFlg1=           0
         NFxFlg=           0 DoJE=T BraDBF=F KetDBF=T FulRan=T
         wScrn=  0.000000 ICntrl=       500 IOpCl=  0 I1Cent=   200000004 NGrid=           0
         NMat0=    1 NMatS0=      1 NMatT0=    0 NMatD0=    1 NMtDS0=    0 NMtDT0=    0
 Petite list used in FoFCou.
 Keep R1 ints in memory in canonical form, NReq=27468677.
 Requested convergence on RMS density matrix=1.00D-08 within 128 cycles.
 Requested convergence on MAX density matrix=1.00D-06.
 Requested convergence on             energy=1.00D-06.
 No special actions if energy rises.
 SCF Done:  E(RHF) =  -133.058077474     A.U. after    9 cycles
            NFock=  9  Conv=0.93D-08     -V/T= 2.0025
 ExpMin= 2.97D-02 ExpMax= 9.05D+03 ExpMxC= 3.09D+02 IAcc=3 IRadAn=         5 AccDes= 0.00D+00
 HarFok:  IExCor=  205 AccDes= 0.00D+00 IRadAn=         5 IDoV=-2 UseB2=F ITyADJ=14
 ICtDFT= 12500011 ScaDFX=  1.000000  1.000000  1.000000  1.000000
 Range of M.O.s used for correlation:     4   114
 NBasis=   114 NAE=    12 NBE=    12 NFC=     3 NFV=     0
 NROrb=    111 NOA=     9 NOB=     9 NVA=   102 NVB=   102

 **** Warning!!: The largest alpha MO coefficient is  0.33214389D+02

 Fully direct method using O(ONN) memory.
 JobTyp=1 Pass  1:  I=   4 to  12 NPSUse= 28 ParTrn=T ParDer=T DoDerP=T.
 Spin components of T(2) and E(2):
     alpha-alpha T2 =       0.2011519420D-01 E2=     -0.5682683235D-01
     alpha-beta  T2 =       0.1199873111D+00 E2=     -0.3562964262D+00
     beta-beta   T2 =       0.2011519420D-01 E2=     -0.5682683235D-01
 ANorm=    0.1077134021D+01
 E2 =    -0.4699500909D+00 EUMP2 =    -0.13352802756511D+03
          IDoAtm=11111111
          Differentiating once with respect to electric field.
                with respect to dipole field.
          Differentiating once with respect to nuclear coordinates.
 Keep R1 ints in memory in canonical form, NReq=27472468.
          There are     1 degrees of freedom in the 1st order CPHF.  IDoFFX=0 NUNeed=     1.
 LinEq1:  Iter=  0 NonCon=     1 RMS=4.04D-03 Max=3.34D-02 NDo=     1
 AX will form     1 AO Fock derivatives at one time.
 LinEq1:  Iter=  1 NonCon=     1 RMS=7.37D-04 Max=6.14D-03 NDo=     1
 LinEq1:  Iter=  2 NonCon=     1 RMS=2.94D-04 Max=2.32D-03 NDo=     1
 LinEq1:  Iter=  3 NonCon=     1 RMS=7.37D-05 Max=6.68D-04 NDo=     1
 LinEq1:  Iter=  4 NonCon=     1 RMS=3.03D-05 Max=2.83D-04 NDo=     1
 LinEq1:  Iter=  5 NonCon=     1 RMS=7.50D-06 Max=9.99D-05 NDo=     1
 LinEq1:  Iter=  6 NonCon=     1 RMS=1.31D-06 Max=1.17D-05 NDo=     1
 LinEq1:  Iter=  7 NonCon=     1 RMS=1.80D-07 Max=1.01D-06 NDo=     1
 LinEq1:  Iter=  8 NonCon=     1 RMS=3.48D-08 Max=2.30D-07 NDo=     1
 LinEq1:  Iter=  9 NonCon=     1 RMS=6.97D-09 Max=3.98D-08 NDo=     1
 LinEq1:  Iter= 10 NonCon=     1 RMS=1.37D-09 Max=8.06D-09 NDo=     1
 LinEq1:  Iter= 11 NonCon=     1 RMS=2.37D-10 Max=1.62D-09 NDo=     1
 LinEq1:  Iter= 12 NonCon=     0 RMS=3.65D-11 Max=2.75D-10 NDo=     1
 Linear equations converged to 1.000D-10 1.000D-09 after    12 iterations.
 End of Minotr F.D. properties file   721 does not exist.
 End of Minotr F.D. properties file   722 does not exist.
 End of Minotr F.D. properties file   788 does not exist.
 Calling FoFJK, ICntrl=  10002127 FMM=F ISym2X=0 I1Cent= 0 IOpClX= 0 NMat=1 NMatS=1 NMatT=0.
 ***** Axes restored to original set *****
 -------------------------------------------------------------------
 Center     Atomic                   Forces (Hartrees/Bohr)
 Number     Number              X              Y              Z
 -------------------------------------------------------------------
      1        7           0.000742345    0.000080995    0.002812840
      2        1           0.000375354   -0.000077992   -0.001042894
      3        6          -0.000750820   -0.000335851   -0.001061304
      4        6          -0.000699009    0.000338215   -0.001092539
      5        1           0.000273223    0.000235140   -0.000262758
      6        1          -0.000071326    0.000240467    0.000432309
      7        1          -0.000103296   -0.000184852    0.000451945
      8        1           0.000233530   -0.000296123   -0.000237600
 -------------------------------------------------------------------
 Cartesian Forces:  Max     0.002812840 RMS     0.000769210

 GradGradGradGradGradGradGradGradGradGradGradGradGradGradGradGradGradGrad
 Berny optimization.
 Using GEDIIS/GDIIS optimizer.
 FormGI is forming the generalized inverse of G from B-inverse, IUseBI=4.
 Internal  Forces:  Max     0.001135553 RMS     0.000451078
 Search for a local minimum.
 Step number   3 out of a maximum of   38
 All quantities printed in internal units (Hartrees-Bohrs-Radians)
 Mixed Optimization -- En-DIIS/RFO-DIIS
 Update second derivatives using D2CorX and points    1    2    3
 DE= -1.44D-04 DEPred=-1.22D-04 R= 1.18D+00
 TightC=F SS=  1.41D+00  RLast= 5.38D-02 DXNew= 7.6043D-01 1.6134D-01
 Trust test= 1.18D+00 RLast= 5.38D-02 DXMaxT set to 4.52D-01
 ITU=  1  1  0
 Use linear search instead of GDIIS.
     Eigenvalues ---    0.02300   0.03390   0.03649   0.03758   0.04659
     Eigenvalues ---    0.12254   0.12278   0.15121   0.16000   0.19496
     Eigenvalues ---    0.27226   0.33156   0.33505   0.35713   0.35723
     Eigenvalues ---    0.35736   0.36516   0.42540
 RFO step:  Lambda=-3.14727061D-05 EMin= 2.30012127D-02
 Quartic linear search produced a step of  0.20730.
 Iteration  1 RMS(Cart)=  0.00372335 RMS(Int)=  0.00003051
 Iteration  2 RMS(Cart)=  0.00002154 RMS(Int)=  0.00001962
 Iteration  3 RMS(Cart)=  0.00000000 RMS(Int)=  0.00001962
 Variable       Old X    -DE/DX   Delta X   Delta X   Delta X     New X
                                 (Linear)    (Quad)   (Total)
    R1        1.93135   0.00069   0.00052   0.00135   0.00187   1.93323
    R2        2.80673   0.00114   0.00202   0.00424   0.00626   2.81299
    R3        2.80673   0.00114   0.00201   0.00424   0.00626   2.81299
    R4        2.82267  -0.00062   0.00045  -0.00361  -0.00317   2.81950
    R5        2.06342  -0.00043   0.00002  -0.00113  -0.00110   2.06232
    R6        2.06646  -0.00048   0.00020  -0.00130  -0.00110   2.06536
    R7        2.06646  -0.00048   0.00020  -0.00130  -0.00110   2.06536
    R8        2.06342  -0.00043   0.00002  -0.00112  -0.00110   2.06232
    A1        1.90826  -0.00054  -0.00056  -0.00724  -0.00783   1.90043
    A2        1.90825  -0.00054  -0.00057  -0.00722  -0.00781   1.90043
    A3        1.99005   0.00002   0.00066   0.00054   0.00119   1.99124
    A4        2.06662  -0.00022  -0.00334  -0.00024  -0.00359   2.06303
    A5        2.08695   0.00017   0.00051  -0.00080  -0.00032   2.08662
    A6        2.05390  -0.00029   0.00219  -0.00061   0.00160   2.05550
    A7        2.01901   0.00006  -0.00049   0.00020  -0.00032   2.01869
    A8        2.06660  -0.00022  -0.00334  -0.00022  -0.00357   2.06303
    A9        1.99005   0.00002   0.00065   0.00055   0.00120   1.99125
   A10        2.05390  -0.00029   0.00219  -0.00061   0.00160   2.05550
   A11        2.08696   0.00017   0.00051  -0.00081  -0.00033   2.08662
   A12        2.01901   0.00006  -0.00049   0.00020  -0.00032   2.01869
    D1        2.56150   0.00025   0.00016   0.00637   0.00653   2.56803
    D2        0.09531   0.00042   0.00483   0.00557   0.01036   0.10567
    D3       -0.09529  -0.00042  -0.00483  -0.00559  -0.01038  -0.10567
    D4       -2.56147  -0.00025  -0.00015  -0.00642  -0.00657  -2.56803
    D5       -2.60673   0.00009  -0.00415   0.00237  -0.00180  -2.60853
    D6        0.00001  -0.00000   0.00000  -0.00002  -0.00001  -0.00001
    D7       -0.00002   0.00000  -0.00000   0.00002   0.00002  -0.00000
    D8        2.60671  -0.00009   0.00416  -0.00236   0.00181   2.60852
         Item               Value     Threshold  Converged?
 Maximum Force            0.001136     0.000450     NO 
 RMS     Force            0.000451     0.000300     NO 
 Maximum Displacement     0.012490     0.001800     NO 
 RMS     Displacement     0.003732     0.001200     NO 
 Predicted change in Energy=-2.000453D-05
 GradGradGradGradGradGradGradGradGradGradGradGradGradGradGradGradGradGrad

                          Input orientation:                          
 ---------------------------------------------------------------------
 Center     Atomic      Atomic             Coordinates (Angstroms)
 Number     Number       Type             X           Y           Z
 ---------------------------------------------------------------------
      1          7           0       -0.388540    0.060651    0.616278
      2          1           0        0.573774   -0.025560    0.279993
      3          6           0       -1.291965   -0.666926   -0.316616
      4          6           0       -1.183636    0.819453   -0.387657
      5          1           0       -2.158913   -1.121007    0.166312
      6          1           0       -0.840492   -1.249581   -1.123589
      7          1           0       -0.658210    1.251451   -1.243124
      8          1           0       -1.972417    1.437917    0.044006
 ---------------------------------------------------------------------
                    Distance matrix (angstroms):
                    1          2          3          4          5
     1  N    0.000000
     2  H    1.023019   0.000000
     3  C    1.488569   2.061135   0.000000
     4  C    1.488571   2.061139   1.492014   0.000000
     5  H    2.175547   2.946269   1.091332   2.241301   0.000000
     6  H    2.224434   2.338465   1.092940   2.222666   1.848948
     7  H    2.224433   2.338467   2.222663   1.092940   3.141206
     8  H    2.175551   2.946276   2.241301   1.091332   2.568624
                    6          7          8
     6  H    0.000000
     7  H    2.510513   0.000000
     8  H    3.141206   1.848949   0.000000
 Stoichiometry    C2H5N
 Framework group  C1[X(C2H5N)]
 Deg. of freedom    18
 Full point group                 C1      NOp   1
 Largest Abelian subgroup         C1      NOp   1
 Largest concise Abelian subgroup C1      NOp   1
                         Standard orientation:                         
 ---------------------------------------------------------------------
 Center     Atomic      Atomic             Coordinates (Angstroms)
 Number     Number       Type             X           Y           Z
 ---------------------------------------------------------------------
      1          7           0       -0.000009    0.868525   -0.173829
      2          1           0       -0.000017    1.391940    0.705150
      3          6           0       -0.746002   -0.404439    0.023386
      4          6           0        0.746011   -0.404426    0.023386
      5          1           0       -1.284305   -0.747038   -0.861974
      6          1           0       -1.255252   -0.562193    0.977481
      7          1           0        1.255261   -0.562169    0.977483
      8          1           0        1.284320   -0.747020   -0.861973
 ---------------------------------------------------------------------
 Rotational constants (GHZ):          22.4519064          20.9652142          13.2580963
 Standard basis: Aug-CC-pVDZ (5D, 7F)
 There are   120 symmetry adapted cartesian basis functions of A   symmetry.
 There are   114 symmetry adapted basis functions of A   symmetry.
   114 basis functions,   184 primitive gaussians,   120 cartesian basis functions
    12 alpha electrons       12 beta electrons
       nuclear repulsion energy        75.5243001753 Hartrees.
 NAtoms=    8 NActive=    8 NUniq=    8 SFac= 1.00D+00 NAtFMM=   60 NAOKFM=F Big=F
 Integral buffers will be    131072 words long.
 Raffenetti 1 integral format.
 Two-electron integral symmetry is turned on.
 One-electron integrals computed using PRISM.
 NBasis=   114 RedAO= T EigKep=  6.04D-05  NBF=   114
 NBsUse=   114 1.00D-06 EigRej= -1.00D+00 NBFU=   114
 Initial guess from the checkpoint file:  "/gscratch/scrubbed/gds001/Gau-23231.chk"
 B after Tr=    -0.000000    0.000000    0.000000
         Rot=    1.000000    0.000562    0.000000   -0.000008 Ang=   0.06 deg.
 Keep R1 ints in memory in canonical form, NReq=27468677.
 Requested convergence on RMS density matrix=1.00D-08 within 128 cycles.
 Requested convergence on MAX density matrix=1.00D-06.
 Requested convergence on             energy=1.00D-06.
 No special actions if energy rises.
 SCF Done:  E(RHF) =  -133.057915928     A.U. after    9 cycles
            NFock=  9  Conv=0.41D-08     -V/T= 2.0025
 ExpMin= 2.97D-02 ExpMax= 9.05D+03 ExpMxC= 3.09D+02 IAcc=3 IRadAn=         5 AccDes= 0.00D+00
 HarFok:  IExCor=  205 AccDes= 0.00D+00 IRadAn=         5 IDoV=-2 UseB2=F ITyADJ=14
 ICtDFT= 12500011 ScaDFX=  1.000000  1.000000  1.000000  1.000000
 Range of M.O.s used for correlation:     4   114
 NBasis=   114 NAE=    12 NBE=    12 NFC=     3 NFV=     0
 NROrb=    111 NOA=     9 NOB=     9 NVA=   102 NVB=   102

 **** Warning!!: The largest alpha MO coefficient is  0.33247071D+02

 Fully direct method using O(ONN) memory.
 JobTyp=1 Pass  1:  I=   4 to  12 NPSUse= 28 ParTrn=T ParDer=T DoDerP=T.
 Spin components of T(2) and E(2):
     alpha-alpha T2 =       0.2014067893D-01 E2=     -0.5684533849D-01
     alpha-beta  T2 =       0.1201342399D+00 E2=     -0.3564453119D+00
     beta-beta   T2 =       0.2014067893D-01 E2=     -0.5684533849D-01
 ANorm=    0.1077225881D+01
 E2 =    -0.4701359889D+00 EUMP2 =    -0.13352805191660D+03
          IDoAtm=11111111
          Differentiating once with respect to electric field.
                with respect to dipole field.
          Differentiating once with respect to nuclear coordinates.
 Keep R1 ints in memory in canonical form, NReq=27472468.
          There are     1 degrees of freedom in the 1st order CPHF.  IDoFFX=0 NUNeed=     1.
 LinEq1:  Iter=  0 NonCon=     1 RMS=4.05D-03 Max=3.34D-02 NDo=     1
 AX will form     1 AO Fock derivatives at one time.
 LinEq1:  Iter=  1 NonCon=     1 RMS=7.41D-04 Max=6.18D-03 NDo=     1
 LinEq1:  Iter=  2 NonCon=     1 RMS=2.95D-04 Max=2.38D-03 NDo=     1
 LinEq1:  Iter=  3 NonCon=     1 RMS=7.47D-05 Max=6.73D-04 NDo=     1
 LinEq1:  Iter=  4 NonCon=     1 RMS=3.08D-05 Max=2.87D-04 NDo=     1
 LinEq1:  Iter=  5 NonCon=     1 RMS=7.60D-06 Max=1.01D-04 NDo=     1
 LinEq1:  Iter=  6 NonCon=     1 RMS=1.32D-06 Max=1.18D-05 NDo=     1
 LinEq1:  Iter=  7 NonCon=     1 RMS=1.83D-07 Max=1.03D-06 NDo=     1
 LinEq1:  Iter=  8 NonCon=     1 RMS=3.49D-08 Max=2.32D-07 NDo=     1
 LinEq1:  Iter=  9 NonCon=     1 RMS=7.08D-09 Max=4.00D-08 NDo=     1
 LinEq1:  Iter= 10 NonCon=     1 RMS=1.42D-09 Max=8.51D-09 NDo=     1
 LinEq1:  Iter= 11 NonCon=     1 RMS=2.47D-10 Max=1.72D-09 NDo=     1
 LinEq1:  Iter= 12 NonCon=     0 RMS=3.78D-11 Max=2.79D-10 NDo=     1
 Linear equations converged to 1.000D-10 1.000D-09 after    12 iterations.
 End of Minotr F.D. properties file   721 does not exist.
 End of Minotr F.D. properties file   722 does not exist.
 End of Minotr F.D. properties file   788 does not exist.
 Calling FoFJK, ICntrl=  10002127 FMM=F ISym2X=0 I1Cent= 0 IOpClX= 0 NMat=1 NMatS=1 NMatT=0.
 ***** Axes restored to original set *****
 -------------------------------------------------------------------
 Center     Atomic                   Forces (Hartrees/Bohr)
 Number     Number              X              Y              Z
 -------------------------------------------------------------------
      1        7          -0.000261922    0.000064010    0.000933972
      2        1          -0.000088464   -0.000014669   -0.000450082
      3        6           0.000169606   -0.000242085   -0.000416577
      4        6           0.000200951    0.000173256   -0.000436733
      5        1           0.000067611    0.000105899    0.000107292
      6        1          -0.000066590    0.000057246    0.000069861
      7        1          -0.000073818   -0.000039853    0.000074525
      8        1           0.000052627   -0.000103804    0.000117741
 -------------------------------------------------------------------
 Cartesian Forces:  Max     0.000933972 RMS     0.000270613

 GradGradGradGradGradGradGradGradGradGradGradGradGradGradGradGradGradGrad
 Berny optimization.
 Using GEDIIS/GDIIS optimizer.
 FormGI is forming the generalized inverse of G from B-inverse, IUseBI=4.
 Internal  Forces:  Max     0.000398682 RMS     0.000146970
 Search for a local minimum.
 Step number   4 out of a maximum of   38
 All quantities printed in internal units (Hartrees-Bohrs-Radians)
 Mixed Optimization -- En-DIIS/RFO-DIIS
 Swapping is turned off.
 Update second derivatives using D2CorX and points    1    2    3    4
 DE= -2.44D-05 DEPred=-2.00D-05 R= 1.22D+00
 TightC=F SS=  1.41D+00  RLast= 2.37D-02 DXNew= 7.6043D-01 7.1032D-02
 Trust test= 1.22D+00 RLast= 2.37D-02 DXMaxT set to 4.52D-01
 ITU=  1  1  1  0
     Eigenvalues ---    0.02300   0.03058   0.03376   0.03655   0.04369
     Eigenvalues ---    0.12249   0.12410   0.14433   0.16000   0.20047
     Eigenvalues ---    0.29771   0.33146   0.33667   0.35713   0.35723
     Eigenvalues ---    0.35776   0.36925   0.42766
 En-DIIS/RFO-DIIS/Sim-DIIS IScMMF=       -3 using points:     4    3
 RFO step:  Lambda=-6.40324403D-06.
 DidBck=F Rises=F RFO-DIIS coefs:    1.44255   -0.44255
 Iteration  1 RMS(Cart)=  0.00171308 RMS(Int)=  0.00000857
 Iteration  2 RMS(Cart)=  0.00000458 RMS(Int)=  0.00000695
 Iteration  3 RMS(Cart)=  0.00000000 RMS(Int)=  0.00000695
 Variable       Old X    -DE/DX   Delta X   Delta X   Delta X     New X
                                 (Linear)    (Quad)   (Total)
    R1        1.93323   0.00007   0.00083  -0.00037   0.00046   1.93369
    R2        2.81299   0.00007   0.00277  -0.00103   0.00175   2.81474
    R3        2.81299   0.00007   0.00277  -0.00103   0.00174   2.81473
    R4        2.81950   0.00002  -0.00140   0.00114  -0.00027   2.81923
    R5        2.06232  -0.00005  -0.00049   0.00027  -0.00022   2.06210
    R6        2.06536  -0.00011  -0.00049   0.00013  -0.00036   2.06500
    R7        2.06536  -0.00011  -0.00049   0.00013  -0.00036   2.06500
    R8        2.06232  -0.00005  -0.00049   0.00027  -0.00022   2.06210
    A1        1.90043  -0.00040  -0.00347  -0.00147  -0.00495   1.89548
    A2        1.90043  -0.00040  -0.00346  -0.00149  -0.00496   1.89547
    A3        1.99124  -0.00024   0.00053  -0.00220  -0.00167   1.98957
    A4        2.06303   0.00018  -0.00159   0.00117  -0.00042   2.06261
    A5        2.08662   0.00005  -0.00014   0.00017   0.00002   2.08664
    A6        2.05550  -0.00009   0.00071   0.00016   0.00088   2.05638
    A7        2.01869   0.00006  -0.00014   0.00051   0.00036   2.01905
    A8        2.06303   0.00018  -0.00158   0.00116  -0.00042   2.06261
    A9        1.99125  -0.00024   0.00053  -0.00221  -0.00168   1.98957
   A10        2.05550  -0.00009   0.00071   0.00016   0.00088   2.05638
   A11        2.08662   0.00005  -0.00015   0.00018   0.00002   2.08664
   A12        2.01869   0.00006  -0.00014   0.00051   0.00036   2.01905
    D1        2.56803   0.00010   0.00289  -0.00029   0.00259   2.57061
    D2        0.10567   0.00008   0.00459   0.00029   0.00487   0.11054
    D3       -0.10567  -0.00008  -0.00460  -0.00028  -0.00486  -0.11053
    D4       -2.56803  -0.00010  -0.00291   0.00033  -0.00257  -2.57060
    D5       -2.60853  -0.00005  -0.00080  -0.00184  -0.00264  -2.61117
    D6       -0.00001   0.00000  -0.00001   0.00001   0.00001   0.00000
    D7       -0.00000   0.00000   0.00001  -0.00001   0.00000  -0.00000
    D8        2.60852   0.00005   0.00080   0.00185   0.00265   2.61117
         Item               Value     Threshold  Converged?
 Maximum Force            0.000399     0.000450     YES
 RMS     Force            0.000147     0.000300     YES
 Maximum Displacement     0.005940     0.001800     NO 
 RMS     Displacement     0.001715     0.001200     NO 
 Predicted change in Energy=-3.200047D-06
 GradGradGradGradGradGradGradGradGradGradGradGradGradGradGradGradGradGrad

                          Input orientation:                          
 ---------------------------------------------------------------------
 Center     Atomic      Atomic             Coordinates (Angstroms)
 Number     Number       Type             X           Y           Z
 ---------------------------------------------------------------------
      1          7           0       -0.389139    0.060766    0.617757
      2          1           0        0.571797   -0.025559    0.276850
      3          6           0       -1.292109   -0.666865   -0.317011
      4          6           0       -1.183787    0.819371   -0.388046
      5          1           0       -2.158650   -1.120912    0.166421
      6          1           0       -0.839366   -1.250302   -1.122448
      7          1           0       -0.656983    1.252104   -1.242050
      8          1           0       -1.972161    1.437795    0.044130
 ---------------------------------------------------------------------
                    Distance matrix (angstroms):
                    1          2          3          4          5
     1  N    0.000000
     2  H    1.023264   0.000000
     3  C    1.489494   2.058663   0.000000
     4  C    1.489492   2.058658   1.491871   0.000000
     5  H    2.175140   2.944034   1.091219   2.241091   0.000000
     6  H    2.224841   2.334398   1.092750   2.222953   1.848901
     7  H    2.224839   2.334391   2.222954   1.092750   3.141656
     8  H    2.175136   2.944026   2.241092   1.091218   2.568408
                    6          7          8
     6  H    0.000000
     7  H    2.511893   0.000000
     8  H    3.141655   1.848901   0.000000
 Stoichiometry    C2H5N
 Framework group  C1[X(C2H5N)]
 Deg. of freedom    18
 Full point group                 C1      NOp   1
 Largest Abelian subgroup         C1      NOp   1
 Largest concise Abelian subgroup C1      NOp   1
                         Standard orientation:                         
 ---------------------------------------------------------------------
 Center     Atomic      Atomic             Coordinates (Angstroms)
 Number     Number       Type             X           Y           Z
 ---------------------------------------------------------------------
      1          7           0        0.000010    0.869278   -0.173883
      2          1           0        0.000021    1.387481    0.708463
      3          6           0       -0.745941   -0.404791    0.023341
      4          6           0        0.745931   -0.404807    0.023340
      5          1           0       -1.284212   -0.745548   -0.862609
      6          1           0       -1.255952   -0.561846    0.976926
      7          1           0        1.255941   -0.561871    0.976925
      8          1           0        1.284195   -0.745572   -0.862610
 ---------------------------------------------------------------------
 Rotational constants (GHZ):          22.4392826          20.9607521          13.2552139
 Standard basis: Aug-CC-pVDZ (5D, 7F)
 There are   120 symmetry adapted cartesian basis functions of A   symmetry.
 There are   114 symmetry adapted basis functions of A   symmetry.
   114 basis functions,   184 primitive gaussians,   120 cartesian basis functions
    12 alpha electrons       12 beta electrons
       nuclear repulsion energy        75.5123375644 Hartrees.
 NAtoms=    8 NActive=    8 NUniq=    8 SFac= 1.00D+00 NAtFMM=   60 NAOKFM=F Big=F
 Integral buffers will be    131072 words long.
 Raffenetti 1 integral format.
 Two-electron integral symmetry is turned on.
 One-electron integrals computed using PRISM.
 NBasis=   114 RedAO= T EigKep=  6.04D-05  NBF=   114
 NBsUse=   114 1.00D-06 EigRej= -1.00D+00 NBFU=   114
 Initial guess from the checkpoint file:  "/gscratch/scrubbed/gds001/Gau-23231.chk"
 B after Tr=     0.000000   -0.000000   -0.000000
         Rot=    1.000000   -0.000404   -0.000001    0.000010 Ang=  -0.05 deg.
 Keep R1 ints in memory in canonical form, NReq=27468677.
 Requested convergence on RMS density matrix=1.00D-08 within 128 cycles.
 Requested convergence on MAX density matrix=1.00D-06.
 Requested convergence on             energy=1.00D-06.
 No special actions if energy rises.
 SCF Done:  E(RHF) =  -133.057838682     A.U. after    8 cycles
            NFock=  8  Conv=0.67D-08     -V/T= 2.0025
 ExpMin= 2.97D-02 ExpMax= 9.05D+03 ExpMxC= 3.09D+02 IAcc=3 IRadAn=         5 AccDes= 0.00D+00
 HarFok:  IExCor=  205 AccDes= 0.00D+00 IRadAn=         5 IDoV=-2 UseB2=F ITyADJ=14
 ICtDFT= 12500011 ScaDFX=  1.000000  1.000000  1.000000  1.000000
 Range of M.O.s used for correlation:     4   114
 NBasis=   114 NAE=    12 NBE=    12 NFC=     3 NFV=     0
 NROrb=    111 NOA=     9 NOB=     9 NVA=   102 NVB=   102

 **** Warning!!: The largest alpha MO coefficient is  0.33212611D+02

 Fully direct method using O(ONN) memory.
 JobTyp=1 Pass  1:  I=   4 to  12 NPSUse= 28 ParTrn=T ParDer=T DoDerP=T.
 Spin components of T(2) and E(2):
     alpha-alpha T2 =       0.2015036289D-01 E2=     -0.5685461461D-01
     alpha-beta  T2 =       0.1201904703D+00 E2=     -0.3565071870D+00
     beta-beta   T2 =       0.2015036289D-01 E2=     -0.5685461461D-01
 ANorm=    0.1077260969D+01
 E2 =    -0.4702164162D+00 EUMP2 =    -0.13352805509802D+03
          IDoAtm=11111111
          Differentiating once with respect to electric field.
                with respect to dipole field.
          Differentiating once with respect to nuclear coordinates.
 Keep R1 ints in memory in canonical form, NReq=27472468.
          There are     1 degrees of freedom in the 1st order CPHF.  IDoFFX=0 NUNeed=     1.
 LinEq1:  Iter=  0 NonCon=     1 RMS=4.05D-03 Max=3.34D-02 NDo=     1
 AX will form     1 AO Fock derivatives at one time.
 LinEq1:  Iter=  1 NonCon=     1 RMS=7.42D-04 Max=6.16D-03 NDo=     1
 LinEq1:  Iter=  2 NonCon=     1 RMS=2.96D-04 Max=2.37D-03 NDo=     1
 LinEq1:  Iter=  3 NonCon=     1 RMS=7.51D-05 Max=6.72D-04 NDo=     1
 LinEq1:  Iter=  4 NonCon=     1 RMS=3.09D-05 Max=2.88D-04 NDo=     1
 LinEq1:  Iter=  5 NonCon=     1 RMS=7.62D-06 Max=1.01D-04 NDo=     1
 LinEq1:  Iter=  6 NonCon=     1 RMS=1.33D-06 Max=1.19D-05 NDo=     1
 LinEq1:  Iter=  7 NonCon=     1 RMS=1.84D-07 Max=1.03D-06 NDo=     1
 LinEq1:  Iter=  8 NonCon=     1 RMS=3.51D-08 Max=2.34D-07 NDo=     1
 LinEq1:  Iter=  9 NonCon=     1 RMS=7.15D-09 Max=4.03D-08 NDo=     1
 LinEq1:  Iter= 10 NonCon=     1 RMS=1.44D-09 Max=8.70D-09 NDo=     1
 LinEq1:  Iter= 11 NonCon=     1 RMS=2.51D-10 Max=1.75D-09 NDo=     1
 LinEq1:  Iter= 12 NonCon=     0 RMS=3.83D-11 Max=2.80D-10 NDo=     1
 Linear equations converged to 1.000D-10 1.000D-09 after    12 iterations.
 End of Minotr F.D. properties file   721 does not exist.
 End of Minotr F.D. properties file   722 does not exist.
 End of Minotr F.D. properties file   788 does not exist.
 Calling FoFJK, ICntrl=  10002127 FMM=F ISym2X=0 I1Cent= 0 IOpClX= 0 NMat=1 NMatS=1 NMatT=0.
 ***** Axes restored to original set *****
 -------------------------------------------------------------------
 Center     Atomic                   Forces (Hartrees/Bohr)
 Number     Number              X              Y              Z
 -------------------------------------------------------------------
      1        7          -0.000057304    0.000006008    0.000042297
      2        1          -0.000014708   -0.000000711   -0.000026636
      3        6           0.000145850   -0.000058650    0.000002048
      4        6           0.000152161    0.000037634   -0.000002348
      5        1          -0.000065810    0.000093017    0.000012621
      6        1          -0.000039359    0.000018823   -0.000025049
      7        1          -0.000041962   -0.000015289   -0.000023486
      8        1          -0.000078866   -0.000080830    0.000020553
 -------------------------------------------------------------------
 Cartesian Forces:  Max     0.000152161 RMS     0.000060111

 GradGradGradGradGradGradGradGradGradGradGradGradGradGradGradGradGradGrad
 Berny optimization.
 Using GEDIIS/GDIIS optimizer.
 FormGI is forming the generalized inverse of G from B-inverse, IUseBI=4.
 Internal  Forces:  Max     0.000089931 RMS     0.000044181
 Search for a local minimum.
 Step number   5 out of a maximum of   38
 All quantities printed in internal units (Hartrees-Bohrs-Radians)
 Mixed Optimization -- En-DIIS/RFO-DIIS
 Swapping is turned off.
 Update second derivatives using D2CorX and points    1    2    3    4    5
 DE= -3.18D-06 DEPred=-3.20D-06 R= 9.94D-01
 TightC=F SS=  1.41D+00  RLast= 1.18D-02 DXNew= 7.6043D-01 3.5261D-02
 Trust test= 9.94D-01 RLast= 1.18D-02 DXMaxT set to 4.52D-01
 ITU=  1  1  1  1  0
     Eigenvalues ---    0.02299   0.02924   0.03371   0.03654   0.04529
     Eigenvalues ---    0.12252   0.12350   0.15843   0.16000   0.18735
     Eigenvalues ---    0.28336   0.33147   0.33593   0.35713   0.35722
     Eigenvalues ---    0.35723   0.36762   0.42765
 En-DIIS/RFO-DIIS/Sim-DIIS IScMMF=       -3 using points:     5    4    3
 RFO step:  Lambda=-7.12107366D-07.
 DidBck=T Rises=F RFO-DIIS coefs:    0.72364    0.44889   -0.17252
 Iteration  1 RMS(Cart)=  0.00049740 RMS(Int)=  0.00000291
 Iteration  2 RMS(Cart)=  0.00000026 RMS(Int)=  0.00000290
 Variable       Old X    -DE/DX   Delta X   Delta X   Delta X     New X
                                 (Linear)    (Quad)   (Total)
    R1        1.93369  -0.00000   0.00020  -0.00016   0.00003   1.93372
    R2        2.81474  -0.00002   0.00060  -0.00058   0.00002   2.81475
    R3        2.81473  -0.00002   0.00060  -0.00058   0.00002   2.81475
    R4        2.81923  -0.00005  -0.00047   0.00037  -0.00011   2.81912
    R5        2.06210   0.00002  -0.00013   0.00015   0.00002   2.06212
    R6        2.06500  -0.00001  -0.00009   0.00005  -0.00004   2.06495
    R7        2.06500  -0.00001  -0.00009   0.00005  -0.00004   2.06495
    R8        2.06210   0.00002  -0.00013   0.00015   0.00002   2.06212
    A1        1.89548   0.00001   0.00002  -0.00037  -0.00036   1.89512
    A2        1.89547   0.00001   0.00002  -0.00037  -0.00036   1.89512
    A3        1.98957  -0.00004   0.00067  -0.00055   0.00012   1.98969
    A4        2.06261   0.00005  -0.00050   0.00091   0.00041   2.06302
    A5        2.08664  -0.00009  -0.00006  -0.00074  -0.00080   2.08584
    A6        2.05638   0.00001   0.00003  -0.00004  -0.00000   2.05637
    A7        2.01905   0.00005  -0.00016   0.00041   0.00025   2.01930
    A8        2.06261   0.00005  -0.00050   0.00091   0.00041   2.06302
    A9        1.98957  -0.00004   0.00067  -0.00055   0.00012   1.98969
   A10        2.05638   0.00001   0.00003  -0.00004  -0.00001   2.05637
   A11        2.08664  -0.00009  -0.00006  -0.00074  -0.00080   2.08584
   A12        2.01905   0.00005  -0.00016   0.00040   0.00025   2.01930
    D1        2.57061   0.00008   0.00041   0.00083   0.00124   2.57185
    D2        0.11054  -0.00002   0.00044  -0.00037   0.00007   0.11061
    D3       -0.11053   0.00001  -0.00045   0.00037  -0.00007  -0.11061
    D4       -2.57060  -0.00008  -0.00042  -0.00083  -0.00125  -2.57185
    D5       -2.61117   0.00006   0.00042   0.00063   0.00105  -2.61012
    D6        0.00000  -0.00000  -0.00000   0.00000  -0.00000   0.00000
    D7       -0.00000   0.00000   0.00000  -0.00000   0.00000   0.00000
    D8        2.61117  -0.00006  -0.00042  -0.00063  -0.00105   2.61012
         Item               Value     Threshold  Converged?
 Maximum Force            0.000090     0.000450     YES
 RMS     Force            0.000044     0.000300     YES
 Maximum Displacement     0.001521     0.001800     YES
 RMS     Displacement     0.000498     0.001200     YES
 Predicted change in Energy=-3.298270D-07
 Optimization completed.
    -- Stationary point found.
                           ----------------------------
                           !   Optimized Parameters   !
                           ! (Angstroms and Degrees)  !
 --------------------------                            --------------------------
 ! Name  Definition              Value          Derivative Info.                !
 --------------------------------------------------------------------------------
 ! R1    R(1,2)                  1.0233         -DE/DX =    0.0                 !
 ! R2    R(1,3)                  1.4895         -DE/DX =    0.0                 !
 ! R3    R(1,4)                  1.4895         -DE/DX =    0.0                 !
 ! R4    R(3,4)                  1.4919         -DE/DX =   -0.0001              !
 ! R5    R(3,5)                  1.0912         -DE/DX =    0.0                 !
 ! R6    R(3,6)                  1.0928         -DE/DX =    0.0                 !
 ! R7    R(4,7)                  1.0928         -DE/DX =    0.0                 !
 ! R8    R(4,8)                  1.0912         -DE/DX =    0.0                 !
 ! A1    A(2,1,3)              108.603          -DE/DX =    0.0                 !
 ! A2    A(2,1,4)              108.6027         -DE/DX =    0.0                 !
 ! A3    A(1,3,5)              113.9941         -DE/DX =    0.0                 !
 ! A4    A(1,3,6)              118.1787         -DE/DX =    0.0001              !
 ! A5    A(4,3,5)              119.5559         -DE/DX =   -0.0001              !
 ! A6    A(4,3,6)              117.8217         -DE/DX =    0.0                 !
 ! A7    A(5,3,6)              115.6828         -DE/DX =    0.0                 !
 ! A8    A(1,4,7)              118.1786         -DE/DX =    0.0001              !
 ! A9    A(1,4,8)              113.9939         -DE/DX =    0.0                 !
 ! A10   A(3,4,7)              117.8218         -DE/DX =    0.0                 !
 ! A11   A(3,4,8)              119.5559         -DE/DX =   -0.0001              !
 ! A12   A(7,4,8)              115.6829         -DE/DX =    0.0                 !
 ! D1    D(2,1,3,5)            147.2853         -DE/DX =    0.0001              !
 ! D2    D(2,1,3,6)              6.3335         -DE/DX =    0.0                 !
 ! D3    D(2,1,4,7)             -6.3332         -DE/DX =    0.0                 !
 ! D4    D(2,1,4,8)           -147.2846         -DE/DX =   -0.0001              !
 ! D5    D(5,3,4,7)           -149.6089         -DE/DX =    0.0001              !
 ! D6    D(5,3,4,8)              0.0002         -DE/DX =    0.0                 !
 ! D7    D(6,3,4,7)             -0.0001         -DE/DX =    0.0                 !
 ! D8    D(6,3,4,8)            149.6091         -DE/DX =   -0.0001              !
 --------------------------------------------------------------------------------
 GradGradGradGradGradGradGradGradGradGradGradGradGradGradGradGradGradGrad

                          Input orientation:                          
 ---------------------------------------------------------------------
 Center     Atomic      Atomic             Coordinates (Angstroms)
 Number     Number       Type             X           Y           Z
 ---------------------------------------------------------------------
      1          7           0       -0.389139    0.060766    0.617757
      2          1           0        0.571797   -0.025559    0.276850
      3          6           0       -1.292109   -0.666865   -0.317011
      4          6           0       -1.183787    0.819371   -0.388046
      5          1           0       -2.158650   -1.120912    0.166421
      6          1           0       -0.839366   -1.250302   -1.122448
      7          1           0       -0.656983    1.252104   -1.242050
      8          1           0       -1.972161    1.437795    0.044130
 ---------------------------------------------------------------------
                    Distance matrix (angstroms):
                    1          2          3          4          5
     1  N    0.000000
     2  H    1.023264   0.000000
     3  C    1.489494   2.058663   0.000000
     4  C    1.489492   2.058658   1.491871   0.000000
     5  H    2.175140   2.944034   1.091219   2.241091   0.000000
     6  H    2.224841   2.334398   1.092750   2.222953   1.848901
     7  H    2.224839   2.334391   2.222954   1.092750   3.141656
     8  H    2.175136   2.944026   2.241092   1.091218   2.568408
                    6          7          8
     6  H    0.000000
     7  H    2.511893   0.000000
     8  H    3.141655   1.848901   0.000000
 Stoichiometry    C2H5N
 Framework group  C1[X(C2H5N)]
 Deg. of freedom    18
 Full point group                 C1      NOp   1
 Largest Abelian subgroup         C1      NOp   1
 Largest concise Abelian subgroup C1      NOp   1
                         Standard orientation:                         
 ---------------------------------------------------------------------
 Center     Atomic      Atomic             Coordinates (Angstroms)
 Number     Number       Type             X           Y           Z
 ---------------------------------------------------------------------
      1          7           0        0.000010    0.869278   -0.173883
      2          1           0        0.000021    1.387481    0.708463
      3          6           0       -0.745941   -0.404791    0.023341
      4          6           0        0.745931   -0.404807    0.023340
      5          1           0       -1.284212   -0.745548   -0.862609
      6          1           0       -1.255952   -0.561846    0.976926
      7          1           0        1.255941   -0.561871    0.976925
      8          1           0        1.284195   -0.745572   -0.862610
 ---------------------------------------------------------------------
 Rotational constants (GHZ):          22.4392826          20.9607521          13.2552139

[...]
 2,-0.00189819,-0.00005092,-0.00016764,-0.00032221,-0.05467296,0.049491
 33,0.08771553,-0.00110385,-0.00222430,0.00169598,0.00703227,-0.0050185
 2,-0.00955078,0.04980851,-0.03932448,-0.00026678,-0.00228572,-0.002625
 92,-0.00009040,-0.00019099,-0.00020284,-0.05875000,0.07516215,0.097275
 07,0.00248236,-0.00260250,-0.00164790,0.00952505,0.00558137,-0.0044009
 8,0.04761215,-0.07645161,-0.08808239,-0.00158731,-0.00213575,0.0044918
 2,-0.00044245,0.00028583,-0.00042388,-0.00011955,-0.00112462,0.0012925
 2,0.02902353,0.03919016,-0.06584643,-0.00067141,-0.00014537,0.00059639
 ,0.00042788,0.00032181,-0.00028875,-0.02255818,0.00167691,-0.00022153,
 0.00105194,0.00008850,-0.00016698,0.00037922,0.00104987,-0.00216730,-0
 .00184849,0.05022486,0.02158583,-0.07263860,-0.00013006,0.00002244,0.0
 0029702,-0.00070558,-0.00197235,0.00101881,-0.04595804,-0.01194425,-0.
 00010134,0.00208721,-0.00297881,-0.00006728,0.00019781,-0.00025406,0.0
 0273297,0.00226751,-0.00171369,-0.07362983,-0.05888531,0.11141488,-0.0
 0017568,0.00020762,-0.00061524,-0.00036956,-0.00075749,0.00024462,0.06
 235805,0.06178747,-0.10135954,-0.00280984,0.00202905,-0.00060828,-0.00
 029288,0.00035820,0.00018181,-0.00141878,0.00269246,0.00238847,0.08430
 549,-0.07120181,-0.04934970,0.00049198,-0.00120870,-0.00041199,-0.0006
 1561,0.00020001,-0.00022363,-0.00407250,-0.00624647,0.00925267,-0.0755
 8788,0.00172095,-0.00090005,0.00074390,-0.00005873,-0.00008327,0.00010
 218,-0.00119870,-0.00211639,0.00133299,-0.08449599,0.05319320,0.051130
 45,0.00080156,-0.00201155,-0.00053961,0.00028769,-0.00008984,-0.000231
 50,0.00956598,-0.00513586,-0.00690482,0.07337725,-0.04285623,0.0032639
 0,-0.00133670,0.00003550,0.00044253,-0.00099048,-0.00014077,0.00137456
 ,-0.00089915,-0.00041257,-0.04178650,0.03852225,0.01203260,-0.00040900
 ,0.00081627,0.00023934,0.00052358,-0.00043124,-0.00055967,-0.00217972,
 0.00995264,-0.00473817,0.03877066,-0.04563359,-0.00645626,0.00064126,-
 0.00026895,-0.00218269,-0.00133085,-0.00022313,-0.00881338,-0.00105374
 ,0.00012871,0.00103934,0.00156563,0.00008526,0.00008185,0.00008789,-0.
 00025255,-0.00141302,0.00004989,0.00016285,0.00355089,-0.00068698,0.00
 000918,-0.00230031,-0.00122252,0.00498169,0.00212919,-0.00030713,0.000
 13894,-0.00066891,0.37710533,0.00166433,0.00021744,0.00092675,-0.00001
 127,0.00025158,0.00057627,0.00459131,0.10084402,0.00037604,0.00459630,
 0.00199826,-0.00065563,-0.00018247,-0.00076524,-0.62971347,0.28801181,
 0.44883086,-0.00213102,-0.00445649,0.00242494,-0.00033092,-0.00012329,
 -0.00073718,-0.00716624,0.00143214,0.00234874,0.36083470,-0.00134816,0
 .00059066,-0.00108120,0.00003319,0.00022772,-0.00056834,0.00120237,0.0
 0896780,-0.00507723,-0.10809445,0.07453720,-0.00013622,-0.00443272,0.0
 0251573,-0.00063775,0.00018490,-0.00072570,0.00292631,0.00274679,-0.01
 129914,-0.65687422,-0.15704606,0.49146922,0.00118755,0.00112997,0.0022
 3855,0.00001590,0.00012538,0.00021155,-0.36292036,-0.24541188,0.284095
 41,0.00367800,0.00305275,-0.00067487,0.35827296,-0.00006226,0.00021582
 ,-0.00042929,0.00013547,0.00002038,0.00007494,-0.25094334,0.00552967,0
 .13907326,-0.00213452,-0.00068821,0.00111974,0.24563191,-0.01432122,-0
 .00317685,-0.00229510,0.00022939,-0.00015230,-0.00035716,-0.00039050,0
 .28254995,0.13505555,-0.02981098,-0.00119172,-0.00294088,0.00066404,-0
 .28672526,-0.13635381,0.02848325,0.00051869,-0.00416301,-0.00416476,0.
 00014712,0.00084861,0.00077612,-0.00985785,0.23782264,0.34529946,0.000
 52508,-0.00401553,-0.00137342,0.00121800,0.00728592,0.00772047,0.00870
 027,0.00042767,0.00057442,0.00150347,0.00036625,0.00033720,-0.00003543
 ,0.23988727,-0.11412561,-0.42923578,0.00089104,-0.00088995,-0.00295014
 ,-0.00419647,0.00806269,0.00694236,-0.23818293,0.10429870,0.00356104,0
 .00065202,0.00017644,0.00063908,0.00082260,0.00047998,0.34529636,-0.42
 617965,-0.41466695,-0.00102101,0.00513620,0.00510870,0.00055310,-0.003
 62943,0.00182141,-0.34946324,0.42391718,0.40891231,0.00105041,0.003653
 98,-0.00471038,-0.00001604,-0.00072607,0.00084802,0.00092581,0.0036153
 4,-0.00124987,-0.07486644,-0.20102306,0.42240963,-0.00043340,-0.000304
 83,0.00057720,-0.00091621,0.00047326,0.00062127,0.07328741,-0.00017718
 ,-0.00015508,-0.00084762,-0.00026210,0.00041492,-0.00007017,-0.0012976
 6,-0.00142499,0.00374804,-0.20309512,0.02387126,0.33414292,-0.00028766
 ,0.00010981,0.00023081,-0.00001403,0.00176853,-0.00061675,0.19986890,-
 0.03246462,0.00345412,-0.00115548,0.00037531,0.00054598,-0.00089459,0.
 00056444,-0.00161059,-0.00433983,0.00524067,0.42216479,0.33110883,-0.4
 8768163,-0.00014245,0.00009228,-0.00033056,0.00070373,0.00020102,-0.00
 153778,-0.42569968,-0.32798273,0.48112177,0.00100937,-0.00100591,0.002
 37397,-0.00002084,-0.00009629,0.00020749,0.00344295,-0.00370261,-0.000
 50068,-0.28054314,0.31019289,0.23436053,-0.00101864,0.00039164,0.00039
 851,-0.00033510,0.00033392,-0.00018660,0.00096846,0.00526484,0.0005841
 1,0.27649694,-0.00032070,0.00065759,0.00006314,-0.00013770,0.00007937,
 -0.00014930,0.00143941,-0.00025990,-0.00093392,0.31558068,-0.10661645,
 -0.17376544,-0.00004401,0.00107106,-0.00028177,0.00041832,-0.00002599,
 -0.00010218,-0.00555752,0.00788015,0.00297050,-0.31137848,0.09721416,-
 0.00279716,0.00269525,-0.00003264,-0.00009174,0.00032965,-0.00041357,-
 0.00090884,0.00320231,0.00047250,0.23288565,-0.16953131,-0.00005121,0.
 00044397,0.00005231,-0.00066607,0.00050164,-0.00034268,-0.00029411,0.0
 0720380,-0.00860450,0.00224777,-0.23723734,0.17219897,-0.00126267,0.00
 154544,-0.00044820,-0.00418781,-0.00060042,-0.00024276,-0.01019795,-0.
 00147529,0.00027566,0.00249340,0.00263950,0.00016742,0.00065936,-0.000
 01438,-0.00040580,-0.00221476,0.00022784,0.00015075,0.00417327,-0.0010
 3878,0.00005757,-0.00262652,-0.00125472,0.00537774,0.00158966,-0.00058
 602,0.00057432,-0.00084811,0.38148551,0.00312296,0.00115087,0.00311929
 ,-0.00078256,0.00057156,0.00015273,0.01815859,0.10711853,0.00038557,0.
 00568953,0.00178919,-0.00113128,-0.00037661,-0.00064125,-0.63345207,0.
 27209671,0.43496066,-0.00241604,-0.00476351,0.00160969,-0.00054529,-0.
 00048918,-0.00081913,0.00172624,0.00068315,-0.00017207,0.36131493,-0.0
 0265089,0.00146753,-0.00326801,0.00083845,0.00055487,-0.00014770,-0.00
 191740,-0.00677911,-0.00322922,-0.12077493,0.08752163,-0.00016198,-0.0
 0562123,0.00263432,-0.00115031,0.00042643,-0.00066518,0.00045694,0.003
 69736,-0.00171857,-0.65712365,-0.14320885,0.47469193,0.00110301,0.0008
 2024,0.00138042,0.00015695,0.00002662,0.00054098,-0.37068072,-0.252172
 59,0.29425760,0.00080549,0.00319897,0.00017936,0.36749182,-0.00002265,
 -0.00005418,0.00048143,0.00014176,0.00014160,-0.00010070,-0.25801980,0
 .00782276,0.14299077,-0.00223498,-0.00059174,0.00095130,0.25235602,-0.
 01588492,-0.00305564,-0.00228968,0.00011261,-0.00021364,-0.00027315,-0
 .00031050,0.29176400,0.13924038,-0.03141233,0.00001498,-0.00231537,-0.
 00033500,-0.29596448,-0.14057972,0.03009443,0.00058171,-0.00384395,-0.
 00369433,-0.00008502,0.00074492,0.00067927,-0.01122004,0.23194929,0.33
 975016,-0.00033769,-0.00260274,-0.00020305,0.00098304,0.00700297,0.007
 86663,0.00982614,0.00115155,0.00060591,0.00106532,0.00040968,0.0000204
 1,0.00019366,0.23482002,-0.10776392,-0.41948261,0.00084198,-0.00143710
 ,-0.00291889,-0.00400451,0.00809613,0.00629147,-0.23302022,0.09925848,
 0.00294485,0.00055830,0.00070675,0.00064276,0.00078110,0.00015440,0.34
 081095,-0.41604134,-0.40474772,0.00013655,0.00496097,0.00207466,-0.000
 07020,-0.00340201,0.00143620,-0.34409927,0.41380641,0.40051519,0.00096
 085,0.00340546,-0.00415304,-0.00024001,-0.00064706,0.00071142,-0.00011
 100,0.00238589,0.00001013,-0.07458005,-0.19499726,0.41494020,0.0003830
 8,0.00008300,0.00008585,-0.00005447,0.00023746,-0.00056904,0.07288845,
 -0.00093398,0.00008118,-0.00045106,-0.00032086,0.00007469,-0.00028049,
 -0.00106507,-0.00182307,0.00329643,-0.19777809,0.02681979,0.32590167,0
 .00030250,-0.00072708,-0.00001852,-0.00000818,0.00182705,-0.00109169,0
 .19475151,-0.03418991,0.00293315,-0.00094433,0.00085225,0.00055872,-0.
 00085413,0.00025511,-0.00046849,-0.00457331,0.00223411,0.41575920,0.32
 232391,-0.47595724,0.00011110,-0.00034766,0.00043157,-0.00040948,0.000
 93677,-0.00052765,-0.41843224,-0.31933383,0.47088723,0.00095504,-0.000
 82343,0.00137462,0.00013519,0.00002876,0.00054650,0.00064074,-0.003344
 72,0.00035197,-0.28596757,0.31890581,0.24306247,-0.00024267,0.00069369
 ,-0.00049769,0.00030633,-0.00043596,0.00020339,0.00075315,0.00505217,-
 0.00005196,0.28341980,-0.00038621,0.00027715,-0.00068982,-0.00015632,0
 .00019227,-0.00002582,0.00207161,-0.00029762,-0.00098500,0.32451556,-0
 .10755586,-0.17922782,-0.00052726,0.00119743,-0.00005542,-0.00022208,-
 0.00060697,0.00042825,-0.00521899,0.00793735,0.00279257,-0.32007630,0.
 09885624,-0.00267337,0.00269942,-0.00007043,-0.00016086,0.00025317,-0.
 00033935,0.00014711,0.00230818,-0.00046410,0.24059442,-0.17511575,-0.0
 0072491,-0.00043479,0.00000658,-0.00001698,0.00011007,0.00010787,0.000
 38816,0.00740672,-0.00802251,0.00182463,-0.24498929,0.17776305,-0.0005
 9702,-0.00446353,-0.00022374,-0.00231613,-0.00796101,-0.00024153,-0.01
 950195,-0.00066463,0.00011383,0.00181407,0.00108648,0.00002298,-0.0002
 8372,0.00013965,-0.00021474,-0.00169910,-0.00007782,0.00027809,0.00540
 630,-0.00023315,-0.00003293,-0.00275633,0.00196636,0.00714250,0.004594
 03,-0.00042168,0.00088910,-0.00112068,0.52154967,0.00095530,-0.0006645
 7,0.00184747,-0.00069716,0.00100599,-0.00090521,0.21993017,0.09701066,
 0.00796414,0.00837019,0.00591902,-0.00091630,0.00097092,-0.00117935,-0
 .66488091,0.12478095,0.31663431,0.00082726,-0.00697160,0.00500121,-0.0
 0043373,-0.00077623,-0.00091473,-0.00987715,0.00841033,0.00317348,0.44
 033840,-0.00053750,-0.00052073,-0.00187711,0.00080857,0.00100422,0.000
 84464,-0.00391677,0.01825944,-0.00452629,-0.33467106,0.16548063,0.0067
 8655,-0.00877581,0.00691346,-0.00113371,-0.00102993,-0.00116654,0.0041
 9522,0.00134627,-0.00911301,-0.64796171,-0.01009270,0.32936618,0.00152
 393,0.00042045,0.00131482,0.00018213,0.00024988,0.00061315,-0.54077641
 ,-0.41492138,0.40831365,0.00354942,0.00341669,-0.00203479,0.53455724,0
 .00102110,0.00043100,-0.00043291,0.00018208,0.00011472,0.00059436,-0.4
 1630963,-0.00736339,0.22611799,-0.00166170,-0.00024701,0.00127985,0.41
 472572,0.01182734,-0.00529864,-0.00313380,-0.00059560,-0.00021228,-0.0
 0081858,-0.00018709,0.41062804,0.22557971,-0.00339131,-0.00040513,-0.0
 0099668,-0.00024295,-0.40370485,-0.22238675,0.00403272,-0.00043794,-0.
 00277669,-0.00289877,0.00012637,0.00036220,0.00060151,0.02423841,0.189
 24949,0.24864129,0.00006283,-0.00120714,-0.00042048,0.00174028,0.00223
 006,-0.00145677,-0.02565911,0.00013304,0.00143335,0.00093495,0.0004558
 1,-0.00019553,0.00026310,0.19198765,-0.10850421,-0.35542204,0.00071688
 ,0.00035802,-0.00042020,-0.00474087,-0.00572126,0.00200226,-0.18811573
 ,0.11206431,0.00169068,0.00060455,0.00134060,0.00037739,0.00032810,0.0
 0001222,0.24840013,-0.35195639,-0.31129222,-0.00122072,0.00216026,0.00
 251496,-0.00544867,-0.00468560,0.00053311,-0.24477624,0.35293904,0.307
 49076,-0.00002457,0.00268369,-0.00325993,0.00000471,-0.00033862,0.0005
 9226,0.00011743,0.00118455,-0.00045173,-0.02901367,-0.16917131,0.31293
 941,0.00063089,-0.00032042,-0.00004513,-0.00065353,0.00018320,0.000408
 09,0.02703833,0.00023321,0.00088511,-0.00045785,-0.00045861,-0.0001371
 5,-0.00032997,-0.00083544,0.00015812,0.00071056,-0.17194025,0.00604838
 ,0.28645841,0.00048094,-0.00072458,0.00014276,0.00013250,0.00119719,-0
 .00000536,0.16924403,-0.00191086,0.00157241,-0.00081799,0.00147006,0.0
 0037686,-0.00036336,0.00007349,-0.00142453,-0.00173921,0.00265000,0.31
 246614,0.28304875,-0.37256470,0.00043054,-0.00056356,0.00062509,0.0003
 8749,-0.00028403,-0.00117730,-0.30876461,-0.28530790,0.36875110,0.0012
 7314,-0.00038843,0.00139557,0.00012035,-0.00019458,0.00053946,0.003203
 36,-0.00411130,-0.00184361,-0.40545335,0.50527851,0.32762951,-0.001407
 47,0.00013280,0.00049475,0.00058269,-0.00061999,0.00056934,0.00190042,
 0.00314361,-0.00504430,0.39978085,-0.00160439,0.00103570,0.00008734,-0
 .00018978,0.00019056,-0.00071208,0.00111241,0.00009797,-0.00100228,0.5
 0689362,-0.19038294,-0.26876590,0.00036857,0.00168318,-0.00038893,0.00
 012531,-0.00063187,0.00061540,-0.00346513,-0.00551621,0.00602730,-0.50
 324061,0.19352361,-0.00467630,0.00371629,-0.00095190,-0.00007288,0.000
 80612,-0.00020270,-0.00039130,0.00104641,-0.00022746,0.32986146,-0.268
 56089,0.04429260,0.00051615,0.00007663,-0.00077398,-0.00007803,-0.0000
 1308,0.00057788,-0.00141836,-0.00121063,0.00017226,-0.32374074,0.26413
 917,-0.04288670,0.00274114,-0.00112673,-0.00438438,-0.01257682,0.00013
 521,-0.02082195,-0.00885357,0.00106613,0.00554095,0.00990217,0.0009589
 0,0.00206290,-0.00019591,-0.00119261,-0.00385698,0.00329604,-0.0000322
 9,0.00649225,-0.00382007,0.00027210,-0.00408879,0.00172245,0.00704648,
 0.00333506,-0.00063999,0.00089789,-0.00087366,0.50824498,0.00260445,-0
 .00077252,0.00276663,-0.00077057,0.00085885,-0.00069941,0.20784535,0.1
 0671462,0.00741376,0.00773271,0.00621156,-0.00117755,0.00105832,-0.001
 20596,-0.65919321,0.13600184,0.32231915,0.00035253,-0.00695022,0.00361
 578,-0.00064134,-0.00075640,-0.00069854,-0.00586367,0.00722796,0.00197
 136,0.43104400,-0.00217566,-0.00041038,-0.00257578,0.00086358,0.000821
 75,0.00061977,-0.00497994,0.00780119,-0.00398441,-0.31955863,0.1689730
 7,0.00649345,-0.00804903,0.00722061,-0.00141054,-0.00106397,-0.0011674
 2,0.00300064,0.00213318,-0.00764683,-0.64528834,-0.02192073,0.33727244
 ,0.00200349,0.00041938,0.00246435,0.00014964,0.00027822,0.00039874,-0.
 53185928,-0.40540970,0.39949307,0.00298507,0.00551599,-0.00190910,0.52
 584916,0.00078178,0.00039656,-0.00041007,0.00019978,0.00017706,0.00042
 276,-0.40573599,-0.00446801,0.21926644,-0.00154667,-0.00187490,0.00043
 660,0.40436950,0.01028529,-0.00462135,-0.00296398,-0.00075974,-0.00021
 310,-0.00096142,-0.00018571,0.40169071,0.21978158,-0.00260701,-0.00064
 880,-0.00196768,0.00063720,-0.39516526,-0.21560704,0.00258374,-0.00009
 150,-0.00275864,-0.00227197,0.00006271,0.00041581,0.00067738,0.0245605
 8,0.19269446,0.25379398,0.00115667,-0.00251305,-0.00083215,0.00155310,
 0.00163477,-0.00115393,-0.02666482,-0.00005333,0.00138002,0.00087788,0
 .00047969,-0.00020953,0.00031088,0.19398401,-0.10779431,-0.36119876,-0
 .00051223,-0.00068747,-0.00062066,-0.00433683,-0.00578208,0.00155117,-
 0.19006996,0.11214254,0.00210266,0.00081281,0.00129087,0.00056605,0.00
 025832,0.00016391,0.25399315,-0.35885426,-0.32058424,-0.00093605,0.003
 92717,0.00279159,-0.00563851,-0.00424119,0.00051976,-0.25048775,0.3589
 2702,0.31646129,0.00033889,0.00266494,-0.00263318,-0.00006322,-0.00037
 691,0.00066562,0.00153580,0.00208125,-0.00092659,-0.02938169,-0.171843
 17,0.31910661,-0.00047445,-0.00032776,0.00035647,-0.00022326,0.0000035
 6,-0.00007457,0.02652537,0.00038730,0.00079197,-0.00049358,-0.00045070
 ,-0.00014315,-0.00037364,0.00004835,-0.00133324,0.00112793,-0.17312438
 ,0.00846733,0.29033340,-0.00036413,0.00029165,0.00017573,0.00014621,0.
 00082440,-0.00053258,0.17062304,-0.00328673,0.00194165,-0.00108071,0.0
 0144824,0.00056961,-0.00030596,0.00022345,-0.00149703,-0.00337094,0.00
 305824,0.31908592,0.28797591,-0.38290238,0.00055211,0.00018332,-0.0002
 1460,-0.00001236,0.00041413,-0.00047283,-0.31538278,-0.28943555,0.3786
 9936,0.00178657,-0.00036133,0.00252583,0.00008360,-0.00022490,0.000354
 49,0.00229913,-0.00627321,-0.00137482,-0.39965156,0.49469088,0.3208394
 3,-0.00020674,0.00062458,-0.00024474,-0.00035349,0.00050510,0.00047501
 ,0.00174256,0.00273432,-0.00525714,0.39429995,-0.00137672,0.00093582,-
 0.00010438,-0.00019531,0.00028910,-0.00052017,0.00089385,-0.00100657,-
 0.00000406,0.49522057,-0.18309059,-0.26124879,-0.00047243,0.00097442,-
 0.00000837,0.00045040,0.00012643,-0.00029730,-0.00282494,-0.00561222,0
 .00561981,-0.49169543,0.18738360,-0.00404939,0.00344527,-0.00108186,-0
 .00005535,0.00093852,-0.00023173,-0.00045567,0.00224137,0.00045508,0.3
 2289865,-0.26207425,0.04379478,-0.00019540,-0.00005082,0.00002636,0.00
 028681,-0.00026166,-0.00017035,-0.00111158,-0.00080170,0.00016051,-0.3
 1731806,0.25656326,-0.04295280,4.21438555,-0.47515143,-0.98282636,-1.9
 5123256,0.17543495,-0.33041680,-4.22194008,0.47259149,1.89708326,4.216
 71683,0.47435490,0.97594574,-0.17129204,-0.47183109,-0.97386226,1.9339
 1030,-0.17397309,0.32750871,-1.89252548,0.17079066,-0.32872151,0.00588
 946,0.02388431,0.02620035,0.00076164,-0.02059826,-0.02373008,-0.007276
 65,0.00348150,0.00457744,0.00483689,-0.00339566,-0.00169987,-0.0014784
 8,-0.00125603,-0.00262690,0.00945163,0.00121973,0.00048051,-0.00672976
 ,0.00078625,0.00040684,-0.00026275,-0.00006144,-0.00196337,0.00218399,
 -0.02101812,0.02732078,0.00392940,0.01744822,-0.02505694,-0.00037163,0
 .00147906,-0.00236046,-0.00681850,-0.00227356,0.00740277,-0.00923576,0
 .00192048,-0.00456816,0.00537188,-0.00169550,-0.00037715,0.00066317,0.
 00183155,-0.00305131,0.00942258,-0.00308969,0.00134421,-0.00701677,0.0
 0055614,0.00009908,-0.00226647,-0.00007983,0.00211615,-0.00038485,0.00
 018161,-0.00197499,0.00021050,0.00299995,0.00261276,0.00105035,-0.0019
 1866,-0.00055880,-0.00204256,-0.00114546,-0.00075844,0.00038076,-0.000
 78898,-0.00068613,-0.00007054,-0.00179289,-0.00190775,-0.00139202,0.00
 128534,0.00082371,-0.00013845,-0.00031846,0.00057560,0.00213119,0.0005
 5978,0.00014903,0.00056300,0.00074239,0.00003177,0.00095407,0.00341233
 ,0.00258830,0.00142073,-0.00208008,-0.00208168,-0.00273998,0.00035286,
 0.00152343,0.00081762,-0.00093392,-0.00082118,-0.00055511,-0.00114474,
 -0.00184615,-0.00053670,-0.00307186,-0.00232063,-0.00047124,0.00439598
 ,0.00424273,0.00240655,0.00110138,0.00080133,0.00037190,0.00081245,0.0
 0059793,0.00034226,-0.00041579,0.00024090,-0.00211489,0.00060544,-0.00
 050949,0.00125019,0.00116935,0.00108022,0.00097845,0.00071388,0.000396
 28,-0.00430873,0.00005884,-0.00111651,-0.00004296,-0.00000898,0.000297
 27,0.00034834,-0.00262787,-0.00016999,-0.00156097,-0.00153434,-0.00211
 373,0.00317534,0.00305902,0.00231145,0.00140533,-0.00404973,-0.0024591
 6,0.00043016,0.00034140,0.00072003,-0.00012313,0.00020634,0.00023025,-
 0.00313847,0.00175311,0.00150743,-0.00020779,0.00278600,-0.00276494,-0
 .00119041,-0.00367715,0.00444840,0.00022428,-0.00094390,0.00069623,0.0
 0212488,-0.00119217,0.00150260,0.00001910,-0.00021091,-0.00017930,-0.0
 0000553,0.00036311,-0.00026196,-0.00136286,-0.00078336,-0.00079540,-0.
 00101792,-0.00057781,0.00137309,-0.00149170,-0.00021861,-0.00098882,0.
 00011774,-0.00074569,0.00142381,0.00378128,0.00020510,-0.00048683,0.00
 019008,-0.00031429,0.00047725,-0.00016637,0.00245811,-0.00118624,-0.00
 126838,0.00160096,-0.00215625,0.00279252,-0.00337199,0.00273729,0.0004
 0029,-0.00023461,0.00073745,0.00202762,0.00344419,-0.00320433,-0.00000
 370,-0.00035240,-0.00001576,-0.00020779,0.00013902,-0.00015913,-0.0035
 9218,-0.00103892,0.00177885,0.00001507,-0.00302034,0.00310097,0.001143
 51,0.00182607,-0.00073013,0.00040891,0.00067909,-0.00083777,-0.0018008
 0,0.00138574,-0.00116889,0.00011014,0.00015053,0.00004106,0.00000765,-
 0.00027376,0.00007370,0.00039832,-0.00002347,-0.00014839,-0.00028279,0
 .00155941,-0.00188693,0.00141570,-0.00116211,0.00090753,-0.00005927,-0
 .00051134,0.00014343,-0.00054791,0.00038637,0.00013754,-0.00186956,-0.
 00008536,0.00051719,-0.00014487,0.00011999,-0.00045503,0.00039058,0.00
 041690,0.00018312,-0.00018625,-0.00072385,0.00045315,0.00032332,-0.003
 07085,0.00276506,0.00180016,0.00155204,-0.00226018,0.00099331,0.000714
 33,-0.00084186,-0.00279393,0.00016742,0.00172103,0.00007254,0.00012707
 ,0.00042279,-0.00021602,-0.00011741,-0.00003715,0.00015115,-0.00037419
 ,0.00028189,-0.00033054,0.00100158,-0.00205159\\@


 FROM THE ASHES OF OUR DESPAIR GROW THE FLOWERS OF TOMORROW.
 Job cpu time:       0 days 11 hours 38 minutes 39.1 seconds.
 Elapsed time:       0 days  0 hours 25 minutes 42.1 seconds.
 File lengths (MBytes):  RWF=    884 Int=      0 D2E=      0 Chk=     48 Scr=      8
 Normal termination of Gaussian 16 at Mon Dec 20 11:14:07 2021.
