 Entering Gaussian System, Link 0=g16
 Input=divinylaminect_mp2_avdz_opt_anharm.gjf
 Output=divinylaminect_mp2_avdz_opt_anharm.log
 Initial command:
 /sw/contrib/chem-src/g16/c01/g16/l1.exe "/scr/Gau-98040.inp" -scrdir="/scr/"
 Entering Link 1 = /sw/contrib/chem-src/g16/c01/g16/l1.exe PID=     98041.
  
 Copyright (c) 1988-2019, Gaussian, Inc.  All Rights Reserved.
  
 This is part of the Gaussian(R) 16 program.  It is based on
 the Gaussian(R) 09 system (copyright 2009, Gaussian, Inc.),
 the Gaussian(R) 03 system (copyright 2003, Gaussian, Inc.),
 the Gaussian(R) 98 system (copyright 1998, Gaussian, Inc.),
 the Gaussian(R) 94 system (copyright 1995, Gaussian, Inc.),
 the Gaussian 92(TM) system (copyright 1992, Gaussian, Inc.),
 the Gaussian 90(TM) system (copyright 1990, Gaussian, Inc.),
 the Gaussian 88(TM) system (copyright 1988, Gaussian, Inc.),
 the Gaussian 86(TM) system (copyright 1986, Carnegie Mellon
 University), and the Gaussian 82(TM) system (copyright 1983,
 Carnegie Mellon University). Gaussian is a federally registered
 trademark of Gaussian, Inc.
  
 This software contains proprietary and confidential information,
 including trade secrets, belonging to Gaussian, Inc.
  
 This software is provided under written license and may be
 used, copied, transmitted, or stored only in accord with that
 written license.
  
 The following legend is applicable only to US Government
 contracts under FAR:
  
                    RESTRICTED RIGHTS LEGEND
  
 Use, reproduction and disclosure by the US Government is
 subject to restrictions as set forth in subparagraphs (a)
 and (c) of the Commercial Computer Software - Restricted
 Rights clause in FAR 52.227-19.
  
 Gaussian, Inc.
 340 Quinnipiac St., Bldg. 40, Wallingford CT 06492
  
  
 ---------------------------------------------------------------
 Warning -- This program may not be used in any manner that
 competes with the business of Gaussian, Inc. or will provide
 assistance to any competitor of Gaussian, Inc.  The licensee
 of this program is prohibited from giving any competitor of
 Gaussian, Inc. access to this program.  By using this program,
 the user acknowledges that Gaussian, Inc. is engaged in the
 business of creating and licensing software in the field of
 computational chemistry and represents and warrants to the
 licensee that it is not a competitor of Gaussian, Inc. and that
 it will not use this program in any manner prohibited above.
 ---------------------------------------------------------------
  

 Cite this work as:
 Gaussian 16, Revision C.01,
 M. J. Frisch, G. W. Trucks, H. B. Schlegel, G. E. Scuseria, 
 M. A. Robb, J. R. Cheeseman, G. Scalmani, V. Barone, 
 G. A. Petersson, H. Nakatsuji, X. Li, M. Caricato, A. V. Marenich, 
 J. Bloino, B. G. Janesko, R. Gomperts, B. Mennucci, H. P. Hratchian, 
 J. V. Ortiz, A. F. Izmaylov, J. L. Sonnenberg, D. Williams-Young, 
 F. Ding, F. Lipparini, F. Egidi, J. Goings, B. Peng, A. Petrone, 
 T. Henderson, D. Ranasinghe, V. G. Zakrzewski, J. Gao, N. Rega, 
 G. Zheng, W. Liang, M. Hada, M. Ehara, K. Toyota, R. Fukuda, 
 J. Hasegawa, M. Ishida, T. Nakajima, Y. Honda, O. Kitao, H. Nakai, 
 T. Vreven, K. Throssell, J. A. Montgomery, Jr., J. E. Peralta, 
 F. Ogliaro, M. J. Bearpark, J. J. Heyd, E. N. Brothers, K. N. Kudin, 
 V. N. Staroverov, T. A. Keith, R. Kobayashi, J. Normand, 
 K. Raghavachari, A. P. Rendell, J. C. Burant, S. S. Iyengar, 
 J. Tomasi, M. Cossi, J. M. Millam, M. Klene, C. Adamo, R. Cammi, 
 J. W. Ochterski, R. L. Martin, K. Morokuma, O. Farkas, 
 J. B. Foresman, and D. J. Fox, Gaussian, Inc., Wallingford CT, 2019.
 
 ******************************************
 Gaussian 16:  EM64L-G16RevC.01  3-Jul-2019
                 8-Apr-2025 
 ******************************************
 %nprocshared=40
 Will use up to   40 processors via shared memory.
 %mem=50gb
 ----------------------------------------------
 # MP2/aug-cc-pVDZ opt freq=(vibrot,anharmonic)
 ----------------------------------------------
 1/18=20,19=15,38=1,80=1/1,3;
 2/9=110,12=2,17=6,18=5,40=1/2;
 3/5=16,7=10,11=9,25=1,30=1,71=1/1,2,3;
 4//1;
 5/5=2,38=5/2;
 8/6=4,10=1/1;
 9/15=2,16=-3/6;
 10/5=1/2;
 6/7=2,8=2,9=2,10=2/1;
 7/12=2/1,2,3,16;
 1/18=20,19=15,80=1/3(2);
 2/9=110/2;
 99//99;
 2/9=110/2;
 3/5=16,7=10,11=9,25=1,30=1,71=1/1,2,3;
 4/5=5,16=3,69=1/1;
 5/5=2,38=5/2;
 8/6=4,10=1/1;
 9/15=2,16=-3/6;
 10/5=1/2;
 7/12=2/1,2,3,16;
 1/18=20,19=15,80=1/3(-8);
 2/9=110/2;
 6/7=2,8=2,9=2,10=2/1;
 99/9=10/99;
 ----
 blah
 ----
 Symbolic Z-matrix:
 Charge =  0 Multiplicity = 1
 C                     2.0408   -0.64493   0.00001 
 C                     1.33742   0.51652  0. 
 H                     1.57812  -1.63238   0.00003 
 H                     3.12902  -0.59032   0.00001 
 N                    -0.0466    0.677    -0.00001 
 H                     1.87292   1.47019  -0.00001 
 C                    -0.97862  -0.35449  -0.00001 
 H                    -0.40197   1.62479   0.00001 
 C                    -2.25651  -0.35328  -0.45368 
 H                    -0.54773  -1.25606   0.43959 
 H                    -2.71242   0.53557  -0.89811 
 H                    -2.85529  -1.26007  -0.37765 
 

 GradGradGradGradGradGradGradGradGradGradGradGradGradGradGradGradGradGrad
 Berny optimization.
 Initialization pass.
                           ----------------------------
                           !    Initial Parameters    !
                           ! (Angstroms and Degrees)  !
 --------------------------                            --------------------------
 ! Name  Definition              Value          Derivative Info.                !
 --------------------------------------------------------------------------------
 ! R1    R(1,2)                  1.3578         estimate D2E/DX2                !
 ! R2    R(1,3)                  1.0905         estimate D2E/DX2                !
 ! R3    R(1,4)                  1.0896         estimate D2E/DX2                !
 ! R4    R(2,5)                  1.3933         estimate D2E/DX2                !
 ! R5    R(2,6)                  1.0937         estimate D2E/DX2                !
 ! R6    R(5,7)                  1.3902         estimate D2E/DX2                !
 ! R7    R(5,8)                  1.0122         estimate D2E/DX2                !
 ! R8    R(7,9)                  1.356          estimate D2E/DX2                !
 ! R9    R(7,10)                 1.0917         estimate D2E/DX2                !
 ! R10   R(9,11)                 1.0934         estimate D2E/DX2                !
 ! R11   R(9,12)                 1.0893         estimate D2E/DX2                !
 ! A1    A(2,1,3)              123.6946         estimate D2E/DX2                !
 ! A2    A(2,1,4)              118.3266         estimate D2E/DX2                !
 ! A3    A(3,1,4)              117.9787         estimate D2E/DX2                !
 ! A4    A(1,2,5)              127.8132         estimate D2E/DX2                !
 ! A5    A(1,2,6)              119.4858         estimate D2E/DX2                !
 ! A6    A(5,2,6)              112.701          estimate D2E/DX2                !
 ! A7    A(2,5,7)              125.4863         estimate D2E/DX2                !
 ! A8    A(2,5,8)              117.167          estimate D2E/DX2                !
 ! A9    A(7,5,8)              117.3467         estimate D2E/DX2                !
 ! A10   A(5,7,9)              129.1341         estimate D2E/DX2                !
 ! A11   A(5,7,10)             110.3737         estimate D2E/DX2                !
 ! A12   A(9,7,10)             120.4921         estimate D2E/DX2                !
 ! A13   A(7,9,11)             121.9828         estimate D2E/DX2                !
 ! A14   A(7,9,12)             119.5988         estimate D2E/DX2                !
 ! A15   A(11,9,12)            118.4184         estimate D2E/DX2                !
 ! D1    D(3,1,2,5)             -0.0004         estimate D2E/DX2                !
 ! D2    D(3,1,2,6)            179.9998         estimate D2E/DX2                !
 ! D3    D(4,1,2,5)            179.9997         estimate D2E/DX2                !
 ! D4    D(4,1,2,6)             -0.0001         estimate D2E/DX2                !
 ! D5    D(1,2,5,7)             -0.0008         estimate D2E/DX2                !
 ! D6    D(1,2,5,8)            179.9986         estimate D2E/DX2                !
 ! D7    D(6,2,5,7)            179.999          estimate D2E/DX2                !
 ! D8    D(6,2,5,8)             -0.0016         estimate D2E/DX2                !
 ! D9    D(2,5,7,9)           -154.4496         estimate D2E/DX2                !
 ! D10   D(2,5,7,10)            25.44           estimate D2E/DX2                !
 ! D11   D(8,5,7,9)             25.551          estimate D2E/DX2                !
 ! D12   D(8,5,7,10)          -154.5594         estimate D2E/DX2                !
 ! D13   D(5,7,9,11)            -0.1202         estimate D2E/DX2                !
 ! D14   D(5,7,9,12)           179.8798         estimate D2E/DX2                !
 ! D15   D(10,7,9,11)          179.9999         estimate D2E/DX2                !
 ! D16   D(10,7,9,12)           -0.0001         estimate D2E/DX2                !
 --------------------------------------------------------------------------------
 Trust Radius=3.00D-01 FncErr=1.00D-07 GrdErr=1.00D-07 EigMax=2.50D+02 EigMin=1.00D-04
 Number of steps in this run=     52 maximum allowed number of steps=    100.
 GradGradGradGradGradGradGradGradGradGradGradGradGradGradGradGradGradGrad

                          Input orientation:                          
 ---------------------------------------------------------------------
 Center     Atomic      Atomic             Coordinates (Angstroms)
 Number     Number       Type             X           Y           Z
 ---------------------------------------------------------------------
      1          6           0        2.040802   -0.644931    0.000010
      2          6           0        1.337419    0.516521   -0.000002
      3          1           0        1.578121   -1.632381    0.000025
      4          1           0        3.129016   -0.590323    0.000006
      5          7           0       -0.046600    0.676997   -0.000006
      6          1           0        1.872919    1.470192   -0.000013
      7          6           0       -0.978621   -0.354486   -0.000014
      8          1           0       -0.401968    1.624792    0.000007
      9          6           0       -2.256513   -0.353280   -0.453680
     10          1           0       -0.547730   -1.256056    0.439592
     11          1           0       -2.712421    0.535573   -0.898113
     12          1           0       -2.855293   -1.260071   -0.377650
 ---------------------------------------------------------------------
                    Distance matrix (angstroms):
                    1          2          3          4          5
     1  C    0.000000
     2  C    1.357836   0.000000
     3  H    1.090473   2.162341   0.000000
     4  H    1.089583   2.105926   1.868465   0.000000
     5  N    2.470777   1.393291   2.823640   3.419157   0.000000
     6  H    2.121775   1.093732   3.116547   2.413193   2.076948
     7  C    3.033360   2.474408   2.858312   4.114402   1.390187
     8  H    3.334482   2.062458   3.811814   4.168283   1.012226
     9  C    4.331029   3.725416   4.067722   5.409801   2.480122
    10  H    2.695775   2.624701   2.203198   3.762299   2.044767
    11  H    4.979291   4.148273   4.890340   6.016365   2.816593
    12  H    4.949017   4.569215   4.465021   6.033501   3.432725
                    6          7          8          9         10
     6  H    0.000000
     7  C    3.385370   0.000000
     8  H    2.280134   2.061570   0.000000
     9  C    4.536857   1.356032   2.749171   0.000000
    10  H    3.672223   1.091673   2.917836   2.129056   0.000000
    11  H    4.765022   2.145891   2.707621   1.093358   3.112118
    12  H    5.472927   2.117685   3.805767   1.089306   2.448009
                   11         12
    11  H    0.000000
    12  H    1.875002   0.000000
 Stoichiometry    C4H7N
 Framework group  C1[X(C4H7N)]
 Deg. of freedom    30
 Full point group                 C1      NOp   1
 Largest Abelian subgroup         C1      NOp   1
 Largest concise Abelian subgroup C1      NOp   1
                         Standard orientation:                         
 ---------------------------------------------------------------------
 Center     Atomic      Atomic             Coordinates (Angstroms)
 Number     Number       Type             X           Y           Z
 ---------------------------------------------------------------------
      1          6           0        1.998894   -0.689716   -0.094379
      2          6           0        1.346072    0.498989   -0.027124
      3          1           0        1.498580   -1.657800   -0.053984
      4          1           0        3.083825   -0.678794   -0.194364
      5          7           0       -0.024465    0.714836    0.100539
      6          1           0        1.917470    1.430401   -0.074288
      7          6           0       -0.993534   -0.278423    0.183987
      8          1           0       -0.339674    1.676103    0.135334
      9          6           0       -2.306584   -0.223285   -0.150202
     10          1           0       -0.560945   -1.199134    0.580101
     11          1           0       -2.765021    0.685752   -0.548849
     12          1           0       -2.932064   -1.105768   -0.021417
 ---------------------------------------------------------------------
 Rotational constants (GHZ):          16.6829735           2.8175505           2.4483609
 Standard basis: Aug-CC-pVDZ (5D, 7F)
 There are   188 symmetry adapted cartesian basis functions of A   symmetry.
 There are   178 symmetry adapted basis functions of A   symmetry.
   178 basis functions,   292 primitive gaussians,   188 cartesian basis functions
    19 alpha electrons       19 beta electrons
       nuclear repulsion energy       158.5992490330 Hartrees.
 NAtoms=   12 NActive=   12 NUniq=   12 SFac= 1.00D+00 NAtFMM=   60 NAOKFM=F Big=F
 Integral buffers will be    131072 words long.
 Raffenetti 1 integral format.
 Two-electron integral symmetry is turned on.
 One-electron integrals computed using PRISM.
 NBasis=   178 RedAO= T EigKep=  3.17D-05  NBF=   178
 NBsUse=   178 1.00D-06 EigRej= -1.00D+00 NBFU=   178
 ExpMin= 2.97D-02 ExpMax= 9.05D+03 ExpMxC= 3.09D+02 IAcc=3 IRadAn=         5 AccDes= 0.00D+00
 Harris functional with IExCor=  205 and IRadAn=       5 diagonalized for initial guess.
 HarFok:  IExCor=  205 AccDes= 0.00D+00 IRadAn=         5 IDoV= 1 UseB2=F ITyADJ=14
 ICtDFT=  3500011 ScaDFX=  1.000000  1.000000  1.000000  1.000000
 FoFCou: FMM=F IPFlag=           0 FMFlag=      100000 FMFlg1=           0
         NFxFlg=           0 DoJE=T BraDBF=F KetDBF=T FulRan=T
         wScrn=  0.000000 ICntrl=       500 IOpCl=  0 I1Cent=   200000004 NGrid=           0
         NMat0=    1 NMatS0=      1 NMatT0=    0 NMatD0=    1 NMtDS0=    0 NMtDT0=    0
 Petite list used in FoFCou.
 Keep R1 ints in memory in canonical form, NReq=135795609.
 Requested convergence on RMS density matrix=1.00D-08 within 128 cycles.
 Requested convergence on MAX density matrix=1.00D-06.
 Requested convergence on             energy=1.00D-06.
 No special actions if energy rises.
 SCF Done:  E(RHF) =  -209.968354501     A.U. after   13 cycles
            NFock= 13  Conv=0.73D-08     -V/T= 2.0024
 ExpMin= 2.97D-02 ExpMax= 9.05D+03 ExpMxC= 3.09D+02 IAcc=3 IRadAn=         5 AccDes= 0.00D+00
 HarFok:  IExCor=  205 AccDes= 0.00D+00 IRadAn=         5 IDoV=-2 UseB2=F ITyADJ=14
 ICtDFT= 12500011 ScaDFX=  1.000000  1.000000  1.000000  1.000000
 Range of M.O.s used for correlation:     6   178
 NBasis=   178 NAE=    19 NBE=    19 NFC=     5 NFV=     0
 NROrb=    173 NOA=    14 NOB=    14 NVA=   159 NVB=   159

 **** Warning!!: The largest alpha MO coefficient is  0.45563162D+02

 Fully direct method using O(ONN) memory.
 JobTyp=1 Pass  1:  I=   6 to  19 NPSUse= 40 ParTrn=T ParDer=T DoDerP=T.
 Spin components of T(2) and E(2):
     alpha-alpha T2 =       0.3343810714D-01 E2=     -0.9039946521D-01
     alpha-beta  T2 =       0.1994527107D+00 E2=     -0.5555370074D+00
     beta-beta   T2 =       0.3343810714D-01 E2=     -0.9039946521D-01
 ANorm=    0.1125312812D+01
 E2 =    -0.7363359379D+00 EUMP2 =    -0.21070469043869D+03
          IDoAtm=111111111111
          Differentiating once with respect to electric field.
                with respect to dipole field.
          Differentiating once with respect to nuclear coordinates.
 Keep R1 ints in memory in canonical form, NReq=135808573.
          There are     1 degrees of freedom in the 1st order CPHF.  IDoFFX=0 NUNeed=     1.
 LinEq1:  Iter=  0 NonCon=     1 RMS=3.88D-03 Max=4.30D-02 NDo=     1
 AX will form     1 AO Fock derivatives at one time.
 LinEq1:  Iter=  1 NonCon=     1 RMS=7.21D-04 Max=5.29D-03 NDo=     1
 LinEq1:  Iter=  2 NonCon=     1 RMS=3.11D-04 Max=4.90D-03 NDo=     1
 LinEq1:  Iter=  3 NonCon=     1 RMS=6.46D-05 Max=4.89D-04 NDo=     1
 LinEq1:  Iter=  4 NonCon=     1 RMS=2.65D-05 Max=2.72D-04 NDo=     1
 LinEq1:  Iter=  5 NonCon=     1 RMS=8.60D-06 Max=1.41D-04 NDo=     1
 LinEq1:  Iter=  6 NonCon=     1 RMS=2.63D-06 Max=2.14D-05 NDo=     1
 LinEq1:  Iter=  7 NonCon=     1 RMS=8.67D-07 Max=8.71D-06 NDo=     1
 LinEq1:  Iter=  8 NonCon=     1 RMS=1.87D-07 Max=1.54D-06 NDo=     1
 LinEq1:  Iter=  9 NonCon=     1 RMS=5.76D-08 Max=4.84D-07 NDo=     1
 LinEq1:  Iter= 10 NonCon=     1 RMS=1.78D-08 Max=1.88D-07 NDo=     1
 LinEq1:  Iter= 11 NonCon=     1 RMS=5.22D-09 Max=3.52D-08 NDo=     1
 LinEq1:  Iter= 12 NonCon=     1 RMS=1.37D-09 Max=1.70D-08 NDo=     1
 LinEq1:  Iter= 13 NonCon=     1 RMS=4.41D-10 Max=5.70D-09 NDo=     1
 LinEq1:  Iter= 14 NonCon=     1 RMS=1.34D-10 Max=1.26D-09 NDo=     1
 LinEq1:  Iter= 15 NonCon=     0 RMS=3.23D-11 Max=3.89D-10 NDo=     1
 Linear equations converged to 1.000D-10 1.000D-09 after    15 iterations.
 End of Minotr F.D. properties file   721 does not exist.
 End of Minotr F.D. properties file   722 does not exist.
 End of Minotr F.D. properties file   788 does not exist.

 **********************************************************************

            Population analysis using the SCF Density.

 **********************************************************************

 Orbital symmetries:
       Occupied  (A) (A) (A) (A) (A) (A) (A) (A) (A) (A) (A) (A)
                 (A) (A) (A) (A) (A) (A) (A)
       Virtual   (A) (A) (A) (A) (A) (A) (A) (A) (A) (A) (A) (A)
                 (A) (A) (A) (A) (A) (A) (A) (A) (A) (A) (A) (A)
                 (A) (A) (A) (A) (A) (A) (A) (A) (A) (A) (A) (A)
                 (A) (A) (A) (A) (A) (A) (A) (A) (A) (A) (A) (A)
                 (A) (A) (A) (A) (A) (A) (A) (A) (A) (A) (A) (A)
                 (A) (A) (A) (A) (A) (A) (A) (A) (A) (A) (A) (A)
                 (A) (A) (A) (A) (A) (A) (A) (A) (A) (A) (A) (A)
                 (A) (A) (A) (A) (A) (A) (A) (A) (A) (A) (A) (A)
                 (A) (A) (A) (A) (A) (A) (A) (A) (A) (A) (A) (A)
                 (A) (A) (A) (A) (A) (A) (A) (A) (A) (A) (A) (A)
                 (A) (A) (A) (A) (A) (A) (A) (A) (A) (A) (A) (A)
                 (A) (A) (A) (A) (A) (A) (A) (A) (A) (A) (A) (A)
                 (A) (A) (A) (A) (A) (A) (A) (A) (A) (A) (A) (A)
                 (A) (A) (A)
 The electronic state is 1-A.
 Alpha  occ. eigenvalues --  -15.59819 -11.29358 -11.28880 -11.22902 -11.22015
 Alpha  occ. eigenvalues --   -1.25961  -1.04307  -0.98259  -0.83966  -0.77469
 Alpha  occ. eigenvalues --   -0.69246  -0.65966  -0.59940  -0.58068  -0.54937
 Alpha  occ. eigenvalues --   -0.52690  -0.50689  -0.37712  -0.29464
 Alpha virt. eigenvalues --    0.03350   0.04319   0.04525   0.05884   0.06366
 Alpha virt. eigenvalues --    0.07783   0.08079   0.10146   0.11463   0.12104
 Alpha virt. eigenvalues --    0.13497   0.14215   0.14902   0.15144   0.16130
 Alpha virt. eigenvalues --    0.16606   0.17336   0.18426   0.19020   0.19553
 Alpha virt. eigenvalues --    0.20974   0.22125   0.22897   0.23580   0.24768
 Alpha virt. eigenvalues --    0.25764   0.26746   0.29883   0.31089   0.31525
 Alpha virt. eigenvalues --    0.33506   0.34373   0.35509   0.36201   0.38089
 Alpha virt. eigenvalues --    0.40257   0.40921   0.41258   0.43280   0.43701
 Alpha virt. eigenvalues --    0.44042   0.44927   0.46244   0.47428   0.49495
 Alpha virt. eigenvalues --    0.51220   0.51727   0.52908   0.55031   0.55425
 Alpha virt. eigenvalues --    0.56240   0.57214   0.58279   0.59605   0.60427
 Alpha virt. eigenvalues --    0.61162   0.62165   0.62886   0.64787   0.65256
 Alpha virt. eigenvalues --    0.66599   0.67354   0.68618   0.69323   0.69743
 Alpha virt. eigenvalues --    0.71821   0.71852   0.74092   0.75965   0.76543
 Alpha virt. eigenvalues --    0.77665   0.80188   0.82064   0.82823   0.84527
 Alpha virt. eigenvalues --    0.86666   0.87319   0.88725   0.90344   0.91432
 Alpha virt. eigenvalues --    0.93584   0.95129   0.97204   0.98429   1.02354
 Alpha virt. eigenvalues --    1.04556   1.05533   1.09669   1.14540   1.18478
 Alpha virt. eigenvalues --    1.19294   1.23830   1.27457   1.29416   1.32384
 Alpha virt. eigenvalues --    1.34570   1.44559   1.51849   1.53084   1.58116
 Alpha virt. eigenvalues --    1.58737   1.59458   1.61147   1.61397   1.64065
 Alpha virt. eigenvalues --    1.66466   1.68462   1.70444   1.72911   1.73959
 Alpha virt. eigenvalues --    1.78929   1.80263   1.80831   1.84093   1.89238
 Alpha virt. eigenvalues --    1.95211   1.96042   2.00965   2.01098   2.04727
 Alpha virt. eigenvalues --    2.07589   2.09097   2.10294   2.11561   2.14092
 Alpha virt. eigenvalues --    2.15375   2.15928   2.18302   2.19781   2.21832
 Alpha virt. eigenvalues --    2.27366   2.33325   2.34690   2.36669   2.38129
 Alpha virt. eigenvalues --    2.40881   2.45103   2.48135   2.50086   2.56266
 Alpha virt. eigenvalues --    2.60108   2.63118   2.67502   2.72178   2.73728
 Alpha virt. eigenvalues --    2.75231   2.78663   2.82346   2.85430   2.93980
 Alpha virt. eigenvalues --    2.97493   3.08613   3.16107   3.30810   3.32927
 Alpha virt. eigenvalues --    3.42690   3.53308   3.61174   3.80506
          Condensed to atoms (all electrons):
               1          2          3          4          5          6
     1  C    4.691856   0.425360   0.264430   0.224594  -0.166579   0.002352
     2  C    0.425360   4.638180   0.034170  -0.004077   0.214003   0.105175
     3  H    0.264430   0.034170   1.446695  -0.343826  -0.085898   0.073387
     4  H    0.224594  -0.004077  -0.343826   1.433790   0.059694  -0.113998
     5  N   -0.166579   0.214003  -0.085898   0.059694   7.360950  -0.132889
     6  H    0.002352   0.105175   0.073387  -0.113998  -0.132889   1.507262
     7  C    0.009528  -0.016689  -0.001721  -0.004305   0.222897  -0.016174
     8  H   -0.014235  -0.152742  -0.013737   0.002943   0.447003  -0.046856
     9  C   -0.016013   0.046722   0.011819  -0.007165  -0.174483   0.017109
    10  H   -0.008789  -0.046657  -0.069214   0.012539  -0.142196  -0.007157
    11  H    0.001239  -0.029582  -0.002169  -0.000191  -0.101977   0.001839
    12  H    0.009006   0.004873   0.003622   0.000021   0.041745  -0.000190
               7          8          9         10         11         12
     1  C    0.009528  -0.014235  -0.016013  -0.008789   0.001239   0.009006
     2  C   -0.016689  -0.152742   0.046722  -0.046657  -0.029582   0.004873
     3  H   -0.001721  -0.013737   0.011819  -0.069214  -0.002169   0.003622
     4  H   -0.004305   0.002943  -0.007165   0.012539  -0.000191   0.000021
     5  N    0.222897   0.447003  -0.174483  -0.142196  -0.101977   0.041745
     6  H   -0.016174  -0.046856   0.017109  -0.007157   0.001839  -0.000190
     7  C    4.611995  -0.129296   0.346815   0.250335   0.086011   0.048029
     8  H   -0.129296   0.959932   0.016595   0.016384   0.012721  -0.000574
     9  C    0.346815   0.016595   4.914768  -0.150683   0.211351   0.187206
    10  H    0.250335   0.016384  -0.150683   1.571429   0.081331  -0.116133
    11  H    0.086011   0.012721   0.211351   0.081331   1.313571  -0.263930
    12  H    0.048029  -0.000574   0.187206  -0.116133  -0.263930   1.324126
 Mulliken charges:
               1
     1  C    0.577252
     2  C    0.781264
     3  H   -0.317557
     4  H   -0.260019
     5  N   -0.542271
     6  H   -0.389860
     7  C    0.592575
     8  H   -0.098137
     9  C    0.595958
    10  H   -0.391190
    11  H   -0.310213
    12  H   -0.237801
 Sum of Mulliken charges =  -0.00000
 Mulliken charges with hydrogens summed into heavy atoms:
               1
     1  C   -0.000325
     2  C    0.391404
     5  N   -0.640408
     7  C    0.201385
     9  C    0.047944
 Electronic spatial extent (au):  <R**2>=            520.7007
 Charge=             -0.0000 electrons
 Dipole moment (field-independent basis, Debye):
    X=             -0.0959    Y=              1.2850    Z=              0.1513  Tot=              1.2974
 Quadrupole moment (field-independent basis, Debye-Ang):
   XX=            -32.1013   YY=            -26.8318   ZZ=            -36.9293
   XY=              0.7965   XZ=              0.2674   YZ=             -0.9207
 Traceless Quadrupole moment (field-independent basis, Debye-Ang):
   XX=             -0.1472   YY=              5.1223   ZZ=             -4.9751
   XY=              0.7965   XZ=              0.2674   YZ=             -0.9207
 Octapole moment (field-independent basis, Debye-Ang**2):
  XXX=              1.2072  YYY=              8.2436  ZZZ=              0.9255  XYY=             -0.5566
  XXY=              2.9267  XXZ=             -4.0938  XZZ=             -1.0946  YZZ=              1.9804
  YYZ=              1.1638  XYZ=              1.5040
 Hexadecapole moment (field-independent basis, Debye-Ang**3):
 XXXX=           -548.5181 YYYY=           -104.8301 ZZZZ=            -53.5359 XXXY=              8.2061
 XXXZ=              4.7431 YYYX=              2.3120 YYYZ=             -1.2678 ZZZX=              1.3213
 ZZZY=             -1.5055 XXYY=           -105.7751 XXZZ=           -122.1894 YYZZ=            -31.2753
 XXYZ=             -3.1978 YYXZ=             -0.7645 ZZXY=              0.1703
 N-N= 1.585992490330D+02 E-N=-8.059586161568D+02  KE= 2.094563632565D+02
 Calling FoFJK, ICntrl=  10002127 FMM=F ISym2X=0 I1Cent= 0 IOpClX= 0 NMat=1 NMatS=1 NMatT=0.
 ***** Axes restored to original set *****
 -------------------------------------------------------------------
 Center     Atomic                   Forces (Hartrees/Bohr)
 Number     Number              X              Y              Z
 -------------------------------------------------------------------
      1        6          -0.000579668   -0.000552300   -0.000148818
      2        6          -0.000878149   -0.000717235    0.001711144
      3        1          -0.000494717   -0.000008361   -0.001359325
      4        1           0.000074904    0.000170942    0.000701581
      5        7          -0.007601570    0.011775074   -0.000325223
      6        1          -0.000220812    0.000117943    0.000282672
      7        6           0.008131552   -0.012456401    0.002529855
      8        1           0.001253801    0.000799037   -0.003890683
      9        6           0.003145826    0.007202790    0.000160302
     10        1          -0.002920633   -0.006366877   -0.001327363
     11        1           0.000155617   -0.000127954   -0.000716412
     12        1          -0.000066151    0.000163344    0.002382269
 -------------------------------------------------------------------
 Cartesian Forces:  Max     0.012456401 RMS     0.003972490

 GradGradGradGradGradGradGradGradGradGradGradGradGradGradGradGradGradGrad
 Berny optimization.
 FormGI is forming the generalized inverse of G from B-inverse, IUseBI=4.
 Internal  Forces:  Max     0.014256991 RMS     0.003447152
 Search for a local minimum.
 Step number   1 out of a maximum of   52
 All quantities printed in internal units (Hartrees-Bohrs-Radians)
 Mixed Optimization -- RFO/linear search
 Second derivative matrix not updated -- first step.
 ITU=  0
     Eigenvalues ---    0.01781   0.01801   0.01822   0.02239   0.02282
     Eigenvalues ---    0.02647   0.02647   0.02670   0.02670   0.16000
     Eigenvalues ---    0.16000   0.16000   0.16000   0.16000   0.16000
     Eigenvalues ---    0.16000   0.22000   0.22000   0.22000   0.34385
     Eigenvalues ---    0.34427   0.34620   0.34758   0.34861   0.34893
     Eigenvalues ---    0.45602   0.46751   0.47286   0.53387   0.53758
 RFO step:  Lambda=-3.53788622D-03 EMin= 1.78052129D-02
 Linear search not attempted -- first point.
 Iteration  1 RMS(Cart)=  0.05840610 RMS(Int)=  0.00183281
 Iteration  2 RMS(Cart)=  0.00257960 RMS(Int)=  0.00017962
 Iteration  3 RMS(Cart)=  0.00000501 RMS(Int)=  0.00017958
 Iteration  4 RMS(Cart)=  0.00000000 RMS(Int)=  0.00017958
 Variable       Old X    -DE/DX   Delta X   Delta X   Delta X     New X
                                 (Linear)    (Quad)   (Total)
    R1        2.56594  -0.00018   0.00000  -0.00034  -0.00034   2.56559
    R2        2.06070   0.00022   0.00000   0.00062   0.00062   2.06131
    R3        2.05901   0.00008   0.00000   0.00024   0.00024   2.05925
    R4        2.63294  -0.00197   0.00000  -0.00418  -0.00418   2.62876
    R5        2.06685  -0.00001   0.00000  -0.00002  -0.00002   2.06684
    R6        2.62707   0.00293   0.00000   0.00616   0.00616   2.63323
    R7        1.91283   0.00031   0.00000   0.00067   0.00067   1.91350
    R8        2.56253  -0.00365   0.00000  -0.00675  -0.00675   2.55578
    R9        2.06296   0.00357   0.00000   0.01021   0.01021   2.07317
   R10        2.06615   0.00012   0.00000   0.00035   0.00035   2.06650
   R11        2.05849   0.00007   0.00000   0.00019   0.00019   2.05868
    A1        2.15888  -0.00050   0.00000  -0.00303  -0.00308   2.15580
    A2        2.06519   0.00008   0.00000   0.00047   0.00042   2.06561
    A3        2.05912   0.00042   0.00000   0.00257   0.00252   2.06164
    A4        2.23076  -0.00202   0.00000  -0.00902  -0.00902   2.22174
    A5        2.08542   0.00127   0.00000   0.00609   0.00609   2.09151
    A6        1.96700   0.00075   0.00000   0.00293   0.00293   1.96993
    A7        2.19015  -0.00492   0.00000  -0.02201  -0.02203   2.16812
    A8        2.04495   0.00107   0.00000   0.00250   0.00248   2.04743
    A9        2.04809   0.00385   0.00000   0.01951   0.01950   2.06758
   A10        2.25382  -0.01426   0.00000  -0.06376  -0.06403   2.18979
   A11        1.92638   0.01312   0.00000   0.06852   0.06824   1.99463
   A12        2.10298   0.00114   0.00000  -0.00469  -0.00493   2.09805
   A13        2.12900   0.00065   0.00000   0.00398   0.00371   2.13271
   A14        2.08739  -0.00123   0.00000  -0.00755  -0.00782   2.07957
   A15        2.06679   0.00058   0.00000   0.00356   0.00329   2.07008
    D1       -0.00001   0.00114   0.00000   0.03801   0.03800   0.03800
    D2        3.14159   0.00119   0.00000   0.03967   0.03967  -3.10192
    D3        3.14159   0.00061   0.00000   0.02036   0.02036  -3.12124
    D4       -0.00000   0.00066   0.00000   0.02202   0.02203   0.02202
    D5       -0.00001   0.00117   0.00000   0.05486   0.05488   0.05487
    D6        3.14157   0.00140   0.00000   0.06545   0.06543  -3.07619
    D7        3.14158   0.00113   0.00000   0.05329   0.05331  -3.08830
    D8       -0.00003   0.00136   0.00000   0.06388   0.06386   0.06383
    D9       -2.69565  -0.00225   0.00000  -0.09900  -0.09932  -2.79497
   D10        0.44401  -0.00115   0.00000  -0.05697  -0.05660   0.38741
   D11        0.44595  -0.00248   0.00000  -0.10961  -0.10998   0.33597
   D12       -2.69757  -0.00137   0.00000  -0.06758  -0.06726  -2.76483
   D13       -0.00210   0.00125   0.00000   0.04414   0.04381   0.04172
   D14        3.13949   0.00259   0.00000   0.08855   0.08821  -3.05548
   D15        3.14159   0.00004   0.00000  -0.00164  -0.00131   3.14029
   D16       -0.00000   0.00138   0.00000   0.04277   0.04309   0.04309
         Item               Value     Threshold  Converged?
 Maximum Force            0.014257     0.000450     NO 
 RMS     Force            0.003447     0.000300     NO 
 Maximum Displacement     0.171913     0.001800     NO 
 RMS     Displacement     0.059862     0.001200     NO 
 Predicted change in Energy=-1.890493D-03
 GradGradGradGradGradGradGradGradGradGradGradGradGradGradGradGradGradGrad

                          Input orientation:                          
 ---------------------------------------------------------------------
 Center     Atomic      Atomic             Coordinates (Angstroms)
 Number     Number       Type             X           Y           Z
 ---------------------------------------------------------------------
      1          6           0        2.037149   -0.634785    0.009889
      2          6           0        1.329846    0.524068    0.007244
      3          1           0        1.577049   -1.621439   -0.058426
      4          1           0        3.123843   -0.577633    0.067291
      5          7           0       -0.053123    0.667382   -0.036979
      6          1           0        1.855623    1.482527    0.041106
      7          6           0       -0.952174   -0.397148   -0.023793
      8          1           0       -0.421090    1.609192   -0.090965
      9          6           0       -2.238915   -0.342719   -0.436685
     10          1           0       -0.547011   -1.324672    0.399428
     11          1           0       -2.676439    0.564733   -0.862061
     12          1           0       -2.875625   -1.216960   -0.305886
 ---------------------------------------------------------------------
                    Distance matrix (angstroms):
                    1          2          3          4          5
     1  C    0.000000
     2  C    1.357654   0.000000
     3  H    1.090801   2.160700   0.000000
     4  H    1.089709   2.106128   1.870269   0.000000
     5  N    2.463143   1.391078   2.810093   3.413802   0.000000
     6  H    2.125308   1.093723   3.118031   2.419365   2.076986
     7  C    2.998943   2.461141   2.810171   4.081027   1.393445
     8  H    3.329946   2.062259   3.798762   4.168188   1.012581
     9  C    4.309229   3.699250   4.042250   5.391507   2.440852
    10  H    2.702881   2.663501   2.193019   3.760791   2.098250
    11  H    4.941360   4.099714   4.849467   5.984309   2.751923
    12  H    4.957216   4.562370   4.477850   6.044966   3.404346
                    6          7          8          9         10
     6  H    0.000000
     7  C    3.379514   0.000000
     8  H    2.284055   2.076526   0.000000
     9  C    4.508331   1.352459   2.689604   0.000000
    10  H    3.712332   1.097076   2.977230   2.127407   0.000000
    11  H    4.711437   2.144993   2.602322   1.093545   3.113787
    12  H    5.458236   2.109818   3.749410   1.089406   2.435470
                   11         12
    11  H    0.000000
    12  H    1.877082   0.000000
 Stoichiometry    C4H7N
 Framework group  C1[X(C4H7N)]
 Deg. of freedom    30
 Full point group                 C1      NOp   1
 Largest Abelian subgroup         C1      NOp   1
 Largest concise Abelian subgroup C1      NOp   1
                         Standard orientation:                         
 ---------------------------------------------------------------------
 Center     Atomic      Atomic             Coordinates (Angstroms)
 Number     Number       Type             X           Y           Z
 ---------------------------------------------------------------------
      1          6           0        1.993039   -0.676688   -0.092685
      2          6           0        1.337352    0.508987   -0.006237
      3          1           0        1.487942   -1.642465   -0.137390
      4          1           0        3.081819   -0.663965   -0.135826
      5          7           0       -0.036617    0.707930    0.081665
      6          1           0        1.903430    1.444815   -0.002518
      7          6           0       -0.974110   -0.320197    0.157505
      8          1           0       -0.368493    1.664579    0.081016
      9          6           0       -2.290126   -0.205120   -0.132330
     10          1           0       -0.570503   -1.272795    0.522517
     11          1           0       -2.726961    0.728759   -0.496866
     12          1           0       -2.947840   -1.056330    0.039891
 ---------------------------------------------------------------------
 Rotational constants (GHZ):          16.8618175           2.8568011           2.4730378
 Standard basis: Aug-CC-pVDZ (5D, 7F)
 There are   188 symmetry adapted cartesian basis functions of A   symmetry.
 There are   178 symmetry adapted basis functions of A   symmetry.
   178 basis functions,   292 primitive gaussians,   188 cartesian basis functions
    19 alpha electrons       19 beta electrons
       nuclear repulsion energy       159.0160410257 Hartrees.
 NAtoms=   12 NActive=   12 NUniq=   12 SFac= 1.00D+00 NAtFMM=   60 NAOKFM=F Big=F
 Integral buffers will be    131072 words long.
 Raffenetti 1 integral format.
 Two-electron integral symmetry is turned on.
 One-electron integrals computed using PRISM.
 NBasis=   178 RedAO= T EigKep=  2.98D-05  NBF=   178
 NBsUse=   178 1.00D-06 EigRej= -1.00D+00 NBFU=   178
 Initial guess from the checkpoint file:  "/scr/Gau-98041.chk"
 B after Tr=    -0.000000   -0.000000    0.000000
         Rot=    0.999977   -0.006655    0.000230   -0.000907 Ang=  -0.77 deg.
 ExpMin= 2.97D-02 ExpMax= 9.05D+03 ExpMxC= 3.09D+02 IAcc=3 IRadAn=         5 AccDes= 0.00D+00
 Harris functional with IExCor=  205 and IRadAn=       5 diagonalized for initial guess.
 HarFok:  IExCor=  205 AccDes= 0.00D+00 IRadAn=         5 IDoV= 1 UseB2=F ITyADJ=14
 ICtDFT=  3500011 ScaDFX=  1.000000  1.000000  1.000000  1.000000
 FoFCou: FMM=F IPFlag=           0 FMFlag=      100000 FMFlg1=           0
         NFxFlg=           0 DoJE=T BraDBF=F KetDBF=T FulRan=T
         wScrn=  0.000000 ICntrl=       500 IOpCl=  0 I1Cent=   200000004 NGrid=           0
         NMat0=    1 NMatS0=      1 NMatT0=    0 NMatD0=    1 NMtDS0=    0 NMtDT0=    0
 Petite list used in FoFCou.
 Keep R1 ints in memory in canonical form, NReq=135796494.
 Requested convergence on RMS density matrix=1.00D-08 within 128 cycles.
 Requested convergence on MAX density matrix=1.00D-06.
 Requested convergence on             energy=1.00D-06.
 No special actions if energy rises.
 SCF Done:  E(RHF) =  -209.970343764     A.U. after   12 cycles
            NFock= 12  Conv=0.57D-08     -V/T= 2.0024
 ExpMin= 2.97D-02 ExpMax= 9.05D+03 ExpMxC= 3.09D+02 IAcc=3 IRadAn=         5 AccDes= 0.00D+00
 HarFok:  IExCor=  205 AccDes= 0.00D+00 IRadAn=         5 IDoV=-2 UseB2=F ITyADJ=14
 ICtDFT= 12500011 ScaDFX=  1.000000  1.000000  1.000000  1.000000
 Range of M.O.s used for correlation:     6   178
 NBasis=   178 NAE=    19 NBE=    19 NFC=     5 NFV=     0
 NROrb=    173 NOA=    14 NOB=    14 NVA=   159 NVB=   159

 **** Warning!!: The largest alpha MO coefficient is  0.52492931D+02

 Fully direct method using O(ONN) memory.
 JobTyp=1 Pass  1:  I=   6 to  19 NPSUse= 40 ParTrn=T ParDer=T DoDerP=T.
 Spin components of T(2) and E(2):
     alpha-alpha T2 =       0.3343729050D-01 E2=     -0.9043873121D-01
     alpha-beta  T2 =       0.1993520803D+00 E2=     -0.5554780878D+00
     beta-beta   T2 =       0.3343729050D-01 E2=     -0.9043873121D-01
 ANorm=    0.1125267373D+01
 E2 =    -0.7363555502D+00 EUMP2 =    -0.21070669931465D+03
          IDoAtm=111111111111
          Differentiating once with respect to electric field.
                with respect to dipole field.
          Differentiating once with respect to nuclear coordinates.
 Keep R1 ints in memory in canonical form, NReq=135809058.
          There are     1 degrees of freedom in the 1st order CPHF.  IDoFFX=0 NUNeed=     1.
 LinEq1:  Iter=  0 NonCon=     1 RMS=3.88D-03 Max=5.53D-02 NDo=     1
 AX will form     1 AO Fock derivatives at one time.
 LinEq1:  Iter=  1 NonCon=     1 RMS=7.22D-04 Max=4.72D-03 NDo=     1
 LinEq1:  Iter=  2 NonCon=     1 RMS=3.14D-04 Max=4.93D-03 NDo=     1
 LinEq1:  Iter=  3 NonCon=     1 RMS=6.52D-05 Max=4.55D-04 NDo=     1
 LinEq1:  Iter=  4 NonCon=     1 RMS=2.62D-05 Max=2.59D-04 NDo=     1
 LinEq1:  Iter=  5 NonCon=     1 RMS=8.35D-06 Max=1.39D-04 NDo=     1
 LinEq1:  Iter=  6 NonCon=     1 RMS=2.59D-06 Max=2.08D-05 NDo=     1
 LinEq1:  Iter=  7 NonCon=     1 RMS=8.89D-07 Max=9.13D-06 NDo=     1
 LinEq1:  Iter=  8 NonCon=     1 RMS=1.95D-07 Max=1.74D-06 NDo=     1
 LinEq1:  Iter=  9 NonCon=     1 RMS=6.45D-08 Max=5.38D-07 NDo=     1
 LinEq1:  Iter= 10 NonCon=     1 RMS=1.82D-08 Max=1.72D-07 NDo=     1
 LinEq1:  Iter= 11 NonCon=     1 RMS=5.12D-09 Max=4.54D-08 NDo=     1
 LinEq1:  Iter= 12 NonCon=     1 RMS=1.44D-09 Max=1.83D-08 NDo=     1
 LinEq1:  Iter= 13 NonCon=     1 RMS=4.75D-10 Max=6.34D-09 NDo=     1
 LinEq1:  Iter= 14 NonCon=     1 RMS=1.36D-10 Max=1.20D-09 NDo=     1
 LinEq1:  Iter= 15 NonCon=     0 RMS=3.22D-11 Max=3.34D-10 NDo=     1
 Linear equations converged to 1.000D-10 1.000D-09 after    15 iterations.
 End of Minotr F.D. properties file   721 does not exist.
 End of Minotr F.D. properties file   722 does not exist.
 End of Minotr F.D. properties file   788 does not exist.
 Calling FoFJK, ICntrl=  10002127 FMM=F ISym2X=0 I1Cent= 0 IOpClX= 0 NMat=1 NMatS=1 NMatT=0.
 ***** Axes restored to original set *****
 -------------------------------------------------------------------
 Center     Atomic                   Forces (Hartrees/Bohr)
 Number     Number              X              Y              Z
 -------------------------------------------------------------------
      1        6           0.000628979   -0.000324658   -0.000745895
      2        6           0.000437172    0.000620795    0.000391326
      3        1          -0.000086343    0.000217750   -0.000212205
      4        1           0.000005698   -0.000094699    0.000295441
      5        7          -0.000771537    0.000125474    0.000905732
      6        1           0.000391930   -0.000080243    0.000821646
      7        6           0.003140617   -0.001901236    0.002736417
      8        1          -0.000694783   -0.001260284   -0.002285095
      9        6          -0.002817973    0.001464705    0.000682545
     10        1           0.000039638    0.001672045   -0.001742007
     11        1           0.000278725   -0.000288949   -0.000313529
     12        1          -0.000552123   -0.000150700   -0.000534376
 -------------------------------------------------------------------
 Cartesian Forces:  Max     0.003140617 RMS     0.001175742

 GradGradGradGradGradGradGradGradGradGradGradGradGradGradGradGradGradGrad
 Berny optimization.
 Using GEDIIS/GDIIS optimizer.
 FormGI is forming the generalized inverse of G from B-inverse, IUseBI=4.
 Internal  Forces:  Max     0.003032892 RMS     0.000902967
 Search for a local minimum.
 Step number   2 out of a maximum of   52
 All quantities printed in internal units (Hartrees-Bohrs-Radians)
 Mixed Optimization -- En-DIIS/RFO-DIIS
 Update second derivatives using D2CorX and points    1    2
 DE= -2.01D-03 DEPred=-1.89D-03 R= 1.06D+00
 TightC=F SS=  1.41D+00  RLast= 2.64D-01 DXNew= 5.0454D-01 7.9069D-01
 Trust test= 1.06D+00 RLast= 2.64D-01 DXMaxT set to 5.05D-01
 ITU=  1  0
 Use linear search instead of GDIIS.
     Eigenvalues ---    0.01448   0.01799   0.01810   0.02240   0.02303
     Eigenvalues ---    0.02624   0.02648   0.02665   0.02833   0.15770
     Eigenvalues ---    0.16000   0.16000   0.16000   0.16000   0.16000
     Eigenvalues ---    0.16940   0.20658   0.22000   0.23041   0.34385
     Eigenvalues ---    0.34428   0.34757   0.34861   0.34886   0.35397
     Eigenvalues ---    0.45633   0.46920   0.47533   0.53390   0.55119
 RFO step:  Lambda=-4.79518093D-04 EMin= 1.44837682D-02
 Quartic linear search produced a step of  0.15035.
 Iteration  1 RMS(Cart)=  0.03326784 RMS(Int)=  0.00055632
 Iteration  2 RMS(Cart)=  0.00082362 RMS(Int)=  0.00005024
 Iteration  3 RMS(Cart)=  0.00000025 RMS(Int)=  0.00005024
 Variable       Old X    -DE/DX   Delta X   Delta X   Delta X     New X
                                 (Linear)    (Quad)   (Total)
    R1        2.56559   0.00046  -0.00005   0.00099   0.00094   2.56653
    R2        2.06131  -0.00015   0.00009  -0.00051  -0.00041   2.06090
    R3        2.05925   0.00002   0.00004   0.00005   0.00008   2.05933
    R4        2.62876   0.00135  -0.00063   0.00345   0.00282   2.63158
    R5        2.06684   0.00014  -0.00000   0.00048   0.00048   2.06731
    R6        2.63323  -0.00066   0.00093  -0.00180  -0.00087   2.63236
    R7        1.91350  -0.00080   0.00010  -0.00203  -0.00193   1.91158
    R8        2.55578   0.00303  -0.00102   0.00668   0.00567   2.56145
    R9        2.07317  -0.00207   0.00154  -0.00719  -0.00565   2.06752
   R10        2.06650  -0.00023   0.00005  -0.00077  -0.00072   2.06578
   R11        2.05868   0.00038   0.00003   0.00124   0.00127   2.05995
    A1        2.15580  -0.00031  -0.00046  -0.00206  -0.00253   2.15327
    A2        2.06561   0.00024   0.00006   0.00174   0.00180   2.06741
    A3        2.06164   0.00006   0.00038   0.00039   0.00076   2.06240
    A4        2.22174  -0.00006  -0.00136  -0.00001  -0.00138   2.22036
    A5        2.09151  -0.00038   0.00092  -0.00300  -0.00209   2.08943
    A6        1.96993   0.00044   0.00044   0.00302   0.00345   1.97339
    A7        2.16812   0.00119  -0.00331   0.00692   0.00357   2.17169
    A8        2.04743   0.00049   0.00037   0.00454   0.00487   2.05230
    A9        2.06758  -0.00168   0.00293  -0.01160  -0.00871   2.05888
   A10        2.18979  -0.00163  -0.00963  -0.00623  -0.01590   2.17389
   A11        1.99463   0.00028   0.01026  -0.00184   0.00837   2.00300
   A12        2.09805   0.00136  -0.00074   0.00845   0.00767   2.10572
   A13        2.13271  -0.00048   0.00056  -0.00320  -0.00278   2.12992
   A14        2.07957   0.00084  -0.00118   0.00662   0.00530   2.08487
   A15        2.07008  -0.00033   0.00049  -0.00216  -0.00181   2.06827
    D1        0.03800   0.00026   0.00571   0.00955   0.01526   0.05325
    D2       -3.10192   0.00011   0.00596   0.00198   0.00795  -3.09398
    D3       -3.12124   0.00034   0.00306   0.01409   0.01714  -3.10410
    D4        0.02202   0.00019   0.00331   0.00652   0.00984   0.03186
    D5        0.05487   0.00066   0.00825   0.03899   0.04721   0.10208
    D6       -3.07619   0.00092   0.00984   0.05438   0.06424  -3.01195
    D7       -3.08830   0.00080   0.00802   0.04611   0.05411  -3.03419
    D8        0.06383   0.00106   0.00960   0.06151   0.07114   0.13497
    D9       -2.79497  -0.00061  -0.01493  -0.03260  -0.04762  -2.84259
   D10        0.38741  -0.00080  -0.00851  -0.04376  -0.05224   0.33516
   D11        0.33597  -0.00087  -0.01653  -0.04807  -0.06463   0.27134
   D12       -2.76483  -0.00106  -0.01011  -0.05923  -0.06926  -2.83409
   D13        0.04172   0.00031   0.00659   0.00990   0.01643   0.05814
   D14       -3.05548  -0.00043   0.01326  -0.02392  -0.01071  -3.06619
   D15        3.14029   0.00048  -0.00020   0.02142   0.02128  -3.12162
   D16        0.04309  -0.00026   0.00648  -0.01239  -0.00586   0.03723
         Item               Value     Threshold  Converged?
 Maximum Force            0.003033     0.000450     NO 
 RMS     Force            0.000903     0.000300     NO 
 Maximum Displacement     0.129643     0.001800     NO 
 RMS     Displacement     0.033409     0.001200     NO 
 Predicted change in Energy=-2.828810D-04
 GradGradGradGradGradGradGradGradGradGradGradGradGradGradGradGradGradGrad

                          Input orientation:                          
 ---------------------------------------------------------------------
 Center     Atomic      Atomic             Coordinates (Angstroms)
 Number     Number       Type             X           Y           Z
 ---------------------------------------------------------------------
      1          6           0        2.045576   -0.630951    0.009494
      2          6           0        1.330686    0.523821    0.012157
      3          1           0        1.592122   -1.617004   -0.097505
      4          1           0        3.129485   -0.570807    0.104795
      5          7           0       -0.053763    0.657529   -0.056236
      6          1           0        1.851245    1.483711    0.078574
      7          6           0       -0.950470   -0.407953   -0.023514
      8          1           0       -0.429731    1.590925   -0.159569
      9          6           0       -2.246395   -0.334421   -0.413950
     10          1           0       -0.542639   -1.337817    0.383973
     11          1           0       -2.672512    0.577207   -0.840990
     12          1           0       -2.894474   -1.201693   -0.287066
 ---------------------------------------------------------------------
                    Distance matrix (angstroms):
                    1          2          3          4          5
     1  C    0.000000
     2  C    1.358151   0.000000
     3  H    1.090582   2.159516   0.000000
     4  H    1.089752   2.107718   1.870544   0.000000
     5  N    2.464087   1.392570   2.807872   3.415817   0.000000
     6  H    2.124696   1.093975   3.116502   2.419841   2.080819
     7  C    3.004515   2.464376   2.816390   4.085219   1.392985
     8  H    3.330534   2.065736   3.792434   4.172648   1.011562
     9  C    4.322990   3.703195   4.059479   5.406020   2.433014
    10  H    2.709012   2.667075   2.206121   3.761746   2.100997
    11  H    4.944019   4.093446   4.853292   5.989626   2.734984
    12  H    4.981745   4.573719   4.509763   6.069568   3.402885
                    6          7          8          9         10
     6  H    0.000000
     7  C    3.382074   0.000000
     8  H    2.295878   2.070071   0.000000
     9  C    4.509860   1.355459   2.659311   0.000000
    10  H    3.712812   1.094083   2.980892   2.132198   0.000000
    11  H    4.704437   2.145749   2.553826   1.093163   3.115158
    12  H    5.465065   2.116278   3.726920   1.090077   2.449480
                   11         12
    11  H    0.000000
    12  H    1.876322   0.000000
 Stoichiometry    C4H7N
 Framework group  C1[X(C4H7N)]
 Deg. of freedom    30
 Full point group                 C1      NOp   1
 Largest Abelian subgroup         C1      NOp   1
 Largest concise Abelian subgroup C1      NOp   1
                         Standard orientation:                         
 ---------------------------------------------------------------------
 Center     Atomic      Atomic             Coordinates (Angstroms)
 Number     Number       Type             X           Y           Z
 ---------------------------------------------------------------------
      1          6           0        2.002369   -0.668225   -0.094367
      2          6           0        1.337560    0.511893    0.005254
      3          1           0        1.501904   -1.632785   -0.186726
      4          1           0        3.091993   -0.651747   -0.096623
      5          7           0       -0.040937    0.699466    0.067027
      6          1           0        1.900101    1.449066    0.050379
      7          6           0       -0.973112   -0.332155    0.151961
      8          1           0       -0.386899    1.649060    0.024146
      9          6           0       -2.294914   -0.197996   -0.116573
     10          1           0       -0.567928   -1.288869    0.494807
     11          1           0       -2.720787    0.741797   -0.477719
     12          1           0       -2.963240   -1.043888    0.044900
 ---------------------------------------------------------------------
 Rotational constants (GHZ):          17.0898387           2.8451361           2.4658372
 Standard basis: Aug-CC-pVDZ (5D, 7F)
 There are   188 symmetry adapted cartesian basis functions of A   symmetry.
 There are   178 symmetry adapted basis functions of A   symmetry.
   178 basis functions,   292 primitive gaussians,   188 cartesian basis functions
    19 alpha electrons       19 beta electrons
       nuclear repulsion energy       158.9555159668 Hartrees.
 NAtoms=   12 NActive=   12 NUniq=   12 SFac= 1.00D+00 NAtFMM=   60 NAOKFM=F Big=F
 Integral buffers will be    131072 words long.
 Raffenetti 1 integral format.
 Two-electron integral symmetry is turned on.
 One-electron integrals computed using PRISM.
 NBasis=   178 RedAO= T EigKep=  2.89D-05  NBF=   178
 NBsUse=   178 1.00D-06 EigRej= -1.00D+00 NBFU=   178
 Initial guess from the checkpoint file:  "/scr/Gau-98041.chk"
 B after Tr=     0.000000   -0.000000   -0.000000
         Rot=    0.999997   -0.002089    0.000094   -0.000823 Ang=  -0.26 deg.
 ExpMin= 2.97D-02 ExpMax= 9.05D+03 ExpMxC= 3.09D+02 IAcc=3 IRadAn=         5 AccDes= 0.00D+00
 Harris functional with IExCor=  205 and IRadAn=       5 diagonalized for initial guess.
 HarFok:  IExCor=  205 AccDes= 0.00D+00 IRadAn=         5 IDoV= 1 UseB2=F ITyADJ=14
 ICtDFT=  3500011 ScaDFX=  1.000000  1.000000  1.000000  1.000000
 FoFCou: FMM=F IPFlag=           0 FMFlag=      100000 FMFlg1=           0
         NFxFlg=           0 DoJE=T BraDBF=F KetDBF=T FulRan=T
         wScrn=  0.000000 ICntrl=       500 IOpCl=  0 I1Cent=   200000004 NGrid=           0
         NMat0=    1 NMatS0=      1 NMatT0=    0 NMatD0=    1 NMtDS0=    0 NMtDT0=    0
 Petite list used in FoFCou.
 Keep R1 ints in memory in canonical form, NReq=135796317.
 Requested convergence on RMS density matrix=1.00D-08 within 128 cycles.
 Requested convergence on MAX density matrix=1.00D-06.
 Requested convergence on             energy=1.00D-06.
 No special actions if energy rises.
 SCF Done:  E(RHF) =  -209.970540936     A.U. after   11 cycles
            NFock= 11  Conv=0.98D-08     -V/T= 2.0025
 ExpMin= 2.97D-02 ExpMax= 9.05D+03 ExpMxC= 3.09D+02 IAcc=3 IRadAn=         5 AccDes= 0.00D+00
 HarFok:  IExCor=  205 AccDes= 0.00D+00 IRadAn=         5 IDoV=-2 UseB2=F ITyADJ=14
 ICtDFT= 12500011 ScaDFX=  1.000000  1.000000  1.000000  1.000000
 Range of M.O.s used for correlation:     6   178
 NBasis=   178 NAE=    19 NBE=    19 NFC=     5 NFV=     0
 NROrb=    173 NOA=    14 NOB=    14 NVA=   159 NVB=   159

 **** Warning!!: The largest alpha MO coefficient is  0.55062363D+02

 Fully direct method using O(ONN) memory.
 JobTyp=1 Pass  1:  I=   6 to  19 NPSUse= 40 ParTrn=T ParDer=T DoDerP=T.
 Spin components of T(2) and E(2):
     alpha-alpha T2 =       0.3346748641D-01 E2=     -0.9046414427D-01
     alpha-beta  T2 =       0.1995256271D+00 E2=     -0.5556052935D+00
     beta-beta   T2 =       0.3346748641D-01 E2=     -0.9046414427D-01
 ANorm=    0.1125371316D+01
 E2 =    -0.7365335821D+00 EUMP2 =    -0.21070707451771D+03
          IDoAtm=111111111111
          Differentiating once with respect to electric field.
                with respect to dipole field.
          Differentiating once with respect to nuclear coordinates.
 Keep R1 ints in memory in canonical form, NReq=135809058.
          There are     1 degrees of freedom in the 1st order CPHF.  IDoFFX=0 NUNeed=     1.
 LinEq1:  Iter=  0 NonCon=     1 RMS=3.89D-03 Max=6.03D-02 NDo=     1
 AX will form     1 AO Fock derivatives at one time.
 LinEq1:  Iter=  1 NonCon=     1 RMS=7.26D-04 Max=4.56D-03 NDo=     1
 LinEq1:  Iter=  2 NonCon=     1 RMS=3.16D-04 Max=5.01D-03 NDo=     1
 LinEq1:  Iter=  3 NonCon=     1 RMS=6.56D-05 Max=4.66D-04 NDo=     1
 LinEq1:  Iter=  4 NonCon=     1 RMS=2.63D-05 Max=2.81D-04 NDo=     1
 LinEq1:  Iter=  5 NonCon=     1 RMS=8.37D-06 Max=1.44D-04 NDo=     1
 LinEq1:  Iter=  6 NonCon=     1 RMS=2.59D-06 Max=1.93D-05 NDo=     1
 LinEq1:  Iter=  7 NonCon=     1 RMS=9.05D-07 Max=9.55D-06 NDo=     1
 LinEq1:  Iter=  8 NonCon=     1 RMS=1.96D-07 Max=1.80D-06 NDo=     1
 LinEq1:  Iter=  9 NonCon=     1 RMS=6.81D-08 Max=5.84D-07 NDo=     1
 LinEq1:  Iter= 10 NonCon=     1 RMS=1.78D-08 Max=1.29D-07 NDo=     1
 LinEq1:  Iter= 11 NonCon=     1 RMS=4.86D-09 Max=3.01D-08 NDo=     1
 LinEq1:  Iter= 12 NonCon=     1 RMS=1.31D-09 Max=1.31D-08 NDo=     1
 LinEq1:  Iter= 13 NonCon=     1 RMS=4.33D-10 Max=5.81D-09 NDo=     1
 LinEq1:  Iter= 14 NonCon=     1 RMS=1.22D-10 Max=1.31D-09 NDo=     1
 LinEq1:  Iter= 15 NonCon=     0 RMS=3.05D-11 Max=3.81D-10 NDo=     1
 Linear equations converged to 1.000D-10 1.000D-09 after    15 iterations.
 End of Minotr F.D. properties file   721 does not exist.
 End of Minotr F.D. properties file   722 does not exist.
 End of Minotr F.D. properties file   788 does not exist.
 Calling FoFJK, ICntrl=  10002127 FMM=F ISym2X=0 I1Cent= 0 IOpClX= 0 NMat=1 NMatS=1 NMatT=0.
 ***** Axes restored to original set *****
 -------------------------------------------------------------------
 Center     Atomic                   Forces (Hartrees/Bohr)
 Number     Number              X              Y              Z
 -------------------------------------------------------------------
      1        6           0.000018721    0.000196042   -0.000556629
      2        6           0.000034223    0.000514958    0.000097915
      3        1          -0.000177972   -0.000092791    0.000121346
      4        1          -0.000032370   -0.000027951    0.000037846
      5        7           0.001426563   -0.001991963    0.001594491
      6        1          -0.000037805   -0.000022660    0.000547856
      7        6          -0.001043934    0.001423920   -0.000458526
      8        1          -0.000376909   -0.000033833   -0.001471435
      9        6          -0.000473636   -0.000965300    0.000559521
     10        1           0.000698993    0.000632969   -0.000414348
     11        1           0.000047421    0.000135528    0.000129120
     12        1          -0.000083294    0.000231080   -0.000187158
 -------------------------------------------------------------------
 Cartesian Forces:  Max     0.001991963 RMS     0.000703740

 GradGradGradGradGradGradGradGradGradGradGradGradGradGradGradGradGradGrad
 Berny optimization.
 Using GEDIIS/GDIIS optimizer.
 FormGI is forming the generalized inverse of G from B-inverse, IUseBI=4.
 Internal  Forces:  Max     0.001542074 RMS     0.000456478
 Search for a local minimum.
 Step number   3 out of a maximum of   52
 All quantities printed in internal units (Hartrees-Bohrs-Radians)
 Mixed Optimization -- En-DIIS/RFO-DIIS
 Swapping is turned off.
 Update second derivatives using D2CorX and points    1    2    3
 DE= -3.75D-04 DEPred=-2.83D-04 R= 1.33D+00
 TightC=F SS=  1.41D+00  RLast= 1.75D-01 DXNew= 8.4853D-01 5.2405D-01
 Trust test= 1.33D+00 RLast= 1.75D-01 DXMaxT set to 5.24D-01
 ITU=  1  1  0
     Eigenvalues ---    0.00772   0.01809   0.01826   0.02238   0.02305
     Eigenvalues ---    0.02643   0.02656   0.02779   0.02835   0.15898
     Eigenvalues ---    0.15999   0.16000   0.16000   0.16000   0.16110
     Eigenvalues ---    0.16739   0.21690   0.22405   0.26857   0.34386
     Eigenvalues ---    0.34435   0.34768   0.34861   0.34928   0.35248
     Eigenvalues ---    0.45740   0.47243   0.47509   0.53418   0.55191
 En-DIIS/RFO-DIIS/Sim-DIIS IScMMF=       -3 using points:     3    2
 RFO step:  Lambda=-2.50110995D-04.
 DidBck=F Rises=F RFO-DIIS coefs:    1.94285   -0.94285
 Iteration  1 RMS(Cart)=  0.03186185 RMS(Int)=  0.00050517
 Iteration  2 RMS(Cart)=  0.00056589 RMS(Int)=  0.00006279
 Iteration  3 RMS(Cart)=  0.00000016 RMS(Int)=  0.00006279
 Variable       Old X    -DE/DX   Delta X   Delta X   Delta X     New X
                                 (Linear)    (Quad)   (Total)
    R1        2.56653  -0.00016   0.00089  -0.00114  -0.00025   2.56628
    R2        2.06090   0.00015  -0.00039   0.00097   0.00058   2.06149
    R3        2.05933  -0.00003   0.00008  -0.00017  -0.00009   2.05924
    R4        2.63158  -0.00024   0.00266  -0.00307  -0.00041   2.63117
    R5        2.06731  -0.00000   0.00045  -0.00035   0.00010   2.06742
    R6        2.63236  -0.00057  -0.00082  -0.00069  -0.00151   2.63085
    R7        1.91158   0.00026  -0.00182   0.00224   0.00042   1.91200
    R8        2.56145   0.00031   0.00534  -0.00361   0.00173   2.56318
    R9        2.06752  -0.00043  -0.00533   0.00290  -0.00243   2.06509
   R10        2.06578   0.00004  -0.00068   0.00072   0.00004   2.06582
   R11        2.05995  -0.00016   0.00119  -0.00153  -0.00033   2.05961
    A1        2.15327  -0.00017  -0.00239  -0.00014  -0.00254   2.15073
    A2        2.06741   0.00011   0.00170  -0.00010   0.00158   2.06899
    A3        2.06240   0.00006   0.00072   0.00033   0.00104   2.06344
    A4        2.22036  -0.00045  -0.00130  -0.00293  -0.00424   2.21612
    A5        2.08943   0.00023  -0.00197   0.00357   0.00159   2.09101
    A6        1.97339   0.00022   0.00326  -0.00064   0.00260   1.97599
    A7        2.17169   0.00075   0.00337   0.00064   0.00382   2.17552
    A8        2.05230  -0.00001   0.00459  -0.00244   0.00196   2.05427
    A9        2.05888  -0.00075  -0.00821   0.00142  -0.00696   2.05191
   A10        2.17389   0.00136  -0.01499   0.01442  -0.00057   2.17332
   A11        2.00300  -0.00154   0.00789  -0.01245  -0.00456   1.99845
   A12        2.10572   0.00019   0.00723  -0.00220   0.00502   2.11075
   A13        2.12992  -0.00034  -0.00263  -0.00087  -0.00360   2.12633
   A14        2.08487   0.00043   0.00499  -0.00019   0.00470   2.08957
   A15        2.06827  -0.00010  -0.00170   0.00069  -0.00111   2.06716
    D1        0.05325  -0.00008   0.01438  -0.01139   0.00299   0.05624
    D2       -3.09398  -0.00016   0.00749  -0.01164  -0.00414  -3.09811
    D3       -3.10410   0.00008   0.01616  -0.00514   0.01102  -3.09308
    D4        0.03186  -0.00000   0.00927  -0.00539   0.00389   0.03575
    D5        0.10208   0.00019   0.04451  -0.01065   0.03379   0.13587
    D6       -3.01195   0.00053   0.06057   0.00587   0.06650  -2.94544
    D7       -3.03419   0.00027   0.05101  -0.01043   0.04052  -2.99367
    D8        0.13497   0.00060   0.06707   0.00609   0.07323   0.20820
    D9       -2.84259  -0.00033  -0.04490  -0.00290  -0.04786  -2.89045
   D10        0.33516  -0.00033  -0.04926   0.00456  -0.04477   0.29040
   D11        0.27134  -0.00065  -0.06094  -0.01953  -0.08040   0.19094
   D12       -2.83409  -0.00066  -0.06530  -0.01207  -0.07731  -2.91140
   D13        0.05814  -0.00012   0.01549  -0.01429   0.00121   0.05935
   D14       -3.06619  -0.00006  -0.01010   0.01177   0.00168  -3.06451
   D15       -3.12162  -0.00014   0.02006  -0.02233  -0.00227  -3.12389
   D16        0.03723  -0.00008  -0.00552   0.00373  -0.00180   0.03543
         Item               Value     Threshold  Converged?
 Maximum Force            0.001542     0.000450     NO 
 RMS     Force            0.000456     0.000300     NO 
 Maximum Displacement     0.131659     0.001800     NO 
 RMS     Displacement     0.031859     0.001200     NO 
 Predicted change in Energy=-1.286488D-04
 GradGradGradGradGradGradGradGradGradGradGradGradGradGradGradGradGradGrad

                          Input orientation:                          
 ---------------------------------------------------------------------
 Center     Atomic      Atomic             Coordinates (Angstroms)
 Number     Number       Type             X           Y           Z
 ---------------------------------------------------------------------
      1          6           0        2.048899   -0.628515    0.011728
      2          6           0        1.332307    0.525028    0.018555
      3          1           0        1.596742   -1.612348   -0.121202
      4          1           0        3.129716   -0.570853    0.138074
      5          7           0       -0.051185    0.652021   -0.073471
      6          1           0        1.848000    1.485010    0.115480
      7          6           0       -0.948007   -0.412124   -0.034836
      8          1           0       -0.429216    1.577515   -0.229240
      9          6           0       -2.252523   -0.331544   -0.397459
     10          1           0       -0.529963   -1.343188    0.355760
     11          1           0       -2.681919    0.587449   -0.805038
     12          1           0       -2.903719   -1.195904   -0.268186
 ---------------------------------------------------------------------
                    Distance matrix (angstroms):
                    1          2          3          4          5
     1  C    0.000000
     2  C    1.358017   0.000000
     3  H    1.090891   2.158201   0.000000
     4  H    1.089704   2.108536   1.871349   0.000000
     5  N    2.461175   1.392353   2.800948   3.414427   0.000000
     6  H    2.125585   1.094029   3.116532   2.422784   2.082421
     7  C    3.005068   2.465955   2.814914   4.084473   1.392188
     8  H    3.326512   2.066904   3.780397   4.173297   1.011785
     9  C    4.331034   3.709149   4.066155   5.414108   2.432747
    10  H    2.698081   2.659320   2.196090   3.746617   2.096265
    11  H    4.952404   4.098318   4.859391   6.000519   2.731322
    12  H    4.992865   4.581237   4.522077   6.079315   3.404363
                    6          7          8          9         10
     6  H    0.000000
     7  C    3.382213   0.000000
     8  H    2.305017   2.065333   0.000000
     9  C    4.514119   1.356375   2.645232   0.000000
    10  H    3.702856   1.092798   2.980416   2.134942   0.000000
    11  H    4.708836   2.144483   2.527141   1.093183   3.115402
    12  H    5.469308   2.119805   3.717059   1.089901   2.458805
                   11         12
    11  H    0.000000
    12  H    1.875567   0.000000
 Stoichiometry    C4H7N
 Framework group  C1[X(C4H7N)]
 Deg. of freedom    30
 Full point group                 C1      NOp   1
 Largest Abelian subgroup         C1      NOp   1
 Largest concise Abelian subgroup C1      NOp   1
                         Standard orientation:                         
 ---------------------------------------------------------------------
 Center     Atomic      Atomic             Coordinates (Angstroms)
 Number     Number       Type             X           Y           Z
 ---------------------------------------------------------------------
      1          6           0        2.005822   -0.664218   -0.093283
      2          6           0        1.339117    0.513862    0.015543
      3          1           0        1.504854   -1.625459   -0.216124
      4          1           0        3.095043   -0.650766   -0.063750
      5          7           0       -0.040918    0.694706    0.053561
      6          1           0        1.899148    1.450231    0.096017
      7          6           0       -0.972261   -0.336527    0.139261
      8          1           0       -0.394293    1.638393   -0.037493
      9          6           0       -2.299748   -0.195318   -0.100717
     10          1           0       -0.558281   -1.295588    0.460242
     11          1           0       -2.727024    0.752708   -0.437959
     12          1           0       -2.970599   -1.039256    0.059320
 ---------------------------------------------------------------------
 Rotational constants (GHZ):          17.2687276           2.8387511           2.4608480
 Standard basis: Aug-CC-pVDZ (5D, 7F)
 There are   188 symmetry adapted cartesian basis functions of A   symmetry.
 There are   178 symmetry adapted basis functions of A   symmetry.
   178 basis functions,   292 primitive gaussians,   188 cartesian basis functions
    19 alpha electrons       19 beta electrons
       nuclear repulsion energy       158.9679253577 Hartrees.
 NAtoms=   12 NActive=   12 NUniq=   12 SFac= 1.00D+00 NAtFMM=   60 NAOKFM=F Big=F
 Integral buffers will be    131072 words long.
 Raffenetti 1 integral format.
 Two-electron integral symmetry is turned on.
 One-electron integrals computed using PRISM.
 NBasis=   178 RedAO= T EigKep=  2.73D-05  NBF=   178
 NBsUse=   178 1.00D-06 EigRej= -1.00D+00 NBFU=   178
 Initial guess from the checkpoint file:  "/scr/Gau-98041.chk"
 B after Tr=    -0.000000    0.000000    0.000000
         Rot=    1.000000   -0.000930   -0.000079   -0.000280 Ang=  -0.11 deg.
 ExpMin= 2.97D-02 ExpMax= 9.05D+03 ExpMxC= 3.09D+02 IAcc=3 IRadAn=         5 AccDes= 0.00D+00
 Harris functional with IExCor=  205 and IRadAn=       5 diagonalized for initial guess.
 HarFok:  IExCor=  205 AccDes= 0.00D+00 IRadAn=         5 IDoV= 1 UseB2=F ITyADJ=14
 ICtDFT=  3500011 ScaDFX=  1.000000  1.000000  1.000000  1.000000
 FoFCou: FMM=F IPFlag=           0 FMFlag=      100000 FMFlg1=           0
         NFxFlg=           0 DoJE=T BraDBF=F KetDBF=T FulRan=T
         wScrn=  0.000000 ICntrl=       500 IOpCl=  0 I1Cent=   200000004 NGrid=           0
         NMat0=    1 NMatS0=      1 NMatT0=    0 NMatD0=    1 NMtDS0=    0 NMtDT0=    0
 Petite list used in FoFCou.
 Keep R1 ints in memory in canonical form, NReq=135796317.
 Requested convergence on RMS density matrix=1.00D-08 within 128 cycles.
 Requested convergence on MAX density matrix=1.00D-06.
 Requested convergence on             energy=1.00D-06.
 No special actions if energy rises.
 SCF Done:  E(RHF) =  -209.970651715     A.U. after   12 cycles
            NFock= 12  Conv=0.34D-08     -V/T= 2.0024
 ExpMin= 2.97D-02 ExpMax= 9.05D+03 ExpMxC= 3.09D+02 IAcc=3 IRadAn=         5 AccDes= 0.00D+00
 HarFok:  IExCor=  205 AccDes= 0.00D+00 IRadAn=         5 IDoV=-2 UseB2=F ITyADJ=14
 ICtDFT= 12500011 ScaDFX=  1.000000  1.000000  1.000000  1.000000
 Range of M.O.s used for correlation:     6   178
 NBasis=   178 NAE=    19 NBE=    19 NFC=     5 NFV=     0
 NROrb=    173 NOA=    14 NOB=    14 NVA=   159 NVB=   159

 **** Warning!!: The largest alpha MO coefficient is  0.58008532D+02

 Fully direct method using O(ONN) memory.
 JobTyp=1 Pass  1:  I=   6 to  19 NPSUse= 40 ParTrn=T ParDer=T DoDerP=T.
 Spin components of T(2) and E(2):
     alpha-alpha T2 =       0.3347529570D-01 E2=     -0.9047869255D-01
     alpha-beta  T2 =       0.1995410727D+00 E2=     -0.5556187790D+00
     beta-beta   T2 =       0.3347529570D-01 E2=     -0.9047869255D-01
 ANorm=    0.1125385118D+01
 E2 =    -0.7365761641D+00 EUMP2 =    -0.21070722787873D+03
          IDoAtm=111111111111
          Differentiating once with respect to electric field.
                with respect to dipole field.
          Differentiating once with respect to nuclear coordinates.
 Keep R1 ints in memory in canonical form, NReq=135808999.
          There are     1 degrees of freedom in the 1st order CPHF.  IDoFFX=0 NUNeed=     1.
 LinEq1:  Iter=  0 NonCon=     1 RMS=3.90D-03 Max=6.45D-02 NDo=     1
 AX will form     1 AO Fock derivatives at one time.
 LinEq1:  Iter=  1 NonCon=     1 RMS=7.27D-04 Max=4.62D-03 NDo=     1
 LinEq1:  Iter=  2 NonCon=     1 RMS=3.16D-04 Max=5.14D-03 NDo=     1
 LinEq1:  Iter=  3 NonCon=     1 RMS=6.56D-05 Max=4.85D-04 NDo=     1
 LinEq1:  Iter=  4 NonCon=     1 RMS=2.63D-05 Max=2.97D-04 NDo=     1
 LinEq1:  Iter=  5 NonCon=     1 RMS=8.38D-06 Max=1.53D-04 NDo=     1
 LinEq1:  Iter=  6 NonCon=     1 RMS=2.58D-06 Max=1.75D-05 NDo=     1
 LinEq1:  Iter=  7 NonCon=     1 RMS=9.12D-07 Max=1.06D-05 NDo=     1
 LinEq1:  Iter=  8 NonCon=     1 RMS=1.96D-07 Max=1.84D-06 NDo=     1
 LinEq1:  Iter=  9 NonCon=     1 RMS=7.01D-08 Max=6.47D-07 NDo=     1
 LinEq1:  Iter= 10 NonCon=     1 RMS=1.74D-08 Max=1.20D-07 NDo=     1
 LinEq1:  Iter= 11 NonCon=     1 RMS=4.63D-09 Max=2.82D-08 NDo=     1
 LinEq1:  Iter= 12 NonCon=     1 RMS=1.22D-09 Max=1.11D-08 NDo=     1
 LinEq1:  Iter= 13 NonCon=     1 RMS=3.81D-10 Max=4.32D-09 NDo=     1
 LinEq1:  Iter= 14 NonCon=     1 RMS=1.00D-10 Max=1.10D-09 NDo=     1
 LinEq1:  Iter= 15 NonCon=     0 RMS=2.70D-11 Max=3.81D-10 NDo=     1
 Linear equations converged to 1.000D-10 1.000D-09 after    15 iterations.
 End of Minotr F.D. properties file   721 does not exist.
 End of Minotr F.D. properties file   722 does not exist.
 End of Minotr F.D. properties file   788 does not exist.
 Calling FoFJK, ICntrl=  10002127 FMM=F ISym2X=0 I1Cent= 0 IOpClX= 0 NMat=1 NMatS=1 NMatT=0.
 ***** Axes restored to original set *****
 -------------------------------------------------------------------
 Center     Atomic                   Forces (Hartrees/Bohr)
 Number     Number              X              Y              Z
 -------------------------------------------------------------------
      1        6           0.000073699    0.000109018   -0.000079140
      2        6           0.000333857   -0.000069075   -0.000330709
      3        1           0.000058666    0.000022210    0.000099773
      4        1           0.000023009   -0.000049681   -0.000019101
      5        7           0.000214234   -0.001339575    0.001211548
      6        1          -0.000121645   -0.000009340    0.000102772
      7        6          -0.001447368    0.001775900   -0.000759431
      8        1           0.000051081    0.000328017   -0.000582884
      9        6           0.000344036   -0.000838738    0.000419519
     10        1           0.000365023   -0.000091664    0.000078292
     11        1          -0.000108633    0.000136053    0.000083335
     12        1           0.000214041    0.000026874   -0.000223974
 -------------------------------------------------------------------
 Cartesian Forces:  Max     0.001775900 RMS     0.000556653

 GradGradGradGradGradGradGradGradGradGradGradGradGradGradGradGradGradGrad
 Berny optimization.
 Using GEDIIS/GDIIS optimizer.
 FormGI is forming the generalized inverse of G from B-inverse, IUseBI=4.
 Internal  Forces:  Max     0.001468107 RMS     0.000352989
 Search for a local minimum.
 Step number   4 out of a maximum of   52
 All quantities printed in internal units (Hartrees-Bohrs-Radians)
 Mixed Optimization -- En-DIIS/RFO-DIIS
 Swapping is turned off.
 Update second derivatives using D2CorX and points    1    2    3    4
 DE= -1.53D-04 DEPred=-1.29D-04 R= 1.19D+00
 TightC=F SS=  1.41D+00  RLast= 1.72D-01 DXNew= 8.8134D-01 5.1683D-01
 Trust test= 1.19D+00 RLast= 1.72D-01 DXMaxT set to 5.24D-01
 ITU=  1  1  1  0
     Eigenvalues ---    0.00608   0.01811   0.01916   0.02238   0.02325
     Eigenvalues ---    0.02643   0.02656   0.02771   0.02911   0.15978
     Eigenvalues ---    0.15994   0.16000   0.16000   0.16019   0.16145
     Eigenvalues ---    0.16683   0.22046   0.22546   0.24275   0.34387
     Eigenvalues ---    0.34433   0.34775   0.34862   0.34872   0.35563
     Eigenvalues ---    0.45817   0.47247   0.47527   0.53425   0.56332
 En-DIIS/RFO-DIIS/Sim-DIIS IScMMF=       -3 using points:     4    3    2
 RFO step:  Lambda=-4.96958175D-05.
 DidBck=F Rises=F RFO-DIIS coefs:    1.23963   -0.15574   -0.08390
 Iteration  1 RMS(Cart)=  0.00915014 RMS(Int)=  0.00008621
 Iteration  2 RMS(Cart)=  0.00008865 RMS(Int)=  0.00003720
 Iteration  3 RMS(Cart)=  0.00000000 RMS(Int)=  0.00003720
 Variable       Old X    -DE/DX   Delta X   Delta X   Delta X     New X
                                 (Linear)    (Quad)   (Total)
    R1        2.56628   0.00001   0.00002   0.00003   0.00005   2.56633
    R2        2.06149  -0.00006   0.00011  -0.00022  -0.00011   2.06137
    R3        2.05924   0.00002  -0.00001   0.00007   0.00005   2.05929
    R4        2.63117   0.00035   0.00014   0.00073   0.00087   2.63203
    R5        2.06742  -0.00006   0.00006  -0.00019  -0.00013   2.06729
    R6        2.63085  -0.00037  -0.00043  -0.00056  -0.00100   2.62986
    R7        1.91200   0.00037  -0.00006   0.00084   0.00078   1.91278
    R8        2.56318  -0.00055   0.00089  -0.00143  -0.00054   2.56264
    R9        2.06509   0.00025  -0.00106   0.00123   0.00018   2.06527
   R10        2.06582   0.00013  -0.00005   0.00039   0.00034   2.06616
   R11        2.05961  -0.00018   0.00003  -0.00051  -0.00048   2.05914
    A1        2.15073   0.00003  -0.00082   0.00050  -0.00033   2.15040
    A2        2.06899   0.00004   0.00053   0.00005   0.00058   2.06957
    A3        2.06344  -0.00007   0.00031  -0.00054  -0.00023   2.06320
    A4        2.21612   0.00036  -0.00113   0.00206   0.00093   2.21705
    A5        2.09101  -0.00008   0.00021  -0.00026  -0.00005   2.09096
    A6        1.97599  -0.00028   0.00091  -0.00182  -0.00091   1.97508
    A7        2.17552   0.00043   0.00122   0.00105   0.00213   2.17765
    A8        2.05427  -0.00037   0.00088  -0.00261  -0.00186   2.05240
    A9        2.05191  -0.00007  -0.00240   0.00078  -0.00176   2.05015
   A10        2.17332   0.00147  -0.00147   0.00637   0.00490   2.17822
   A11        1.99845  -0.00103  -0.00039  -0.00396  -0.00436   1.99409
   A12        2.11075  -0.00044   0.00185  -0.00222  -0.00038   2.11037
   A13        2.12633   0.00008  -0.00110   0.00105  -0.00005   2.12628
   A14        2.08957  -0.00011   0.00157  -0.00140   0.00016   2.08972
   A15        2.06716   0.00003  -0.00042   0.00039  -0.00004   2.06711
    D1        0.05624  -0.00006   0.00200  -0.00187   0.00013   0.05637
    D2       -3.09811  -0.00010  -0.00032  -0.00287  -0.00319  -3.10131
    D3       -3.09308   0.00000   0.00408  -0.00070   0.00338  -3.08970
    D4        0.03575  -0.00004   0.00176  -0.00170   0.00006   0.03581
    D5        0.13587  -0.00017   0.01206  -0.01274  -0.00069   0.13518
    D6       -2.94544   0.00016   0.02133   0.00293   0.02427  -2.92118
    D7       -2.99367  -0.00013   0.01425  -0.01180   0.00243  -2.99124
    D8        0.20820   0.00020   0.02352   0.00386   0.02740   0.23559
    D9       -2.89045   0.00014  -0.01546   0.01057  -0.00492  -2.89537
   D10        0.29040   0.00000  -0.01511   0.00521  -0.00991   0.28048
   D11        0.19094  -0.00020  -0.02469  -0.00518  -0.02985   0.16108
   D12       -2.91140  -0.00034  -0.02434  -0.01054  -0.03485  -2.94625
   D13        0.05935  -0.00019   0.00167  -0.00755  -0.00588   0.05347
   D14       -3.06451  -0.00029  -0.00050  -0.00998  -0.01048  -3.07499
   D15       -3.12389  -0.00006   0.00124  -0.00188  -0.00064  -3.12453
   D16        0.03543  -0.00015  -0.00092  -0.00432  -0.00524   0.03019
         Item               Value     Threshold  Converged?
 Maximum Force            0.001468     0.000450     NO 
 RMS     Force            0.000353     0.000300     NO 
 Maximum Displacement     0.038223     0.001800     NO 
 RMS     Displacement     0.009155     0.001200     NO 
 Predicted change in Energy=-2.482661D-05
 GradGradGradGradGradGradGradGradGradGradGradGradGradGradGradGradGradGrad

                          Input orientation:                          
 ---------------------------------------------------------------------
 Center     Atomic      Atomic             Coordinates (Angstroms)
 Number     Number       Type             X           Y           Z
 ---------------------------------------------------------------------
      1          6           0        2.050401   -0.628662    0.013212
      2          6           0        1.333126    0.524488    0.020142
      3          1           0        1.598584   -1.612493   -0.120401
      4          1           0        3.130828   -0.571299    0.143214
      5          7           0       -0.050741    0.652044   -0.072399
      6          1           0        1.847982    1.484463    0.120769
      7          6           0       -0.949823   -0.409568   -0.035668
      8          1           0       -0.425672    1.575418   -0.249467
      9          6           0       -2.255773   -0.330513   -0.392353
     10          1           0       -0.527374   -1.342639    0.345548
     11          1           0       -2.690093    0.590678   -0.790121
     12          1           0       -2.902312   -1.199368   -0.272313
 ---------------------------------------------------------------------
                    Distance matrix (angstroms):
                    1          2          3          4          5
     1  C    0.000000
     2  C    1.358045   0.000000
     3  H    1.090832   2.157986   0.000000
     4  H    1.089731   2.108940   1.871189   0.000000
     5  N    2.462181   1.392811   2.801910   3.415470   0.000000
     6  H    2.125521   1.093963   3.116327   2.423294   2.082158
[...]
 6,-0.00156292,-0.00003446,0.00000313,-0.00006648,-0.00619125,-0.018019
 16,0.00046139,0.00013490,0.00022670,-0.00003341,0.89473482,1.90132776,
 0.00003321,-0.00013275,-0.00014980,-0.00030655,0.00056351,-0.00030692,
 -0.00002933,-0.00004861,-0.00011405,0.00000267,-0.00003797,0.00009734,
 0.00069625,-0.00139073,-0.00203115,0.00004205,-0.00003958,0.00009893,0
 .01062821,0.00321341,-0.00558604,-0.00012429,-0.00010437,-0.00020852,0
 .04660834,-0.60675168,-0.55354383,0.00002921,-0.00003377,0.00010237,0.
 00012372,0.00004865,-0.00001075,0.00001903,0.00003597,0.00002976,-0.00
 000352,0.00000781,-0.00003449,0.00005014,-0.00040392,-0.00007555,0.000
 00166,-0.00000856,0.00003498,0.00330973,0.02173030,-0.00879437,-0.0000
 2430,0.00003151,-0.00005662,-0.00081101,0.00096675,-0.00120271,-0.0036
 9968,-0.00001709,0.00002822,0.00001148,-0.00017537,0.00016466,0.000000
 89,-0.00002903,-0.00007284,0.00002536,-0.00000732,-0.00004497,-0.00000
 049,0.00012921,-0.00012419,0.00013536,0.00002808,-0.00000959,-0.000021
 45,0.01902789,-0.03139483,0.01789139,0.00004524,0.00004751,0.00008052,
 0.00129480,0.00131286,0.00096860,-0.02014637,0.03223864,-0.00002768,0.
 00005536,-0.00007040,0.00014930,-0.00009922,0.00004220,-0.00003178,-0.
 00002894,0.00021533,-0.00001318,-0.00000432,-0.00004054,-0.00034199,0.
 00006072,0.00064303,-0.00000541,0.00000007,-0.00000892,-0.00763605,0.0
 1912133,0.00200876,0.00001978,0.00007589,0.00011778,-0.00143289,0.0001
 5847,0.00226118,0.00826864,-0.01889807,-0.00364169,-0.00017504,0.00011
 415,-0.00004648,0.00053745,-0.00012058,0.00004600,0.00001570,-0.000008
 21,-0.00003427,-0.00000410,0.00001718,0.00001209,0.00038267,0.00055094
 ,0.00014297,-0.00003840,-0.00000867,-0.00000790,-0.00123364,0.00035443
 ,-0.00093555,0.00059348,0.00034226,0.00025577,0.00816558,0.44495446,-0
 .20468628,0.00030194,0.00021090,-0.00001543,0.00022057,-0.00007790,0.0
 0010951,0.00013441,0.00013749,-0.00014338,0.00014169,-0.00001777,-0.00
 006265,-0.00001193,-0.00004142,-0.00003817,-0.00001244,0.00045254,-0.0
 0152829,0.00059418,0.00000913,-0.00003736,0.00000025,-0.00737395,0.008
 08131,-0.00491149,-0.00031500,-0.00039377,-0.00007864,0.43704203,-0.62
 892156,0.39627582,-0.00068913,-0.00027259,-0.00001826,-0.44281273,0.61
 562930,-0.00000687,0.00001299,-0.00004301,0.00014059,-0.00004793,-0.00
 015881,-0.00000981,0.00003694,-0.00008456,0.00001549,0.00000682,0.0000
 5733,-0.00012639,0.00060586,-0.00030439,0.00000373,0.00000091,0.000010
 12,0.00153734,-0.00212613,0.00197315,0.00028728,0.00021050,0.00009698,
 -0.20188864,0.39764478,0.05929293,0.00028905,0.00014921,0.00049704,0.2
 0523565,-0.39172933,-0.05646931,0.00004384,0.00008472,0.00008144,0.000
 05382,-0.00015140,-0.00025856,-0.00000412,-0.00005303,-0.00017598,-0.0
 0000050,-0.00004728,0.00001652,0.00190331,-0.00026958,0.00019997,-0.00
 001553,0.00003394,0.00001128,-0.00157140,-0.00048242,-0.00031047,-0.00
 057971,-0.00009823,-0.00021469,-0.49478309,-1.33317678,0.14833845,0.00
 070312,-0.00036095,0.00106669,-0.00876622,0.01368672,-0.00547741,0.503
 01650,0.00034585,-0.00017061,0.00005099,-0.00078786,0.00080820,-0.0004
 3073,-0.00001304,-0.00008533,-0.00017296,0.00007106,-0.00005178,-0.000
 04012,0.00383951,0.00010753,0.00158143,0.00016207,0.00005507,0.0000093
 8,0.01412604,0.01188144,0.00237941,-0.00021977,-0.00036378,-0.00004369
 ,-1.33322477,-1.25649207,0.20748435,-0.00153925,-0.00187288,-0.0004230
 3,-0.00359414,0.00757763,-0.00476462,1.32083430,1.23860660,0.00004270,
 0.00000038,0.00004298,-0.00011229,-0.00041028,0.00057908,0.00000785,0.
 00004079,0.00001556,0.00000352,0.00004049,-0.00011586,-0.00121958,0.00
 076580,0.00154329,-0.00007027,-0.00001055,-0.00008349,-0.00622076,-0.0
 0347510,0.00139020,-0.00002299,0.00010417,0.00007825,0.14938592,0.2093
 0179,0.50018993,0.00144970,-0.00034282,-0.00202377,0.00003344,-0.00038
 427,-0.00486749,-0.14327723,-0.20563039,-0.49674870,1.82234309,0.74375
 173,0.73830237,0.28490800,0.18229155,-0.73190287,-0.00872234,-0.018722
 82,-0.00143299,-0.00876814,-0.01719900,0.01135656,0.00050928,0.0204719
 1,0.00256077,-0.00118273,0.00058683,-0.00635549,0.00019566,0.00084789,
 -0.00084850,0.04518469,-0.65311096,-0.07686219,0.00237313,0.01270088,0
 .00122808,-0.05040485,-0.65831044,-1.16585669,-0.17494087,0.00188341,0
 .00798345,0.00037699,0.64049336,1.16354779,-0.07791201,-0.17448935,0.3
 2257094,0.00033686,0.00209439,0.00040011,0.07527364,0.17274266,-0.3185
 7366,-1.85990046,-0.07360592,-0.20652203,0.01178328,-0.00234198,0.0005
 5531,0.00362240,0.01809157,0.00236702,1.84482911,-0.07069452,0.4188709
 3,-0.00754512,0.01059547,-0.00334431,0.00013963,0.00042680,-0.00603087
 ,-0.00010549,0.06040798,-0.41000586,-0.20604678,-0.00790947,0.41709101
 ,0.00193603,-0.00129793,0.00093304,0.00073191,0.00176209,-0.00525890,0
 .20365965,0.00734068,-0.41319136,-0.00092562,0.00244600,0.00006942,0.0
 0310056,-0.00064398,-0.00027735,-0.00092341,-0.00200540,0.00009635,0.0
 0158383,0.00041608,-0.00012621,-0.00359835,0.00287973,-0.00157709,0.00
 038350,0.00210889,0.00244488,0.00038616,-0.00161600,-0.00014916,-0.000
 53596,-0.00251569,-0.00014139,-0.00016668,-0.00013800,0.00023644,0.000
 36110,-0.00036941,-0.00152034,-0.00063153,0.00003502,-0.00014439,0.000
 11768,0.00044686,-0.00020454,-0.00027426,-0.00015783,0.00141624,0.0004
 1218,0.00008055,-0.00022527,0.00205447,-0.00006742,0.00016681,0.001038
 76,-0.01300488,-0.00089132,-0.00047421,-0.00074494,-0.00017038,-0.0020
 5027,-0.00143311,-0.00018994,-0.00025249,-0.00035924,-0.00011611,-0.00
 035921,-0.00002111,-0.00167064,-0.00039507,-0.01642858,-0.02108412,-0.
 00253980,0.00061401,0.00078075,0.00021313,0.00004306,0.00108475,0.0002
 6667,0.00015878,0.00016509,-0.00002629,0.01552343,0.02084788,0.0000706
 6,0.00013168,0.00057415,-0.00109233,-0.00226425,0.00617042,-0.00008552
 ,-0.00020323,0.00115323,-0.00011002,0.00004197,-0.00163425,0.00003401,
 -0.00010281,0.00066767,0.00117613,0.00243133,-0.00695442,0.00016154,0.
 00095742,-0.00005805,-0.00036574,0.00019215,0.00029648,0.00011646,0.00
 008347,0.00002629,-0.00037837,-0.00082984,-0.00002272,0.00076919,-0.00
 038654,-0.00014244,0.00001687,-0.00008393,-0.00002880,-0.00155101,-0.0
 0075483,0.00066170,-0.00004916,0.00023367,-0.00017133,0.00009350,0.000
 76774,0.00061600,-0.00004301,0.00013021,-0.00088993,-0.00008318,-0.000
 29621,-0.00040215,-0.00002193,0.00008628,-0.00015722,0.00002665,-0.004
 39483,0.00749180,0.00008272,-0.00011848,-0.00036587,0.00017911,-0.0000
 3955,0.00007020,0.00000981,-0.00020836,-0.00016510,-0.00038148,0.00042
 554,0.00043331,0.00012888,0.00001875,0.00017342,-0.00004242,-0.0000085
 2,0.00016409,0.00173048,-0.00453924,-0.00071752,-0.00041940,-0.0004317
 8,-0.00023740,-0.00049671,-0.00041701,0.00016427,0.00002392,0.00007770
 ,-0.00003248,0.00060904,0.00053303,0.00018466,0.00028854,-0.00000749,0
 .00006233,0.00006457,0.00011495,0.00007092,0.00010562,0.00002572,-0.00
 002828,-0.00016202,0.00009772,-0.00013014,-0.00011690,-0.00026051,-0.0
 0000559,0.00001387,-0.00014167,-0.00002370,0.00006478,0.00018807,0.000
 08805,0.00004309,0.00013300,-0.00036940,0.00001370,0.00001818,0.000046
 30,-0.00004750,0.00000293,0.00003883,0.00000054,0.00005355,0.00034229,
 -0.00031104,-0.00000160,0.00001083,0.00060756,0.00029983,-0.00035885,-
 0.00023543,-0.00032436,-0.00003523,0.00029313,0.00007291,0.00031547,-0
 .00030666,-0.00010853,-0.00001417,0.00005935,0.00004070,-0.00009517,0.
 00002028,-0.00003108,0.00001966,-0.00020532,0.00006687,0.00016142,0.00
 012305,-0.00050387,-0.00006187,-0.00008737,0.00007621,-0.00006786,-0.0
 0013401,-0.00010662,-0.00001006,0.00012988,0.00035530,0.00005346,-0.00
 005435,0.00043960,0.00010852,-0.00001922,0.00008157,-0.00000372,0.0005
 3782,-0.00006804,0.00036730,0.00005731,-0.00006630,0.00003083,0.002141
 13,0.00018363,-0.00032046,0.00003280,-0.00000504,0.00020872,-0.0000631
 5,-0.00009045,-0.00024170,0.00001512,-0.00022885,0.00036645,-0.0000688
 5,0.00006132,-0.00016274,0.00000212,-0.00000204,0.00001589,0.00002034,
 0.00026375,-0.00013453,0.00009105,-0.00000926,0.00001793,0.00004874,0.
 00421587,0.00991057,0.00011709,0.00008787,0.00010694,0.00009981,-0.000
 06654,-0.00000372,-0.00011763,-0.00005314,0.00000328,0.00005417,-0.000
 00677,-0.00006647,-0.00006031,0.00007874,-0.00020074,0.00000896,0.0000
 1238,0.00000532,0.00036690,0.00010452,-0.00037259,0.00002275,-0.000024
 38,0.00002004,-0.00031818,-0.00303375,-0.00184160,0.00012151,-0.000619
 40,0.00000955,0.00015243,0.00012949,0.00001877,0.00067754,0.00047431,0
 .00003091,-0.00029012,0.00022439,-0.00019366,-0.00004087,-0.00039222,0
 .00008351,-0.00002376,-0.00000384,-0.00004777,0.00066150,0.00415857,-0
 .00187478,-0.00004908,-0.00003559,0.00004898,-0.00010894,-0.00003455,-
 0.00010656,-0.00118040,0.00010275,0.00033002,-0.00012935,0.00013444,0.
 00004968,0.00012804,-0.00006117,-0.00058271,0.00006515,-0.00021320,0.0
 0000616,0.00006686,-0.00022542,-0.00007383,-0.00002536,-0.00000103,-0.
 00003260,-0.00002638,0.00422569,-0.00725905,0.00435446,0.00003712,0.00
 001300,-0.00006444,-0.00006649,0.00010977,-0.00000305,-0.00388408,0.00
 743506,-0.00003102,-0.00020827,-0.00018827,-0.00014139,-0.00013412,0.0
 0013727,-0.00006845,0.00037119,0.00012576,0.00031674,-0.00015766,-0.00
 006408,-0.00001901,-0.00007228,-0.00001481,0.00000269,0.00000569,-0.00
 003218,-0.00204258,0.00458257,0.00055461,0.00000300,-0.00001600,-0.000
 02701,-0.00003857,-0.00000341,0.00012141,0.00197365,-0.00435029,-0.000
 57915,-0.00004809,-0.00000616,0.00000717,-0.00000598,-0.00001567,-0.00
 003722,-0.00001799,0.00006774,0.00003166,0.00005387,-0.00005793,-0.000
 01898,0.00003017,0.00004327,0.00003644,0.00000073,0.00000255,0.0000010
 6,-0.00006289,0.00003139,-0.00009737,-0.00000792,0.00001555,0.00001039
 ,-0.00005082,0.00232434,-0.00093763,0.00004857,-0.00004890,0.00000855,
 0.00008580,-0.00002345,0.00000592,-0.00000939,0.00002804,-0.00000649,0
 .00003036,0.00000723,-0.00001594,-0.00006233,0.00003133,0.00000597,0.0
 0005570,0.00002254,0.00003008,-0.00002293,-0.00001321,0.00000253,0.000
 00384,-0.00008850,0.00006246,-0.00000732,0.00001914,-0.00000926,-0.000
 00034,0.00231557,-0.00334580,0.00195374,-0.00002975,0.00002556,0.00001
 155,-0.00233737,0.00322600,-0.00006417,0.00003747,-0.00007222,0.000052
 31,-0.00003263,0.00005674,-0.00000580,0.00007425,-0.00009090,0.0000641
 8,-0.00006098,0.00013927,0.00000120,0.00003938,-0.00003449,-0.00000464
 ,-0.00000187,0.00001396,-0.00007586,-0.00003516,0.00008222,0.00000989,
 -0.00001492,-0.00002909,-0.00093752,0.00196806,0.00008914,-0.00000905,
 0.00000413,0.00001148,0.00101813,-0.00197628,-0.00020442,0.00002754,-0
 .00008682,0.00001358,-0.00000189,0.00005190,-0.00000208,-0.00004367,-0
 .00000418,-0.00003779,0.00000779,0.00005635,0.00003259,0.00002282,-0.0
 0005632,-0.00001740,0.00000375,-0.00000088,0.00001537,-0.00001103,0.00
 008031,-0.00007399,-0.00001387,-0.00000494,-0.00001208,-0.00253443,-0.
 00667873,0.00087062,0.00003161,0.00000029,0.00003640,-0.00002547,0.000
 06843,-0.00004868,0.00253685,-0.00001220,0.00002757,-0.00003125,-0.000
 03892,0.00000773,-0.00000033,0.00001024,-0.00002723,0.00004092,0.00001
 340,-0.00000994,-0.00000899,0.00007129,-0.00000072,0.00004549,-0.00000
 202,0.00000139,-0.00001163,0.00005823,0.00014341,0.00003113,0.00000434
 ,-0.00000831,0.00000130,-0.00667282,-0.00642408,0.00095038,0.00001268,
 -0.00002105,-0.00002898,-0.00001882,0.00001897,-0.00000146,0.00657460,
 0.00629225,0.00000818,-0.00003882,0.00005117,-0.00010910,0.00004861,-0
 .00005685,0.00001389,-0.00004408,0.00007503,-0.00002242,0.00001310,-0.
 00011328,0.00004749,-0.00000080,0.00010141,0.00000088,0.00000164,-0.00
 003283,-0.00006998,-0.00000449,0.00012354,-0.00001432,0.00001685,0.000
 03209,0.00087769,0.00099093,0.00213901,0.00006645,-0.00001977,-0.00004
 505,-0.00002220,0.00002340,0.00003830,-0.00077655,-0.00098658,-0.00231
 254,-0.00265450,0.00141549,-0.00192894,0.00089941,-0.00068932,-0.00112
 982,0.00566843,-0.00191490,-0.00262882,-0.02395063,0.00193346,0.002288
 48,0.00126627,0.00577003,-0.00616115,-0.00132634,0.00060368,0.00058160
 ,-0.00186364,0.00015674,-0.00240082,-0.00002369,-0.00066769,0.00013708
 ,-0.00109987,0.00019698,-0.00006363,0.00027266,-0.00013737,0.00023457,
 0.00003271,0.00030389,-0.00024736,-0.00003340,0.00001506,-0.00009390,-
 0.00030023,0.00040156,-0.00041214,0.00105014,-0.00010091,0.00000513,-0
 .00003117,-0.00002474,0.00005541,-0.00031246,-0.00048222,-0.00014978,0
 .00020382,0.00029354,-0.00008267,0.00008557,0.00004514,-0.00009677,0.0
 0011113,-0.00018801,0.00063729,-0.00034952,-0.00025758,-0.00119216,0.0
 0019408,0.00010231,0.00000453,-0.00008576,0.00039216,-0.00018306,-0.00
 012179,0.00019655,0.00044950,0.00039234,-0.00058229,0.00079384,-0.0000
 6948,-0.00000549,0.00018972,0.00031373,0.00011215,-0.00029544,-0.00215
 113,0.00321043,0.00283303,0.03534499,-0.02302220,0.00732786,0.00052741
 ,-0.00054492,-0.00029763,0.00021931,-0.00019110,-0.00138954,-0.2515349
 7,0.00105754,0.00070816,-0.00087037,0.00771007,-0.01344581,0.00257882,
 -0.00017062,-0.00000710,0.00007069,0.00023873,-0.00020342,-0.00010399,
 -2.08995990,4.09432804,-0.00010832,-0.00157710,0.00029454,-0.00313794,
 0.00670494,0.00087773,0.00035410,0.00021787,-0.00068886,-0.00028129,0.
 00072804,-0.00177375,0.55150047,-1.36774603,-0.79121076,-0.00028168,0.
 00017890,-0.00009131,0.00073213,-0.00168067,0.00042535,0.00005449,-0.0
 0005097,-0.00008230,0.00004136,0.00003314,0.00009455,-0.00379836,-0.00
 061790,-0.00043356,-0.00151766,0.00041995,-0.00011294,-0.00012015,-0.0
 0054575,0.00017577,-0.00027083,-0.00011097,0.00006726,0.00016800,-0.00
 010440,0.00007154,-0.00006042,-0.00065812,0.00169520,-0.00012316,0.001
 53237,0.00057092,-0.00011749,-0.00019416,0.00039670,0.00154422,-0.0006
 6664,0.00043170,0.00000099,-0.00001395,0.00005997,-0.00001168,0.000065
 52,-0.00034396,-0.00183601,0.00045498,0.00105748,-0.00060405,0.0003730
 2,-0.00023547,0.00084927,-0.00050490,0.00003177,-0.00236863,-0.0004755
 6,0.00076448,0.00001179,0.00002965,0.00004451,-0.00003035,-0.00011376,
 0.00008766,0.00732732,0.00519110,0.00014144,0.00012359,0.00005567,-0.0
 0006814,-0.01225940,-0.00113347,-0.00117063,-0.00025705,0.00083156,-0.
 00067841,-0.00066479,0.00037504,0.00008539,-0.00043840,-0.00007532,0.0
 0020555,0.00072472,0.03784769,0.01519631,0.00736411,-0.00049121,-0.000
 23042,-0.00017809,-0.00453546,-0.02256404,0.00046949,0.00036349,0.0000
 8131,0.00008349,-0.00094469,0.00013478,-0.00017966,-0.00010762,0.00018
 308,0.00004912,-0.00015012,0.00004671,-0.00471628,-0.00427885,-0.00508
 615,-0.00018888,-0.00000950,-0.00033392,-0.00052281,0.00097347,-0.0033
 0816,-0.00015168,-0.00077065,-0.00074484,-0.01482443,0.01543849,-0.004
 84001,-0.00008279,0.00026784,-0.00008065,-0.00031392,0.00012625,0.0004
 3839,0.21767273,2.08007889,-0.54757039,0.00452106,-0.00054462,0.000924
 40,-0.00025937,-0.03152990,0.00401509,-0.20698985,-0.00385231,-0.00073
 913,0.00076843,-0.01165078,0.01884072,-0.00278491,0.00032388,-0.000038
 88,-0.00009069,-0.00034189,0.00073528,-0.00009148,2.07592745,-4.095638
 63,1.35516193,0.00091792,-0.00218785,0.00020073,-0.00169635,0.00487035
 ,0.00292138,-2.06475884,4.07189387,0.00087779,0.00091193,-0.00022064,0
 .00459273,-0.00562465,-0.00005779,-0.00019719,-0.00012029,0.00061680,0
 .00026079,-0.00052218,0.00082244,-0.55346856,1.36811313,0.79549648,0.0
 0081508,0.00001772,-0.00110980,0.00014214,-0.00750467,0.00450821,0.547
 64625,-1.35530327,-0.79835511,-0.00028729,0.00014644,-0.00002116,0.000
 56506,0.00066460,-0.00013000,0.00002841,-0.00000571,0.00003419,0.00002
 072,0.00002504,0.00002184,-0.00430285,-0.00368747,-0.00085276,0.000059
 91,0.00003542,-0.00003269,0.00294662,-0.00028741,0.00069725,0.00179576
 ,0.00330066,0.00025120,-0.00164393,0.00035864,0.00010252,0.00009467,0.
 00008546,0.00027968,0.00015907,-0.00005994,-0.00001780,0.00005270,0.00
 002374,-0.00007859,-0.00014039,-0.00269573,-0.00301274,-0.00015504,0.0
 0009815,-0.00000877,0.00001026,-0.00066262,0.00431532,-0.00091233,0.00
 280584,0.00130720,0.00023579,-0.00098278,-0.00326289,-0.00015470,-0.00
 009741,-0.00012288,-0.00023248,0.00042990,-0.00013286,-0.00000079,0.00
 004469,0.00000756,-0.00001648,0.00004409,0.00000012,-0.00021577,-0.000
 79398,0.00059185,0.00002455,0.00000127,0.00009127,0.00129028,-0.000096
 31,0.00096965,-0.00028046,0.00012029,-0.00103116,-0.00023086,0.0003772
 0,-0.00075889,-0.00065096,-0.00062281,-0.00027661,-0.00028023,0.000783
 67,-0.00044417,0.00023165,0.00006984,-0.00025530,-0.00002518,0.0000736
 7,0.00029264,0.00048606,0.00030571,0.00099186,0.00001157,-0.00003930,0
 .00018148,0.00413902,-0.00013829,-0.00011154,-0.00170081,0.00115096,-0
 .00112636,-0.00020952,-0.00009195,-0.00019819,-0.00195260,0.00016422,0
 .00002645,0.00018789,-0.00010379,-0.00001020,0.00025855,-0.00001452,0.
 00001343,0.00004607,0.00002044,-0.00000673,-0.00012136,0.00021841,-0.0
 0028956,-0.00086009,0.00006840,-0.00005062,-0.00006581,0.00308917,0.00
 062197,0.00213039,-0.00186514,0.00139080,-0.00026569,0.00007643,-0.000
 11248,0.00011607,-0.00155364,-0.00150250,-0.00013626,-0.00001632,0.000
 05441,0.00009157,-0.00046101,0.00002450,0.00004064,0.00002650,0.000015
 82,0.00001136,-0.00001046,0.00004542,0.00055285,0.00231807,-0.00091341
 ,0.00001745,0.00000732,0.00000536,-0.00195849,0.00054010,0.00313255,0.
 00020010,-0.00102491,0.00008974,0.00023027,0.00008570,0.00022194,0.000
 87685,-0.00137387,-0.00235312,-0.00003726,-0.00000830,0.00001704,-0.00
 001282,0.00008267,0.00009304,0.00000441,0.00000747,-0.00001001,-0.0000
 0447,0.00000922,-0.00003495,0.00020192,0.00042915,-0.00018654,0.000003
 41,-0.00002822,0.00002536,-0.00037499,-0.00110766,0.00051910,0.0002457
 4,0.00026602,-0.00015947,0.00095786,0.00096093,-0.00009322,-0.00005200
 ,0.00000087,0.00014068,-0.00085311,-0.00006425,-0.00003237,-0.00004552
 ,-0.00003981,0.00009152,-0.00015567,0.00000881,0.00000616,-0.00000110,
 -0.00000986,0.00000844,0.00006208,-0.00004606,0.00053488,0.00013660,-0
 .00000877,0.00000019,-0.00000473,-0.00039744,-0.00068079,0.00001609,0.
 00063973,-0.00000577,0.00022833,0.00058969,0.00034512,-0.00003710,0.00
 004333,-0.00007539,-0.00017704,-0.00057814,-0.00027197,-0.00000122,0.0
 0008561,-0.00001326,0.00010522,-0.00028076,-0.00018251,0.00001026,-0.0
 0000767,-0.00000425,0.00000912,-0.00002468,0.00008740,0.00036695,0.000
 01436,0.00060216,-0.00000946,0.00001309,-0.00007425,0.00006895,-0.0006
 5473,-0.00036117,-0.00034792,0.00067040,0.00010071,-0.00001454,0.00027
 247,0.00049705,0.00007815,-0.00006648,-0.00059922,-0.00024047,-0.00003
 151,-0.00022938,0.00003293,0.00002023,-0.00000580,0.00002220,0.0000149
 9,0.00013972,-0.00001002,0.00000008,0.00002521,0.00000448,-0.00001134,
 -0.00002539,0.00000761,-0.00057529,-0.00041708,0.00005018,-0.00001204,
 -0.00000637,-0.00010490,0.00024440,-0.00011436,0.00008754,0.00041328,0
 .00036561,0.00006924,0.00016025,0.00010811,0.00000300,-0.00010084,-0.0
 0006702,-0.00007869,-0.00013722,-0.00002503,-0.00008357,0.00002612,-0.
 00001341,-0.00001803,-0.00018842,0.00005889,-0.00004136,0.00000167,-0.
 00000629,0.00000260,-0.00000006,0.00000134,0.00000993,-0.00008596,0.00
 013466,0.00014793,0.00002064,0.00000973,0.00001886,0.00002051,0.000029
 37,-0.00000171,0.00011211,-0.00042794,-0.00016614,0.00012508,0.0001434
 6,-0.00010872,0.00001881,-0.00000518,0.00008592,-0.00003401,0.00007998
 ,0.00000989,-0.00001649,-0.00000462,0.00001965,0.00001149,0.00004064,0
 .00000317,0.00010310,-0.00007531,-0.00000115,-0.00000861,-0.00002824,-
 0.00000543,-0.00000117,-0.00002201,-0.00065737,0.00024317,0.00075269,0
 .00003259,0.00000365,0.00005491,-0.00002180,0.00019163,0.00003311,0.00
 064003,-0.00054790,-0.00085989,0.00004725,-0.00008010,-0.00033367,-0.0
 0000881,0.00001432,0.00027598,-0.00007055,0.00000959,0.00017672,0.0000
 2242,0.00006083,-0.00001494\\@
 The archive entry for this job was punched.


 THE DIFFERENCE BETWEEN A NOOSE AND A HALO IS ONLY 12 INCHES.
 Job cpu time:       4 days 19 hours 22 minutes 22.3 seconds.
 Elapsed time:       0 days  2 hours 56 minutes  1.2 seconds.
 File lengths (MBytes):  RWF=   4246 Int=      0 D2E=      0 Chk=     47 Scr=      1
 Normal termination of Gaussian 16 at Tue Apr  8 19:43:30 2025.
