 Entering Gaussian System, Link 0=g16
 Input=divinylaminecc_mp2_avdz_opt_anharm.gjf
 Output=divinylaminecc_mp2_avdz_opt_anharm.log
 Initial command:
 /sw/contrib/chem-src/g16/c01/g16/l1.exe "/scr/Gau-95556.inp" -scrdir="/scr/"
 Entering Link 1 = /sw/contrib/chem-src/g16/c01/g16/l1.exe PID=     95557.
  
 Copyright (c) 1988-2019, Gaussian, Inc.  All Rights Reserved.
  
 This is part of the Gaussian(R) 16 program.  It is based on
 the Gaussian(R) 09 system (copyright 2009, Gaussian, Inc.),
 the Gaussian(R) 03 system (copyright 2003, Gaussian, Inc.),
 the Gaussian(R) 98 system (copyright 1998, Gaussian, Inc.),
 the Gaussian(R) 94 system (copyright 1995, Gaussian, Inc.),
 the Gaussian 92(TM) system (copyright 1992, Gaussian, Inc.),
 the Gaussian 90(TM) system (copyright 1990, Gaussian, Inc.),
 the Gaussian 88(TM) system (copyright 1988, Gaussian, Inc.),
 the Gaussian 86(TM) system (copyright 1986, Carnegie Mellon
 University), and the Gaussian 82(TM) system (copyright 1983,
 Carnegie Mellon University). Gaussian is a federally registered
 trademark of Gaussian, Inc.
  
 This software contains proprietary and confidential information,
 including trade secrets, belonging to Gaussian, Inc.
  
 This software is provided under written license and may be
 used, copied, transmitted, or stored only in accord with that
 written license.
  
 The following legend is applicable only to US Government
 contracts under FAR:
  
                    RESTRICTED RIGHTS LEGEND
  
 Use, reproduction and disclosure by the US Government is
 subject to restrictions as set forth in subparagraphs (a)
 and (c) of the Commercial Computer Software - Restricted
 Rights clause in FAR 52.227-19.
  
 Gaussian, Inc.
 340 Quinnipiac St., Bldg. 40, Wallingford CT 06492
  
  
 ---------------------------------------------------------------
 Warning -- This program may not be used in any manner that
 competes with the business of Gaussian, Inc. or will provide
 assistance to any competitor of Gaussian, Inc.  The licensee
 of this program is prohibited from giving any competitor of
 Gaussian, Inc. access to this program.  By using this program,
 the user acknowledges that Gaussian, Inc. is engaged in the
 business of creating and licensing software in the field of
 computational chemistry and represents and warrants to the
 licensee that it is not a competitor of Gaussian, Inc. and that
 it will not use this program in any manner prohibited above.
 ---------------------------------------------------------------
  

 Cite this work as:
 Gaussian 16, Revision C.01,
 M. J. Frisch, G. W. Trucks, H. B. Schlegel, G. E. Scuseria, 
 M. A. Robb, J. R. Cheeseman, G. Scalmani, V. Barone, 
 G. A. Petersson, H. Nakatsuji, X. Li, M. Caricato, A. V. Marenich, 
 J. Bloino, B. G. Janesko, R. Gomperts, B. Mennucci, H. P. Hratchian, 
 J. V. Ortiz, A. F. Izmaylov, J. L. Sonnenberg, D. Williams-Young, 
 F. Ding, F. Lipparini, F. Egidi, J. Goings, B. Peng, A. Petrone, 
 T. Henderson, D. Ranasinghe, V. G. Zakrzewski, J. Gao, N. Rega, 
 G. Zheng, W. Liang, M. Hada, M. Ehara, K. Toyota, R. Fukuda, 
 J. Hasegawa, M. Ishida, T. Nakajima, Y. Honda, O. Kitao, H. Nakai, 
 T. Vreven, K. Throssell, J. A. Montgomery, Jr., J. E. Peralta, 
 F. Ogliaro, M. J. Bearpark, J. J. Heyd, E. N. Brothers, K. N. Kudin, 
 V. N. Staroverov, T. A. Keith, R. Kobayashi, J. Normand, 
 K. Raghavachari, A. P. Rendell, J. C. Burant, S. S. Iyengar, 
 J. Tomasi, M. Cossi, J. M. Millam, M. Klene, C. Adamo, R. Cammi, 
 J. W. Ochterski, R. L. Martin, K. Morokuma, O. Farkas, 
 J. B. Foresman, and D. J. Fox, Gaussian, Inc., Wallingford CT, 2019.
 
 ******************************************
 Gaussian 16:  EM64L-G16RevC.01  3-Jul-2019
                 4-Apr-2025 
 ******************************************
 %nprocshared=40
 Will use up to   40 processors via shared memory.
 %mem=50gb
 ----------------------------------------------
 # MP2/aug-cc-pVDZ opt freq=(vibrot,anharmonic)
 ----------------------------------------------
 1/18=20,19=15,38=1,80=1/1,3;
 2/9=110,12=2,17=6,18=5,40=1/2;
 3/5=16,7=10,11=9,25=1,30=1,71=1/1,2,3;
 4//1;
 5/5=2,38=5/2;
 8/6=4,10=1/1;
 9/15=2,16=-3/6;
 10/5=1/2;
 6/7=2,8=2,9=2,10=2/1;
 7/12=2/1,2,3,16;
 1/18=20,19=15,80=1/3(2);
 2/9=110/2;
 99//99;
 2/9=110/2;
 3/5=16,7=10,11=9,25=1,30=1,71=1/1,2,3;
 4/5=5,16=3,69=1/1;
 5/5=2,38=5/2;
 8/6=4,10=1/1;
 9/15=2,16=-3/6;
 10/5=1/2;
 7/12=2/1,2,3,16;
 1/18=20,19=15,80=1/3(-8);
 2/9=110/2;
 6/7=2,8=2,9=2,10=2/1;
 99/9=10/99;
 ----
 blah
 ----
 Symbolic Z-matrix:
 Charge =  0 Multiplicity = 1
 C                    -0.71089   0.13435  -0.74807 
 C                    -0.1706   -1.0603   -0.49638 
 H                    -0.36725   1.03771  -0.26155 
 H                    -1.50336   0.23624  -1.48158 
 N                     0.83767  -1.43216   0.35518 
 H                    -0.53561  -1.91362  -1.06702 
 C                     1.44302  -0.79092   1.40514 
 H                     1.20809  -2.36355   0.17279 
 C                     1.07905   0.28809   2.10208 
 H                     2.35308  -1.30808   1.70741 
 H                     0.1624    0.82551   1.89771 
 H                     1.68976   0.64323   2.92508 
 

 GradGradGradGradGradGradGradGradGradGradGradGradGradGradGradGradGradGrad
 Berny optimization.
 Initialization pass.
                           ----------------------------
                           !    Initial Parameters    !
                           ! (Angstroms and Degrees)  !
 --------------------------                            --------------------------
 ! Name  Definition              Value          Derivative Info.                !
 --------------------------------------------------------------------------------
 ! R1    R(1,2)                  1.3351         estimate D2E/DX2                !
 ! R2    R(1,3)                  1.0821         estimate D2E/DX2                !
 ! R3    R(1,4)                  1.0846         estimate D2E/DX2                !
 ! R4    R(2,5)                  1.3711         estimate D2E/DX2                !
 ! R5    R(2,6)                  1.0895         estimate D2E/DX2                !
 ! R6    R(5,7)                  1.3711         estimate D2E/DX2                !
 ! R7    R(5,8)                  1.0188         estimate D2E/DX2                !
 ! R8    R(7,9)                  1.3351         estimate D2E/DX2                !
 ! R9    R(7,10)                 1.0895         estimate D2E/DX2                !
 ! R10   R(9,11)                 1.0821         estimate D2E/DX2                !
 ! R11   R(9,12)                 1.0846         estimate D2E/DX2                !
 ! A1    A(2,1,3)              122.2595         estimate D2E/DX2                !
 ! A2    A(2,1,4)              120.4795         estimate D2E/DX2                !
 ! A3    A(3,1,4)              117.2373         estimate D2E/DX2                !
 ! A4    A(1,2,5)              131.0976         estimate D2E/DX2                !
 ! A5    A(1,2,6)              117.8081         estimate D2E/DX2                !
 ! A6    A(5,2,6)              111.0533         estimate D2E/DX2                !
 ! A7    A(2,5,7)              132.3295         estimate D2E/DX2                !
 ! A8    A(2,5,8)              113.8352         estimate D2E/DX2                !
 ! A9    A(7,5,8)              113.8352         estimate D2E/DX2                !
 ! A10   A(5,7,9)              131.0976         estimate D2E/DX2                !
 ! A11   A(5,7,10)             111.0533         estimate D2E/DX2                !
 ! A12   A(9,7,10)             117.8082         estimate D2E/DX2                !
 ! A13   A(7,9,11)             122.2595         estimate D2E/DX2                !
 ! A14   A(7,9,12)             120.4795         estimate D2E/DX2                !
 ! A15   A(11,9,12)            117.2373         estimate D2E/DX2                !
 ! D1    D(3,1,2,5)              0.7052         estimate D2E/DX2                !
 ! D2    D(3,1,2,6)           -176.7312         estimate D2E/DX2                !
 ! D3    D(4,1,2,5)            178.8829         estimate D2E/DX2                !
 ! D4    D(4,1,2,6)              1.4466         estimate D2E/DX2                !
 ! D5    D(1,2,5,7)             15.0147         estimate D2E/DX2                !
 ! D6    D(1,2,5,8)           -164.9853         estimate D2E/DX2                !
 ! D7    D(6,2,5,7)           -167.4151         estimate D2E/DX2                !
 ! D8    D(6,2,5,8)             12.5849         estimate D2E/DX2                !
 ! D9    D(2,5,7,9)             15.0147         estimate D2E/DX2                !
 ! D10   D(2,5,7,10)          -167.4151         estimate D2E/DX2                !
 ! D11   D(8,5,7,9)           -164.9853         estimate D2E/DX2                !
 ! D12   D(8,5,7,10)            12.5849         estimate D2E/DX2                !
 ! D13   D(5,7,9,11)             0.7052         estimate D2E/DX2                !
 ! D14   D(5,7,9,12)           178.8829         estimate D2E/DX2                !
 ! D15   D(10,7,9,11)         -176.7312         estimate D2E/DX2                !
 ! D16   D(10,7,9,12)            1.4466         estimate D2E/DX2                !
 --------------------------------------------------------------------------------
 Trust Radius=3.00D-01 FncErr=1.00D-07 GrdErr=1.00D-07 EigMax=2.50D+02 EigMin=1.00D-04
 Number of steps in this run=     52 maximum allowed number of steps=    100.
 GradGradGradGradGradGradGradGradGradGradGradGradGradGradGradGradGradGrad

                          Input orientation:                          
 ---------------------------------------------------------------------
 Center     Atomic      Atomic             Coordinates (Angstroms)
 Number     Number       Type             X           Y           Z
 ---------------------------------------------------------------------
      1          6           0       -0.710886    0.134350   -0.748075
      2          6           0       -0.170596   -1.060301   -0.496383
      3          1           0       -0.367247    1.037710   -0.261555
      4          1           0       -1.503359    0.236241   -1.481576
      5          7           0        0.837669   -1.432162    0.355185
      6          1           0       -0.535613   -1.913624   -1.067023
      7          6           0        1.443015   -0.790924    1.405145
      8          1           0        1.208090   -2.363551    0.172794
      9          6           0        1.079051    0.288086    2.102081
     10          1           0        2.353081   -1.308075    1.707409
     11          1           0        0.162399    0.825513    1.897706
     12          1           0        1.689758    0.643229    2.925082
 ---------------------------------------------------------------------
                    Distance matrix (angstroms):
                    1          2          3          4          5
     1  C    0.000000
     2  C    1.335086   0.000000
     3  H    1.082057   2.120251   0.000000
     4  H    1.084629   2.104254   1.849744   0.000000
     5  N    2.463567   1.371147   2.816461   3.411403   0.000000
     6  H    2.080060   1.089509   3.063903   2.393806   2.034793
     7  C    3.183045   2.508408   3.065753   4.250806   1.371148
     8  H    3.281764   2.011723   3.773449   4.104609   1.018805
     9  C    3.369109   3.183045   2.870625   4.417480   2.463567
    10  H    4.183048   3.359619   4.096305   5.237048   2.034793
    11  H    2.870625   3.065753   2.233374   3.813337   2.816462
    12  H    4.417480   4.250806   3.813337   5.457130   3.411403
                    6          7          8          9         10
     6  H    0.000000
     7  C    3.359619   0.000000
     8  H    2.186339   2.011723   0.000000
     9  C    4.183047   1.335085   3.281764   0.000000
    10  H    4.050768   1.089509   2.186339   2.080060   0.000000
    11  H    4.096305   2.120251   3.773449   1.082057   3.063903
    12  H    5.237048   2.104254   4.104609   1.084629   2.393806
                   11         12
    11  H    0.000000
    12  H    1.849744   0.000000
 Stoichiometry    C4H7N
 Framework group  C2[C2(NH),X(C4H6)]
 Deg. of freedom    15
 Full point group                 C2      NOp   2
 Largest Abelian subgroup         C2      NOp   2
 Largest concise Abelian subgroup C2      NOp   2
                         Standard orientation:                         
 ---------------------------------------------------------------------
 Center     Atomic      Atomic             Coordinates (Angstroms)
 Number     Number       Type             X           Y           Z
 ---------------------------------------------------------------------
      1          6           0       -0.260649    1.664267   -0.848219
      2          6           0       -0.000000    1.254204    0.395310
      3          1           0       -0.540095    0.977388   -1.636226
      4          1           0       -0.226505    2.719148   -1.098183
      5          7           0        0.000000    0.000000    0.949401
      6          1           0        0.221543    2.013231    1.144860
      7          6           0        0.000000   -1.254204    0.395310
      8          1           0        0.000000    0.000000    1.968206
      9          6           0        0.260649   -1.664267   -0.848219
     10          1           0       -0.221543   -2.013231    1.144860
     11          1           0        0.540095   -0.977388   -1.636226
     12          1           0        0.226505   -2.719148   -1.098183
 ---------------------------------------------------------------------
 Rotational constants (GHZ):          10.2467354           3.8389029           2.8342739
 Standard basis: Aug-CC-pVDZ (5D, 7F)
 There are    97 symmetry adapted cartesian basis functions of A   symmetry.
 There are    91 symmetry adapted cartesian basis functions of B   symmetry.
 There are    91 symmetry adapted basis functions of A   symmetry.
 There are    87 symmetry adapted basis functions of B   symmetry.
   178 basis functions,   292 primitive gaussians,   188 cartesian basis functions
    19 alpha electrons       19 beta electrons
       nuclear repulsion energy       162.2143571984 Hartrees.
 NAtoms=   12 NActive=   12 NUniq=    7 SFac= 2.94D+00 NAtFMM=   60 NAOKFM=F Big=F
 Integral buffers will be    131072 words long.
 Raffenetti 1 integral format.
 Two-electron integral symmetry is turned on.
 One-electron integrals computed using PRISM.
 NBasis=   178 RedAO= T EigKep=  2.44D-05  NBF=    91    87
 NBsUse=   178 1.00D-06 EigRej= -1.00D+00 NBFU=    91    87
 ExpMin= 2.97D-02 ExpMax= 9.05D+03 ExpMxC= 3.09D+02 IAcc=3 IRadAn=         5 AccDes= 0.00D+00
 Harris functional with IExCor=  205 and IRadAn=       5 diagonalized for initial guess.
 HarFok:  IExCor=  205 AccDes= 0.00D+00 IRadAn=         5 IDoV= 1 UseB2=F ITyADJ=14
 ICtDFT=  3500011 ScaDFX=  1.000000  1.000000  1.000000  1.000000
 FoFCou: FMM=F IPFlag=           0 FMFlag=      100000 FMFlg1=           0
         NFxFlg=           0 DoJE=T BraDBF=F KetDBF=T FulRan=T
         wScrn=  0.000000 ICntrl=       500 IOpCl=  0 I1Cent=   200000004 NGrid=           0
         NMat0=    1 NMatS0=      1 NMatT0=    0 NMatD0=    1 NMtDS0=    0 NMtDT0=    0
 Petite list used in FoFCou.
 Initial guess orbital symmetries:
       Occupied  (A) (A) (B) (A) (B) (A) (B) (A) (B) (A) (A) (B)
                 (B) (A) (A) (B) (B) (A) (B)
       Virtual   (A) (B) (A) (A) (B) (A) (B) (A) (B) (A) (B) (A)
                 (A) (B) (B) (A) (A) (B) (B) (B) (A) (A) (A) (B)
                 (B) (A) (B) (A) (B) (A) (B) (A) (B) (B) (A) (A)
                 (B) (A) (A) (B) (A) (B) (A) (B) (B) (A) (A) (B)
                 (A) (B) (B) (A) (B) (A) (A) (B) (A) (B) (B) (A)
                 (A) (B) (A) (B) (A) (B) (A) (A) (B) (B) (B) (B)
                 (A) (A) (B) (A) (A) (B) (A) (B) (A) (B) (B) (A)
                 (A) (B) (A) (B) (B) (A) (A) (B) (A) (B) (A) (B)
                 (B) (A) (B) (A) (A) (B) (B) (A) (B) (A) (A) (B)
                 (B) (A) (B) (A) (B) (A) (B) (B) (A) (A) (B) (B)
                 (A) (B) (A) (A) (B) (A) (B) (B) (A) (A) (B) (A)
                 (B) (A) (B) (A) (B) (A) (B) (B) (A) (A) (B) (B)
                 (B) (A) (B) (A) (A) (A) (B) (A) (A) (A) (B) (B)
                 (B) (A) (A)
 The electronic state of the initial guess is 1-A.
 Keep R1 ints in memory in symmetry-blocked form, NReq=190401111.
 Requested convergence on RMS density matrix=1.00D-08 within 128 cycles.
 Requested convergence on MAX density matrix=1.00D-06.
 Requested convergence on             energy=1.00D-06.
 No special actions if energy rises.
 SCF Done:  E(RHF) =  -209.967639660     A.U. after   13 cycles
            NFock= 13  Conv=0.28D-08     -V/T= 2.0011
 ExpMin= 2.97D-02 ExpMax= 9.05D+03 ExpMxC= 3.09D+02 IAcc=3 IRadAn=         5 AccDes= 0.00D+00
 HarFok:  IExCor=  205 AccDes= 0.00D+00 IRadAn=         5 IDoV=-2 UseB2=F ITyADJ=14
 ICtDFT= 12500011 ScaDFX=  1.000000  1.000000  1.000000  1.000000
 Range of M.O.s used for correlation:     6   178
 NBasis=   178 NAE=    19 NBE=    19 NFC=     5 NFV=     0
 NROrb=    173 NOA=    14 NOB=    14 NVA=   159 NVB=   159

 **** Warning!!: The largest alpha MO coefficient is  0.46975823D+02

 Fully direct method using O(ONN) memory.
 JobTyp=1 Pass  1:  I=   6 to  19 NPSUse= 40 ParTrn=T ParDer=T DoDerP=T.
 Spin components of T(2) and E(2):
     alpha-alpha T2 =       0.3315153351D-01 E2=     -0.9039218446D-01
     alpha-beta  T2 =       0.1959012853D+00 E2=     -0.5526947961D+00
     beta-beta   T2 =       0.3315153351D-01 E2=     -0.9039218446D-01
 ANorm=    0.1123478684D+01
 E2 =    -0.7334791650D+00 EUMP2 =    -0.21070111882459D+03
          IDoAtm=111111111111
          Differentiating once with respect to electric field.
                with respect to dipole field.
          Differentiating once with respect to nuclear coordinates.
 Keep R1 ints in memory in symmetry-blocked form, NReq=190402864.
          There are     1 degrees of freedom in the 1st order CPHF.  IDoFFX=0 NUNeed=     1.
 LinEq1:  Iter=  0 NonCon=     1 RMS=3.76D-03 Max=5.75D-02 NDo=     1
 AX will form     1 AO Fock derivatives at one time.
 LinEq1:  Iter=  1 NonCon=     1 RMS=6.80D-04 Max=4.89D-03 NDo=     1
 LinEq1:  Iter=  2 NonCon=     1 RMS=2.97D-04 Max=4.26D-03 NDo=     1
 LinEq1:  Iter=  3 NonCon=     1 RMS=6.13D-05 Max=6.63D-04 NDo=     1
 LinEq1:  Iter=  4 NonCon=     1 RMS=2.71D-05 Max=3.48D-04 NDo=     1
 LinEq1:  Iter=  5 NonCon=     1 RMS=7.52D-06 Max=1.31D-04 NDo=     1
 LinEq1:  Iter=  6 NonCon=     1 RMS=1.60D-06 Max=1.33D-05 NDo=     1
 LinEq1:  Iter=  7 NonCon=     1 RMS=5.28D-07 Max=6.60D-06 NDo=     1
 LinEq1:  Iter=  8 NonCon=     1 RMS=1.26D-07 Max=1.21D-06 NDo=     1
 LinEq1:  Iter=  9 NonCon=     1 RMS=3.59D-08 Max=4.68D-07 NDo=     1
 LinEq1:  Iter= 10 NonCon=     1 RMS=6.07D-09 Max=4.46D-08 NDo=     1
 LinEq1:  Iter= 11 NonCon=     1 RMS=8.46D-10 Max=7.82D-09 NDo=     1
 LinEq1:  Iter= 12 NonCon=     1 RMS=1.43D-10 Max=1.02D-09 NDo=     1
 LinEq1:  Iter= 13 NonCon=     0 RMS=2.26D-11 Max=2.03D-10 NDo=     1
 Linear equations converged to 1.000D-10 1.000D-09 after    13 iterations.
 End of Minotr F.D. properties file   721 does not exist.
 End of Minotr F.D. properties file   722 does not exist.
 End of Minotr F.D. properties file   788 does not exist.

 **********************************************************************

            Population analysis using the SCF Density.

 **********************************************************************

 Orbital symmetries:
       Occupied  (A) (B) (A) (B) (A) (A) (B) (A) (B) (A) (A) (B)
                 (B) (A) (A) (B) (B) (A) (B)
       Virtual   (A) (B) (A) (B) (A) (B) (A) (B) (A) (A) (B) (A)
                 (A) (B) (B) (A) (B) (A) (B) (A) (A) (B) (A) (B)
                 (B) (B) (A) (A) (A) (B) (B) (A) (B) (A) (B) (B)
                 (A) (A) (A) (A) (B) (B) (A) (B) (B) (A) (A) (B)
                 (A) (B) (B) (A) (B) (A) (B) (B) (A) (A) (A) (A)
                 (B) (B) (A) (B) (B) (A) (B) (A) (B) (A) (B) (A)
                 (A) (B) (B) (A) (B) (A) (A) (B) (A) (A) (B) (B)
                 (A) (B) (A) (B) (B) (A) (A) (A) (B) (B) (A) (B)
                 (B) (A) (B) (A) (A) (B) (A) (B) (B) (A) (B) (A)
                 (B) (A) (A) (B) (B) (A) (B) (B) (A) (A) (B) (B)
                 (B) (A) (A) (A) (B) (A) (B) (B) (A) (A) (B) (A)
                 (B) (A) (A) (B) (B) (B) (A) (B) (A) (A) (B) (B)
                 (A) (B) (B) (A) (A) (A) (B) (A) (A) (A) (B) (B)
                 (B) (A) (A)
 The electronic state is 1-A.
 Alpha  occ. eigenvalues --  -15.60050 -11.28360 -11.28357 -11.21478 -11.21478
 Alpha  occ. eigenvalues --   -1.26961  -1.04804  -0.99384  -0.84876  -0.73933
 Alpha  occ. eigenvalues --   -0.73285  -0.64580  -0.61320  -0.56838  -0.54506
 Alpha  occ. eigenvalues --   -0.54464  -0.49815  -0.37872  -0.29387
 Alpha virt. eigenvalues --    0.02933   0.04440   0.04649   0.05926   0.06631
 Alpha virt. eigenvalues --    0.07596   0.08395   0.10568   0.10938   0.12777
 Alpha virt. eigenvalues --    0.13134   0.14308   0.14666   0.15181   0.16286
 Alpha virt. eigenvalues --    0.16672   0.17028   0.17851   0.19997   0.20059
 Alpha virt. eigenvalues --    0.20951   0.21475   0.22919   0.24063   0.25107
 Alpha virt. eigenvalues --    0.26658   0.26778   0.30844   0.31314   0.31841
 Alpha virt. eigenvalues --    0.33235   0.33945   0.34746   0.39424   0.39714
 Alpha virt. eigenvalues --    0.40697   0.41399   0.42161   0.43469   0.44424
 Alpha virt. eigenvalues --    0.44554   0.44874   0.46910   0.47476   0.49861
 Alpha virt. eigenvalues --    0.52421   0.53660   0.54710   0.55359   0.55703
 Alpha virt. eigenvalues --    0.56386   0.56530   0.58549   0.59963   0.61192
 Alpha virt. eigenvalues --    0.61967   0.62883   0.63459   0.64845   0.67143
 Alpha virt. eigenvalues --    0.67168   0.67805   0.69792   0.71612   0.72565
 Alpha virt. eigenvalues --    0.72647   0.75125   0.76228   0.76733   0.76852
 Alpha virt. eigenvalues --    0.78433   0.78611   0.82322   0.83653   0.85907
 Alpha virt. eigenvalues --    0.86295   0.87380   0.90194   0.91688   0.92423
 Alpha virt. eigenvalues --    0.93505   0.97313   0.98406   1.00116   1.02192
 Alpha virt. eigenvalues --    1.06714   1.08249   1.09301   1.15891   1.16697
 Alpha virt. eigenvalues --    1.24464   1.25139   1.26050   1.27974   1.31167
 Alpha virt. eigenvalues --    1.31760   1.45699   1.53850   1.56977   1.58319
 Alpha virt. eigenvalues --    1.60175   1.61768   1.62332   1.62945   1.63922
 Alpha virt. eigenvalues --    1.66605   1.69108   1.70341   1.71716   1.77426
 Alpha virt. eigenvalues --    1.80397   1.81634   1.83508   1.84653   1.94242
 Alpha virt. eigenvalues --    1.97881   1.99867   2.00089   2.02305   2.04925
 Alpha virt. eigenvalues --    2.08146   2.08503   2.11043   2.13450   2.13686
 Alpha virt. eigenvalues --    2.15409   2.16747   2.21111   2.22035   2.24007
 Alpha virt. eigenvalues --    2.25730   2.36872   2.38023   2.38751   2.41361
 Alpha virt. eigenvalues --    2.42376   2.46307   2.49175   2.50173   2.59268
 Alpha virt. eigenvalues --    2.60845   2.65446   2.72082   2.73979   2.79671
 Alpha virt. eigenvalues --    2.79807   2.81394   2.84383   2.87862   2.96212
 Alpha virt. eigenvalues --    3.01904   3.04019   3.35158   3.37776   3.43256
 Alpha virt. eigenvalues --    3.44136   3.50855   3.66492   3.86945
          Condensed to atoms (all electrons):
               1          2          3          4          5          6
     1  C    4.771121   0.375846   0.209181   0.188279  -0.139581  -0.009816
     2  C    0.375846   4.676051   0.071085   0.020054   0.201983   0.122418
     3  H    0.209181   0.071085   1.522607  -0.365937  -0.098000   0.097254
     4  H    0.188279   0.020054  -0.365937   1.489112   0.054902  -0.120418
     5  N   -0.139581   0.201983  -0.098000   0.054902   7.290489  -0.143064
     6  H   -0.009816   0.122418   0.097254  -0.120418  -0.143064   1.556126
     7  C   -0.052238   0.073423  -0.022785   0.018132   0.201983  -0.026246
     8  H   -0.014547  -0.122341  -0.011188   0.002839   0.464685  -0.065124
     9  C    0.058190  -0.052238  -0.017343  -0.003925  -0.139581  -0.003360
    10  H   -0.003360  -0.026246   0.000194  -0.002110  -0.143064   0.005842
    11  H   -0.017343  -0.022785  -0.047002   0.006400  -0.098000   0.000194
    12  H   -0.003925   0.018132   0.006400   0.000655   0.054902  -0.002110
               7          8          9         10         11         12
     1  C   -0.052238  -0.014547   0.058190  -0.003360  -0.017343  -0.003925
     2  C    0.073423  -0.122341  -0.052238  -0.026246  -0.022785   0.018132
     3  H   -0.022785  -0.011188  -0.017343   0.000194  -0.047002   0.006400
     4  H    0.018132   0.002839  -0.003925  -0.002110   0.006400   0.000655
     5  N    0.201983   0.464685  -0.139581  -0.143064  -0.098000   0.054902
     6  H   -0.026246  -0.065124  -0.003360   0.005842   0.000194  -0.002110
     7  C    4.676051  -0.122341   0.375846   0.122418   0.071085   0.020054
     8  H   -0.122341   0.965702  -0.014547  -0.065124  -0.011188   0.002839
     9  C    0.375846  -0.014547   4.771121  -0.009816   0.209181   0.188279
    10  H    0.122418  -0.065124  -0.009816   1.556126   0.097254  -0.120418
    11  H    0.071085  -0.011188   0.209181   0.097254   1.522607  -0.365937
    12  H    0.020054   0.002839   0.188279  -0.120418  -0.365937   1.489112
 Mulliken charges:
               1
     1  C    0.638192
     2  C    0.664616
     3  H   -0.344468
     4  H   -0.287983
     5  N   -0.507656
     6  H   -0.411697
     7  C    0.664616
     8  H   -0.009666
     9  C    0.638192
    10  H   -0.411697
    11  H   -0.344468
    12  H   -0.287983
 Sum of Mulliken charges =  -0.00000
 Mulliken charges with hydrogens summed into heavy atoms:
               1
     1  C    0.005741
     2  C    0.252920
     5  N   -0.517321
     7  C    0.252920
     9  C    0.005741
 Electronic spatial extent (au):  <R**2>=            461.1300
 Charge=             -0.0000 electrons
 Dipole moment (field-independent basis, Debye):
    X=             -0.0000    Y=             -0.0000    Z=              1.9585  Tot=              1.9585
 Quadrupole moment (field-independent basis, Debye-Ang):
   XX=            -36.7562   YY=            -30.4919   ZZ=            -26.5674
   XY=              0.7898   XZ=             -0.0000   YZ=              0.0000
 Traceless Quadrupole moment (field-independent basis, Debye-Ang):
   XX=             -5.4844   YY=              0.7799   ZZ=              4.7044
   XY=              0.7898   XZ=             -0.0000   YZ=              0.0000
 Octapole moment (field-independent basis, Debye-Ang**2):
  XXX=              0.0000  YYY=             -0.0000  ZZZ=             12.6643  XYY=              0.0000
  XXY=             -0.0000  XXZ=              2.2389  XZZ=              0.0000  YZZ=             -0.0000
  YYZ=              3.6949  XYZ=              2.3958
 Hexadecapole moment (field-independent basis, Debye-Ang**3):
 XXXX=            -55.8647 YYYY=           -392.9583 ZZZZ=           -153.9870 XXXY=             21.3113
 XXXZ=             -0.0000 YYYX=             21.6364 YYYZ=              0.0000 ZZZX=             -0.0000
 ZZZY=              0.0000 XXYY=            -93.9132 XXZZ=            -41.0256 YYZZ=            -92.7843
 XXYZ=              0.0000 YYXZ=              0.0000 ZZXY=              4.4576
 N-N= 1.622143571984D+02 E-N=-8.134699119566D+02  KE= 2.097408751816D+02
 Symmetry A    KE= 1.270382795424D+02
 Symmetry B    KE= 8.270259563926D+01
 Calling FoFJK, ICntrl=  10002127 FMM=F ISym2X=1 I1Cent= 0 IOpClX= 0 NMat=1 NMatS=1 NMatT=0.
 ***** Axes restored to original set *****
 -------------------------------------------------------------------
 Center     Atomic                   Forces (Hartrees/Bohr)
 Number     Number              X              Y              Z
 -------------------------------------------------------------------
      1        6          -0.005102965    0.023946377    0.002965109
      2        6          -0.006869077   -0.018089307   -0.011388739
      3        1           0.001072093    0.005704975    0.004102706
      4        1          -0.002144341   -0.002605235   -0.002975890
      5        7           0.008793682   -0.022110875   -0.004329905
      6        1          -0.001980283   -0.003678765   -0.002462135
      7        6           0.018560902   -0.011308674    0.005631823
      8        1          -0.002583100    0.006494959    0.001271888
      9        6          -0.012551148    0.020443208    0.005727567
     10        1           0.004222797   -0.001959823    0.001357947
     11        1          -0.005115266    0.004461197   -0.002111896
     12        1           0.003696705   -0.001298037    0.002211524
 -------------------------------------------------------------------
 Cartesian Forces:  Max     0.023946377 RMS     0.009202595

 GradGradGradGradGradGradGradGradGradGradGradGradGradGradGradGradGradGrad
 Berny optimization.
 FormGI is forming the generalized inverse of G from B-inverse, IUseBI=4.
 Internal  Forces:  Max     0.025928806 RMS     0.008745575
 Search for a local minimum.
 Step number   1 out of a maximum of   52
 All quantities printed in internal units (Hartrees-Bohrs-Radians)
 Mixed Optimization -- RFO/linear search
 Second derivative matrix not updated -- first step.
 ITU=  0
     Eigenvalues ---    0.02073   0.02073   0.02073   0.02537   0.02537
     Eigenvalues ---    0.02947   0.02947   0.02950   0.02950   0.15995
     Eigenvalues ---    0.15995   0.16000   0.16000   0.16000   0.16000
     Eigenvalues ---    0.16000   0.22000   0.22003   0.22003   0.34869
     Eigenvalues ---    0.34869   0.35441   0.35441   0.35747   0.35747
     Eigenvalues ---    0.44529   0.50757   0.50757   0.58320   0.58320
 RFO step:  Lambda=-9.73820651D-03 EMin= 2.07344772D-02
 Linear search not attempted -- first point.
 Iteration  1 RMS(Cart)=  0.14450926 RMS(Int)=  0.00562645
 Iteration  2 RMS(Cart)=  0.00976814 RMS(Int)=  0.00008427
 Iteration  3 RMS(Cart)=  0.00005661 RMS(Int)=  0.00008126
 Iteration  4 RMS(Cart)=  0.00000000 RMS(Int)=  0.00008126
 ClnCor:  largest displacement from symmetrization is 2.00D-13 for atom    10.
 Variable       Old X    -DE/DX   Delta X   Delta X   Delta X     New X
                                 (Linear)    (Quad)   (Total)
    R1        2.52295   0.02593   0.00000   0.04373   0.04373   2.56668
    R2        2.04479   0.00695   0.00000   0.01892   0.01892   2.06371
    R3        2.04965   0.00333   0.00000   0.00916   0.00916   2.05881
    R4        2.59109   0.01854   0.00000   0.03584   0.03584   2.62693
    R5        2.05887   0.00483   0.00000   0.01349   0.01349   2.07236
    R6        2.59109   0.01854   0.00000   0.03584   0.03584   2.62693
    R7        1.92526  -0.00710   0.00000  -0.01561  -0.01561   1.90965
    R8        2.52295   0.02593   0.00000   0.04373   0.04373   2.56668
    R9        2.05887   0.00483   0.00000   0.01349   0.01349   2.07236
   R10        2.04479   0.00695   0.00000   0.01892   0.01892   2.06371
   R11        2.04965   0.00333   0.00000   0.00916   0.00916   2.05881
    A1        2.13383   0.00237   0.00000   0.01413   0.01404   2.14787
    A2        2.10276  -0.00426   0.00000  -0.02491  -0.02499   2.07777
    A3        2.04618   0.00191   0.00000   0.01144   0.01135   2.05753
    A4        2.28808  -0.01299   0.00000  -0.05627  -0.05646   2.23162
    A5        2.05614   0.00630   0.00000   0.02753   0.02734   2.08348
    A6        1.93825   0.00673   0.00000   0.03002   0.02983   1.96808
    A7        2.30959  -0.01537   0.00000  -0.06689  -0.06689   2.24270
    A8        1.98680   0.00768   0.00000   0.03344   0.03344   2.02024
    A9        1.98680   0.00768   0.00000   0.03344   0.03344   2.02024
   A10        2.28808  -0.01299   0.00000  -0.05627  -0.05646   2.23162
   A11        1.93825   0.00673   0.00000   0.03002   0.02983   1.96808
   A12        2.05614   0.00630   0.00000   0.02753   0.02734   2.08348
   A13        2.13383   0.00237   0.00000   0.01413   0.01404   2.14787
   A14        2.10276  -0.00426   0.00000  -0.02491  -0.02499   2.07777
   A15        2.04618   0.00191   0.00000   0.01144   0.01135   2.05753
    D1        0.01231  -0.00056   0.00000  -0.01155  -0.01152   0.00079
    D2       -3.08454  -0.00196   0.00000  -0.05263  -0.05266  -3.13720
    D3        3.12210   0.00045   0.00000   0.01418   0.01421   3.13631
    D4        0.02525  -0.00095   0.00000  -0.02690  -0.02693  -0.00168
    D5        0.26206  -0.00274   0.00000  -0.08701  -0.08698   0.17507
    D6       -2.87954  -0.00274   0.00000  -0.08701  -0.08698  -2.96652
    D7       -2.92194  -0.00138   0.00000  -0.04795  -0.04798  -2.96993
    D8        0.21965  -0.00138   0.00000  -0.04795  -0.04798   0.17167
    D9        0.26206  -0.00274   0.00000  -0.08701  -0.08698   0.17507
   D10       -2.92194  -0.00138   0.00000  -0.04795  -0.04798  -2.96993
   D11       -2.87954  -0.00274   0.00000  -0.08701  -0.08698  -2.96652
   D12        0.21965  -0.00138   0.00000  -0.04795  -0.04798   0.17167
   D13        0.01231  -0.00056   0.00000  -0.01155  -0.01152   0.00079
   D14        3.12210   0.00045   0.00000   0.01418   0.01421   3.13631
   D15       -3.08454  -0.00196   0.00000  -0.05263  -0.05266  -3.13720
   D16        0.02525  -0.00095   0.00000  -0.02690  -0.02693  -0.00168
         Item               Value     Threshold  Converged?
 Maximum Force            0.025929     0.000450     NO 
 RMS     Force            0.008746     0.000300     NO 
 Maximum Displacement     0.482042     0.001800     NO 
 RMS     Displacement     0.150324     0.001200     NO 
 Predicted change in Energy=-5.224031D-03
 GradGradGradGradGradGradGradGradGradGradGradGradGradGradGradGradGradGrad

                          Input orientation:                          
 ---------------------------------------------------------------------
 Center     Atomic      Atomic             Coordinates (Angstroms)
 Number     Number       Type             X           Y           Z
 ---------------------------------------------------------------------
      1          6           0       -0.680949    0.152438   -0.614664
      2          6           0       -0.145020   -1.091251   -0.510765
      3          1           0       -0.349505    0.996748   -0.006469
      4          1           0       -1.475305    0.327273   -1.339499
      5          7           0        0.870404   -1.514472    0.339066
      6          1           0       -0.521471   -1.894771   -1.155182
      7          6           0        1.446649   -0.833418    1.405144
      8          1           0        1.237821   -2.438308    0.158154
      9          6           0        1.027637    0.324000    1.979245
     10          1           0        2.341622   -1.333672    1.794247
     11          1           0        0.143371    0.869709    1.643253
     12          1           0        1.590110    0.732214    2.818257
 ---------------------------------------------------------------------
                    Distance matrix (angstroms):
                    1          2          3          4          5
     1  C    0.000000
     2  C    1.358226   0.000000
     3  H    1.092070   2.157747   0.000000
     4  H    1.089475   2.113923   1.868848   0.000000
     5  N    2.468783   1.390113   2.813148   3.422274   0.000000
     6  H    2.123360   1.096646   3.116086   2.425129   2.077191
     7  C    3.094868   2.504115   2.927171   4.173498   1.390113
     8  H    3.315251   2.043101   3.787653   4.153608   1.010543
     9  C    3.110798   3.094868   2.508420   4.156777   2.468783
    10  H    4.140931   3.399299   3.989436   5.210378   2.077191
    11  H    2.508420   2.927171   1.726456   3.436737   2.813148
    12  H    4.156777   4.173498   3.436737   5.181475   3.422274
                    6          7          8          9         10
     6  H    0.000000
     7  C    3.399299   0.000000
     8  H    2.261724   2.043101   0.000000
     9  C    4.140931   1.358226   3.315251   0.000000
    10  H    4.148646   1.096646   2.261724   2.123360   0.000000
    11  H    3.989436   2.157747   3.787653   1.092070   3.116086
    12  H    5.210378   2.113923   4.153608   1.089475   2.425129
                   11         12
    11  H    0.000000
    12  H    1.868848   0.000000
 Stoichiometry    C4H7N
 Framework group  C2[C2(NH),X(C4H6)]
 Deg. of freedom    15
 Full point group                 C2      NOp   2
 Largest Abelian subgroup         C2      NOp   2
 Largest concise Abelian subgroup C2      NOp   2
                         Standard orientation:                         
 ---------------------------------------------------------------------
 Center     Atomic      Atomic             Coordinates (Angstroms)
 Number     Number       Type             X           Y           Z
 ---------------------------------------------------------------------
      1          6           0        0.000000    1.555399   -0.894769
      2          6           0        0.150349    1.242998    0.418464
      3          1           0       -0.270795    0.819654   -1.655009
      4          1           0        0.149008    2.586449   -1.213655
      5          7           0       -0.000000    0.000000    1.022422
      6          1           0        0.419717    2.031417    1.131534
      7          6           0       -0.150349   -1.242998    0.418464
      8          1           0       -0.000000    0.000000    2.032965
      9          6           0       -0.000000   -1.555399   -0.894769
     10          1           0       -0.419717   -2.031417    1.131534
     11          1           0        0.270795   -0.819654   -1.655009
     12          1           0       -0.149008   -2.586449   -1.213655
 ---------------------------------------------------------------------
 Rotational constants (GHZ):           9.3608097           4.2330174           2.9395429
 Standard basis: Aug-CC-pVDZ (5D, 7F)
 There are    97 symmetry adapted cartesian basis functions of A   symmetry.
 There are    91 symmetry adapted cartesian basis functions of B   symmetry.
 There are    91 symmetry adapted basis functions of A   symmetry.
 There are    87 symmetry adapted basis functions of B   symmetry.
   178 basis functions,   292 primitive gaussians,   188 cartesian basis functions
    19 alpha electrons       19 beta electrons
       nuclear repulsion energy       162.3101438941 Hartrees.
 NAtoms=   12 NActive=   12 NUniq=    7 SFac= 2.94D+00 NAtFMM=   60 NAOKFM=F Big=F
 Integral buffers will be    131072 words long.
 Raffenetti 1 integral format.
 Two-electron integral symmetry is turned on.
 One-electron integrals computed using PRISM.
 NBasis=   178 RedAO= T EigKep=  2.53D-05  NBF=    91    87
 NBsUse=   178 1.00D-06 EigRej= -1.00D+00 NBFU=    91    87
 Initial guess from the checkpoint file:  "/scr/Gau-95557.chk"
 B after Tr=    -0.000000   -0.000000   -0.000000
         Rot=    0.997632    0.000000    0.000000    0.068775 Ang=   7.89 deg.
 Initial guess orbital symmetries:
       Occupied  (A) (B) (A) (B) (A) (A) (B) (A) (B) (A) (A) (B)
                 (B) (A) (A) (B) (B) (A) (B)
       Virtual   (A) (B) (A) (B) (A) (B) (A) (B) (A) (A) (B) (A)
                 (A) (B) (B) (A) (B) (A) (B) (A) (A) (B) (A) (B)
                 (B) (B) (A) (A) (A) (B) (B) (A) (B) (A) (B) (B)
                 (A) (A) (A) (A) (B) (B) (A) (B) (B) (A) (A) (B)
                 (A) (B) (B) (A) (B) (A) (B) (B) (A) (A) (A) (A)
                 (B) (B) (A) (B) (B) (A) (B) (A) (B) (A) (B) (A)
                 (A) (B) (B) (A) (B) (A) (A) (B) (A) (A) (B) (B)
                 (A) (B) (A) (B) (B) (A) (A) (A) (B) (B) (A) (B)
                 (B) (A) (B) (A) (A) (B) (A) (B) (B) (A) (B) (A)
                 (B) (A) (A) (B) (B) (A) (B) (B) (A) (A) (B) (B)
                 (B) (A) (A) (A) (B) (A) (B) (B) (A) (A) (B) (A)
                 (B) (A) (A) (B) (B) (B) (A) (B) (A) (A) (B) (B)
                 (A) (B) (B) (A) (A) (A) (B) (A) (A) (A) (B) (B)
                 (B) (A) (A)
 ExpMin= 2.97D-02 ExpMax= 9.05D+03 ExpMxC= 3.09D+02 IAcc=3 IRadAn=         5 AccDes= 0.00D+00
 Harris functional with IExCor=  205 and IRadAn=       5 diagonalized for initial guess.
 HarFok:  IExCor=  205 AccDes= 0.00D+00 IRadAn=         5 IDoV= 1 UseB2=F ITyADJ=14
 ICtDFT=  3500011 ScaDFX=  1.000000  1.000000  1.000000  1.000000
 FoFCou: FMM=F IPFlag=           0 FMFlag=      100000 FMFlg1=           0
         NFxFlg=           0 DoJE=T BraDBF=F KetDBF=T FulRan=T
         wScrn=  0.000000 ICntrl=       500 IOpCl=  0 I1Cent=   200000004 NGrid=           0
         NMat0=    1 NMatS0=      1 NMatT0=    0 NMatD0=    1 NMtDS0=    0 NMtDT0=    0
 Petite list used in FoFCou.
 Keep R1 ints in memory in symmetry-blocked form, NReq=190401111.
 Requested convergence on RMS density matrix=1.00D-08 within 128 cycles.
 Requested convergence on MAX density matrix=1.00D-06.
 Requested convergence on             energy=1.00D-06.
 No special actions if energy rises.
 SCF Done:  E(RHF) =  -209.964388921     A.U. after   12 cycles
            NFock= 12  Conv=0.48D-08     -V/T= 2.0023
 ExpMin= 2.97D-02 ExpMax= 9.05D+03 ExpMxC= 3.09D+02 IAcc=3 IRadAn=         5 AccDes= 0.00D+00
 HarFok:  IExCor=  205 AccDes= 0.00D+00 IRadAn=         5 IDoV=-2 UseB2=F ITyADJ=14
 ICtDFT= 12500011 ScaDFX=  1.000000  1.000000  1.000000  1.000000
 Range of M.O.s used for correlation:     6   178
 NBasis=   178 NAE=    19 NBE=    19 NFC=     5 NFV=     0
 NROrb=    173 NOA=    14 NOB=    14 NVA=   159 NVB=   159

 **** Warning!!: The largest alpha MO coefficient is  0.47604305D+02

 Fully direct method using O(ONN) memory.
 JobTyp=1 Pass  1:  I=   6 to  19 NPSUse= 40 ParTrn=T ParDer=T DoDerP=T.
 Spin components of T(2) and E(2):
     alpha-alpha T2 =       0.3401540987D-01 E2=     -0.9133995724D-01
     alpha-beta  T2 =       0.2003473929D+00 E2=     -0.5573247253D+00
     beta-beta   T2 =       0.3401540987D-01 E2=     -0.9133995724D-01
 ANorm=    0.1126222985D+01
 E2 =    -0.7400046398D+00 EUMP2 =    -0.21070439356037D+03
          IDoAtm=111111111111
          Differentiating once with respect to electric field.
                with respect to dipole field.
          Differentiating once with respect to nuclear coordinates.
 Keep R1 ints in memory in symmetry-blocked form, NReq=190402864.
          There are     1 degrees of freedom in the 1st order CPHF.  IDoFFX=0 NUNeed=     1.
 LinEq1:  Iter=  0 NonCon=     1 RMS=3.87D-03 Max=5.49D-02 NDo=     1
 AX will form     1 AO Fock derivatives at one time.
 LinEq1:  Iter=  1 NonCon=     1 RMS=7.31D-04 Max=6.11D-03 NDo=     1
 LinEq1:  Iter=  2 NonCon=     1 RMS=3.26D-04 Max=4.49D-03 NDo=     1
 LinEq1:  Iter=  3 NonCon=     1 RMS=6.89D-05 Max=7.86D-04 NDo=     1
 LinEq1:  Iter=  4 NonCon=     1 RMS=3.05D-05 Max=3.49D-04 NDo=     1
 LinEq1:  Iter=  5 NonCon=     1 RMS=8.78D-06 Max=1.51D-04 NDo=     1
 LinEq1:  Iter=  6 NonCon=     1 RMS=1.94D-06 Max=1.40D-05 NDo=     1
 LinEq1:  Iter=  7 NonCon=     1 RMS=6.79D-07 Max=8.24D-06 NDo=     1
 LinEq1:  Iter=  8 NonCon=     1 RMS=1.60D-07 Max=1.24D-06 NDo=     1
 LinEq1:  Iter=  9 NonCon=     1 RMS=4.55D-08 Max=5.66D-07 NDo=     1
 LinEq1:  Iter= 10 NonCon=     1 RMS=7.76D-09 Max=7.28D-08 NDo=     1
 LinEq1:  Iter= 11 NonCon=     1 RMS=1.05D-09 Max=8.35D-09 NDo=     1
 LinEq1:  Iter= 12 NonCon=     1 RMS=1.79D-10 Max=1.98D-09 NDo=     1
 LinEq1:  Iter= 13 NonCon=     0 RMS=2.76D-11 Max=3.16D-10 NDo=     1
 Linear equations converged to 1.000D-10 1.000D-09 after    13 iterations.
 End of Minotr F.D. properties file   721 does not exist.
 End of Minotr F.D. properties file   722 does not exist.
 End of Minotr F.D. properties file   788 does not exist.
 Calling FoFJK, ICntrl=  10002127 FMM=F ISym2X=1 I1Cent= 0 IOpClX= 0 NMat=1 NMatS=1 NMatT=0.
 ***** Axes restored to original set *****
 -------------------------------------------------------------------
 Center     Atomic                   Forces (Hartrees/Bohr)
 Number     Number              X              Y              Z
 -------------------------------------------------------------------
      1        6          -0.001205031    0.004886407    0.003187064
      2        6          -0.001606117   -0.000467211   -0.001519533
      3        1          -0.002014693   -0.002869886   -0.006537713
      4        1          -0.000044327   -0.001497393   -0.001355766
      5        7           0.000971455   -0.002442631   -0.000478333
      6        1           0.001370171    0.001183659    0.000364205
      7        6           0.001689885    0.000256584    0.001478286
      8        1           0.000012191   -0.000030653   -0.000006003
      9        6          -0.002776819    0.005125578   -0.001226448
     10        1          -0.001842195    0.000003202   -0.000131786
     11        1           0.004240949   -0.002727823    0.005441531
     12        1           0.001204532   -0.001419832    0.000784494
 -------------------------------------------------------------------
 Cartesian Forces:  Max     0.006537713 RMS     0.002434630

 GradGradGradGradGradGradGradGradGradGradGradGradGradGradGradGradGradGrad
 Berny optimization.
 Using GEDIIS/GDIIS optimizer.
 FormGI is forming the generalized inverse of G from B-inverse, IUseBI=4.
 Internal  Forces:  Max     0.018291475 RMS     0.005987125
 Search for a local minimum.
 Step number   2 out of a maximum of   52
 All quantities printed in internal units (Hartrees-Bohrs-Radians)
 Mixed Optimization -- RFO/linear search
 Update second derivatives using D2CorX and points    1    2
 DE= -3.27D-03 DEPred=-5.22D-03 R= 6.27D-01
 TightC=F SS=  1.41D+00  RLast= 2.71D-01 DXNew= 5.0454D-01 8.1214D-01
 Trust test= 6.27D-01 RLast= 2.71D-01 DXMaxT set to 5.05D-01
 ITU=  1  0
 Use linear search instead of GDIIS.
     Eigenvalues ---    0.02073   0.02073   0.02224   0.02535   0.02607
     Eigenvalues ---    0.02942   0.02947   0.02948   0.03121   0.14730
     Eigenvalues ---    0.16000   0.16000   0.16000   0.16000   0.16000
     Eigenvalues ---    0.16026   0.22000   0.22000   0.32837   0.34848
     Eigenvalues ---    0.34869   0.35226   0.35441   0.35747   0.41169
     Eigenvalues ---    0.44837   0.45706   0.50757   0.56765   0.58320
 RFO step:  Lambda=-2.57917107D-03 EMin= 2.07344772D-02
 Quartic linear search produced a step of -0.26456.
 Iteration  1 RMS(Cart)=  0.09847993 RMS(Int)=  0.00227708
 Iteration  2 RMS(Cart)=  0.00341999 RMS(Int)=  0.00008768
 Iteration  3 RMS(Cart)=  0.00000642 RMS(Int)=  0.00008763
 Iteration  4 RMS(Cart)=  0.00000000 RMS(Int)=  0.00008763
 ClnCor:  largest displacement from symmetrization is 4.84D-13 for atom    10.
 Variable       Old X    -DE/DX   Delta X   Delta X   Delta X     New X
                                 (Linear)    (Quad)   (Total)
    R1        2.56668   0.00212  -0.01157   0.02545   0.01388   2.58056
    R2        2.06371  -0.00647  -0.00501  -0.00298  -0.00798   2.05573
    R3        2.05881   0.00069  -0.00242   0.00635   0.00393   2.06274
    R4        2.62693   0.00652  -0.00948   0.02817   0.01869   2.64562
    R5        2.07236  -0.00155  -0.00357   0.00403   0.00047   2.07283
    R6        2.62693   0.00652  -0.00948   0.02817   0.01869   2.64562
    R7        1.90965   0.00003   0.00413  -0.00821  -0.00408   1.90557
    R8        2.56668   0.00212  -0.01157   0.02545   0.01388   2.58056
    R9        2.07236  -0.00155  -0.00357   0.00403   0.00047   2.07283
   R10        2.06371  -0.00647  -0.00501  -0.00298  -0.00798   2.05573
   R11        2.05881   0.00069  -0.00242   0.00635   0.00393   2.06274
    A1        2.14787   0.00485  -0.00371   0.02999   0.02605   2.17392
    A2        2.07777  -0.00430   0.00661  -0.03421  -0.02782   2.04995
    A3        2.05753  -0.00056  -0.00300   0.00404   0.00081   2.05834
    A4        2.23162   0.01522   0.01494   0.01811   0.03310   2.26472
    A5        2.08348  -0.00732  -0.00723  -0.00848  -0.01566   2.06782
    A6        1.96808  -0.00790  -0.00789  -0.00961  -0.01745   1.95063
    A7        2.24270   0.01829   0.01770   0.02242   0.04012   2.28282
    A8        2.02024  -0.00915  -0.00885  -0.01121  -0.02006   2.00018
    A9        2.02024  -0.00915  -0.00885  -0.01121  -0.02006   2.00018
   A10        2.23162   0.01522   0.01494   0.01811   0.03310   2.26472
   A11        1.96808  -0.00790  -0.00789  -0.00961  -0.01745   1.95063
   A12        2.08348  -0.00732  -0.00723  -0.00848  -0.01566   2.06782
   A13        2.14787   0.00485  -0.00371   0.02999   0.02605   2.17392
   A14        2.07777  -0.00430   0.00661  -0.03421  -0.02782   2.04995
   A15        2.05753  -0.00056  -0.00300   0.00404   0.00081   2.05834
    D1        0.00079   0.00150   0.00305   0.02203   0.02506   0.02585
    D2       -3.13720   0.00284   0.01393   0.01447   0.02841  -3.10879
    D3        3.13631  -0.00117  -0.00376  -0.01373  -0.01749   3.11881
    D4       -0.00168   0.00017   0.00712  -0.02128  -0.01415  -0.01583
    D5        0.17507   0.00195   0.02301  -0.03989  -0.01688   0.15819
    D6       -2.96652   0.00195   0.02301  -0.03989  -0.01688  -2.98340
    D7       -2.96993   0.00068   0.01269  -0.03275  -0.02005  -2.98998
    D8        0.17167   0.00068   0.01269  -0.03275  -0.02005   0.15161
    D9        0.17507   0.00195   0.02301  -0.03989  -0.01688   0.15819
   D10       -2.96993   0.00068   0.01269  -0.03275  -0.02005  -2.98998
   D11       -2.96652   0.00195   0.02301  -0.03989  -0.01688  -2.98340
   D12        0.17167   0.00068   0.01269  -0.03275  -0.02005   0.15161
   D13        0.00079   0.00150   0.00305   0.02203   0.02506   0.02585
   D14        3.13631  -0.00117  -0.00376  -0.01373  -0.01749   3.11881
   D15       -3.13720   0.00284   0.01393   0.01447   0.02841  -3.10879
   D16       -0.00168   0.00017   0.00712  -0.02128  -0.01415  -0.01583
         Item               Value     Threshold  Converged?
 Maximum Force            0.018291     0.000450     NO 
 RMS     Force            0.005987     0.000300     NO 
 Maximum Displacement     0.236356     0.001800     NO 
 RMS     Displacement     0.100503     0.001200     NO 
 Predicted change in Energy=-1.811992D-03
 GradGradGradGradGradGradGradGradGradGradGradGradGradGradGradGradGradGrad

                          Input orientation:                          
 ---------------------------------------------------------------------
 Center     Atomic      Atomic             Coordinates (Angstroms)
 Number     Number       Type             X           Y           Z
 ---------------------------------------------------------------------
      1          6           0       -0.745073    0.143347   -0.677653
      2          6           0       -0.155217   -1.079508   -0.531077
      3          1           0       -0.473679    1.031260   -0.110767
      4          1           0       -1.511648    0.243180   -1.448292
      5          7           0        0.858798   -1.485289    0.344781
      6          1           0       -0.486620   -1.900960   -1.178042
      7          6           0        1.448988   -0.825402    1.429326
      8          1           0        1.225430   -2.407150    0.164256
      9          6           0        1.089051    0.339905    2.043569
     10          1           0        2.323075   -1.368479    1.809079
     11          1           0        0.225349    0.941293    1.768328
     12          1           0        1.686909    0.664293    2.897282
 ---------------------------------------------------------------------
                    Distance matrix (angstroms):
                    1          2          3          4          5
     1  C    0.000000
     2  C    1.365573   0.000000
     3  H    1.087844   2.175643   0.000000
     4  H    1.091553   2.104921   1.867464   0.000000
     5  N    2.504042   1.400004   2.883754   3.438274   0.000000
     6  H    2.120466   1.096892   3.120442   2.391872   2.074107
     7  C    3.192450   2.545825   3.084758   4.264730   1.400004
     8  H    3.331175   2.037721   3.845163   4.137168   1.008383
     9  C    3.287506   3.192450   2.749775   4.355006   2.504042
    10  H    4.228828   3.420785   4.155285   5.283277   2.074107
    11  H    2.749775   3.084758   2.006921   3.721715   2.883754
    12  H    4.355006   4.264730   3.721715   5.412219   3.438274
                    6          7          8          9         10
     6  H    0.000000
     7  C    3.420785   0.000000
     8  H    2.233631   2.037721   0.000000
     9  C    4.228828   1.365573   3.331175   0.000000
    10  H    4.135313   1.096892   2.233631   2.120466   0.000000
    11  H    4.155285   2.175643   3.845163   1.087844   3.120442
    12  H    5.283277   2.104921   4.137168   1.091553   2.391872
                   11         12
    11  H    0.000000
    12  H    1.867464   0.000000
 Stoichiometry    C4H7N
 Framework group  C2[C2(NH),X(C4H6)]
 Deg. of freedom    15
 Full point group                 C2      NOp   2
 Largest Abelian subgroup         C2      NOp   2
 Largest concise Abelian subgroup C2      NOp   2
                         Standard orientation:                         
 ---------------------------------------------------------------------
 Center     Atomic      Atomic             Coordinates (Angstroms)
 Number     Number       Type             X           Y           Z
 ---------------------------------------------------------------------
      1          6           0        0.000000    1.643753   -0.889630
      2          6           0        0.128064    1.266454    0.416522
      3          1           0       -0.256915    0.970014   -1.704171
      4          1           0        0.122057    2.703356   -1.121649
      5          7           0       -0.000000    0.000000    0.999365
      6          1           0        0.360524    2.035983    1.162820
      7          6           0       -0.128064   -1.266454    0.416522
      8          1           0       -0.000000    0.000000    2.007748
      9          6           0       -0.000000   -1.643753   -0.889630
     10          1           0       -0.360524   -2.035983    1.162820
     11          1           0        0.256915   -0.970014   -1.704171
     12          1           0       -0.122057   -2.703356   -1.121649
 ---------------------------------------------------------------------
 Rotational constants (GHZ):           9.5579147           3.9133856           2.7943285
 Standard basis: Aug-CC-pVDZ (5D, 7F)
 There are    97 symmetry adapted cartesian basis functions of A   symmetry.
 There are    91 symmetry adapted cartesian basis functions of B   symmetry.
 There are    91 symmetry adapted basis functions of A   symmetry.
 There are    87 symmetry adapted basis functions of B   symmetry.
   178 basis functions,   292 primitive gaussians,   188 cartesian basis functions
    19 alpha electrons       19 beta electrons
       nuclear repulsion energy       160.2364871310 Hartrees.
 NAtoms=   12 NActive=   12 NUniq=    7 SFac= 2.94D+00 NAtFMM=   60 NAOKFM=F Big=F
 Integral buffers will be    131072 words long.
 Raffenetti 1 integral format.
 Two-electron integral symmetry is turned on.
 One-electron integrals computed using PRISM.
 NBasis=   178 RedAO= T EigKep=  2.59D-05  NBF=    91    87
 NBsUse=   178 1.00D-06 EigRej= -1.00D+00 NBFU=    91    87
 Initial guess from the checkpoint file:  "/scr/Gau-95557.chk"
 B after Tr=     0.000000   -0.000000    0.000000
         Rot=    0.999989    0.000000   -0.000000   -0.004648 Ang=  -0.53 deg.
 Initial guess orbital symmetries:
       Occupied  (A) (B) (A) (B) (A) (A) (B) (A) (B) (A) (A) (B)
                 (B) (A) (A) (B) (B) (A) (B)
       Virtual   (A) (B) (A) (B) (A) (B) (A) (B) (A) (A) (B) (A)
                 (A) (B) (B) (A) (B) (A) (B) (A) (A) (B) (A) (B)
                 (B) (B) (A) (A) (B) (A) (A) (B) (B) (B) (A) (B)
                 (A) (A) (A) (A) (B) (B) (B) (A) (B) (A) (A) (B)
                 (B) (A) (B) (A) (B) (A) (A) (B) (A) (B) (A) (A)
                 (B) (B) (A) (B) (A) (B) (A) (B) (B) (A) (B) (A)
                 (B) (A) (B) (B) (A) (A) (A) (B) (A) (A) (B) (B)
                 (A) (B) (A) (B) (A) (B) (A) (A) (B) (A) (B) (B)
                 (B) (A) (B) (A) (B) (A) (B) (A) (B) (A) (B) (A)
                 (B) (A) (A) (B) (B) (A) (B) (A) (A) (B) (B) (B)
                 (A) (B) (A) (A) (B) (A) (B) (B) (A) (A) (B) (A)
                 (B) (A) (A) (B) (B) (B) (A) (A) (B) (A) (B) (A)
                 (B) (B) (B) (A) (A) (A) (B) (A) (A) (A) (B) (B)
                 (B) (A) (A)
 ExpMin= 2.97D-02 ExpMax= 9.05D+03 ExpMxC= 3.09D+02 IAcc=3 IRadAn=         5 AccDes= 0.00D+00
 Harris functional with IExCor=  205 and IRadAn=       5 diagonalized for initial guess.
 HarFok:  IExCor=  205 AccDes= 0.00D+00 IRadAn=         5 IDoV= 1 UseB2=F ITyADJ=14
 ICtDFT=  3500011 ScaDFX=  1.000000  1.000000  1.000000  1.000000
 FoFCou: FMM=F IPFlag=           0 FMFlag=      100000 FMFlg1=           0
         NFxFlg=           0 DoJE=T BraDBF=F KetDBF=T FulRan=T
         wScrn=  0.000000 ICntrl=       500 IOpCl=  0 I1Cent=   200000004 NGrid=           0
         NMat0=    1 NMatS0=      1 NMatT0=    0 NMatD0=    1 NMtDS0=    0 NMtDT0=    0
 Petite list used in FoFCou.
 Keep R1 ints in memory in symmetry-blocked form, NReq=190401111.
 Requested convergence on RMS density matrix=1.00D-08 within 128 cycles.
 Requested convergence on MAX density matrix=1.00D-06.
 Requested convergence on             energy=1.00D-06.
 No special actions if energy rises.
 SCF Done:  E(RHF) =  -209.965588005     A.U. after   11 cycles
            NFock= 11  Conv=0.77D-08     -V/T= 2.0029
 ExpMin= 2.97D-02 ExpMax= 9.05D+03 ExpMxC= 3.09D+02 IAcc=3 IRadAn=         5 AccDes= 0.00D+00
 HarFok:  IExCor=  205 AccDes= 0.00D+00 IRadAn=         5 IDoV=-2 UseB2=F ITyADJ=14
 ICtDFT= 12500011 ScaDFX=  1.000000  1.000000  1.000000  1.000000
 Range of M.O.s used for correlation:     6   178
 NBasis=   178 NAE=    19 NBE=    19 NFC=     5 NFV=     0
 NROrb=    173 NOA=    14 NOB=    14 NVA=   159 NVB=   159

 **** Warning!!: The largest alpha MO coefficient is  0.46561373D+02

 Fully direct method using O(ONN) memory.
 JobTyp=1 Pass  1:  I=   6 to  19 NPSUse= 40 ParTrn=T ParDer=T DoDerP=T.
 Spin components of T(2) and E(2):
     alpha-alpha T2 =       0.3400961502D-01 E2=     -0.9100382663D-01
     alpha-beta  T2 =       0.2014009651D+00 E2=     -0.5576590047D+00
     beta-beta   T2 =       0.3400961502D-01 E2=     -0.9100382663D-01
 ANorm=    0.1126685491D+01
 E2 =    -0.7396666579D+00 EUMP2 =    -0.21070525466271D+03
          IDoAtm=111111111111
          Differentiating once with respect to electric field.
                with respect to dipole field.
          Differentiating once with respect to nuclear coordinates.
 Keep R1 ints in memory in symmetry-blocked form, NReq=190402864.
          There are     1 degrees of freedom in the 1st order CPHF.  IDoFFX=0 NUNeed=     1.
 LinEq1:  Iter=  0 NonCon=     1 RMS=3.90D-03 Max=5.49D-02 NDo=     1
 AX will form     1 AO Fock derivatives at one time.
 LinEq1:  Iter=  1 NonCon=     1 RMS=7.50D-04 Max=6.23D-03 NDo=     1
 LinEq1:  Iter=  2 NonCon=     1 RMS=3.30D-04 Max=4.91D-03 NDo=     1
 LinEq1:  Iter=  3 NonCon=     1 RMS=7.10D-05 Max=8.36D-04 NDo=     1
 LinEq1:  Iter=  4 NonCon=     1 RMS=3.17D-05 Max=3.85D-04 NDo=     1
 LinEq1:  Iter=  5 NonCon=     1 RMS=9.15D-06 Max=1.73D-04 NDo=     1
 LinEq1:  Iter=  6 NonCon=     1 RMS=2.13D-06 Max=1.44D-05 NDo=     1
 LinEq1:  Iter=  7 NonCon=     1 RMS=7.45D-07 Max=1.03D-05 NDo=     1
 LinEq1:  Iter=  8 NonCon=     1 RMS=1.69D-07 Max=1.50D-06 NDo=     1
 LinEq1:  Iter=  9 NonCon=     1 RMS=4.69D-08 Max=6.35D-07 NDo=     1
 LinEq1:  Iter= 10 NonCon=     1 RMS=7.79D-09 Max=6.87D-08 NDo=     1
 LinEq1:  Iter= 11 NonCon=     1 RMS=1.04D-09 Max=1.08D-08 NDo=     1
 LinEq1:  Iter= 12 NonCon=     1 RMS=1.73D-10 Max=1.71D-09 NDo=     1
 LinEq1:  Iter= 13 NonCon=     0 RMS=2.66D-11 Max=3.12D-10 NDo=     1
 Linear equations converged to 1.000D-10 1.000D-09 after    13 iterations.
 End of Minotr F.D. properties file   721 does not exist.
 End of Minotr F.D. properties file   722 does not exist.
 End of Minotr F.D. properties file   788 does not exist.
 Calling FoFJK, ICntrl=  10002127 FMM=F ISym2X=1 I1Cent= 0 IOpClX= 0 NMat=1 NMatS=1 NMatT=0.
 ***** Axes restored to original set *****
 -------------------------------------------------------------------
 Center     Atomic                   Forces (Hartrees/Bohr)
 Number     Number              X              Y              Z
 -------------------------------------------------------------------
      1        6           0.003388540   -0.005637994    0.001319549
      2        6          -0.000031095    0.004457659    0.002537810
      3        1           0.000548799   -0.000699853    0.000814785
      4        1           0.000338541   -0.000441164    0.000629403
      5        7          -0.002131656    0.005359847    0.001049602
      6        1           0.001052208    0.001231955    0.000751796
      7        6          -0.003270842    0.003844745   -0.000911976
      8        1           0.000795028   -0.001999022   -0.000391462
      9        6           0.001083563   -0.005606684   -0.003521560
     10        1          -0.001690861    0.000373876   -0.000437331
     11        1          -0.000044528   -0.000568087   -0.001063082
     12        1          -0.000037697   -0.000315280   -0.000777535
 -------------------------------------------------------------------
 Cartesian Forces:  Max     0.005637994 RMS     0.002312410

 GradGradGradGradGradGradGradGradGradGradGradGradGradGradGradGradGradGrad
 Berny optimization.
 Using GEDIIS/GDIIS optimizer.
 FormGI is forming the generalized inverse of G from B-inverse, IUseBI=4.
 Internal  Forces:  Max     0.008214133 RMS     0.003153065
 Search for a local minimum.
 Step number   3 out of a maximum of   52
 All quantities printed in internal units (Hartrees-Bohrs-Radians)
 Mixed Optimization -- RFO/linear search
 Update second derivatives using D2CorX and points    1    2    3
 DE= -8.61D-04 DEPred=-1.81D-03 R= 4.75D-01
 Trust test= 4.75D-01 RLast= 1.28D-01 DXMaxT set to 5.05D-01
 ITU=  0  1  0
 Use linear search instead of GDIIS.
     Eigenvalues ---    0.01695   0.02073   0.02073   0.02535   0.02554
     Eigenvalues ---    0.02947   0.02950   0.02954   0.03157   0.14045
     Eigenvalues ---    0.16000   0.16000   0.16000   0.16000   0.16006
     Eigenvalues ---    0.16102   0.22000   0.22017   0.34514   0.34869
     Eigenvalues ---    0.35035   0.35441   0.35491   0.35747   0.44627
     Eigenvalues ---    0.47342   0.50757   0.58054   0.58320   0.69321
 RFO step:  Lambda=-2.47766904D-04 EMin= 1.69456138D-02
 Quartic linear search produced a step of -0.34363.
 Iteration  1 RMS(Cart)=  0.03992494 RMS(Int)=  0.00049520
 Iteration  2 RMS(Cart)=  0.00060497 RMS(Int)=  0.00001141
 Iteration  3 RMS(Cart)=  0.00000027 RMS(Int)=  0.00001141
 ClnCor:  largest displacement from symmetrization is 4.94D-13 for atom    11.
 Variable       Old X    -DE/DX   Delta X   Delta X   Delta X     New X
                                 (Linear)    (Quad)   (Total)
    R1        2.58056  -0.00821  -0.00477  -0.00858  -0.01335   2.56721
    R2        2.05573  -0.00001   0.00274  -0.00389  -0.00115   2.05458
    R3        2.06274  -0.00072  -0.00135  -0.00120  -0.00255   2.06018
    R4        2.64562  -0.00794  -0.00642  -0.00754  -0.01396   2.63166
    R5        2.07283  -0.00168  -0.00016  -0.00392  -0.00408   2.06875
    R6        2.64562  -0.00794  -0.00642  -0.00754  -0.01396   2.63166
    R7        1.90557   0.00219   0.00140   0.00330   0.00470   1.91027
    R8        2.58056  -0.00821  -0.00477  -0.00858  -0.01335   2.56721
    R9        2.07283  -0.00168  -0.00016  -0.00392  -0.00408   2.06875
   R10        2.05573  -0.00001   0.00274  -0.00389  -0.00115   2.05458
   R11        2.06274  -0.00072  -0.00135  -0.00120  -0.00255   2.06018
    A1        2.17392  -0.00135  -0.00895  -0.00168  -0.01066   2.16326
    A2        2.04995   0.00037   0.00956   0.00007   0.00960   2.05955
    A3        2.05834   0.00101  -0.00028   0.00218   0.00188   2.06022
    A4        2.26472  -0.00440  -0.01137   0.00281  -0.00857   2.25615
    A5        2.06782   0.00248   0.00538  -0.00020   0.00518   2.07300
    A6        1.95063   0.00192   0.00600  -0.00265   0.00334   1.95397
    A7        2.28282  -0.00711  -0.01379  -0.00102  -0.01480   2.26801
    A8        2.00018   0.00356   0.00689   0.00051   0.00740   2.00759
    A9        2.00018   0.00356   0.00689   0.00051   0.00740   2.00759
   A10        2.26472  -0.00440  -0.01137   0.00281  -0.00857   2.25615
   A11        1.95063   0.00192   0.00600  -0.00265   0.00334   1.95397
   A12        2.06782   0.00248   0.00538  -0.00020   0.00518   2.07300
   A13        2.17392  -0.00135  -0.00895  -0.00168  -0.01066   2.16326
   A14        2.04995   0.00037   0.00956   0.00007   0.00960   2.05955
   A15        2.05834   0.00101  -0.00028   0.00218   0.00188   2.06022
    D1        0.02585  -0.00021  -0.00861  -0.00782  -0.01643   0.00942
    D2       -3.10879  -0.00037  -0.00976   0.00076  -0.00900  -3.11779
    D3        3.11881   0.00033   0.00601   0.00649   0.01250   3.13131
    D4       -0.01583   0.00017   0.00486   0.01507   0.01994   0.00411
    D5        0.15819  -0.00079   0.00580   0.02113   0.02693   0.18512
    D6       -2.98340  -0.00079   0.00580   0.02113   0.02693  -2.95647
    D7       -2.98998  -0.00063   0.00689   0.01302   0.01991  -2.97007
    D8        0.15161  -0.00063   0.00689   0.01302   0.01991   0.17152
    D9        0.15819  -0.00079   0.00580   0.02113   0.02693   0.18512
   D10       -2.98998  -0.00063   0.00689   0.01302   0.01991  -2.97007
   D11       -2.98340  -0.00079   0.00580   0.02113   0.02693  -2.95647
   D12        0.15161  -0.00063   0.00689   0.01302   0.01991   0.17152
   D13        0.02585  -0.00021  -0.00861  -0.00782  -0.01643   0.00942
   D14        3.11881   0.00033   0.00601   0.00649   0.01250   3.13131
   D15       -3.10879  -0.00037  -0.00976   0.00076  -0.00900  -3.11779
   D16       -0.01583   0.00017   0.00486   0.01507   0.01994   0.00411
         Item               Value     Threshold  Converged?
 Maximum Force            0.008214     0.000450     NO 
 RMS     Force            0.003153     0.000300     NO 
 Maximum Displacement     0.122212     0.001800     NO 
 RMS     Displacement     0.039814     0.001200     NO 
 Predicted change in Energy=-2.537997D-04
 GradGradGradGradGradGradGradGradGradGradGradGradGradGradGradGradGradGrad

                          Input orientation:                          
 ---------------------------------------------------------------------
 Center     Atomic      Atomic             Coordinates (Angstroms)
 Number     Number       Type             X           Y           Z
 ---------------------------------------------------------------------
      1          6           0       -0.711896    0.148830   -0.665897
      2          6           0       -0.154173   -1.080980   -0.517365
      3          1           0       -0.409007    1.025378   -0.098442
      4          1           0       -1.498360    0.267563   -1.411496
      5          7           0        0.860816   -1.490363    0.343788
      6          1           0       -0.509644   -1.900691   -1.149945
      7          6           0        1.447413   -0.822596    1.415875
      8          1           0        1.228352   -2.414497    0.162817
      9          6           0        1.059470    0.325380    2.030042
     10          1           0        2.336175   -1.343796    1.785869
     11          1           0        0.180082    0.898385    1.746448
     12          1           0        1.656136    0.683878    2.869095
 ---------------------------------------------------------------------
                    Distance matrix (angstroms):
                    1          2          3          4          5
     1  C    0.000000
     2  C    1.358510   0.000000
     3  H    1.087236   2.162679   0.000000
     4  H    1.090202   2.103540   1.866838   0.000000
     5  N    2.485928   1.392616   2.852538   3.425936   0.000000
     6  H    2.115595   1.094734   3.110894   2.397352   2.068276
     7  C    3.152786   2.523739   3.025634   4.226116   1.392616
     8  H    3.319936   2.037717   3.818631   4.136045   1.010869
     9  C    3.230634   3.152786   2.678968   4.288359   2.485928
    10  H    4.186864   3.402322   4.086519   5.246263   2.068276
    11  H    2.678968   3.025634   1.940818   3.631489   2.852538
    12  H    4.288359   4.226116   3.631489   5.333631   3.425936
                    6          7          8          9         10
     6  H    0.000000
     7  C    3.402322   0.000000
     8  H    2.237850   2.037717   0.000000
     9  C    4.186864   1.358510   3.319936   0.000000
    10  H    4.126478   1.094734   2.237850   2.115595   0.000000
    11  H    4.086519   2.162679   3.818631   1.087236   3.110894
    12  H    5.246263   2.103540   4.136045   1.090202   2.397352
                   11         12
    11  H    0.000000
    12  H    1.866838   0.000000
 Stoichiometry    C4H7N
 Framework group  C2[C2(NH),X(C4H6)]
 Deg. of freedom    15
 Full point group                 C2      NOp   2
 Largest Abelian subgroup         C2      NOp   2
 Largest concise Abelian subgroup C2      NOp   2
                         Standard orientation:                         
 ---------------------------------------------------------------------
 Center     Atomic      Atomic             Coordinates (Angstroms)
 Number     Number       Type             X           Y           Z
 ---------------------------------------------------------------------
      1          6           0       -0.000000    1.615317   -0.886671
      2          6           0        0.151231    1.252774    0.413807
      3          1           0       -0.284385    0.927803   -1.679472
      4          1           0        0.156062    2.662245   -1.147682
      5          7           0        0.000000   -0.000000    1.002930
      6          1           0        0.418454    2.020359    1.147188
      7          6           0       -0.151231   -1.252774    0.413807
      8          1           0        0.000000   -0.000000    2.013799
      9          6           0       -0.000000   -1.615317   -0.886671
     10          1           0       -0.418454   -2.020359    1.147188
     11          1           0        0.284385   -0.927803   -1.679472
     12          1           0       -0.156062   -2.662245   -1.147682
 ---------------------------------------------------------------------
 Rotational constants (GHZ):           9.5563377           4.0220757           2.8552126
 Standard basis: Aug-CC-pVDZ (5D, 7F)
 There are    97 symmetry adapted cartesian basis functions of A   symmetry.
 There are    91 symmetry adapted cartesian basis functions of B   symmetry.
 There are    91 symmetry adapted basis functions of A   symmetry.
 There are    87 symmetry adapted basis functions of B   symmetry.
   178 basis functions,   292 primitive gaussians,   188 cartesian basis functions
    19 alpha electrons       19 beta electrons
       nuclear repulsion energy       161.2760211893 Hartrees.
 NAtoms=   12 NActive=   12 NUniq=    7 SFac= 2.94D+00 NAtFMM=   60 NAOKFM=F Big=F
 Integral buffers will be    131072 words long.
 Raffenetti 1 integral format.
 Two-electron integral symmetry is turned on.
 One-electron integrals computed using PRISM.
 NBasis=   178 RedAO= T EigKep=  2.55D-05  NBF=    91    87
 NBsUse=   178 1.00D-06 EigRej= -1.00D+00 NBFU=    91    87
 Initial guess from the checkpoint file:  "/scr/Gau-95557.chk"
 B after Tr=     0.000000    0.000000   -0.000000
         Rot=    0.999988   -0.000000    0.000000    0.004860 Ang=   0.56 deg.
 Initial guess orbital symmetries:
       Occupied  (A) (B) (A) (B) (A) (A) (B) (A) (B) (A) (A) (B)
                 (B) (A) (A) (B) (B) (A) (B)
       Virtual   (A) (B) (A) (B) (A) (B) (A) (B) (A) (A) (B) (A)
                 (A) (B) (B) (A) (B) (A) (B) (A) (A) (B) (A) (B)
                 (B) (B) (A) (A) (A) (B) (A) (B) (B) (A) (B) (B)
                 (A) (A) (B) (A) (A) (B) (A) (B) (B) (A) (B) (A)
                 (B) (A) (B) (A) (B) (A) (B) (A) (A) (B) (A) (A)
                 (B) (B) (A) (B) (A) (B) (B) (A) (B) (B) (A) (A)
                 (B) (A) (B) (B) (A) (A) (A) (A) (B) (A) (B) (B)
                 (A) (B) (A) (B) (A) (B) (A) (A) (B) (A) (B) (B)
                 (B) (A) (B) (A) (A) (B) (B) (A) (B) (A) (B) (A)
                 (B) (A) (B) (A) (B) (A) (B) (B) (A) (A) (B) (B)
                 (A) (B) (A) (A) (B) (A) (B) (A) (B) (A) (B) (A)
                 (A) (B) (A) (B) (B) (B) (A) (B) (A) (A) (B) (B)
                 (A) (B) (B) (A) (A) (A) (A) (B) (A) (B) (A) (B)
                 (B) (A) (A)
 ExpMin= 2.97D-02 ExpMax= 9.05D+03 ExpMxC= 3.09D+02 IAcc=3 IRadAn=         5 AccDes= 0.00D+00
 Harris functional with IExCor=  205 and IRadAn=       5 diagonalized for initial guess.
 HarFok:  IExCor=  205 AccDes= 0.00D+00 IRadAn=         5 IDoV= 1 UseB2=F ITyADJ=14
 ICtDFT=  3500011 ScaDFX=  1.000000  1.000000  1.000000  1.000000
 FoFCou: FMM=F IPFlag=           0 FMFlag=      100000 FMFlg1=           0
         NFxFlg=           0 DoJE=T BraDBF=F KetDBF=T FulRan=T
         wScrn=  0.000000 ICntrl=       500 IOpCl=  0 I1Cent=   200000004 NGrid=           0
         NMat0=    1 NMatS0=      1 NMatT0=    0 NMatD0=    1 NMtDS0=    0 NMtDT0=    0
 Petite list used in FoFCou.
 Keep R1 ints in memory in symmetry-blocked form, NReq=190401111.
 Requested convergence on RMS density matrix=1.00D-08 within 128 cycles.
 Requested convergence on MAX density matrix=1.00D-06.
 Requested convergence on             energy=1.00D-06.
 No special actions if energy rises.
 SCF Done:  E(RHF) =  -209.966857398     A.U. after   11 cycles
            NFock= 11  Conv=0.47D-08     -V/T= 2.0024
 ExpMin= 2.97D-02 ExpMax= 9.05D+03 ExpMxC= 3.09D+02 IAcc=3 IRadAn=         5 AccDes= 0.00D+00
 HarFok:  IExCor=  205 AccDes= 0.00D+00 IRadAn=         5 IDoV=-2 UseB2=F ITyADJ=14
 ICtDFT= 12500011 ScaDFX=  1.000000  1.000000  1.000000  1.000000
 Range of M.O.s used for correlation:     6   178
 NBasis=   178 NAE=    19 NBE=    19 NFC=     5 NFV=     0
 NROrb=    173 NOA=    14 NOB=    14 NVA=   159 NVB=   159

 **** Warning!!: The largest alpha MO coefficient is  0.46913817D+02

 Fully direct method using O(ONN) memory.
 JobTyp=1 Pass  1:  I=   6 to  19 NPSUse= 40 ParTrn=T ParDer=T DoDerP=T.
 Spin components of T(2) and E(2):
     alpha-alpha T2 =       0.3386236259D-01 E2=     -0.9099445049D-01
     alpha-beta  T2 =       0.2001278804D+00 E2=     -0.5566921565D+00
     beta-beta   T2 =       0.3386236259D-01 E2=     -0.9099445049D-01
 ANorm=    0.1125989612D+01
 E2 =    -0.7386810575D+00 EUMP2 =    -0.21070553845519D+03
          IDoAtm=111111111111
          Differentiating once with respect to electric field.
                with respect to dipole field.
          Differentiating once with respect to nuclear coordinates.
 Keep R1 ints in memory in symmetry-blocked form, NReq=190402864.
          There are     1 degrees of freedom in the 1st order CPHF.  IDoFFX=0 NUNeed=     1.
 LinEq1:  Iter=  0 NonCon=     1 RMS=3.87D-03 Max=5.64D-02 NDo=     1
 AX will form     1 AO Fock derivatives at one time.
 LinEq1:  Iter=  1 NonCon=     1 RMS=7.32D-04 Max=5.97D-03 NDo=     1
 LinEq1:  Iter=  2 NonCon=     1 RMS=3.23D-04 Max=4.62D-03 NDo=     1
 LinEq1:  Iter=  3 NonCon=     1 RMS=6.87D-05 Max=7.93D-04 NDo=     1
 LinEq1:  Iter=  4 NonCon=     1 RMS=3.06D-05 Max=3.67D-04 NDo=     1
 LinEq1:  Iter=  5 NonCon=     1 RMS=8.76D-06 Max=1.62D-04 NDo=     1
 LinEq1:  Iter=  6 NonCon=     1 RMS=1.97D-06 Max=1.27D-05 NDo=     1
 LinEq1:  Iter=  7 NonCon=     1 RMS=6.88D-07 Max=9.37D-06 NDo=     1
 LinEq1:  Iter=  8 NonCon=     1 RMS=1.59D-07 Max=1.39D-06 NDo=     1
 LinEq1:  Iter=  9 NonCon=     1 RMS=4.46D-08 Max=5.84D-07 NDo=     1
 LinEq1:  Iter= 10 NonCon=     1 RMS=7.50D-09 Max=6.42D-08 NDo=     1
 LinEq1:  Iter= 11 NonCon=     1 RMS=1.01D-09 Max=9.64D-09 NDo=     1
 LinEq1:  Iter= 12 NonCon=     1 RMS=1.69D-10 Max=1.69D-09 NDo=     1
 LinEq1:  Iter= 13 NonCon=     0 RMS=2.62D-11 Max=2.96D-10 NDo=     1
 Linear equations converged to 1.000D-10 1.000D-09 after    13 iterations.
 End of Minotr F.D. properties file   721 does not exist.
 End of Minotr F.D. properties file   722 does not exist.
 End of Minotr F.D. properties file   788 does not exist.
 Calling FoFJK, ICntrl=  10002127 FMM=F ISym2X=1 I1Cent= 0 IOpClX= 0 NMat=1 NMatS=1 NMatT=0.
 ***** Axes restored to original set *****
 -------------------------------------------------------------------
 Center     Atomic                   Forces (Hartrees/Bohr)
 Number     Number              X              Y              Z
 -------------------------------------------------------------------
      1        6          -0.000560184    0.000536821    0.001893763
      2        6          -0.000375016   -0.000056418   -0.000419142
      3        1           0.000246401    0.000015320   -0.000320552
      4        1           0.000191069   -0.000454760   -0.000462734
      5        7           0.000300406   -0.000755342   -0.000147916
      6        1           0.000358565    0.000178248   -0.000332020
      7        6           0.000367936    0.000074219    0.000422628
      8        1          -0.000071111    0.000178801    0.000035014
      9        6          -0.000191318    0.001352759   -0.001523732
     10        1          -0.000339037   -0.000227349    0.000322405
     11        1          -0.000149711   -0.000258439    0.000272943
     12        1           0.000221999   -0.000583861    0.000259344
 -------------------------------------------------------------------
 Cartesian Forces:  Max     0.001893763 RMS     0.000565685

 GradGradGradGradGradGradGradGradGradGradGradGradGradGradGradGradGradGrad
 Berny optimization.
 Using GEDIIS/GDIIS optimizer.
 FormGI is forming the generalized inverse of G from B-inverse, IUseBI=4.
 Internal  Forces:  Max     0.001246611 RMS     0.000434447
 Search for a local minimum.
 Step number   4 out of a maximum of   52
 All quantities printed in internal units (Hartrees-Bohrs-Radians)
 Mixed Optimization -- En-DIIS/RFO-DIIS
 Update second derivatives using D2CorX and points    1    2    3    4
 DE= -2.84D-04 DEPred=-2.54D-04 R= 1.12D+00
 TightC=F SS=  1.41D+00  RLast= 8.99D-02 DXNew= 8.4853D-01 2.6972D-01
 Trust test= 1.12D+00 RLast= 8.99D-02 DXMaxT set to 5.05D-01
 ITU=  1  0  1  0
 Use linear search instead of GDIIS.
     Eigenvalues ---    0.01811   0.02073   0.02073   0.02535   0.02552
     Eigenvalues ---    0.02947   0.02949   0.02981   0.03170   0.14055
     Eigenvalues ---    0.15999   0.16000   0.16000   0.16000   0.16007
     Eigenvalues ---    0.16068   0.21837   0.22000   0.33989   0.34869
     Eigenvalues ---    0.35058   0.35441   0.35460   0.35747   0.44643
     Eigenvalues ---    0.49765   0.50757   0.58320   0.58858   0.63772
 RFO step:  Lambda=-1.41091620D-04 EMin= 1.81081951D-02
 Quartic linear search produced a step of -0.14035.
 Iteration  1 RMS(Cart)=  0.02323368 RMS(Int)=  0.00029553
 Iteration  2 RMS(Cart)=  0.00033771 RMS(Int)=  0.00003120
 Iteration  3 RMS(Cart)=  0.00000009 RMS(Int)=  0.00003120
 ClnCor:  largest displacement from symmetrization is 5.06D-13 for atom     7.
 Variable       Old X    -DE/DX   Delta X   Delta X   Delta X     New X
                                 (Linear)    (Quad)   (Total)
    R1        2.56721   0.00002   0.00187  -0.00088   0.00099   2.56820
    R2        2.05458  -0.00009   0.00016  -0.00165  -0.00149   2.05309
    R3        2.06018   0.00013   0.00036   0.00040   0.00075   2.06094
    R4        2.63166  -0.00006   0.00196  -0.00046   0.00150   2.63316
    R5        2.06875  -0.00006   0.00057  -0.00107  -0.00050   2.06825
    R6        2.63166  -0.00006   0.00196  -0.00046   0.00150   2.63316
    R7        1.91027  -0.00020  -0.00066   0.00008  -0.00058   1.90969
[...]
 077329,-0.00006475,0.00016873,-0.00004183,0.00147203,0.00062990,0.0001
 8886,0.00037659,-0.00020890,0.00053699,-0.00103248,-0.00013828,0.00010
 353,0.00007922,-0.00008418,-0.00497025,0.00768641,-0.00507423,-0.00009
 754,-0.00016712,-0.00011325,0.61540999,-0.18839739,0.23340569,-0.00009
 927,-0.00018769,0.00007333,0.00000842,0.00013697,-0.00001416,0.0000551
 0,0.00011811,-0.00007785,0.00001805,0.00003254,-0.00000332,0.00011964,
 0.00004202,-0.00010071,-0.00003583,-0.00000320,0.00003971,-0.00140020,
 0.00278612,-0.00221942,0.00000278,0.00001104,0.00004360,-0.00103509,0.
 00020232,0.00079886,0.00170762,-0.00010950,0.00004605,0.00007761,0.000
 00665,-0.00002836,-0.00007541,0.00019797,-0.00009065,0.00005442,0.0000
 1007,-0.00001629,-0.00002554,-0.00000069,0.00002922,-0.00013398,-0.000
 01416,-0.00003746,0.00000480,0.00384505,-0.00102313,0.00266343,-0.0000
 4760,-0.00000715,-0.00004485,-0.00005532,-0.00041583,0.00071951,-0.003
 23070,0.00069575,0.00012654,-0.00001796,-0.00012189,-0.00010195,0.0000
 8432,0.00002856,-0.00002325,-0.00004359,0.00012740,-0.00001868,0.00000
 187,0.00001768,-0.00012927,-0.00009043,0.00000715,0.00003231,0.0000180
 1,-0.00001699,-0.00149801,0.00138801,0.00108218,0.00000382,0.00002859,
 -0.00000230,0.00062076,0.00102273,-0.00011521,0.00218345,-0.00219665,-
 0.00071104,0.00042670,0.00035651,0.00116583,-0.00028545,-0.00053690,-0
 .00010954,-0.00077813,-0.00069045,0.00101824,0.00061703,0.00030724,-0.
 00028670,-0.00109944,-0.00024674,-0.00054491,0.00013778,0.00002004,-0.
 00004368,0.00525553,-0.00548896,0.00081956,-0.00006114,0.00003686,-0.0
 0001527,-0.36532373,0.63442707,-0.34695803,0.00088471,-0.00009751,-0.0
 0079732,0.35930063,-0.00129888,0.00072369,-0.00087233,-0.00025637,0.00
 029636,0.00022656,0.00133074,-0.00232934,0.00140272,0.00011264,-0.0001
 9169,-0.00069056,0.00028504,0.00055773,0.00126646,0.00009979,-0.000119
 64,-0.00008564,-0.00058548,0.00129350,-0.00088089,0.00001418,-0.000086
 76,-0.00002302,0.63355188,-0.36321681,0.34164944,0.00028873,0.00060753
 ,-0.00024057,-0.62849631,0.36583556,0.00003686,0.00115578,0.00050845,0
 .00008181,-0.00011605,-0.00047521,0.00239855,-0.00107272,0.00020254,-0
 .00041836,-0.00045319,0.00020095,-0.00017790,0.00062530,-0.00058514,0.
 00001088,-0.00018351,0.00007370,0.00415893,-0.00688748,0.00191338,-0.0
 0003003,0.00000400,-0.00006247,-0.34755500,0.34273686,0.08072903,-0.00
 053368,-0.00071457,0.00034238,0.34111988,-0.33508132,-0.08131766,-0.00
 017916,-0.00066058,0.00018104,-0.00015647,0.00003816,-0.00007964,0.000
 29114,0.00069361,-0.00042055,0.00002325,0.00008532,0.00008547,0.000030
 51,0.00042684,-0.00006083,0.00001932,0.00003064,-0.00000276,0.00111056
 ,0.00206285,0.00252459,0.00019386,0.00007387,0.00012789,-0.03995867,-0
 .09442587,-0.26500461,-0.00022594,-0.00050425,-0.00039839,0.00092551,-
 0.00504597,0.00090808,0.03792609,-0.00052013,0.00051406,0.00018932,0.0
 0021378,-0.00032468,0.00008640,0.00049932,-0.00007760,-0.00013875,0.00
 008956,-0.00019891,-0.00002691,-0.00025763,0.00052343,-0.00017033,0.00
 000814,-0.00001697,-0.00002783,0.00018217,-0.00095561,-0.00055676,0.00
 000871,0.00001328,-0.00006900,-0.09766219,0.06306633,-0.16104927,-0.00
 019626,0.00024034,0.00004567,0.00040915,-0.00337014,-0.00001309,0.0972
 2537,-0.05941353,0.00027624,0.00001758,-0.00034622,0.00004165,-0.00012
 806,-0.00010645,-0.00055362,0.00009801,0.00041230,0.00008834,-0.000032
 03,0.00008737,-0.00053268,0.00066213,0.00011816,-0.00001802,-0.0000003
 7,0.00001655,0.00125118,0.00173064,0.00291026,0.00008371,0.00001056,0.
 00024061,-0.26721862,-0.15708940,-0.31017443,-0.00018982,-0.00032876,-
 0.00063792,0.00463194,-0.00667083,-0.00152995,0.26213970,0.16173053,0.
 30900972,-0.18331657,0.08490855,0.59707508,0.31318417,0.77894460,0.522
 80782,-0.00174370,-0.00255090,-0.00012876,-0.00268797,-0.00850117,0.00
 512805,-0.00489942,0.00314770,-0.00800281,-0.00419901,0.00237052,-0.00
 651028,-0.00148080,-0.00166312,-0.00280853,0.29762334,-0.12026123,-0.1
 0388047,0.00076321,0.00584552,0.00339048,-0.29504459,-0.11937922,-0.66
 943050,-0.81821970,-0.00072045,0.00410286,0.00107070,0.11363464,0.6625
 2290,-0.10326568,-0.81931420,-0.37005109,-0.00110201,0.00910889,0.0061
 1996,0.10449340,0.80758179,0.36193151,-0.11110250,0.03941958,-0.206581
 10,0.00157068,-0.00066668,0.00144494,-0.00305240,0.00531274,0.00183414
 ,0.11257375,0.04328042,0.07005038,0.04634576,-0.00015573,-0.00058297,-
 0.00060857,0.00088570,-0.00082931,0.00161683,-0.04377803,-0.06939705,-
 0.20395117,0.04162042,-0.14140000,0.00179234,-0.00121886,0.00138128,-0
 .00117331,0.00701870,0.00174957,0.20400398,-0.04729530,0.13875073,-0.0
 0002232,0.00003010,0.00075447,0.00061100,0.00037798,0.00028074,-0.0008
 7041,-0.00069892,-0.00088633,0.00024220,0.00087304,0.00019068,-0.00056
 572,0.00096592,-0.00077404,0.00108476,0.00039068,0.00087316,0.00062434
 ,-0.00106181,-0.00004134,-0.00097084,-0.00030348,0.00041010,-0.0004799
 3,0.00020506,-0.00109957,0.00140817,-0.00004968,0.00103350,0.00027407,
 0.00059275,0.00143800,-0.00114488,-0.00051945,-0.00227725,-0.00060412,
 0.00095630,0.00047327,0.00022879,-0.00004085,-0.00050389,-0.00058249,-
 0.00099504,0.00076431,0.00189742,0.00012628,0.00052748,0.00066402,0.00
 049181,-0.00103475,-0.00040352,-0.00001220,-0.00034222,0.00012935,-0.0
 0004210,-0.00051309,-0.00165901,-0.00042795,-0.00095026,0.00003360,-0.
 00141787,-0.00134400,-0.00370070,0.00103156,0.00066024,0.00049363,0.00
 011926,0.00015238,0.00033837,0.00029289,0.00015893,0.00010696,0.000696
 87,0.00103872,0.00114024,-0.00065010,-0.00080897,-0.00051218,-0.001829
 81,-0.00033857,-0.00066536,-0.00016808,0.00085574,-0.00025288,0.000180
 11,-0.00031830,-0.00029051,-0.00029495,-0.00002965,0.00058299,0.002756
 26,0.00084248,0.00082195,0.00157810,-0.00071031,-0.00067183,-0.0004852
 6,-0.00014880,0.00053197,-0.00095256,0.00137741,-0.00020219,-0.0009317
 7,-0.00020493,0.00127691,-0.00040632,0.00051822,0.00008592,-0.00041048
 ,0.00002218,-0.00253607,0.00004909,-0.00018465,-0.00162068,-0.00017989
 ,0.00001776,0.00034615,0.00032889,0.00040626,0.00144712,-0.00005344,-0
 .00056694,-0.00007340,-0.00039315,0.00062432,-0.00045315,0.00008018,0.
 00002547,0.00022341,0.00295319,-0.00801076,-0.00174755,0.00024107,0.00
 031338,0.00005335,-0.00001164,-0.00078107,0.00225165,-0.00012024,0.001
 54719,0.00039282,-0.00114803,-0.00085411,0.00055294,-0.00047951,0.0010
 3083,0.00035579,-0.00037696,0.00001912,-0.00135407,-0.00208857,-0.0029
 8028,0.00012298,0.00008906,-0.00017309,-0.00017370,-0.00008150,0.00003
 358,-0.00011257,-0.00003680,-0.00001921,0.00007654,0.00009306,0.000121
 31,-0.00030591,-0.00021173,0.00003304,-0.00001220,0.00006504,0.0000362
 0,-0.00010347,0.00004170,0.00020382,0.00036085,0.00013039,0.00009083,0
 .00000071,0.00012705,-0.00015048,0.00022277,-0.00008393,-0.00006195,-0
 .00006355,0.00001348,-0.00001703,-0.00001556,-0.00021522,0.00010110,0.
 00011544,-0.00003021,0.00000293,-0.00003364,-0.00016463,-0.00017225,-0
 .00015130,0.00009815,0.00021973,-0.00015269,-0.00003974,0.00010576,0.0
 0018310,-0.00003510,-0.00004912,-0.00005147,-0.00000672,-0.00018462,0.
 00006685,0.00008161,0.00016778,0.00002921,0.00011950,-0.00034386,-0.00
 003029,0.00008436,0.00001729,0.00006742,0.00010546,-0.00009467,-0.0001
 0380,-0.00007108,0.00032296,-0.00217530,0.00018546,0.00405767,0.000811
 41,0.00158802,-0.00071220,-0.00247719,-0.00032602,-0.00773307,0.000583
 43,0.00031638,-0.00053651,0.00044237,-0.00052992,0.00096244,0.00001586
 ,0.00028364,0.00005424,-0.00482136,0.00112219,-0.00145460,0.00018166,0
 .00001953,-0.00015116,0.45137045,-0.00290701,-0.00102898,-0.00058211,0
 .00005877,-0.00017565,-0.00159788,0.00373656,0.00170126,0.00322942,0.0
 0071000,-0.00065327,-0.00039486,0.00041789,-0.00093653,0.00029797,0.00
 011152,-0.00023601,-0.00011312,-0.00483797,0.00616279,0.00041592,0.000
 06000,0.00007062,-0.00010111,-0.66877923,0.37456877,0.00194654,0.00320
 343,-0.00082495,-0.00175458,0.00026348,0.00032152,-0.00496378,-0.00173
 848,-0.00359192,-0.00026740,-0.00087618,0.00027149,0.00158786,-0.00085
 630,0.00072529,-0.00006317,0.00009765,0.00011827,-0.00550562,0.0077016
 1,-0.00446077,-0.00012417,-0.00013951,0.00006710,0.57548225,-0.2952612
 4,0.11062017,0.00009689,0.00018651,0.00008724,-0.00007689,-0.00021771,
 -0.00004857,-0.00015480,-0.00010185,-0.00018934,-0.00008761,-0.0000611
 7,0.00008917,0.00016830,0.00024469,-0.00027157,0.00002990,0.00002334,-
 0.00004464,-0.00068319,0.00164692,-0.00158844,0.00001616,0.00003247,0.
 00004719,-0.00131278,0.00043796,0.00084896,0.00084748,0.00001471,-0.00
 026351,-0.00025023,0.00027891,0.00008215,0.00050717,-0.00018413,0.0002
 1387,-0.00004049,-0.00010559,0.00021155,0.00014780,-0.00008963,0.00014
 741,-0.00036778,-0.00004752,0.00009177,-0.00004982,0.00318693,-0.00044
 474,0.00254909,-0.00006507,-0.00000797,-0.00008206,-0.00012361,-0.0006
 8747,0.00057838,-0.00227684,0.00016042,-0.00003018,-0.00003988,0.00006
 491,0.00029149,-0.00010017,0.00012897,-0.00024539,0.00005984,-0.000315
 23,0.00005883,0.00020202,0.00001560,-0.00049910,0.00003255,-0.00006010
 ,-0.00009291,0.00003667,-0.00000800,-0.00053877,0.00068512,0.00134209,
 -0.00001914,0.00003897,-0.00000091,0.00046350,0.00125342,-0.00033744,0
 .00162110,-0.00148464,-0.00078171,-0.00006846,-0.00318710,-0.00673997,
 0.00064257,-0.00108302,0.00142248,0.00212348,0.00286143,0.00644706,-0.
 00011401,0.00005852,0.00002863,-0.00170415,0.00030316,-0.00123098,-0.0
 0017524,-0.00008013,-0.00020017,0.00593487,-0.00687340,0.00104222,-0.0
 0016313,0.00002225,-0.00004042,-0.41979919,0.73254509,-0.39971214,0.00
 127267,-0.00023426,-0.00078701,0.41019747,0.00087509,0.00085681,-0.000
 84455,0.00019634,0.00035407,0.00124891,-0.00336927,0.00034071,-0.00282
 950,-0.00035902,0.00046046,-0.00005312,-0.00007204,0.00025338,0.000442
 58,-0.00016009,0.00022277,-0.00000547,-0.00029377,0.00230161,0.0003515
 1,-0.00002366,-0.00004362,0.00002122,0.73165860,-0.41787661,0.39479325
 ,0.00030880,0.00044463,-0.00053410,-0.72382180,0.41523778,-0.00396705,
 -0.00581145,-0.00515520,0.00229535,-0.00031582,0.00146810,0.00219632,0
 .00479064,0.00440273,-0.00025510,0.00045700,-0.00010576,-0.00148285,0.
 00091114,-0.00172401,-0.00025458,0.00009204,-0.00030402,0.00552540,-0.
 00770601,0.00275202,-0.00007103,0.00007667,-0.00015261,-0.40031717,0.3
 9589506,0.09581299,-0.00041635,-0.00120001,0.00045794,0.39589850,-0.38
 590217,-0.09601581,0.00034617,0.00059690,-0.00063417,-0.00094220,-0.00
 005014,-0.00051034,0.00000594,-0.00008478,0.00007837,-0.00008438,-0.00
 056823,-0.00001796,0.00059838,0.00044584,0.00033990,0.00000998,-0.0001
 7618,0.00012990,0.00036649,0.00127772,0.00129204,0.00011279,0.00005066
 ,0.00013607,-0.02281936,-0.06155357,-0.16747472,-0.00011611,-0.0003538
 9,-0.00022241,0.00185312,-0.00493917,0.00084856,0.02066919,0.00099116,
 -0.00056920,0.00000726,0.00082538,-0.00030216,0.00117966,-0.00050249,0
 .00041502,-0.00025911,-0.00030883,0.00076172,0.00040575,-0.00072798,0.
 00028310,-0.00108107,-0.00021949,0.00017706,-0.00001480,0.00076458,-0.
 00015889,0.00081867,-0.00002826,-0.00003191,-0.00007635,-0.06541506,0.
 03909108,-0.10776611,-0.00022311,0.00005191,-0.00014979,-0.00051075,-0
 .00255197,-0.00128711,0.06535484,-0.03716576,-0.00036577,-0.00047497,0
 .00042513,0.00008861,0.00010880,-0.00037030,-0.00020720,0.00025099,-0.
 00018658,0.00015903,0.00008844,-0.00013155,-0.00046591,0.00035009,0.00
 023785,0.00010044,0.00003809,-0.00004539,0.00095187,0.00143290,0.00216
 626,0.00008249,0.00002007,0.00014491,-0.17011536,-0.10304146,-0.198721
 75,-0.00013475,-0.00030740,-0.00050612,0.00387180,-0.00668856,-0.00143
 635,0.16603476,0.10822300,0.19842388,-0.00226213,0.00134055,-0.0027433
 5,-0.00051579,0.00062165,-0.00134782,0.00263555,-0.00222579,0.00214066
 ,-0.01212361,-0.00014730,0.00185837,0.00124418,0.00668341,-0.00710625,
 0.00354984,-0.00130958,0.00316457,-0.00950272,0.00389392,-0.00973821,-
 0.00017763,-0.00046086,0.00011845,-0.00044415,0.00011305,-0.00029031,0
 .00017653,-0.00046632,0.00034463,0.00000527,0.00059010,-0.00037802,0.0
 0056938,0.00004680,-0.00001484,0.00012769,-0.00000297,-0.00038205,0.00
 002385,-0.00001000,-0.00012221,0.00002771,-0.00005359,0.00018573,0.000
 34434,-0.00028847,-0.00065816,0.00049909,0.00067681,-0.00006035,0.0001
 2618,0.00007624,-0.00004709,-0.00022591,-0.00013819,0.00096936,-0.0000
 0490,0.00037724,-0.00106129,-0.00090255,0.00009898,-0.00001912,-0.0000
 1805,0.00021432,-0.00031419,-0.00056061,-0.00019032,-0.00008669,-0.000
 26606,-0.00052122,0.00024694,-0.00001770,-0.00006056,0.00012753,0.0003
 3918,0.00031052,0.00024811,-0.00103287,0.00196650,-0.00120685,0.018711
 35,-0.01589759,0.01085354,0.00015748,-0.00063768,0.00013800,-0.0012588
 4,-0.00089078,0.00116059,-0.28449796,0.00123175,0.00035015,0.00103555,
 0.00193438,-0.00816301,-0.00391362,-0.00022347,0.00036230,0.00017693,-
 0.00066513,-0.00053117,0.00067198,-2.17347145,4.30344043,-0.00169332,0
 .00194527,0.00027306,0.02300720,-0.02574748,0.01165810,0.00040984,-0.0
 0032253,-0.00001592,0.00132270,0.00039264,-0.00083149,-0.40181076,1.07
 487054,-0.92658495,0.00016860,0.00043413,-0.00044871,0.00054175,-0.001
 33709,-0.00041369,0.00009383,-0.00001965,-0.00005526,-0.00024136,-0.00
 012745,0.00026304,-0.00050521,0.00039743,-0.00278786,-0.00147422,0.000
 61105,-0.00013807,0.00012594,-0.00076468,0.00089417,-0.00041685,-0.000
 05495,0.00011665,-0.00007657,-0.00025952,-0.00000156,0.00004066,0.0002
 6554,0.00178969,0.00018339,0.00139500,-0.00001297,-0.00033905,-0.00008
 039,0.00030952,-0.00000885,-0.00113569,-0.00065162,-0.00007832,-0.0000
 3465,0.00000903,0.00017253,0.00020485,-0.00017773,-0.00288391,0.000352
 80,-0.00129102,-0.00061245,0.00183411,0.00030169,0.00047027,-0.0002700
 4,0.00095851,-0.00130676,-0.00126996,-0.00216830,0.00000947,0.00011225
 ,-0.00003997,0.00032925,-0.00000410,-0.00026202,0.00056380,0.00565875,
 0.00331949,-0.00039228,0.00000295,0.00011596,-0.00447983,-0.00028957,-
 0.00093108,-0.00067009,0.00085128,-0.00012168,0.00111818,0.00008773,-0
 .00009248,-0.00002763,0.00012655,0.00025206,-0.00004188,0.02349061,-0.
 00181471,0.02684528,-0.00032852,-0.00033355,-0.00030042,-0.00240728,-0
 .00974649,0.00095138,-0.00065523,0.00025734,-0.00072703,-0.00146126,-0
 .00214710,-0.00005700,0.00000285,0.00003658,-0.00017450,-0.00020172,0.
 00019304,0.01551438,0.00501733,0.02346759,-0.00011146,0.00010516,-0.00
 054783,-0.00628054,-0.00921282,-0.01477679,-0.00005421,-0.00036460,0.0
 0001277,-0.00795118,0.01017419,-0.00233435,0.00005673,0.00037113,-0.00
 024571,0.00045986,0.00042867,-0.00067883,0.26789103,2.16753732,0.37992
 524,0.00168177,-0.00109511,0.00352337,0.00352354,-0.02183592,-0.010137
 89,-0.26451730,-0.00215765,-0.00002528,-0.00248064,-0.00820695,0.01484
 262,0.00034085,0.00036137,-0.00031595,-0.00008918,0.00008306,0.0007697
 9,-0.00022908,2.16753367,-4.29649283,-1.07598442,-0.00039106,-0.002320
 11,-0.00082988,-0.00345241,0.01082243,0.00341316,-2.15695238,4.2734789
 6,-0.00121869,-0.00027675,-0.00194242,-0.01487093,0.02282788,-0.002987
 49,-0.00025245,-0.00007808,0.00010272,-0.00091483,0.00019354,0.0002675
 6,0.37992111,-1.07598017,0.89688868,0.00400240,-0.00168987,0.00193734,
 0.00241209,-0.01907512,-0.01043834,-0.37034986,1.07223730,-0.88629304,
 -0.00005659,-0.00002152,-0.00054863,-0.00035494,0.00070926,0.00061797,
 -0.00001872,-0.00009796,0.00006889,-0.00000550,0.00006766,-0.00001571,
 0.00114088,-0.00062210,-0.00029264,0.00004777,-0.00014840,0.00012134,0
 .00168337,-0.00107955,0.00169197,-0.00166039,0.00154351,-0.00065343,-0
 .00114147,-0.00005657,0.00032019,-0.00011018,0.00069074,-0.00063669,0.
 00073307,0.00006431,-0.00002684,0.00014424,0.00003593,-0.00000974,0.00
 000670,-0.00134561,-0.00041045,-0.00264240,-0.00009772,0.00000895,-0.0
 0002181,0.00099080,0.00214966,0.00296310,-0.00025063,0.00053790,0.0002
 3458,-0.00000338,-0.00308305,-0.00057333,-0.00006537,-0.00037072,0.000
 60661,0.00074601,0.00079596,0.00017664,-0.00005156,0.00005728,-0.00003
 679,0.00004568,0.00002937,-0.00080780,-0.00175154,-0.00114370,0.000155
 98,-0.00008371,-0.00000124,0.00312113,0.00042288,0.00383206,-0.0018783
 7,0.00244081,-0.00089994,0.00000648,-0.00141732,-0.00213479,-0.0000733
 6,-0.00000515,0.00007131,-0.00054109,0.00017894,0.00005151,-0.00002481
 ,-0.00001158,0.00000322,0.00003625,0.00001899,-0.00004057,0.00032228,-
 0.00071957,-0.00253866,0.00008973,0.00001650,0.00003718,-0.00052343,0.
 00050640,-0.00046173,-0.00030738,0.00126807,0.00270064,0.00047625,0.00
 024296,-0.00020035,0.00076537,0.00004588,0.00005206,0.00018352,-0.0001
 4668,-0.00028179,-0.00004031,-0.00000394,-0.00001474,0.00000829,0.0000
 4760,-0.00005002,-0.00003067,-0.00058647,0.00150130,-0.00105428,0.0000
 0382,0.00005282,-0.00000618,-0.00007041,0.00126581,0.00068448,0.001969
 88,-0.00162357,0.00253570,0.00007112,-0.00024074,-0.00061044,-0.001266
 37,-0.00079922,0.00010598,0.00012120,0.00007731,-0.00016961,0.00035841
 ,-0.00044695,0.00000852,-0.00000137,-0.00002338,-0.00002108,-0.0000657
 7,0.00000968,-0.00244715,-0.00122593,-0.00183347,0.00002861,0.00000913
 ,0.00011104,-0.00085661,0.00141054,0.00005112,0.00317979,0.00167869,0.
 00322904,-0.00031990,-0.00041219,0.00010530,0.00031594,-0.00195969,-0.
 00115465,-0.00000535,-0.00011367,0.00007172,0.00004269,0.00007307,-0.0
 0002617,0.00002762,0.00003069,-0.00000812,0.00001411,0.00001079,0.0000
 0531,-0.00012905,-0.00028662,0.00001901,-0.00002715,-0.00001152,0.0000
 0037,-0.00004383,0.00010386,0.00019803,0.00018927,0.00021288,-0.000191
 44,-0.00038215,-0.00021930,0.00001905,0.00004018,0.00004039,-0.0000806
 4,0.00013885,0.00004833,-0.00003066,0.00012466,0.00004609,-0.00011725,
 -0.00009522,-0.00002425,0.00003443,-0.00003850,0.00000024,0.00000845,-
 0.00000436,0.00011603,0.00046456,0.00066367,-0.00000164,-0.00001259,0.
 00001245,-0.00036153,-0.00050643,-0.00069433,0.00020446,-0.00036144,-0
 .00031386,-0.00021726,0.00039518,0.00038365,0.00000834,0.00013295,0.00
 001606,0.00009139,0.00001629,0.00018290,-0.00007034,0.00005019,-0.0000
 4472,-0.00006165,0.00000748,-0.00004437,0.00002557,0.00001017,-0.00000
 075,0.00000787,0.00001957,0.00029793,0.00018046,0.00018063,0.00000727,
 0.00000007,-0.00002398,-0.00012651,-0.00013179,-0.00039170,-0.00019648
 ,-0.00030428,0.00001612,0.00002079,0.00039794,-0.00023276,-0.00010247,
 0.00005384,0.00004102,0.00002657,-0.00001821,0.00020174,0.00004338,0.0
 0000890,0.00000471,0.00029128,0.00004324,-0.00027698,0.00001746,0.0000
 0598,0.00000681,-0.00007747,-0.00005615,0.00007338,-0.00136290,-0.0007
 7130,0.00111977,0.00001678,0.00004312,-0.00004815,0.00016639,0.0007743
 9,-0.00040565,0.00068827,0.00015789,-0.00058461,0.00027154,-0.00005157
 ,-0.00058923,-0.00026001,-0.00010481,0.00025614,0.00013482,0.00008981,
 -0.00002013,0.00007047,-0.00002194,-0.00002633,-0.00007493,0.00017084,
 0.00027082,0.00002270,-0.00000477,0.00000398,-0.00001299,-0.00004763,-
 0.00001255,0.00004826,-0.00054278,-0.00049628,0.00085030,0.00007272,-0
 .00004342,0.00000482,0.00107102,-0.00094351,0.00003938,-0.00018702,0.0
 0068748,-0.00061514,-0.00020144,0.00099566,-0.00005912,-0.00023753,0.0
 0000513,0.00007093,0.00006803,-0.00002349,-0.00007949,-0.00013951,-0.0
 0041751,-0.00001697,-0.00003717,-0.00000228,-0.00018844,-0.00013307,0.
 00022050,-0.00000101,-0.00000074,0.00001452,0.00007915,0.00003790,-0.0
 0004589,0.00127092,0.00056567,-0.00076751,-0.00002787,-0.00003148,0.00
 002479,-0.00019323,-0.00033711,0.00046401,-0.00081968,-0.00019331,0.00
 011978,-0.00069711,0.00012427,-0.00003681,0.00016397,0.00023574,-0.000
 16606,-0.00003368,-0.00003600,0.00012153,0.00046395,-0.00019472,0.0000
 5342\\@
 The archive entry for this job was punched.


 AS FAR AS THE LAWS OF MATHEMATICS REFER TO REALITY,
 THEY ARE NOT CERTAIN; AND AS FAR AS THEY ARE CERTAIN,
 THEY DO NOT REFER TO REALITY.

                                         -- ALBERT EINSTEIN
 Job cpu time:       4 days 19 hours 10 minutes 59.1 seconds.
 Elapsed time:       0 days  2 hours 55 minutes 38.2 seconds.
 File lengths (MBytes):  RWF=   4247 Int=      0 D2E=      0 Chk=     47 Scr=      1
 Normal termination of Gaussian 16 at Fri Apr  4 17:47:19 2025.
