 Entering Gaussian System, Link 0=g16
 Input=divinylaminett_mp2_avdz_opt_anharm.gjf
 Output=divinylaminett_mp2_avdz_opt_anharm.log
 Initial command:
 /sw/contrib/chem-src/g16/c01/g16/l1.exe "/scr/Gau-41376.inp" -scrdir="/scr/"
 Entering Link 1 = /sw/contrib/chem-src/g16/c01/g16/l1.exe PID=     41377.
  
 Copyright (c) 1988-2019, Gaussian, Inc.  All Rights Reserved.
  
 This is part of the Gaussian(R) 16 program.  It is based on
 the Gaussian(R) 09 system (copyright 2009, Gaussian, Inc.),
 the Gaussian(R) 03 system (copyright 2003, Gaussian, Inc.),
 the Gaussian(R) 98 system (copyright 1998, Gaussian, Inc.),
 the Gaussian(R) 94 system (copyright 1995, Gaussian, Inc.),
 the Gaussian 92(TM) system (copyright 1992, Gaussian, Inc.),
 the Gaussian 90(TM) system (copyright 1990, Gaussian, Inc.),
 the Gaussian 88(TM) system (copyright 1988, Gaussian, Inc.),
 the Gaussian 86(TM) system (copyright 1986, Carnegie Mellon
 University), and the Gaussian 82(TM) system (copyright 1983,
 Carnegie Mellon University). Gaussian is a federally registered
 trademark of Gaussian, Inc.
  
 This software contains proprietary and confidential information,
 including trade secrets, belonging to Gaussian, Inc.
  
 This software is provided under written license and may be
 used, copied, transmitted, or stored only in accord with that
 written license.
  
 The following legend is applicable only to US Government
 contracts under FAR:
  
                    RESTRICTED RIGHTS LEGEND
  
 Use, reproduction and disclosure by the US Government is
 subject to restrictions as set forth in subparagraphs (a)
 and (c) of the Commercial Computer Software - Restricted
 Rights clause in FAR 52.227-19.
  
 Gaussian, Inc.
 340 Quinnipiac St., Bldg. 40, Wallingford CT 06492
  
  
 ---------------------------------------------------------------
 Warning -- This program may not be used in any manner that
 competes with the business of Gaussian, Inc. or will provide
 assistance to any competitor of Gaussian, Inc.  The licensee
 of this program is prohibited from giving any competitor of
 Gaussian, Inc. access to this program.  By using this program,
 the user acknowledges that Gaussian, Inc. is engaged in the
 business of creating and licensing software in the field of
 computational chemistry and represents and warrants to the
 licensee that it is not a competitor of Gaussian, Inc. and that
 it will not use this program in any manner prohibited above.
 ---------------------------------------------------------------
  

 Cite this work as:
 Gaussian 16, Revision C.01,
 M. J. Frisch, G. W. Trucks, H. B. Schlegel, G. E. Scuseria, 
 M. A. Robb, J. R. Cheeseman, G. Scalmani, V. Barone, 
 G. A. Petersson, H. Nakatsuji, X. Li, M. Caricato, A. V. Marenich, 
 J. Bloino, B. G. Janesko, R. Gomperts, B. Mennucci, H. P. Hratchian, 
 J. V. Ortiz, A. F. Izmaylov, J. L. Sonnenberg, D. Williams-Young, 
 F. Ding, F. Lipparini, F. Egidi, J. Goings, B. Peng, A. Petrone, 
 T. Henderson, D. Ranasinghe, V. G. Zakrzewski, J. Gao, N. Rega, 
 G. Zheng, W. Liang, M. Hada, M. Ehara, K. Toyota, R. Fukuda, 
 J. Hasegawa, M. Ishida, T. Nakajima, Y. Honda, O. Kitao, H. Nakai, 
 T. Vreven, K. Throssell, J. A. Montgomery, Jr., J. E. Peralta, 
 F. Ogliaro, M. J. Bearpark, J. J. Heyd, E. N. Brothers, K. N. Kudin, 
 V. N. Staroverov, T. A. Keith, R. Kobayashi, J. Normand, 
 K. Raghavachari, A. P. Rendell, J. C. Burant, S. S. Iyengar, 
 J. Tomasi, M. Cossi, J. M. Millam, M. Klene, C. Adamo, R. Cammi, 
 J. W. Ochterski, R. L. Martin, K. Morokuma, O. Farkas, 
 J. B. Foresman, and D. J. Fox, Gaussian, Inc., Wallingford CT, 2019.
 
 ******************************************
 Gaussian 16:  EM64L-G16RevC.01  3-Jul-2019
                 4-Apr-2025 
 ******************************************
 %nprocshared=40
 Will use up to   40 processors via shared memory.
 %mem=50gb
 ----------------------------------------------
 # MP2/aug-cc-pVDZ opt freq=(vibrot,anharmonic)
 ----------------------------------------------
 1/18=20,19=15,38=1,80=1/1,3;
 2/9=110,12=2,17=6,18=5,40=1/2;
 3/5=16,7=10,11=9,25=1,30=1,71=1/1,2,3;
 4//1;
 5/5=2,38=5/2;
 8/6=4,10=1/1;
 9/15=2,16=-3/6;
 10/5=1/2;
 6/7=2,8=2,9=2,10=2/1;
 7/12=2/1,2,3,16;
 1/18=20,19=15,80=1/3(2);
 2/9=110/2;
 99//99;
 2/9=110/2;
 3/5=16,7=10,11=9,25=1,30=1,71=1/1,2,3;
 4/5=5,16=3,69=1/1;
 5/5=2,38=5/2;
 8/6=4,10=1/1;
 9/15=2,16=-3/6;
 10/5=1/2;
 7/12=2/1,2,3,16;
 1/18=20,19=15,80=1/3(-8);
 2/9=110/2;
 6/7=2,8=2,9=2,10=2/1;
 99/9=10/99;
 ----
 blah
 ----
 Symbolic Z-matrix:
 Charge =  0 Multiplicity = 1
 C                    -0.19521  -1.4163   -1.69926 
 C                    -0.16898  -0.95405  -0.44681 
 H                     0.58471  -2.06248  -2.08569 
 H                    -1.00839  -1.15204  -2.36703 
 N                     0.7919   -1.20932   0.49119 
 H                    -0.9723   -0.3073   -0.09801 
 C                     0.84881  -0.75337   1.7785 
 H                     1.55609  -1.81058   0.1959 
 C                     1.80408  -1.02208   2.67196 
 H                     0.01564  -0.11252   2.06207 
 H                     2.65012  -1.6552    2.43009 
 H                     1.75425  -0.60731   3.67321 
 

 GradGradGradGradGradGradGradGradGradGradGradGradGradGradGradGradGradGrad
 Berny optimization.
 Initialization pass.
                           ----------------------------
                           !    Initial Parameters    !
                           ! (Angstroms and Degrees)  !
 --------------------------                            --------------------------
 ! Name  Definition              Value          Derivative Info.                !
 --------------------------------------------------------------------------------
 ! R1    R(1,2)                  1.3353         estimate D2E/DX2                !
 ! R2    R(1,3)                  1.084          estimate D2E/DX2                !
 ! R3    R(1,4)                  1.0849         estimate D2E/DX2                !
 ! R4    R(2,5)                  1.3669         estimate D2E/DX2                !
 ! R5    R(2,6)                  1.0887         estimate D2E/DX2                !
 ! R6    R(5,7)                  1.3669         estimate D2E/DX2                !
 ! R7    R(5,8)                  1.0162         estimate D2E/DX2                !
 ! R8    R(7,9)                  1.3353         estimate D2E/DX2                !
 ! R9    R(7,10)                 1.0887         estimate D2E/DX2                !
 ! R10   R(9,11)                 1.084          estimate D2E/DX2                !
 ! R11   R(9,12)                 1.0849         estimate D2E/DX2                !
 ! A1    A(2,1,3)              121.7745         estimate D2E/DX2                !
 ! A2    A(2,1,4)              120.5126         estimate D2E/DX2                !
 ! A3    A(3,1,4)              117.7129         estimate D2E/DX2                !
 ! A4    A(1,2,5)              126.3582         estimate D2E/DX2                !
 ! A5    A(1,2,6)              119.4498         estimate D2E/DX2                !
 ! A6    A(5,2,6)              114.192          estimate D2E/DX2                !
 ! A7    A(2,5,7)              127.8273         estimate D2E/DX2                !
 ! A8    A(2,5,8)              116.0864         estimate D2E/DX2                !
 ! A9    A(7,5,8)              116.0864         estimate D2E/DX2                !
 ! A10   A(5,7,9)              126.3582         estimate D2E/DX2                !
 ! A11   A(5,7,10)             114.192          estimate D2E/DX2                !
 ! A12   A(9,7,10)             119.4498         estimate D2E/DX2                !
 ! A13   A(7,9,11)             121.7745         estimate D2E/DX2                !
 ! A14   A(7,9,12)             120.5126         estimate D2E/DX2                !
 ! A15   A(11,9,12)            117.7129         estimate D2E/DX2                !
 ! D1    D(3,1,2,5)              0.0002         estimate D2E/DX2                !
 ! D2    D(3,1,2,6)           -179.9999         estimate D2E/DX2                !
 ! D3    D(4,1,2,5)           -179.9999         estimate D2E/DX2                !
 ! D4    D(4,1,2,6)              0.0            estimate D2E/DX2                !
 ! D5    D(1,2,5,7)           -179.9992         estimate D2E/DX2                !
 ! D6    D(1,2,5,8)              0.0006         estimate D2E/DX2                !
 ! D7    D(6,2,5,7)              0.0009         estimate D2E/DX2                !
 ! D8    D(6,2,5,8)           -179.9993         estimate D2E/DX2                !
 ! D9    D(2,5,7,9)           -179.9995         estimate D2E/DX2                !
 ! D10   D(2,5,7,10)             0.0006         estimate D2E/DX2                !
 ! D11   D(8,5,7,9)              0.0007         estimate D2E/DX2                !
 ! D12   D(8,5,7,10)          -179.9992         estimate D2E/DX2                !
 ! D13   D(5,7,9,11)             0.0002         estimate D2E/DX2                !
 ! D14   D(5,7,9,12)          -179.9999         estimate D2E/DX2                !
 ! D15   D(10,7,9,11)         -179.9999         estimate D2E/DX2                !
 ! D16   D(10,7,9,12)            0.0            estimate D2E/DX2                !
 --------------------------------------------------------------------------------
 Trust Radius=3.00D-01 FncErr=1.00D-07 GrdErr=1.00D-07 EigMax=2.50D+02 EigMin=1.00D-04
 Number of steps in this run=     52 maximum allowed number of steps=    100.
 GradGradGradGradGradGradGradGradGradGradGradGradGradGradGradGradGradGrad

                          Input orientation:                          
 ---------------------------------------------------------------------
 Center     Atomic      Atomic             Coordinates (Angstroms)
 Number     Number       Type             X           Y           Z
 ---------------------------------------------------------------------
      1          6           0       -0.195207   -1.416297   -1.699260
      2          6           0       -0.168976   -0.954046   -0.446809
      3          1           0        0.584706   -2.062476   -2.085688
      4          1           0       -1.008392   -1.152044   -2.367028
      5          7           0        0.791898   -1.209320    0.491192
      6          1           0       -0.972300   -0.307299   -0.098009
      7          6           0        0.848814   -0.753366    1.778498
      8          1           0        1.556088   -1.810582    0.195897
      9          6           0        1.804077   -1.022076    2.671957
     10          1           0        0.015640   -0.112523    2.062069
     11          1           0        2.650124   -1.655196    2.430086
     12          1           0        1.754248   -0.607314    3.673207
 ---------------------------------------------------------------------
                    Distance matrix (angstroms):
                    1          2          3          4          5
     1  C    0.000000
     2  C    1.335290   0.000000
     3  H    1.084038   2.117211   0.000000
     4  H    1.084903   2.105009   1.856340   0.000000
     5  N    2.411493   1.366854   2.722337   3.378424   0.000000
     6  H    2.097083   1.088702   3.075026   2.421434   2.067171
     7  C    3.691106   2.455232   4.088455   4.559994   1.366854
     8  H    2.610386   2.030412   2.492522   3.684944   1.016220
     9  C    4.822871   3.691106   5.020407   5.772195   2.411493
    10  H    3.986463   2.652681   4.618447   4.663277   2.067171
    11  H    5.020407   4.088455   4.982374   6.053941   2.722337
    12  H    5.772195   4.559994   6.053941   6.664334   3.378424
                    6          7          8          9         10
     6  H    0.000000
     7  C    2.652681   0.000000
     8  H    2.956178   2.030412   0.000000
     9  C    3.986463   1.335290   2.610386   0.000000
    10  H    2.383255   1.088702   2.956178   2.097083   0.000000
    11  H    4.618447   2.117211   2.492522   1.084038   3.075026
    12  H    4.663277   2.105009   3.684944   1.084903   2.421434
                   11         12
    11  H    0.000000
    12  H    1.856340   0.000000
 Stoichiometry    C4H7N
 Framework group  C1[X(C4H7N)]
 Deg. of freedom    30
 Full point group                 C1      NOp   1
 Largest Abelian subgroup         C1      NOp   1
 Largest concise Abelian subgroup C1      NOp   1
                         Standard orientation:                         
 ---------------------------------------------------------------------
 Center     Atomic      Atomic             Coordinates (Angstroms)
 Number     Number       Type             X           Y           Z
 ---------------------------------------------------------------------
      1          6           0        2.411435    0.234916    0.000003
      2          6           0        1.227616   -0.382798   -0.000005
      3          1           0        2.491187    1.316016    0.000017
      4          1           0        3.332167   -0.338901   -0.000003
      5          7           0        0.000000    0.218243   -0.000002
      6          1           0        1.191627   -1.470905   -0.000018
      7          6           0       -1.227616   -0.382798    0.000005
      8          1           0        0.000000    1.234462   -0.000001
      9          6           0       -2.411435    0.234916   -0.000001
     10          1           0       -1.191627   -1.470905    0.000018
     11          1           0       -2.491187    1.316016   -0.000016
     12          1           0       -3.332167   -0.338901    0.000006
 ---------------------------------------------------------------------
 Rotational constants (GHZ):          33.4099886           2.3673229           2.2106812
 Standard basis: Aug-CC-pVDZ (5D, 7F)
 There are   188 symmetry adapted cartesian basis functions of A   symmetry.
 There are   178 symmetry adapted basis functions of A   symmetry.
   178 basis functions,   292 primitive gaussians,   188 cartesian basis functions
    19 alpha electrons       19 beta electrons
       nuclear repulsion energy       158.5671568886 Hartrees.
 NAtoms=   12 NActive=   12 NUniq=   12 SFac= 1.00D+00 NAtFMM=   60 NAOKFM=F Big=F
 Integral buffers will be    131072 words long.
 Raffenetti 1 integral format.
 Two-electron integral symmetry is turned on.
 One-electron integrals computed using PRISM.
 NBasis=   178 RedAO= T EigKep=  1.78D-05  NBF=   178
 NBsUse=   178 1.00D-06 EigRej= -1.00D+00 NBFU=   178
 ExpMin= 2.97D-02 ExpMax= 9.05D+03 ExpMxC= 3.09D+02 IAcc=3 IRadAn=         5 AccDes= 0.00D+00
 Harris functional with IExCor=  205 and IRadAn=       5 diagonalized for initial guess.
 HarFok:  IExCor=  205 AccDes= 0.00D+00 IRadAn=         5 IDoV= 1 UseB2=F ITyADJ=14
 ICtDFT=  3500011 ScaDFX=  1.000000  1.000000  1.000000  1.000000
 FoFCou: FMM=F IPFlag=           0 FMFlag=      100000 FMFlg1=           0
         NFxFlg=           0 DoJE=T BraDBF=F KetDBF=T FulRan=T
         wScrn=  0.000000 ICntrl=       500 IOpCl=  0 I1Cent=   200000004 NGrid=           0
         NMat0=    1 NMatS0=      1 NMatT0=    0 NMatD0=    1 NMtDS0=    0 NMtDT0=    0
 Petite list used in FoFCou.
 Keep R1 ints in memory in canonical form, NReq=135791362.
 Requested convergence on RMS density matrix=1.00D-08 within 128 cycles.
 Requested convergence on MAX density matrix=1.00D-06.
 Requested convergence on             energy=1.00D-06.
 No special actions if energy rises.
 SCF Done:  E(RHF) =  -209.974232381     A.U. after   13 cycles
            NFock= 13  Conv=0.13D-08     -V/T= 2.0010
 ExpMin= 2.97D-02 ExpMax= 9.05D+03 ExpMxC= 3.09D+02 IAcc=3 IRadAn=         5 AccDes= 0.00D+00
 HarFok:  IExCor=  205 AccDes= 0.00D+00 IRadAn=         5 IDoV=-2 UseB2=F ITyADJ=14
 ICtDFT= 12500011 ScaDFX=  1.000000  1.000000  1.000000  1.000000
 Range of M.O.s used for correlation:     6   178
 NBasis=   178 NAE=    19 NBE=    19 NFC=     5 NFV=     0
 NROrb=    173 NOA=    14 NOB=    14 NVA=   159 NVB=   159

 **** Warning!!: The largest alpha MO coefficient is  0.62139599D+02

 Fully direct method using O(ONN) memory.
 JobTyp=1 Pass  1:  I=   6 to  19 NPSUse= 40 ParTrn=T ParDer=T DoDerP=T.
 Spin components of T(2) and E(2):
     alpha-alpha T2 =       0.3283976552D-01 E2=     -0.8997982448D-01
     alpha-beta  T2 =       0.1952342651D+00 E2=     -0.5514419652D+00
     beta-beta   T2 =       0.3283976552D-01 E2=     -0.8997982448D-01
 ANorm=    0.1122904179D+01
 E2 =    -0.7314016141D+00 EUMP2 =    -0.21070563399510D+03
          IDoAtm=111111111111
          Differentiating once with respect to electric field.
                with respect to dipole field.
          Differentiating once with respect to nuclear coordinates.
 Keep R1 ints in memory in canonical form, NReq=135803716.
          There are     1 degrees of freedom in the 1st order CPHF.  IDoFFX=0 NUNeed=     1.
 LinEq1:  Iter=  0 NonCon=     1 RMS=3.81D-03 Max=7.69D-02 NDo=     1
 AX will form     1 AO Fock derivatives at one time.
 LinEq1:  Iter=  1 NonCon=     1 RMS=6.75D-04 Max=6.38D-03 NDo=     1
 LinEq1:  Iter=  2 NonCon=     1 RMS=2.84D-04 Max=5.53D-03 NDo=     1
 LinEq1:  Iter=  3 NonCon=     1 RMS=5.58D-05 Max=4.69D-04 NDo=     1
 LinEq1:  Iter=  4 NonCon=     1 RMS=2.12D-05 Max=3.08D-04 NDo=     1
 LinEq1:  Iter=  5 NonCon=     1 RMS=5.66D-06 Max=1.37D-04 NDo=     1
 LinEq1:  Iter=  6 NonCon=     1 RMS=1.78D-06 Max=2.09D-05 NDo=     1
 LinEq1:  Iter=  7 NonCon=     1 RMS=5.23D-07 Max=7.97D-06 NDo=     1
 LinEq1:  Iter=  8 NonCon=     1 RMS=1.20D-07 Max=1.81D-06 NDo=     1
 LinEq1:  Iter=  9 NonCon=     1 RMS=2.60D-08 Max=2.82D-07 NDo=     1
 LinEq1:  Iter= 10 NonCon=     1 RMS=4.72D-09 Max=5.88D-08 NDo=     1
 LinEq1:  Iter= 11 NonCon=     1 RMS=8.09D-10 Max=8.15D-09 NDo=     1
 LinEq1:  Iter= 12 NonCon=     1 RMS=1.38D-10 Max=1.42D-09 NDo=     1
 LinEq1:  Iter= 13 NonCon=     0 RMS=1.58D-11 Max=2.51D-10 NDo=     1
 Linear equations converged to 1.000D-10 1.000D-09 after    13 iterations.
 End of Minotr F.D. properties file   721 does not exist.
 End of Minotr F.D. properties file   722 does not exist.
 End of Minotr F.D. properties file   788 does not exist.

 **********************************************************************

            Population analysis using the SCF Density.

 **********************************************************************

 Orbital symmetries:
       Occupied  (A) (A) (A) (A) (A) (A) (A) (A) (A) (A) (A) (A)
                 (A) (A) (A) (A) (A) (A) (A)
       Virtual   (A) (A) (A) (A) (A) (A) (A) (A) (A) (A) (A) (A)
                 (A) (A) (A) (A) (A) (A) (A) (A) (A) (A) (A) (A)
                 (A) (A) (A) (A) (A) (A) (A) (A) (A) (A) (A) (A)
                 (A) (A) (A) (A) (A) (A) (A) (A) (A) (A) (A) (A)
                 (A) (A) (A) (A) (A) (A) (A) (A) (A) (A) (A) (A)
                 (A) (A) (A) (A) (A) (A) (A) (A) (A) (A) (A) (A)
                 (A) (A) (A) (A) (A) (A) (A) (A) (A) (A) (A) (A)
                 (A) (A) (A) (A) (A) (A) (A) (A) (A) (A) (A) (A)
                 (A) (A) (A) (A) (A) (A) (A) (A) (A) (A) (A) (A)
                 (A) (A) (A) (A) (A) (A) (A) (A) (A) (A) (A) (A)
                 (A) (A) (A) (A) (A) (A) (A) (A) (A) (A) (A) (A)
                 (A) (A) (A) (A) (A) (A) (A) (A) (A) (A) (A) (A)
                 (A) (A) (A) (A) (A) (A) (A) (A) (A) (A) (A) (A)
                 (A) (A) (A)
 The electronic state is 1-A.
 Alpha  occ. eigenvalues --  -15.59955 -11.28927 -11.28924 -11.21642 -11.21642
 Alpha  occ. eigenvalues --   -1.27671  -1.06087  -0.98096  -0.82439  -0.81578
 Alpha  occ. eigenvalues --   -0.68962  -0.66209  -0.59882  -0.58188  -0.55799
 Alpha  occ. eigenvalues --   -0.52832  -0.52684  -0.38830  -0.28829
 Alpha virt. eigenvalues --    0.03661   0.03993   0.04481   0.06063   0.06175
 Alpha virt. eigenvalues --    0.08538   0.09033   0.09953   0.10862   0.11690
 Alpha virt. eigenvalues --    0.12716   0.14309   0.14332   0.15962   0.15993
 Alpha virt. eigenvalues --    0.17449   0.17668   0.18224   0.19558   0.19627
 Alpha virt. eigenvalues --    0.20914   0.21632   0.22653   0.23378   0.24290
 Alpha virt. eigenvalues --    0.27072   0.27815   0.30242   0.31746   0.32114
 Alpha virt. eigenvalues --    0.34055   0.35550   0.35592   0.36593   0.38262
 Alpha virt. eigenvalues --    0.38880   0.39787   0.41010   0.41602   0.43627
 Alpha virt. eigenvalues --    0.44225   0.45352   0.46900   0.48847   0.49385
 Alpha virt. eigenvalues --    0.51691   0.51914   0.53245   0.53492   0.53789
 Alpha virt. eigenvalues --    0.55005   0.56337   0.58079   0.58973   0.62315
 Alpha virt. eigenvalues --    0.62706   0.64365   0.65013   0.65525   0.66491
 Alpha virt. eigenvalues --    0.66524   0.67363   0.68111   0.68596   0.69761
 Alpha virt. eigenvalues --    0.71298   0.71835   0.72856   0.75173   0.76036
 Alpha virt. eigenvalues --    0.78283   0.79382   0.80560   0.81496   0.83702
 Alpha virt. eigenvalues --    0.86535   0.87928   0.88203   0.88922   0.89503
 Alpha virt. eigenvalues --    0.96024   0.96429   1.00451   1.00917   1.02008
 Alpha virt. eigenvalues --    1.02287   1.04407   1.09343   1.16074   1.16451
 Alpha virt. eigenvalues --    1.19024   1.24626   1.26542   1.26813   1.28516
 Alpha virt. eigenvalues --    1.38989   1.48666   1.50129   1.51487   1.54252
 Alpha virt. eigenvalues --    1.58950   1.59288   1.59901   1.63676   1.64453
 Alpha virt. eigenvalues --    1.66755   1.67886   1.70098   1.70404   1.76496
 Alpha virt. eigenvalues --    1.79201   1.79827   1.80112   1.82224   1.92908
 Alpha virt. eigenvalues --    1.97519   1.99541   2.03031   2.03119   2.04840
 Alpha virt. eigenvalues --    2.06557   2.09255   2.10398   2.15322   2.15455
 Alpha virt. eigenvalues --    2.16824   2.16936   2.20284   2.22568   2.23746
 Alpha virt. eigenvalues --    2.24732   2.31706   2.35410   2.38722   2.40259
 Alpha virt. eigenvalues --    2.42581   2.43359   2.44151   2.54737   2.57618
 Alpha virt. eigenvalues --    2.62891   2.68676   2.70668   2.73922   2.75063
 Alpha virt. eigenvalues --    2.78345   2.81954   2.87426   2.94110   2.94210
 Alpha virt. eigenvalues --    2.94407   3.12836   3.14641   3.21211   3.45873
 Alpha virt. eigenvalues --    3.48976   3.71781   3.75633   3.77935
          Condensed to atoms (all electrons):
               1          2          3          4          5          6
     1  C    5.298852   0.122243   0.197582   0.008513  -0.207843  -0.244272
     2  C    0.122243   4.826361   0.112789   0.186780   0.325029   0.137020
     3  H    0.197582   0.112789   1.446194  -0.303784  -0.133223   0.101630
     4  H    0.008513   0.186780  -0.303784   1.389894   0.051923  -0.119472
     5  N   -0.207843   0.325029  -0.133223   0.051923   7.200769  -0.095715
     6  H   -0.244272   0.137020   0.101630  -0.119472  -0.095715   1.830263
     7  C    0.099891  -0.194382  -0.052478   0.042797   0.325029  -0.077356
     8  H    0.022210  -0.152827   0.016946   0.005400   0.388664   0.006322
     9  C   -0.163372   0.099891   0.002489   0.001771  -0.207843   0.071594
    10  H    0.071594  -0.077356  -0.007287   0.004874  -0.095715  -0.147007
    11  H    0.002489  -0.052478  -0.003070   0.000834  -0.133223  -0.007287
    12  H    0.001771   0.042797   0.000834   0.000693   0.051923   0.004874
               7          8          9         10         11         12
     1  C    0.099891   0.022210  -0.163372   0.071594   0.002489   0.001771
     2  C   -0.194382  -0.152827   0.099891  -0.077356  -0.052478   0.042797
     3  H   -0.052478   0.016946   0.002489  -0.007287  -0.003070   0.000834
     4  H    0.042797   0.005400   0.001771   0.004874   0.000834   0.000693
     5  N    0.325029   0.388664  -0.207843  -0.095715  -0.133223   0.051923
     6  H   -0.077356   0.006322   0.071594  -0.147007  -0.007287   0.004874
     7  C    4.826361  -0.152827   0.122243   0.137020   0.112789   0.186780
     8  H   -0.152827   0.955542   0.022210   0.006322   0.016946   0.005400
     9  C    0.122243   0.022210   5.298852  -0.244272   0.197582   0.008513
    10  H    0.137020   0.006322  -0.244272   1.830263   0.101630  -0.119472
    11  H    0.112789   0.016946   0.197582   0.101630   1.446194  -0.303784
    12  H    0.186780   0.005400   0.008513  -0.119472  -0.303784   1.389894
 Mulliken charges:
               1
     1  C    0.790344
     2  C    0.624134
     3  H   -0.378621
     4  H   -0.270222
     5  N   -0.469775
     6  H   -0.460593
     7  C    0.624134
     8  H   -0.140309
     9  C    0.790344
    10  H   -0.460593
    11  H   -0.378621
    12  H   -0.270222
 Sum of Mulliken charges =  -0.00000
 Mulliken charges with hydrogens summed into heavy atoms:
               1
     1  C    0.141501
     2  C    0.163541
     5  N   -0.610084
     7  C    0.163541
     9  C    0.141501
 Electronic spatial extent (au):  <R**2>=            564.4279
 Charge=             -0.0000 electrons
 Dipole moment (field-independent basis, Debye):
    X=              0.0000    Y=             -0.0207    Z=              0.0000  Tot=              0.0207
 Quadrupole moment (field-independent basis, Debye-Ang):
   XX=            -34.1447   YY=            -26.7993   ZZ=            -37.2044
   XY=             -0.0000   XZ=             -0.0000   YZ=             -0.0000
 Traceless Quadrupole moment (field-independent basis, Debye-Ang):
   XX=             -1.4286   YY=              5.9168   ZZ=             -4.4883
   XY=             -0.0000   XZ=             -0.0000   YZ=             -0.0000
 Octapole moment (field-independent basis, Debye-Ang**2):
  XXX=              0.0000  YYY=              1.9337  ZZZ=             -0.0000  XYY=              0.0000
  XXY=             -1.9205  XXZ=              0.0000  XZZ=              0.0000  YZZ=              0.0139
  YYZ=             -0.0000  XYZ=              0.0002
 Hexadecapole moment (field-independent basis, Debye-Ang**3):
 XXXX=           -658.8237 YYYY=            -73.3104 ZZZZ=            -47.6562 XXXY=             -0.0000
 XXXZ=              0.0000 YYYX=             -0.0000 YYYZ=             -0.0000 ZZZX=              0.0000
 ZZZY=             -0.0000 XXYY=           -119.0620 XXZZ=           -146.9372 YYZZ=            -23.6853
 XXYZ=             -0.0000 YYXZ=              0.0000 ZZXY=             -0.0000
 N-N= 1.585671568886D+02 E-N=-8.060603642708D+02  KE= 2.097610825230D+02
 Calling FoFJK, ICntrl=  10002127 FMM=F ISym2X=0 I1Cent= 0 IOpClX= 0 NMat=1 NMatS=1 NMatT=0.
 ***** Axes restored to original set *****
 -------------------------------------------------------------------
 Center     Atomic                   Forces (Hartrees/Bohr)
 Number     Number              X              Y              Z
 -------------------------------------------------------------------
      1        6          -0.000192008   -0.007450562   -0.019801334
      2        6          -0.015404592    0.014473793    0.012105888
      3        1           0.005075434   -0.004266352   -0.002674986
      4        1          -0.002578777    0.001368176   -0.000731511
      5        7           0.020747527   -0.016324036   -0.008017202
      6        1          -0.003096367    0.003171123    0.003118182
      7        6          -0.020188097    0.013530340    0.001647744
      8        1           0.000573706   -0.000451374   -0.000221690
      9        6           0.015258613   -0.004403770    0.013979334
     10        1          -0.004590168    0.002876633   -0.000147976
     11        1           0.005630307   -0.004156904   -0.001461893
     12        1          -0.001235577    0.001632935    0.002205443
 -------------------------------------------------------------------
 Cartesian Forces:  Max     0.020747527 RMS     0.009163399

 GradGradGradGradGradGradGradGradGradGradGradGradGradGradGradGradGradGrad
 Berny optimization.
 FormGI is forming the generalized inverse of G from B-inverse, IUseBI=4.
 Internal  Forces:  Max     0.025305328 RMS     0.007434739
 Search for a local minimum.
 Step number   1 out of a maximum of   52
 All quantities printed in internal units (Hartrees-Bohrs-Radians)
 Mixed Optimization -- RFO/linear search
 Second derivative matrix not updated -- first step.
 ITU=  0
     Eigenvalues ---    0.02130   0.02130   0.02130   0.02556   0.02556
     Eigenvalues ---    0.02945   0.02945   0.02945   0.02945   0.16000
     Eigenvalues ---    0.16000   0.16000   0.16000   0.16000   0.16000
     Eigenvalues ---    0.16000   0.22000   0.22000   0.22000   0.34963
     Eigenvalues ---    0.34963   0.35408   0.35408   0.35511   0.35511
     Eigenvalues ---    0.44947   0.51586   0.51586   0.58274   0.58274
 RFO step:  Lambda=-4.88133545D-03 EMin= 2.13023526D-02
 Linear search not attempted -- first point.
 Iteration  1 RMS(Cart)=  0.03475945 RMS(Int)=  0.00029006
 Iteration  2 RMS(Cart)=  0.00065397 RMS(Int)=  0.00000009
 Iteration  3 RMS(Cart)=  0.00000013 RMS(Int)=  0.00000000
 Variable       Old X    -DE/DX   Delta X   Delta X   Delta X     New X
                                 (Linear)    (Quad)   (Total)
    R1        2.52333   0.02531   0.00000   0.04306   0.04306   2.56640
    R2        2.04853   0.00715   0.00000   0.01986   0.01986   2.06839
    R3        2.05017   0.00272   0.00000   0.00757   0.00757   2.05774
    R4        2.58298   0.01823   0.00000   0.03500   0.03500   2.61798
    R5        2.05735   0.00517   0.00000   0.01458   0.01458   2.07192
    R6        2.58298   0.01823   0.00000   0.03500   0.03500   2.61798
    R7        1.92038   0.00076   0.00000   0.00168   0.00168   1.92206
    R8        2.52333   0.02531   0.00000   0.04306   0.04306   2.56640
    R9        2.05735   0.00517   0.00000   0.01458   0.01458   2.07192
   R10        2.04853   0.00715   0.00000   0.01986   0.01986   2.06839
   R11        2.05017   0.00272   0.00000   0.00757   0.00757   2.05774
    A1        2.12537   0.00108   0.00000   0.00656   0.00656   2.13192
    A2        2.10334  -0.00187   0.00000  -0.01133  -0.01133   2.09201
    A3        2.05448   0.00079   0.00000   0.00477   0.00477   2.05925
    A4        2.20537  -0.00240   0.00000  -0.01069  -0.01069   2.19468
    A5        2.08479   0.00288   0.00000   0.01553   0.01553   2.10032
    A6        1.99303  -0.00048   0.00000  -0.00484  -0.00484   1.98819
    A7        2.23101  -0.01053   0.00000  -0.04682  -0.04682   2.18419
    A8        2.02609   0.00526   0.00000   0.02341   0.02341   2.04950
    A9        2.02609   0.00526   0.00000   0.02341   0.02341   2.04950
   A10        2.20537  -0.00240   0.00000  -0.01069  -0.01069   2.19468
   A11        1.99303  -0.00048   0.00000  -0.00484  -0.00484   1.98819
   A12        2.08479   0.00288   0.00000   0.01553   0.01553   2.10032
   A13        2.12537   0.00108   0.00000   0.00656   0.00656   2.13192
   A14        2.10334  -0.00187   0.00000  -0.01133  -0.01133   2.09201
   A15        2.05448   0.00079   0.00000   0.00477   0.00477   2.05925
    D1        0.00000  -0.00000   0.00000  -0.00000  -0.00000   0.00000
    D2       -3.14159  -0.00000   0.00000  -0.00000  -0.00000   3.14159
    D3       -3.14159   0.00000   0.00000   0.00000   0.00000  -3.14159
    D4        0.00000   0.00000   0.00000   0.00000   0.00000   0.00000
    D5       -3.14158  -0.00000   0.00000  -0.00000  -0.00000  -3.14158
    D6        0.00001  -0.00000   0.00000  -0.00000  -0.00000   0.00001
    D7        0.00002  -0.00000   0.00000  -0.00000  -0.00000   0.00001
    D8       -3.14158  -0.00000   0.00000  -0.00000  -0.00000  -3.14158
    D9       -3.14158  -0.00000   0.00000  -0.00000  -0.00000  -3.14159
   D10        0.00001  -0.00000   0.00000  -0.00000  -0.00000   0.00001
   D11        0.00001  -0.00000   0.00000  -0.00000  -0.00000   0.00001
   D12       -3.14158  -0.00000   0.00000  -0.00000  -0.00000  -3.14158
   D13        0.00000  -0.00000   0.00000  -0.00000  -0.00000   0.00000
   D14       -3.14159   0.00000   0.00000   0.00000   0.00000  -3.14159
   D15       -3.14159  -0.00000   0.00000  -0.00000  -0.00000   3.14159
   D16       -0.00000   0.00000   0.00000   0.00000   0.00000   0.00000
         Item               Value     Threshold  Converged?
 Maximum Force            0.025305     0.000450     NO 
 RMS     Force            0.007435     0.000300     NO 
 Maximum Displacement     0.090965     0.001800     NO 
 RMS     Displacement     0.034902     0.001200     NO 
 Predicted change in Energy=-2.469766D-03
 GradGradGradGradGradGradGradGradGradGradGradGradGradGradGradGradGradGrad

                          Input orientation:                          
 ---------------------------------------------------------------------
 Center     Atomic      Atomic             Coordinates (Angstroms)
 Number     Number       Type             X           Y           Z
 ---------------------------------------------------------------------
      1          6           0       -0.211496   -1.415771   -1.725103
      2          6           0       -0.169995   -0.954077   -0.448586
      3          1           0        0.565943   -2.068890   -2.133825
      4          1           0       -1.038419   -1.136339   -2.376129
      5          7           0        0.819624   -1.231135    0.480478
      6          1           0       -0.965091   -0.301087   -0.069704
      7          6           0        0.849486   -0.753061    1.780410
      8          1           0        1.584482   -1.832923    0.184924
      9          6           0        1.812769   -1.016625    2.700734
     10          1           0       -0.001314   -0.111067    2.037529
     11          1           0        2.674412   -1.653128    2.476088
     12          1           0        1.740318   -0.588434    3.699294
 ---------------------------------------------------------------------
                    Distance matrix (angstroms):
                    1          2          3          4          5
     1  C    0.000000
     2  C    1.358078   0.000000
     3  H    1.094545   2.150452   0.000000
     4  H    1.088907   2.121980   1.871453   0.000000
     5  N    2.441698   1.385377   2.756950   3.409034   0.000000
     6  H    2.133254   1.096415   3.119261   2.454103   2.086360
     7  C    3.722027   2.459304   4.139208   4.581256   1.385377
     8  H    2.654761   2.062013   2.543561   3.731465   1.017108
     9  C    4.883134   3.722027   5.102431   5.823929   2.441698
    10  H    3.987961   2.630569   4.642742   4.648349   2.086360
    11  H    5.102431   4.139208   5.086237   6.131573   2.756950
    12  H    5.823929   4.581256   6.131573   6.703159   3.409034
                    6          7          8          9         10
     6  H    0.000000
     7  C    2.630569   0.000000
     8  H    2.985244   2.062013   0.000000
     9  C    3.987961   1.358078   2.654761   0.000000
    10  H    2.324953   1.096415   2.985244   2.133254   0.000000
    11  H    4.642742   2.150452   2.543561   1.094545   3.119261
    12  H    4.648349   2.121980   3.731465   1.088907   2.454103
                   11         12
    11  H    0.000000
    12  H    1.871453   0.000000
 Stoichiometry    C4H7N
 Framework group  C1[X(C4H7N)]
 Deg. of freedom    30
 Full point group                 C1      NOp   1
 Largest Abelian subgroup         C1      NOp   1
 Largest concise Abelian subgroup C1      NOp   1
                         Standard orientation:                         
 ---------------------------------------------------------------------
 Center     Atomic      Atomic             Coordinates (Angstroms)
 Number     Number       Type             X           Y           Z
 ---------------------------------------------------------------------
      1          6           0        2.441567    0.225433    0.000003
      2          6           0        1.229652   -0.387460   -0.000004
      3          1           0        2.543118    1.315258    0.000011
      4          1           0        3.351580   -0.372560   -0.000003
      5          7           0        0.000000    0.250682   -0.000001
      6          1           0        1.162476   -1.481816   -0.000013
      7          6           0       -1.229652   -0.387460    0.000003
      8          1           0        0.000000    1.267790   -0.000001
      9          6           0       -2.441567    0.225433   -0.000001
     10          1           0       -1.162476   -1.481816    0.000013
     11          1           0       -2.543118    1.315258   -0.000010
     12          1           0       -3.351580   -0.372560    0.000005
 ---------------------------------------------------------------------
 Rotational constants (GHZ):          32.5744147           2.3207969           2.1664463
 Standard basis: Aug-CC-pVDZ (5D, 7F)
 There are   188 symmetry adapted cartesian basis functions of A   symmetry.
 There are   178 symmetry adapted basis functions of A   symmetry.
   178 basis functions,   292 primitive gaussians,   188 cartesian basis functions
    19 alpha electrons       19 beta electrons
       nuclear repulsion energy       156.7922401347 Hartrees.
 NAtoms=   12 NActive=   12 NUniq=   12 SFac= 1.00D+00 NAtFMM=   60 NAOKFM=F Big=F
 Integral buffers will be    131072 words long.
 Raffenetti 1 integral format.
 Two-electron integral symmetry is turned on.
 One-electron integrals computed using PRISM.
 NBasis=   178 RedAO= T EigKep=  1.92D-05  NBF=   178
 NBsUse=   178 1.00D-06 EigRej= -1.00D+00 NBFU=   178
 Initial guess from the checkpoint file:  "/scr/Gau-41377.chk"
 B after Tr=    -0.000000   -0.000000   -0.000000
         Rot=    1.000000   -0.000000   -0.000000    0.000000 Ang=  -0.00 deg.
 ExpMin= 2.97D-02 ExpMax= 9.05D+03 ExpMxC= 3.09D+02 IAcc=3 IRadAn=         5 AccDes= 0.00D+00
 Harris functional with IExCor=  205 and IRadAn=       5 diagonalized for initial guess.
 HarFok:  IExCor=  205 AccDes= 0.00D+00 IRadAn=         5 IDoV= 1 UseB2=F ITyADJ=14
 ICtDFT=  3500011 ScaDFX=  1.000000  1.000000  1.000000  1.000000
 FoFCou: FMM=F IPFlag=           0 FMFlag=      100000 FMFlg1=           0
         NFxFlg=           0 DoJE=T BraDBF=F KetDBF=T FulRan=T
         wScrn=  0.000000 ICntrl=       500 IOpCl=  0 I1Cent=   200000004 NGrid=           0
         NMat0=    1 NMatS0=      1 NMatT0=    0 NMatD0=    1 NMtDS0=    0 NMtDT0=    0
 Petite list used in FoFCou.
 Keep R1 ints in memory in canonical form, NReq=135790156.
 Requested convergence on RMS density matrix=1.00D-08 within 128 cycles.
 Requested convergence on MAX density matrix=1.00D-06.
 Requested convergence on             energy=1.00D-06.
 No special actions if energy rises.
 SCF Done:  E(RHF) =  -209.972412034     A.U. after   10 cycles
            NFock= 10  Conv=0.92D-08     -V/T= 2.0025
 ExpMin= 2.97D-02 ExpMax= 9.05D+03 ExpMxC= 3.09D+02 IAcc=3 IRadAn=         5 AccDes= 0.00D+00
 HarFok:  IExCor=  205 AccDes= 0.00D+00 IRadAn=         5 IDoV=-2 UseB2=F ITyADJ=14
 ICtDFT= 12500011 ScaDFX=  1.000000  1.000000  1.000000  1.000000
 Range of M.O.s used for correlation:     6   178
 NBasis=   178 NAE=    19 NBE=    19 NFC=     5 NFV=     0
 NROrb=    173 NOA=    14 NOB=    14 NVA=   159 NVB=   159

 **** Warning!!: The largest alpha MO coefficient is  0.61722536D+02

 Fully direct method using O(ONN) memory.
 JobTyp=1 Pass  1:  I=   6 to  19 NPSUse= 40 ParTrn=T ParDer=T DoDerP=T.
 Spin components of T(2) and E(2):
     alpha-alpha T2 =       0.3338714883D-01 E2=     -0.9029613911D-01
     alpha-beta  T2 =       0.1994145849D+00 E2=     -0.5551339081D+00
     beta-beta   T2 =       0.3338714883D-01 E2=     -0.9029613911D-01
 ANorm=    0.1125250587D+01
 E2 =    -0.7357261864D+00 EUMP2 =    -0.21070813822053D+03
          IDoAtm=111111111111
          Differentiating once with respect to electric field.
                with respect to dipole field.
          Differentiating once with respect to nuclear coordinates.
 Keep R1 ints in memory in canonical form, NReq=135802418.
          There are     1 degrees of freedom in the 1st order CPHF.  IDoFFX=0 NUNeed=     1.
 LinEq1:  Iter=  0 NonCon=     1 RMS=3.91D-03 Max=8.04D-02 NDo=     1
 AX will form     1 AO Fock derivatives at one time.
 LinEq1:  Iter=  1 NonCon=     1 RMS=7.27D-04 Max=6.80D-03 NDo=     1
 LinEq1:  Iter=  2 NonCon=     1 RMS=3.08D-04 Max=6.23D-03 NDo=     1
 LinEq1:  Iter=  3 NonCon=     1 RMS=6.34D-05 Max=5.43D-04 NDo=     1
 LinEq1:  Iter=  4 NonCon=     1 RMS=2.36D-05 Max=3.38D-04 NDo=     1
 LinEq1:  Iter=  5 NonCon=     1 RMS=5.63D-06 Max=1.38D-04 NDo=     1
 LinEq1:  Iter=  6 NonCon=     1 RMS=1.86D-06 Max=2.09D-05 NDo=     1
 LinEq1:  Iter=  7 NonCon=     1 RMS=6.59D-07 Max=1.15D-05 NDo=     1
 LinEq1:  Iter=  8 NonCon=     1 RMS=1.50D-07 Max=2.08D-06 NDo=     1
 LinEq1:  Iter=  9 NonCon=     1 RMS=3.14D-08 Max=3.16D-07 NDo=     1
 LinEq1:  Iter= 10 NonCon=     1 RMS=5.64D-09 Max=7.15D-08 NDo=     1
 LinEq1:  Iter= 11 NonCon=     1 RMS=9.59D-10 Max=1.11D-08 NDo=     1
 LinEq1:  Iter= 12 NonCon=     1 RMS=1.64D-10 Max=1.84D-09 NDo=     1
 LinEq1:  Iter= 13 NonCon=     0 RMS=1.99D-11 Max=2.97D-10 NDo=     1
 Linear equations converged to 1.000D-10 1.000D-09 after    13 iterations.
 End of Minotr F.D. properties file   721 does not exist.
 End of Minotr F.D. properties file   722 does not exist.
 End of Minotr F.D. properties file   788 does not exist.
 Calling FoFJK, ICntrl=  10002127 FMM=F ISym2X=0 I1Cent= 0 IOpClX= 0 NMat=1 NMatS=1 NMatT=0.
 ***** Axes restored to original set *****
 -------------------------------------------------------------------
 Center     Atomic                   Forces (Hartrees/Bohr)
 Number     Number              X              Y              Z
 -------------------------------------------------------------------
      1        6           0.001500620   -0.000742878    0.000564754
      2        6          -0.004291392    0.001969603   -0.002020276
      3        1          -0.000286798    0.000526198    0.000896615
      4        1          -0.000448754    0.000516402    0.000600478
      5        7           0.005284555   -0.004157873   -0.002042041
      6        1           0.001019324   -0.000637138    0.000037443
      7        6          -0.001431862    0.002533417    0.004231835
      8        1          -0.000962227    0.000757082    0.000371821
      9        6           0.000610812   -0.000918367   -0.001380647
     10        1           0.000684116   -0.000703121   -0.000695680
     11        1          -0.000897658    0.000405724   -0.000438920
     12        1          -0.000780736    0.000450951   -0.000125381
 -------------------------------------------------------------------
 Cartesian Forces:  Max     0.005284555 RMS     0.001801981

 GradGradGradGradGradGradGradGradGradGradGradGradGradGradGradGradGradGrad
 Berny optimization.
 Using GEDIIS/GDIIS optimizer.
 FormGI is forming the generalized inverse of G from B-inverse, IUseBI=4.
 Internal  Forces:  Max     0.003363256 RMS     0.001045388
 Search for a local minimum.
 Step number   2 out of a maximum of   52
 All quantities printed in internal units (Hartrees-Bohrs-Radians)
 Mixed Optimization -- RFO/linear search
 Update second derivatives using D2CorX and points    1    2
 DE= -2.50D-03 DEPred=-2.47D-03 R= 1.01D+00
 TightC=F SS=  1.41D+00  RLast= 1.09D-01 DXNew= 5.0454D-01 3.2759D-01
 Trust test= 1.01D+00 RLast= 1.09D-01 DXMaxT set to 3.28D-01
 ITU=  1  0
 Use linear search instead of GDIIS.
     Eigenvalues ---    0.02130   0.02130   0.02130   0.02561   0.02561
     Eigenvalues ---    0.02945   0.02945   0.02945   0.02945   0.15519
     Eigenvalues ---    0.16000   0.16000   0.16000   0.16000   0.16000
     Eigenvalues ---    0.16056   0.20016   0.22000   0.22000   0.34963
     Eigenvalues ---    0.35117   0.35392   0.35408   0.35511   0.36329
     Eigenvalues ---    0.44901   0.49572   0.51586   0.58274   0.64716
 RFO step:  Lambda=-1.66366718D-04 EMin= 2.13023526D-02
 Quartic linear search produced a step of  0.04610.
 Iteration  1 RMS(Cart)=  0.01113204 RMS(Int)=  0.00004351
 Iteration  2 RMS(Cart)=  0.00007982 RMS(Int)=  0.00000000
 Iteration  3 RMS(Cart)=  0.00000000 RMS(Int)=  0.00000000
 Variable       Old X    -DE/DX   Delta X   Delta X   Delta X     New X
                                 (Linear)    (Quad)   (Total)
    R1        2.56640  -0.00206   0.00199  -0.00421  -0.00223   2.56417
    R2        2.06839  -0.00085   0.00092  -0.00273  -0.00181   2.06658
    R3        2.05774   0.00011   0.00035   0.00025   0.00060   2.05834
    R4        2.61798   0.00206   0.00161   0.00378   0.00539   2.62337
    R5        2.07192  -0.00111   0.00067  -0.00347  -0.00279   2.06913
    R6        2.61798   0.00206   0.00161   0.00378   0.00539   2.62337
    R7        1.92206  -0.00128   0.00008  -0.00300  -0.00292   1.91914
    R8        2.56640  -0.00206   0.00199  -0.00421  -0.00223   2.56417
    R9        2.07192  -0.00111   0.00067  -0.00347  -0.00279   2.06913
   R10        2.06839  -0.00085   0.00092  -0.00273  -0.00181   2.06658
   R11        2.05774   0.00011   0.00035   0.00025   0.00060   2.05834
    A1        2.13192  -0.00029   0.00030  -0.00196  -0.00166   2.13027
    A2        2.09201  -0.00078  -0.00052  -0.00502  -0.00554   2.08647
    A3        2.05925   0.00107   0.00022   0.00698   0.00720   2.06645
    A4        2.19468  -0.00074  -0.00049  -0.00343  -0.00393   2.19075
    A5        2.10032   0.00086   0.00072   0.00483   0.00555   2.10586
    A6        1.98819  -0.00012  -0.00022  -0.00140  -0.00162   1.98657
    A7        2.18419  -0.00336  -0.00216  -0.01552  -0.01768   2.16651
    A8        2.04950   0.00168   0.00108   0.00776   0.00884   2.05834
    A9        2.04950   0.00168   0.00108   0.00776   0.00884   2.05834
   A10        2.19468  -0.00074  -0.00049  -0.00343  -0.00393   2.19075
   A11        1.98819  -0.00012  -0.00022  -0.00140  -0.00162   1.98657
   A12        2.10032   0.00086   0.00072   0.00483   0.00555   2.10586
   A13        2.13192  -0.00029   0.00030  -0.00196  -0.00166   2.13027
   A14        2.09201  -0.00078  -0.00052  -0.00502  -0.00554   2.08647
   A15        2.05925   0.00107   0.00022   0.00698   0.00720   2.06645
    D1        0.00000  -0.00000  -0.00000  -0.00000  -0.00000   0.00000
    D2        3.14159   0.00000  -0.00000   0.00000   0.00000   3.14159
    D3       -3.14159  -0.00000   0.00000  -0.00000  -0.00000  -3.14159
    D4        0.00000  -0.00000   0.00000  -0.00000  -0.00000   0.00000
    D5       -3.14158  -0.00000  -0.00000  -0.00000  -0.00000  -3.14159
    D6        0.00001  -0.00000  -0.00000  -0.00000  -0.00000   0.00000
    D7        0.00001  -0.00000  -0.00000  -0.00000  -0.00000   0.00001
    D8       -3.14158  -0.00000  -0.00000  -0.00000  -0.00000  -3.14159
    D9       -3.14159  -0.00000  -0.00000  -0.00000  -0.00000  -3.14159
   D10        0.00001  -0.00000  -0.00000  -0.00000  -0.00000   0.00000
   D11        0.00001  -0.00000  -0.00000  -0.00000  -0.00000   0.00001
   D12       -3.14158  -0.00000  -0.00000  -0.00000  -0.00000  -3.14159
   D13        0.00000  -0.00000  -0.00000  -0.00000  -0.00000   0.00000
   D14       -3.14159  -0.00000   0.00000  -0.00000  -0.00000  -3.14159
   D15        3.14159  -0.00000  -0.00000   0.00000  -0.00000   3.14159
   D16        0.00000   0.00000   0.00000   0.00000   0.00000   0.00000
         Item               Value     Threshold  Converged?
 Maximum Force            0.003363     0.000450     NO 
 RMS     Force            0.001045     0.000300     NO 
 Maximum Displacement     0.027607     0.001800     NO 
 RMS     Displacement     0.011155     0.001200     NO 
 Predicted change in Energy=-8.660947D-05
 GradGradGradGradGradGradGradGradGradGradGradGradGradGradGradGradGradGrad

                          Input orientation:                          
 ---------------------------------------------------------------------
 Center     Atomic      Atomic             Coordinates (Angstroms)
 Number     Number       Type             X           Y           Z
 ---------------------------------------------------------------------
      1          6           0       -0.213764   -1.413486   -1.722918
      2          6           0       -0.166581   -0.955473   -0.446526
      3          1           0        0.561272   -2.066120   -2.134398
      4          1           0       -1.045449   -1.127847   -2.365666
      5          7           0        0.830885   -1.239995    0.476127
      6          1           0       -0.955297   -0.302882   -0.058019
      7          6           0        0.850274   -0.754973    1.776726
      8          1           0        1.594582   -1.840869    0.181022
      9          6           0        1.809484   -1.014540    2.700696
     10          1           0       -0.003540   -0.115226    2.022920
     11          1           0        2.671585   -1.650000    2.479558
     12          1           0        1.727267   -0.581127    3.696591
 ---------------------------------------------------------------------
                    Distance matrix (angstroms):
                    1          2          3          4          5
     1  C    0.000000
     2  C    1.356901   0.000000
     3  H    1.093586   2.147608   0.000000
     4  H    1.089226   2.117834   1.874939   0.000000
     5  N    2.440736   1.388229   2.751366   3.407198   0.000000
     6  H    2.134292   1.094936   3.117746   2.452332   2.086610
     7  C    3.716628   2.452966   4.135157   4.570800   1.388229
     8  H    2.660406   2.068680   2.545513   3.736815   1.015564
     9  C    4.880682   3.716628   5.103135   5.816486   2.440736
    10  H    3.970010   2.613573   4.626910   4.622842   2.086610
    11  H    5.103135   4.135157   5.090694   6.129044   2.751366
    12  H    5.816486   4.570800   6.129044   6.688634   3.407198
                    6          7          8          9         10
     6  H    0.000000
     7  C    2.613573   0.000000
     8  H    2.987378   2.068680   0.000000
     9  C    3.970010   1.356901   2.660406   0.000000
    10  H    2.295945   1.094936   2.987378   2.134292   0.000000
    11  H    4.626910   2.147608   2.545513   1.093586   3.117746
    12  H    4.622842   2.117834   3.736815   1.089226   2.452332
                   11         12
    11  H    0.000000
    12  H    1.874939   0.000000
 Stoichiometry    C4H7N
 Framework group  C1[X(C4H7N)]
 Deg. of freedom    30
 Full point group                 C1      NOp   1
 Largest Abelian subgroup         C1      NOp   1
 Largest concise Abelian subgroup C1      NOp   1
                         Standard orientation:                         
 ---------------------------------------------------------------------
 Center     Atomic      Atomic             Coordinates (Angstroms)
 Number     Number       Type             X           Y           Z
 ---------------------------------------------------------------------
      1          6           0        2.440341    0.219612    0.000002
      2          6           0        1.226483   -0.386794   -0.000003
      3          1           0        2.545347    1.308145    0.000007
      4          1           0        3.344317   -0.388040   -0.000001
      5          7           0        0.000000    0.263529   -0.000001
      6          1           0        1.147973   -1.478912   -0.000008
      7          6           0       -1.226483   -0.386794    0.000002
      8          1           0        0.000000    1.279092   -0.000001
      9          6           0       -2.440341    0.219612   -0.000001
     10          1           0       -1.147973   -1.478912    0.000008
     11          1           0       -2.545347    1.308145   -0.000006
     12          1           0       -3.344317   -0.388040    0.000004
 ---------------------------------------------------------------------
 Rotational constants (GHZ):          32.5410789           2.3258506           2.1707012
 Standard basis: Aug-CC-pVDZ (5D, 7F)
 There are   188 symmetry adapted cartesian basis functions of A   symmetry.
 There are   178 symmetry adapted basis functions of A   symmetry.
   178 basis functions,   292 primitive gaussians,   188 cartesian basis functions
    19 alpha electrons       19 beta electrons
       nuclear repulsion energy       156.8432492473 Hartrees.
 NAtoms=   12 NActive=   12 NUniq=   12 SFac= 1.00D+00 NAtFMM=   60 NAOKFM=F Big=F
 Integral buffers will be    131072 words long.
 Raffenetti 1 integral format.
 Two-electron integral symmetry is turned on.
 One-electron integrals computed using PRISM.
 NBasis=   178 RedAO= T EigKep=  1.92D-05  NBF=   178
 NBsUse=   178 1.00D-06 EigRej= -1.00D+00 NBFU=   178
 Initial guess from the checkpoint file:  "/scr/Gau-41377.chk"
 B after Tr=    -0.000000    0.000000    0.000000
         Rot=    1.000000   -0.000000   -0.000000   -0.000000 Ang=  -0.00 deg.
 ExpMin= 2.97D-02 ExpMax= 9.05D+03 ExpMxC= 3.09D+02 IAcc=3 IRadAn=         5 AccDes= 0.00D+00
 Harris functional with IExCor=  205 and IRadAn=       5 diagonalized for initial guess.
 HarFok:  IExCor=  205 AccDes= 0.00D+00 IRadAn=         5 IDoV= 1 UseB2=F ITyADJ=14
 ICtDFT=  3500011 ScaDFX=  1.000000  1.000000  1.000000  1.000000
 FoFCou: FMM=F IPFlag=           0 FMFlag=      100000 FMFlg1=           0
         NFxFlg=           0 DoJE=T BraDBF=F KetDBF=T FulRan=T
         wScrn=  0.000000 ICntrl=       500 IOpCl=  0 I1Cent=   200000004 NGrid=           0
         NMat0=    1 NMatS0=      1 NMatT0=    0 NMatD0=    1 NMtDS0=    0 NMtDT0=    0
 Petite list used in FoFCou.
 Keep R1 ints in memory in canonical form, NReq=135790156.
 Requested convergence on RMS density matrix=1.00D-08 within 128 cycles.
 Requested convergence on MAX density matrix=1.00D-06.
 Requested convergence on             energy=1.00D-06.
 No special actions if energy rises.
 SCF Done:  E(RHF) =  -209.972655135     A.U. after   10 cycles
            NFock= 10  Conv=0.32D-08     -V/T= 2.0025
 ExpMin= 2.97D-02 ExpMax= 9.05D+03 ExpMxC= 3.09D+02 IAcc=3 IRadAn=         5 AccDes= 0.00D+00
 HarFok:  IExCor=  205 AccDes= 0.00D+00 IRadAn=         5 IDoV=-2 UseB2=F ITyADJ=14
 ICtDFT= 12500011 ScaDFX=  1.000000  1.000000  1.000000  1.000000
 Range of M.O.s used for correlation:     6   178
 NBasis=   178 NAE=    19 NBE=    19 NFC=     5 NFV=     0
 NROrb=    173 NOA=    14 NOB=    14 NVA=   159 NVB=   159

 **** Warning!!: The largest alpha MO coefficient is  0.62011428D+02

 Fully direct method using O(ONN) memory.
 JobTyp=1 Pass  1:  I=   6 to  19 NPSUse= 40 ParTrn=T ParDer=T DoDerP=T.
 Spin components of T(2) and E(2):
     alpha-alpha T2 =       0.3336461721D-01 E2=     -0.9026904947D-01
     alpha-beta  T2 =       0.1993009024D+00 E2=     -0.5550454096D+00
     beta-beta   T2 =       0.3336461721D-01 E2=     -0.9026904947D-01
 ANorm=    0.1125180046D+01
 E2 =    -0.7355835085D+00 EUMP2 =    -0.21070823864323D+03
          IDoAtm=111111111111
          Differentiating once with respect to electric field.
                with respect to dipole field.
          Differentiating once with respect to nuclear coordinates.
 Keep R1 ints in memory in canonical form, NReq=135802418.
          There are     1 degrees of freedom in the 1st order CPHF.  IDoFFX=0 NUNeed=     1.
 LinEq1:  Iter=  0 NonCon=     1 RMS=3.90D-03 Max=8.06D-02 NDo=     1
 AX will form     1 AO Fock derivatives at one time.
 LinEq1:  Iter=  1 NonCon=     1 RMS=7.27D-04 Max=6.80D-03 NDo=     1
 LinEq1:  Iter=  2 NonCon=     1 RMS=3.09D-04 Max=6.15D-03 NDo=     1
 LinEq1:  Iter=  3 NonCon=     1 RMS=6.41D-05 Max=5.54D-04 NDo=     1
 LinEq1:  Iter=  4 NonCon=     1 RMS=2.40D-05 Max=3.45D-04 NDo=     1
 LinEq1:  Iter=  5 NonCon=     1 RMS=5.82D-06 Max=1.40D-04 NDo=     1
 LinEq1:  Iter=  6 NonCon=     1 RMS=1.93D-06 Max=2.21D-05 NDo=     1
 LinEq1:  Iter=  7 NonCon=     1 RMS=6.37D-07 Max=1.12D-05 NDo=     1
 LinEq1:  Iter=  8 NonCon=     1 RMS=1.45D-07 Max=2.05D-06 NDo=     1
 LinEq1:  Iter=  9 NonCon=     1 RMS=3.10D-08 Max=3.19D-07 NDo=     1
 LinEq1:  Iter= 10 NonCon=     1 RMS=5.61D-09 Max=7.12D-08 NDo=     1
 LinEq1:  Iter= 11 NonCon=     1 RMS=9.54D-10 Max=1.07D-08 NDo=     1
 LinEq1:  Iter= 12 NonCon=     1 RMS=1.63D-10 Max=1.78D-09 NDo=     1
 LinEq1:  Iter= 13 NonCon=     0 RMS=1.98D-11 Max=2.90D-10 NDo=     1
 Linear equations converged to 1.000D-10 1.000D-09 after    13 iterations.
 End of Minotr F.D. properties file   721 does not exist.
 End of Minotr F.D. properties file   722 does not exist.
 End of Minotr F.D. properties file   788 does not exist.
 Calling FoFJK, ICntrl=  10002127 FMM=F ISym2X=0 I1Cent= 0 IOpClX= 0 NMat=1 NMatS=1 NMatT=0.
 ***** Axes restored to original set *****
 -------------------------------------------------------------------
 Center     Atomic                   Forces (Hartrees/Bohr)
 Number     Number              X              Y              Z
 -------------------------------------------------------------------
      1        6           0.000072719   -0.000014813    0.000082603
      2        6          -0.000653396    0.000006830   -0.001073758
      3        1          -0.000144142    0.000213743    0.000318034
      4        1          -0.000002681    0.000060726    0.000154342
      5        7           0.000604253   -0.000475434   -0.000233495
      6        1           0.000320895   -0.000175588    0.000077172
      7        6           0.000377602    0.000210170    0.001180328
      8        1          -0.000256500    0.000201815    0.000099116
      9        6          -0.000013389   -0.000031863   -0.000105523
     10        1           0.000164555   -0.000206364   -0.000264759
     11        1          -0.000348073    0.000173531   -0.000127835
     12        1          -0.000121842    0.000037246   -0.000106225
 -------------------------------------------------------------------
 Cartesian Forces:  Max     0.001180328 RMS     0.000358094

 GradGradGradGradGradGradGradGradGradGradGradGradGradGradGradGradGradGrad
 Berny optimization.
 Using GEDIIS/GDIIS optimizer.
 FormGI is forming the generalized inverse of G from B-inverse, IUseBI=4.
 Internal  Forces:  Max     0.000607120 RMS     0.000254986
 Search for a local minimum.
 Step number   3 out of a maximum of   52
 All quantities printed in internal units (Hartrees-Bohrs-Radians)
 Mixed Optimization -- En-DIIS/RFO-DIIS
 Update second derivatives using D2CorX and points    1    2    3
 DE= -1.00D-04 DEPred=-8.66D-05 R= 1.16D+00
 TightC=F SS=  1.41D+00  RLast= 2.89D-02 DXNew= 5.5094D-01 8.6765D-02
 Trust test= 1.16D+00 RLast= 2.89D-02 DXMaxT set to 3.28D-01
 ITU=  1  1  0
 Use linear search instead of GDIIS.
     Eigenvalues ---    0.02130   0.02130   0.02130   0.02563   0.02563
     Eigenvalues ---    0.02945   0.02945   0.02945   0.02945   0.13657
     Eigenvalues ---    0.16000   0.16000   0.16000   0.16000   0.16031
     Eigenvalues ---    0.16123   0.20072   0.22000   0.23070   0.34961
     Eigenvalues ---    0.34963   0.35399   0.35408   0.35511   0.35846
     Eigenvalues ---    0.44315   0.48014   0.51586   0.58274   0.63574
 RFO step:  Lambda=-5.55282483D-06 EMin= 2.13023523D-02
 Quartic linear search produced a step of  0.17270.
 Iteration  1 RMS(Cart)=  0.00322565 RMS(Int)=  0.00000383
 Iteration  2 RMS(Cart)=  0.00000556 RMS(Int)=  0.00000000
 Iteration  3 RMS(Cart)=  0.00000000 RMS(Int)=  0.00000000
 Variable       Old X    -DE/DX   Delta X   Delta X   Delta X     New X
                                 (Linear)    (Quad)   (Total)
    R1        2.56417  -0.00061  -0.00038  -0.00057  -0.00095   2.56322
    R2        2.06658  -0.00035  -0.00031  -0.00073  -0.00104   2.06553
    R3        2.05834  -0.00007   0.00010  -0.00027  -0.00017   2.05817
    R4        2.62337   0.00060   0.00093   0.00085   0.00178   2.62515
    R5        2.06913  -0.00031  -0.00048  -0.00051  -0.00099   2.06814
    R6        2.62337   0.00060   0.00093   0.00085   0.00178   2.62515
    R7        1.91914  -0.00034  -0.00050  -0.00045  -0.00095   1.91818
    R8        2.56417  -0.00061  -0.00038  -0.00057  -0.00095   2.56322
    R9        2.06913  -0.00031  -0.00048  -0.00051  -0.00099   2.06814
   R10        2.06658  -0.00035  -0.00031  -0.00073  -0.00104   2.06553
   R11        2.05834  -0.00007   0.00010  -0.00027  -0.00017   2.05817
    A1        2.13027  -0.00019  -0.00029  -0.00110  -0.00139   2.12888
    A2        2.08647  -0.00006  -0.00096   0.00030  -0.00066   2.08580
    A3        2.06645   0.00025   0.00124   0.00080   0.00205   2.06850
    A4        2.19075   0.00025  -0.00068   0.00178   0.00111   2.19185
    A5        2.10586   0.00010   0.00096   0.00026   0.00122   2.10708
    A6        1.98657  -0.00034  -0.00028  -0.00204  -0.00232   1.98425
    A7        2.16651  -0.00029  -0.00305   0.00066  -0.00239   2.16412
    A8        2.05834   0.00014   0.00153  -0.00033   0.00119   2.05953
    A9        2.05834   0.00014   0.00153  -0.00033   0.00119   2.05953
   A10        2.19075   0.00025  -0.00068   0.00178   0.00111   2.19185
   A11        1.98657  -0.00034  -0.00028  -0.00204  -0.00232   1.98425
   A12        2.10586   0.00010   0.00096   0.00026   0.00122   2.10708
   A13        2.13027  -0.00019  -0.00029  -0.00110  -0.00139   2.12888
   A14        2.08647  -0.00006  -0.00096   0.00030  -0.00066   2.08580
   A15        2.06645   0.00025   0.00124   0.00080   0.00205   2.06850
    D1        0.00000  -0.00000  -0.00000   0.00000  -0.00000   0.00000
    D2        3.14159   0.00000   0.00000   0.00000   0.00000   3.14159
    D3       -3.14159  -0.00000  -0.00000  -0.00000  -0.00000  -3.14159
    D4        0.00000  -0.00000  -0.00000  -0.00000  -0.00000   0.00000
    D5       -3.14159  -0.00000  -0.00000  -0.00000  -0.00000  -3.14159
    D6        0.00000  -0.00000  -0.00000  -0.00000  -0.00000   0.00000
    D7        0.00001  -0.00000  -0.00000  -0.00000  -0.00000   0.00001
    D8       -3.14159  -0.00000  -0.00000  -0.00000  -0.00000  -3.14159
    D9       -3.14159  -0.00000  -0.00000  -0.00000  -0.00000  -3.14159
   D10        0.00000  -0.00000  -0.00000  -0.00000  -0.00000   0.00000
   D11        0.00001  -0.00000  -0.00000  -0.00000  -0.00000   0.00000
   D12       -3.14159  -0.00000  -0.00000  -0.00000  -0.00000  -3.14159
   D13        0.00000   0.00000  -0.00000   0.00000  -0.00000  -0.00000
   D14       -3.14159  -0.00000  -0.00000  -0.00000  -0.00000  -3.14159
   D15        3.14159   0.00000  -0.00000   0.00000   0.00000   3.14159
   D16        0.00000  -0.00000   0.00000  -0.00000  -0.00000   0.00000
         Item               Value     Threshold  Converged?
 Maximum Force            0.000607     0.000450     NO 
 RMS     Force            0.000255     0.000300     YES
 Maximum Displacement     0.007769     0.001800     NO 
 RMS     Displacement     0.003226     0.001200     NO 
 Predicted change in Energy=-5.026601D-06
 GradGradGradGradGradGradGradGradGradGradGradGradGradGradGradGradGradGrad

                          Input orientation:                          
 ---------------------------------------------------------------------
 Center     Atomic      Atomic             Coordinates (Angstroms)
 Number     Number       Type             X           Y           Z
 ---------------------------------------------------------------------
      1          6           0       -0.215209   -1.412754   -1.723420
      2          6           0       -0.165367   -0.956450   -0.447052
      3          1           0        0.558952   -2.065081   -2.135566
      4          1           0       -1.048091   -1.125409   -2.363704
      5          7           0        0.833555   -1.242096    0.475095
      6          1           0       -0.951902   -0.304028   -0.055332
      7          6           0        0.851533   -0.755940    1.776296
      8          1           0        1.596873   -1.842672    0.180136
      9          6           0        1.808862   -1.013646    2.701996
     10          1           0       -0.003250   -0.116980    2.018809
     11          1           0        2.670867   -1.648649    2.481900
     12          1           0        1.723894   -0.578832    3.696953
 ---------------------------------------------------------------------
                    Distance matrix (angstroms):
                    1          2          3          4          5
     1  C    0.000000
     2  C    1.356397   0.000000
     3  H    1.093034   2.145876   0.000000
     4  H    1.089139   2.116909   1.875532   0.000000
     5  N    2.441823   1.389170   2.751048   3.407784   0.000000
     6  H    2.134128   1.094411   3.116306   2.452040   2.085469
     7  C    3.717170   2.453073   4.135471   4.569976   1.389170
     8  H    2.663080   2.069841   2.547395   3.739174   1.015060
     9  C    4.882669   3.717170   5.105859   5.816871   2.441823
    10  H    3.965884   2.609878   4.622770   4.616822   2.085469
    11  H    5.105859   4.135471   5.094565   6.130604   2.751048
    12  H    5.816871   4.569976   6.130604   6.686869   3.407784
                    6          7          8          9         10
     6  H    0.000000
     7  C    2.609878   0.000000
     8  H    2.986490   2.069841   0.000000
     9  C    3.965884   1.356397   2.663080   0.000000
    10  H    2.288447   1.094411   2.986490   2.134128   0.000000
    11  H    4.622770   2.145876   2.547395   1.093034   3.116306
    12  H    4.616822   2.116909   3.739174   1.089139   2.452040
                   11         12
    11  H    0.000000
    12  H    1.875532   0.000000
 Stoichiometry    C4H7N
 Framework group  C1[X(C4H7N)]
 Deg. of freedom    30
 Full point group                 C1      NOp   1
 Largest Abelian subgroup         C1      NOp   1
 Largest concise Abelian subgroup C1      NOp   1
                         Standard orientation:                         
 ---------------------------------------------------------------------
 Center     Atomic      Atomic             Coordinates (Angstroms)
 Number     Number       Type             X           Y           Z
 ---------------------------------------------------------------------
      1          6           0        2.441334    0.217607    0.000001
      2          6           0        1.226536   -0.385782   -0.000002
      3          1           0        2.547282    1.305494    0.000005
      4          1           0        3.343434   -0.392671   -0.000000
      5          7           0        0.000000    0.266447   -0.000001
      6          1           0        1.144224   -1.477093   -0.000005
      7          6           0       -1.226536   -0.385782    0.000001
      8          1           0        0.000000    1.281507   -0.000001
      9          6           0       -2.441334    0.217607   -0.000000
     10          1           0       -1.144224   -1.477093    0.000005
     11          1           0       -2.547282    1.305494   -0.000004
     12          1           0       -3.343434   -0.392671    0.000003
 ---------------------------------------------------------------------
 Rotational constants (GHZ):          32.6028079           2.3246720           2.1699485
 Standard basis: Aug-CC-pVDZ (5D, 7F)
 There are   188 symmetry adapted cartesian basis functions of A   symmetry.
 There are   178 symmetry adapted basis functions of A   symmetry.
   178 basis functions,   292 primitive gaussians,   188 cartesian basis functions
    19 alpha electrons       19 beta electrons
       nuclear repulsion energy       156.8354577123 Hartrees.
 NAtoms=   12 NActive=   12 NUniq=   12 SFac= 1.00D+00 NAtFMM=   60 NAOKFM=F Big=F
 Integral buffers will be    131072 words long.
 Raffenetti 1 integral format.
 Two-electron integral symmetry is turned on.
 One-electron integrals computed using PRISM.
 NBasis=   178 RedAO= T EigKep=  1.91D-05  NBF=   178
 NBsUse=   178 1.00D-06 EigRej= -1.00D+00 NBFU=   178
 Initial guess from the checkpoint file:  "/scr/Gau-41377.chk"
 B after Tr=     0.000000   -0.000000   -0.000000
         Rot=    1.000000   -0.000000   -0.000000   -0.000000 Ang=   0.00 deg.
 Keep R1 ints in memory in canonical form, NReq=135790156.
 Requested convergence on RMS density matrix=1.00D-08 within 128 cycles.
 Requested convergence on MAX density matrix=1.00D-06.
 Requested convergence on             energy=1.00D-06.
 No special actions if energy rises.
 SCF Done:  E(RHF) =  -209.972738628     A.U. after    9 cycles
            NFock=  9  Conv=0.44D-08     -V/T= 2.0024
 ExpMin= 2.97D-02 ExpMax= 9.05D+03 ExpMxC= 3.09D+02 IAcc=3 IRadAn=         5 AccDes= 0.00D+00
 HarFok:  IExCor=  205 AccDes= 0.00D+00 IRadAn=         5 IDoV=-2 UseB2=F ITyADJ=14
 ICtDFT= 12500011 ScaDFX=  1.000000  1.000000  1.000000  1.000000
 Range of M.O.s used for correlation:     6   178
 NBasis=   178 NAE=    19 NBE=    19 NFC=     5 NFV=     0
 NROrb=    173 NOA=    14 NOB=    14 NVA=   159 NVB=   159

 **** Warning!!: The largest alpha MO coefficient is  0.62154389D+02

 Fully direct method using O(ONN) memory.
 JobTyp=1 Pass  1:  I=   6 to  19 NPSUse= 40 ParTrn=T ParDer=T DoDerP=T.
 Spin components of T(2) and E(2):
     alpha-alpha T2 =       0.3335473251D-01 E2=     -0.9025634101D-01
     alpha-beta  T2 =       0.1992382972D+00 E2=     -0.5549924895D+00
     beta-beta   T2 =       0.3335473251D-01 E2=     -0.9025634101D-01
 ANorm=    0.1125143441D+01
 E2 =    -0.7355051715D+00 EUMP2 =    -0.21070824379997D+03
          IDoAtm=111111111111
          Differentiating once with respect to electric field.
                with respect to dipole field.
          Differentiating once with respect to nuclear coordinates.
 Keep R1 ints in memory in canonical form, NReq=135802418.
          There are     1 degrees of freedom in the 1st order CPHF.  IDoFFX=0 NUNeed=     1.
 LinEq1:  Iter=  0 NonCon=     1 RMS=3.90D-03 Max=8.06D-02 NDo=     1
 AX will form     1 AO Fock derivatives at one time.
 LinEq1:  Iter=  1 NonCon=     1 RMS=7.26D-04 Max=6.79D-03 NDo=     1
 LinEq1:  Iter=  2 NonCon=     1 RMS=3.09D-04 Max=6.12D-03 NDo=     1
 LinEq1:  Iter=  3 NonCon=     1 RMS=6.43D-05 Max=5.51D-04 NDo=     1
 LinEq1:  Iter=  4 NonCon=     1 RMS=2.41D-05 Max=3.47D-04 NDo=     1
 LinEq1:  Iter=  5 NonCon=     1 RMS=5.94D-06 Max=1.42D-04 NDo=     1
 LinEq1:  Iter=  6 NonCon=     1 RMS=1.96D-06 Max=2.26D-05 NDo=     1
 LinEq1:  Iter=  7 NonCon=     1 RMS=6.30D-07 Max=1.11D-05 NDo=     1
 LinEq1:  Iter=  8 NonCon=     1 RMS=1.44D-07 Max=2.03D-06 NDo=     1
 LinEq1:  Iter=  9 NonCon=     1 RMS=3.08D-08 Max=3.18D-07 NDo=     1
 LinEq1:  Iter= 10 NonCon=     1 RMS=5.59D-09 Max=7.10D-08 NDo=     1
 LinEq1:  Iter= 11 NonCon=     1 RMS=9.51D-10 Max=1.05D-08 NDo=     1
 LinEq1:  Iter= 12 NonCon=     1 RMS=1.62D-10 Max=1.75D-09 NDo=     1
 LinEq1:  Iter= 13 NonCon=     0 RMS=1.97D-11 Max=2.88D-10 NDo=     1
 Linear equations converged to 1.000D-10 1.000D-09 after    13 iterations.
 End of Minotr F.D. properties file   721 does not exist.
 End of Minotr F.D. properties file   722 does not exist.
 End of Minotr F.D. properties file   788 does not exist.
 Calling FoFJK, ICntrl=  10002127 FMM=F ISym2X=0 I1Cent= 0 IOpClX= 0 NMat=1 NMatS=1 NMatT=0.
 ***** Axes restored to original set *****
 -------------------------------------------------------------------
 Center     Atomic                   Forces (Hartrees/Bohr)
 Number     Number              X              Y              Z
 -------------------------------------------------------------------
      1        6          -0.000029723    0.000041753    0.000059405
      2        6           0.000064050   -0.000097338   -0.000147446
      3        1           0.000021920   -0.000008571    0.000014213
      4        1           0.000015907    0.000002661    0.000033566
      5        7          -0.000117425    0.000092379    0.000045373
      6        1          -0.000027428    0.000037247    0.000051636
      7        6           0.000159450   -0.000078501    0.000061086
      8        1           0.000050230   -0.000039520   -0.000019410
      9        6          -0.000067011    0.000034358   -0.000022027
     10        1          -0.000059305    0.000030992   -0.000018120
     11        1           0.000004287   -0.000012048   -0.000024340
     12        1          -0.000014954   -0.000003412   -0.000033936
 -------------------------------------------------------------------
 Cartesian Forces:  Max     0.000159450 RMS     0.000059087

 GradGradGradGradGradGradGradGradGradGradGradGradGradGradGradGradGradGrad
 Berny optimization.
 Using GEDIIS/GDIIS optimizer.
 FormGI is forming the generalized inverse of G from B-inverse, IUseBI=4.
 Internal  Forces:  Max     0.000113219 RMS     0.000035207
 Search for a local minimum.
 Step number   4 out of a maximum of   52
 All quantities printed in internal units (Hartrees-Bohrs-Radians)
 Mixed Optimization -- En-DIIS/RFO-DIIS
 Swapping is turned off.
 Update second derivatives using D2CorX and points    1    2    3    4
 DE= -5.16D-06 DEPred=-5.03D-06 R= 1.03D+00
 TightC=F SS=  1.41D+00  RLast= 7.15D-03 DXNew= 5.5094D-01 2.1449D-02
 Trust test= 1.03D+00 RLast= 7.15D-03 DXMaxT set to 3.28D-01
 ITU=  1  1  1  0
     Eigenvalues ---    0.02130   0.02130   0.02130   0.02563   0.02563
     Eigenvalues ---    0.02945   0.02945   0.02945   0.02945   0.12734
     Eigenvalues ---    0.16000   0.16000   0.16000   0.16000   0.16028
     Eigenvalues ---    0.16113   0.20349   0.22000   0.22745   0.34963
     Eigenvalues ---    0.35231   0.35373   0.35408   0.35511   0.36736
     Eigenvalues ---    0.45278   0.48506   0.51586   0.58274   0.61927
 En-DIIS/RFO-DIIS/Sim-DIIS IScMMF=       -3 using points:     4    3
 RFO step:  Lambda=-1.44638178D-07.
 DidBck=F Rises=F RFO-DIIS coefs:    1.05706   -0.05706
 Iteration  1 RMS(Cart)=  0.00019415 RMS(Int)=  0.00000002
 Iteration  2 RMS(Cart)=  0.00000002 RMS(Int)=  0.00000000
 Variable       Old X    -DE/DX   Delta X   Delta X   Delta X     New X
                                 (Linear)    (Quad)   (Total)
    R1        2.56322  -0.00011  -0.00005  -0.00015  -0.00020   2.56302
    R2        2.06553   0.00002  -0.00006   0.00010   0.00004   2.06557
    R3        2.05817  -0.00003  -0.00001  -0.00008  -0.00009   2.05808
    R4        2.62515  -0.00004   0.00010  -0.00016  -0.00006   2.62509
    R5        2.06814   0.00006  -0.00006   0.00023   0.00017   2.06831
    R6        2.62515  -0.00004   0.00010  -0.00016  -0.00006   2.62509
    R7        1.91818   0.00007  -0.00005   0.00020   0.00014   1.91833
    R8        2.56322  -0.00011  -0.00005  -0.00015  -0.00020   2.56302
    R9        2.06814   0.00006  -0.00006   0.00023   0.00017   2.06831
   R10        2.06553   0.00002  -0.00006   0.00010   0.00004   2.06557
   R11        2.05817  -0.00003  -0.00001  -0.00008  -0.00009   2.05808
    A1        2.12888  -0.00002  -0.00008  -0.00005  -0.00013   2.12876
    A2        2.08580  -0.00001  -0.00004  -0.00005  -0.00009   2.08572
    A3        2.06850   0.00003   0.00012   0.00010   0.00021   2.06871
    A4        2.19185   0.00001   0.00006   0.00001   0.00007   2.19192
    A5        2.10708   0.00003   0.00007   0.00014   0.00021   2.10730
    A6        1.98425  -0.00004  -0.00013  -0.00015  -0.00028   1.98397
    A7        2.16412   0.00001  -0.00014   0.00015   0.00002   2.16414
    A8        2.05953  -0.00001   0.00007  -0.00008  -0.00001   2.05952
    A9        2.05953  -0.00001   0.00007  -0.00008  -0.00001   2.05952
   A10        2.19185   0.00001   0.00006   0.00001   0.00007   2.19192
   A11        1.98425  -0.00004  -0.00013  -0.00015  -0.00028   1.98397
   A12        2.10708   0.00003   0.00007   0.00014   0.00021   2.10730
   A13        2.12888  -0.00002  -0.00008  -0.00005  -0.00013   2.12876
   A14        2.08580  -0.00001  -0.00004  -0.00005  -0.00009   2.08572
   A15        2.06850   0.00003   0.00012   0.00010   0.00021   2.06871
    D1        0.00000  -0.00000  -0.00000  -0.00000  -0.00000   0.00000
    D2        3.14159   0.00000   0.00000   0.00000   0.00000   3.14159
    D3       -3.14159  -0.00000  -0.00000  -0.00000  -0.00000  -3.14159
    D4        0.00000  -0.00000  -0.00000  -0.00000  -0.00000   0.00000
    D5       -3.14159  -0.00000  -0.00000  -0.00000  -0.00000  -3.14159
    D6        0.00000  -0.00000  -0.00000  -0.00000  -0.00000   0.00000
    D7        0.00001  -0.00000  -0.00000  -0.00000  -0.00000   0.00000
    D8       -3.14159  -0.00000  -0.00000  -0.00000  -0.00000  -3.14159
    D9       -3.14159  -0.00000  -0.00000  -0.00000  -0.00000  -3.14159
   D10        0.00000  -0.00000  -0.00000  -0.00000  -0.00000   0.00000
   D11        0.00000  -0.00000  -0.00000  -0.00000  -0.00000   0.00000
   D12       -3.14159  -0.00000  -0.00000  -0.00000  -0.00000  -3.14159
   D13       -0.00000  -0.00000  -0.00000  -0.00000  -0.00000  -0.00000
   D14       -3.14159  -0.00000  -0.00000  -0.00000  -0.00000  -3.14159
   D15        3.14159   0.00000   0.00000   0.00000   0.00000   3.14159
   D16        0.00000  -0.00000  -0.00000  -0.00000  -0.00000   0.00000
         Item               Value     Threshold  Converged?
 Maximum Force            0.000113     0.000450     YES
 RMS     Force            0.000035     0.000300     YES
 Maximum Displacement     0.000572     0.001800     YES
 RMS     Displacement     0.000194     0.001200     YES
 Predicted change in Energy=-7.231913D-08
 Optimization completed.
    -- Stationary point found.
                           ----------------------------
                           !   Optimized Parameters   !
                           ! (Angstroms and Degrees)  !
 --------------------------                            --------------------------
 ! Name  Definition              Value          Derivative Info.                !
 --------------------------------------------------------------------------------
 ! R1    R(1,2)                  1.3564         -DE/DX =   -0.0001              !
 ! R2    R(1,3)                  1.093          -DE/DX =    0.0                 !
 ! R3    R(1,4)                  1.0891         -DE/DX =    0.0                 !
 ! R4    R(2,5)                  1.3892         -DE/DX =    0.0                 !
 ! R5    R(2,6)                  1.0944         -DE/DX =    0.0001              !
 ! R6    R(5,7)                  1.3892         -DE/DX =    0.0                 !
 ! R7    R(5,8)                  1.0151         -DE/DX =    0.0001              !
 ! R8    R(7,9)                  1.3564         -DE/DX =   -0.0001              !
 ! R9    R(7,10)                 1.0944         -DE/DX =    0.0001              !
 ! R10   R(9,11)                 1.093          -DE/DX =    0.0                 !
 ! R11   R(9,12)                 1.0891         -DE/DX =    0.0                 !
 ! A1    A(2,1,3)              121.976          -DE/DX =    0.0                 !
 ! A2    A(2,1,4)              119.5078         -DE/DX =    0.0                 !
 ! A3    A(3,1,4)              118.5162         -DE/DX =    0.0                 !
 ! A4    A(1,2,5)              125.584          -DE/DX =    0.0                 !
 ! A5    A(1,2,6)              120.7269         -DE/DX =    0.0                 !
 ! A6    A(5,2,6)              113.6891         -DE/DX =    0.0                 !
 ! A7    A(2,5,7)              123.995          -DE/DX =    0.0                 !
 ! A8    A(2,5,8)              118.0025         -DE/DX =    0.0                 !
 ! A9    A(7,5,8)              118.0025         -DE/DX =    0.0                 !
 ! A10   A(5,7,9)              125.584          -DE/DX =    0.0                 !
 ! A11   A(5,7,10)             113.6891         -DE/DX =    0.0                 !
 ! A12   A(9,7,10)             120.7269         -DE/DX =    0.0                 !
 ! A13   A(7,9,11)             121.976          -DE/DX =    0.0                 !
 ! A14   A(7,9,12)             119.5078         -DE/DX =    0.0                 !
 ! A15   A(11,9,12)            118.5162         -DE/DX =    0.0                 !
 ! D1    D(3,1,2,5)              0.0            -DE/DX =    0.0                 !
 ! D2    D(3,1,2,6)            180.0            -DE/DX =    0.0                 !
 ! D3    D(4,1,2,5)           -179.9999         -DE/DX =    0.0                 !
 ! D4    D(4,1,2,6)              0.0            -DE/DX =    0.0                 !
 ! D5    D(1,2,5,7)           -179.9997         -DE/DX =    0.0                 !
 ! D6    D(1,2,5,8)              0.0002         -DE/DX =    0.0                 !
[...]
 024626,-0.00005857,-0.00004587,-0.00012781,-0.00168187,-0.00594452,-0.
 00502801,0.00003336,0.00010671,0.00004700,-0.33691269,0.05349405,0.000
 29356,0.00014500,0.00046333,-0.00084990,0.00018888,-0.00041295,-0.0001
 2867,0.00002482,-0.00014415,0.00008468,-0.00009183,-0.00001765,-0.0001
 8003,0.00022502,-0.00086767,-0.00006152,-0.00000738,-0.00015650,0.0074
 0281,-0.00285063,-0.00018101,0.00008020,-0.00002583,0.00017653,-0.1813
 8662,0.58281713,0.83615162,-0.00011706,0.00005341,0.00000278,0.0001466
 7,-0.00001711,-0.00002056,0.00000094,0.00001049,0.00000604,0.00010002,
 -0.00000126,0.00005656,0.00007197,0.00008323,-0.00007285,-0.00010771,-
 0.00011517,0.00003783,-0.00894259,0.00950412,0.00426738,-0.00001144,0.
 00001999,-0.00001721,-0.00024921,0.00069079,-0.00068116,0.00878332,-0.
 00001799,-0.00002508,-0.00000374,-0.00003318,0.00014693,-0.00001693,0.
 00002169,-0.00001032,-0.00002669,0.00005234,0.00002914,-0.00000420,0.0
 0014016,0.00011165,-0.00011666,-0.00010077,-0.00021543,0.00008044,0.00
 905264,-0.00341222,-0.00262548,0.00001703,0.00002143,0.00000568,0.0007
 3897,0.00085932,0.00024055,-0.00949658,0.00333592,-0.00018392,0.000115
 55,-0.00004031,-0.00006260,0.00000994,0.00005358,0.00003531,-0.0000453
 9,-0.00004594,0.00019672,-0.00009376,0.00014772,0.00007603,-0.00021177
 ,-0.00018089,0.00007549,0.00005637,-0.00003704,0.00308692,-0.00187116,
 0.00364172,-0.00002493,0.00001062,0.00001625,-0.00055521,0.00016004,0.
 00073038,-0.00393388,0.00259183,-0.00351962,-0.00001432,0.00000629,-0.
 00001874,0.00001814,-0.00005304,0.00018223,-0.00003947,0.00003672,0.00
 005348,0.00004083,0.00003311,-0.00002610,-0.00035013,0.00032058,0.0004
 5309,-0.00005072,0.00002674,-0.00004132,0.00279816,-0.00147072,-0.0001
 0810,0.00007554,0.00003117,0.00038919,-0.29000945,0.29700637,0.0893844
 9,0.00024331,0.00013319,0.00027582,0.29058755,-0.00003261,0.00000896,-
 0.00004864,0.00000022,-0.00016937,0.00001226,0.00002967,-0.00003756,-0
 .00001199,0.00004649,0.00007324,-0.00001391,0.00027137,-0.00038686,-0.
 00024539,0.00003801,-0.00000090,0.00001969,-0.00279852,0.00226120,-0.0
 0023108,-0.00007575,-0.00012397,-0.00016668,0.29566350,-0.09275010,-0.
 06564796,-0.00001742,0.00017429,-0.00032290,-0.29382725,0.09158939,-0.
 00012043,0.00001634,-0.00015177,0.00032149,-0.00007673,0.00016262,0.00
 003504,-0.00000021,0.00004399,0.00000887,-0.00003626,0.00002829,0.0003
 2438,-0.00016317,-0.00000425,-0.00001186,0.00000086,-0.00000171,-0.003
 57998,0.00198747,-0.00022350,0.00010964,0.00001195,0.00010581,0.085873
 20,-0.06340422,0.09898213,-0.00011796,-0.00007127,-0.00009678,-0.08328
 222,0.06071051,-0.09979542,-0.00003880,0.00002433,-0.00008575,0.000332
 67,-0.00006944,-0.00004740,0.00003593,0.00003378,-0.00002992,-0.000053
 37,-0.00005394,-0.00001004,-0.00017520,0.00043778,-0.00061429,-0.00000
 448,0.00003183,-0.00003931,-0.00114880,-0.00092171,-0.00618151,-0.0001
 2878,0.00006102,-0.00003641,0.25455357,0.04159330,0.08604213,0.0000818
 0,-0.00050751,0.00101425,-0.00329944,0.00070229,0.00043982,-0.25015510
 ,0.00004520,0.00004884,0.00007091,-0.00011245,0.00027752,-0.00012215,0
 .00004718,0.00007294,-0.00000944,-0.00001882,-0.00009815,0.00005649,0.
 00106813,0.00041313,0.00057038,0.00008558,0.00004849,0.00008973,0.0017
 2373,0.00205514,0.00535539,0.00002009,-0.00005997,-0.00009317,0.041430
 73,0.04470535,-0.51501775,-0.00071450,-0.00101562,-0.00039936,-0.00224
 317,-0.00063833,0.00102472,-0.04133171,-0.04580934,-0.00003119,0.00003
 605,0.00009274,-0.00015987,-0.00005028,-0.00014620,0.00000512,-0.00003
 183,0.00003202,0.00008179,-0.00000219,-0.00000084,0.00103394,-0.000482
 85,0.00134257,0.00010122,-0.00000008,0.00023780,0.00073563,0.00093533,
 0.00478314,-0.00014340,-0.00002480,-0.00031595,0.08561709,-0.51474616,
 -0.93472404,0.00047303,-0.00005352,-0.00066903,-0.00726180,0.00594609,
 0.00095058,-0.08045156,0.50847423,0.92841722,0.75467960,-0.54933973,-0
 .05834747,0.46712759,-0.06489248,0.22625066,-0.00834956,0.00282663,0.0
 0139569,0.00646650,0.00149963,-0.00408951,0.00426268,-0.00693924,0.004
 73564,-0.00207392,0.00647986,0.00871613,-0.00725993,0.00091256,-0.0097
 9161,-0.18885282,0.26585066,0.17678398,0.00313752,-0.00292656,-0.00317
 173,0.18369915,0.26719987,-0.10833557,-0.15417251,-0.00163377,0.002117
 81,0.00161529,-0.26228736,0.10805058,0.18031178,-0.15642683,0.01363475
 ,0.00020851,-0.00054474,-0.00061988,-0.17930708,0.15658209,-0.00961748
 ,-0.55827820,0.28099033,-0.64556225,0.00512144,-0.00020297,0.00637751,
 0.00297750,-0.00411522,-0.00168727,0.55061372,0.28113094,0.17061677,0.
 21556853,-0.00283125,0.00099063,-0.00472049,-0.00117365,-0.00155504,0.
 00038586,-0.27729446,-0.16987628,-0.64519467,0.21533363,-0.24715938,-0
 .00049455,-0.00032911,-0.00070009,0.00600403,-0.00452901,-0.00426285,0
 .63998319,-0.21103538,0.25114885,-0.00021082,-0.00079075,-0.00027103,0
 .00111417,-0.00017331,0.00071434,-0.00061565,0.00042585,0.00025185,0.0
 0036267,0.00034699,-0.00011002,-0.00113249,-0.00080956,-0.00062156,0.0
 0038479,-0.00081023,0.00086056,-0.00018971,0.00036899,-0.00035386,-0.0
 0004730,0.00097435,0.00035168,0.00000728,0.00012830,-0.00053121,-0.000
 32021,0.00041621,-0.00073279,-0.00095102,0.00087449,0.00111281,0.00010
 320,0.00004771,0.00019716,0.00153035,-0.00104095,0.00080672,-0.0010015
 4,-0.00030586,-0.00280525,0.00086928,0.00038358,0.00044713,-0.00699652
 ,0.00897919,0.00569014,-0.00005276,0.00021937,0.00002332,-0.00105715,-
 0.00015316,-0.00000946,-0.00006532,0.00018926,-0.00003922,0.00724951,0
 .00035254,0.00066078,-0.00082593,0.00944513,-0.00408857,-0.00445166,0.
 00006431,0.00021133,-0.00006313,-0.00036415,-0.00082786,0.00060301,0.0
 0010508,0.00015697,-0.00007895,-0.00954675,0.00390796,0.00036595,-0.00
 077409,-0.00021056,0.00690842,-0.00523014,0.00151704,-0.00038210,0.000
 19594,0.00015048,-0.00056111,0.00095553,0.00026970,-0.00025930,0.00006
 170,-0.00001761,-0.00613457,0.00477490,-0.00178363,0.00007275,0.000119
 29,-0.00005743,-0.00078480,-0.00000133,0.00048077,-0.00003048,-0.00001
 378,0.00001954,0.00027035,-0.00005210,-0.00016526,0.00130896,-0.000229
 89,0.00088931,0.00011543,-0.00006871,-0.00001987,0.00513185,0.00010512
 ,0.00005286,-0.00045432,0.00015588,-0.00107515,0.00025914,0.00001471,-
 0.00002354,0.00012969,-0.00013670,0.00037670,0.00000420,-0.00086585,0.
 00083092,-0.00036433,-0.00008326,0.00008106,0.00002109,-0.00653432,0.0
 0492553,-0.00009449,-0.00043065,-0.00099012,0.00089193,-0.00000359,0.0
 0040626,0.00009402,0.00008210,0.00030802,-0.00038648,0.00014556,0.0000
 2261,-0.00077362,0.00069828,0.00095010,-0.00005792,0.00004540,0.000041
 73,-0.00842770,0.00209159,-0.00866208,0.00012189,-0.00003069,-0.000042
 39,0.00014472,-0.00030151,-0.00028294,-0.00015826,0.00010559,0.0001673
 8,-0.00015403,0.00008278,-0.00007198,-0.00018962,0.00009010,0.00021781
 ,0.00002787,0.00001530,0.00001249,0.00008312,-0.00017688,-0.00005758,0
 .00005098,0.00001813,0.00010879,0.00005528,-0.00019469,0.00002082,0.00
 014168,0.00000478,-0.00007782,0.00004819,0.00004629,-0.00004049,-0.000
 07710,0.00009005,-0.00023392,0.00000681,0.00001484,0.00002368,-0.00002
 921,-0.00028325,0.00002861,0.00001789,0.00020024,0.00019104,0.00008527
 ,-0.00002629,0.00017297,-0.00000364,-0.00003680,-0.00026008,-0.0000962
 1,0.00021662,0.00031246,-0.00016735,-0.00001615,-0.00030326,0.00021768
 ,0.00000689,0.00020278,0.00001130,-0.00002845,-0.00001117,-0.00033570,
 0.00019561,-0.00020867,0.00001321,-0.00009786,0.00012260,0.00031460,-0
 .00033596,0.00032166,-0.00050785,0.00028926,-0.00057899,-0.00012580,0.
 00007785,-0.00004749,-0.00002482,0.00014074,0.00004719,-0.00010466,-0.
 00082048,-0.00017585,0.00003583,0.00003403,0.00008418,0.00198921,-0.00
 022239,0.01067997,0.00013229,-0.00003290,-0.00003378,0.03397994,-0.000
 50100,-0.00004557,0.00009924,0.00027525,0.00014126,0.00006745,0.000082
 91,-0.00003944,-0.00002855,0.00020723,0.00000112,-0.00008796,-0.000838
 69,-0.00063718,0.00028840,-0.00001990,0.00000004,-0.00013432,-0.001546
 30,-0.00568145,-0.00501701,0.00001586,0.00010846,0.00004590,-0.3359892
 7,0.05330588,-0.00010988,0.00037499,0.00039326,-0.00061562,0.00009086,
 -0.00049969,-0.00003425,-0.00003700,-0.00012952,0.00022104,-0.00019905
 ,0.00001603,-0.00022347,0.00031884,-0.00082314,-0.00005682,-0.00004421
 ,-0.00017186,0.00721826,-0.00280502,-0.00002457,0.00009369,-0.00003555
 ,0.00016463,-0.18093867,0.58082024,0.83284435,-0.00010518,0.00007520,-
 0.00004264,0.00012159,-0.00007021,-0.00001398,-0.00001080,0.00001485,0
 .00001034,0.00011183,-0.00001904,0.00006139,0.00009575,0.00005691,-0.0
 0011483,-0.00007684,-0.00007693,0.00004973,-0.00967527,0.01021474,0.00
 446500,-0.00001035,0.00002613,-0.00002214,-0.00025613,0.00068292,-0.00
 064724,0.00949541,0.00002122,0.00002132,-0.00000825,-0.00008480,0.0000
 8033,0.00001586,0.00002347,-0.00001750,-0.00002287,0.00003268,0.000024
 97,0.00000147,0.00014109,0.00013173,-0.00008279,-0.00008354,-0.0001563
 7,0.00004510,0.00974926,-0.00366076,-0.00279417,0.00002571,0.00002943,
 0.00000538,0.00071458,0.00083415,0.00023737,-0.01018803,0.00354797,-0.
 00018380,0.00008195,-0.00005478,-0.00005213,0.00004024,0.00003819,0.00
 003289,-0.00003727,-0.00003626,0.00019665,-0.00008496,0.00015172,0.000
 10528,-0.00022342,-0.00015476,0.00003247,0.00005613,-0.00002597,0.0032
 4791,-0.00201644,0.00379196,-0.00002325,0.00000608,0.00002085,-0.00056
 449,0.00018446,0.00073918,-0.00408125,0.00272775,-0.00369224,-0.000097
 66,0.00006943,-0.00002250,0.00011466,-0.00005707,0.00015054,-0.0000029
 3,0.00002308,0.00007354,0.00004361,-0.00001837,-0.00001716,-0.00036491
 ,0.00035127,0.00047547,-0.00005122,0.00002671,-0.00002613,0.00272240,-
 0.00150861,-0.00015811,0.00008119,0.00003485,0.00038175,-0.28901124,0.
 29615749,0.08923703,0.00023359,0.00013438,0.00028108,0.28955949,0.0000
 7457,-0.00004370,-0.00005359,-0.00002862,-0.00004688,-0.00000111,-0.00
 001000,-0.00001345,-0.00002356,-0.00001432,0.00003568,0.00000364,0.000
 29440,-0.00039150,-0.00027095,0.00003533,-0.00001116,0.00001358,-0.002
 79766,0.00217589,-0.00017784,-0.00006559,-0.00011453,-0.00016650,0.294
 81203,-0.09242657,-0.06559196,-0.00002048,0.00016627,-0.00032018,-0.29
 293747,0.09125872,-0.00000906,-0.00006218,-0.00015328,0.00022494,-0.00
 004865,0.00018388,-0.00001295,0.00003170,0.00005043,-0.00000656,-0.000
 00314,0.00000597,0.00032674,-0.00017594,-0.00001384,-0.00000359,-0.000
 00083,-0.00000193,-0.00352864,0.00197595,-0.00027297,0.00011913,0.0000
 0132,0.00010972,0.08571899,-0.06334390,0.09864021,-0.00012382,-0.00006
 145,-0.00009191,-0.08311662,0.06063897,-0.09944051,-0.00016388,0.00018
 200,-0.00007782,0.00041812,-0.00009584,-0.00003179,0.00003532,-0.00001
 632,-0.00002443,0.00001308,-0.00015940,-0.00003271,-0.00019808,0.00051
 097,-0.00061348,0.00000191,0.00001343,-0.00003771,-0.00120352,-0.00096
 244,-0.00617499,-0.00012980,0.00007552,-0.00005038,0.25357865,0.041473
 48,0.08585592,0.00007639,-0.00048601,0.00100866,-0.00322698,0.00065780
 ,0.00041142,-0.24920120,0.00024827,0.00002287,0.00003657,-0.00018028,0
 .00035308,-0.00012886,-0.00001226,0.00003650,0.00001114,-0.00012307,-0
 .00009787,0.00010534,0.00113686,0.00043738,0.00051021,0.00006502,0.000
 04216,0.00009994,0.00165876,0.00196933,0.00534239,0.00003911,-0.000044
 08,-0.00009835,0.04133250,0.04443931,-0.51312949,-0.00069605,-0.001001
 55,-0.00041434,-0.00227567,-0.00058875,0.00104815,-0.04119320,-0.04556
 838,0.00009543,-0.00007413,0.00013311,-0.00025259,0.00001223,-0.000102
 89,-0.00001381,0.00000435,0.00001270,0.00006229,0.00004463,0.00000398,
 0.00102308,-0.00053556,0.00127779,0.00009719,0.00001373,0.00024379,0.0
 0067875,0.00096285,0.00463770,-0.00014557,-0.00003753,-0.00032282,0.08
 548730,-0.51289396,-0.93114885,0.00045947,-0.00006341,-0.00068596,-0.0
 0725889,0.00594951,0.00098424,-0.08023266,0.50661730,0.92496722,-0.001
 80750,0.00132275,0.00017488,-0.00136932,-0.00016195,-0.00162934,0.0025
 4643,-0.00173982,0.00040971,-0.01666881,-0.00191787,0.00116032,0.00093
 168,0.00798425,-0.00598231,-0.00005573,0.00122912,0.00269915,-0.005565
 04,-0.00009656,-0.01039406,0.00030156,0.00006932,0.00047513,-0.0005519
 5,0.00003375,-0.00030298,-0.00022204,0.00019542,0.00000149,0.00000171,
 -0.00021052,-0.00011342,0.00018269,0.00005348,0.00008290,0.00080482,-0
 .00020897,0.00092400,-0.00094163,0.00059080,-0.00034632,-0.00048505,-0
 .00009111,-0.00089672,-0.00010889,-0.00032352,0.00032469,0.00009320,0.
 00005553,-0.00004302,0.00012416,0.00001358,-0.00006382,0.00002319,-0.0
 0030958,-0.00057201,0.00010377,0.00012245,0.00009992,-0.00007237,-0.00
 001105,0.00016906,-0.00005650,0.00010048,0.00014938,0.00036115,0.00008
 047,0.00000435,0.00013199,-0.00018420,-0.00005527,-0.00012822,-0.00001
 537,-0.00007078,-0.00008065,-0.00003950,-0.00000935,-0.00272350,0.0008
 6130,-0.00318667,0.01127221,-0.00922592,0.00540253,0.00052284,-0.00025
 639,0.00033574,0.00049499,0.00056583,-0.00066774,2.48180300,0.00095177
 ,-0.00001886,0.00015076,0.00187180,-0.00685505,0.00193519,-0.00038940,
 0.00016015,-0.00002436,0.00072398,0.00121729,-0.00026199,-2.82565418,1
 .10468613,-0.00295018,-0.00000035,-0.00439852,0.03441982,-0.01660718,0
 .00768754,-0.00001199,0.00019786,0.00041791,-0.00025423,-0.00052623,-0
 .00002055,-1.36996722,1.09619930,-0.54291845,0.00004634,0.00015231,-0.
 00013018,0.00137265,0.00203088,0.00271444,-0.00022115,-0.00020779,0.00
 007368,0.00001892,0.00008051,-0.00008689,-0.00096911,0.00010204,0.0005
 1090,-0.00161212,0.00014826,0.00022216,-0.00011951,0.00101329,0.001659
 98,-0.00161784,-0.00019491,-0.00040735,0.00015301,0.00010074,0.0001306
 3,-0.00000497,0.00002522,-0.00095232,0.00046802,-0.00094841,-0.0013562
 2,-0.00014084,-0.00011274,-0.00016743,0.00005377,0.00008240,0.00323147
 ,0.00010736,0.00013149,-0.00006724,-0.00003397,-0.00003878,0.00003876,
 0.00030992,0.00059645,0.00096217,-0.00114943,0.00116643,-0.00127901,0.
 00027470,0.00014678,0.00101882,0.00013144,0.00034689,-0.00107341,0.000
 10099,-0.00003293,-0.00006591,-0.00011079,-0.00014461,0.00007740,-0.01
 089489,-0.00269068,-0.01454764,0.00011612,0.00024471,0.00069242,-0.008
 31187,-0.00010794,-0.00013752,-0.00026438,0.00002595,0.00102269,-0.000
 72554,-0.00004186,0.00010349,-0.00003184,-0.00018029,-0.00024239,0.000
 06750,0.00840651,-0.00341578,0.02184623,-0.00006412,-0.00020570,-0.000
 86635,0.00551876,-0.00728505,0.00035281,0.00016121,0.00090562,-0.00191
 260,-0.00018931,-0.00237385,-0.00008928,-0.00001691,-0.00010446,-0.000
 01589,0.00012711,-0.00007760,0.01446865,0.00330449,0.02641613,-0.00011
 511,-0.00035033,-0.00102370,0.00196114,-0.00760705,-0.01746280,0.00127
 484,-0.00033499,0.00271763,0.00278195,0.00007805,-0.00157933,0.0000134
 0,0.00048073,0.00033717,-0.00055963,-0.00044481,0.00041487,-2.47947144
 ,2.82466803,1.35363232,0.00118841,-0.00012482,0.00088261,0.01494900,-0
 .01266015,-0.01455658,2.46149315,-0.00037878,-0.00091466,-0.00073414,-
 0.00907326,0.00928067,-0.00095824,0.00053346,0.00008372,-0.00036421,-0
 .00053006,-0.00103426,0.00034263,2.82466804,-1.09481681,-1.09966646,-0
 .00113343,0.00072270,-0.00121962,-0.00350892,0.00739273,0.00340288,-2.
 81121053,1.07987188,0.00260316,-0.00066100,0.00174521,-0.02550726,0.01
 433196,-0.00129505,0.00047505,-0.00045232,0.00017495,0.00019197,0.0004
 8507,0.00008502,1.35363199,-1.09966620,0.51712509,-0.00175470,0.000465
 65,-0.00124941,0.00937146,-0.01188745,-0.01157508,-1.34013590,1.096137
 91,-0.50879688,0.00007012,0.00003792,-0.00030516,-0.00005629,0.0002443
 2,0.00072205,-0.00003315,-0.00003550,0.00001116,0.00000921,-0.00001670
 ,-0.00002624,-0.00070387,0.00026553,-0.00136790,-0.00008280,-0.0000707
 3,-0.00014815,0.00272654,-0.00179231,0.00056983,-0.00113307,0.00037490
 ,0.00055050,-0.00048012,0.00020300,0.00020339,0.00005493,-0.00001048,-
 0.00008721,0.00003188,-0.00001842,-0.00007186,0.00003071,-0.00000267,0
 .00001453,0.00003672,0.00035635,-0.00033359,-0.00166355,-0.00001729,-0
 .00002545,0.00017864,-0.00196984,0.00113455,0.00077163,0.00033107,-0.0
 0054095,0.00142882,0.00093134,-0.00002951,0.00012648,-0.00022089,-0.00
 005415,0.00005582,0.00045761,0.00118366,0.00005582,0.00000218,0.000003
 58,0.00001047,0.00001326,0.00005095,-0.00113044,-0.00181524,-0.0061048
 4,-0.00000841,0.00008935,0.00011475,0.00010563,0.00106820,0.00255030,0
 .00043588,0.00150204,0.00377991,-0.00017699,-0.00135342,-0.00275131,0.
 00012383,-0.00013194,0.00003714,-0.00088474,0.00053988,-0.00020684,-0.
 00003009,0.00001084,-0.00001281,-0.00000985,0.00001896,-0.00000452,-0.
 00023474,-0.00019177,0.00097035,0.00009550,-0.00019749,-0.00063476,0.0
 0084731,0.00116801,-0.00042007,0.00025726,0.00014961,0.00004450,0.0000
 3355,0.00015216,-0.00015187,-0.00008526,-0.00007822,-0.00005750,-0.000
 00683,0.00023078,-0.00005115,0.00003243,-0.00000935,0.00000292,0.00000
 630,0.00001804,0.00001506,0.00001065,-0.00011474,-0.00106646,-0.000063
 24,0.00002222,0.00020701,0.00014345,0.00218515,0.00174271,0.00055566,-
 0.00085900,0.00086709,-0.00038326,0.00015643,0.00022356,-0.00010214,-0
 .00139784,-0.00159251,0.00017761,-0.00009659,-0.00006066,-0.00101505,0
 .00054889,-0.00017689,-0.00006560,0.00004003,-0.00001041,-0.00000691,0
 .00001218,0.00004283,0.00117181,-0.00019203,0.00034026,-0.00006028,-0.
 00022365,-0.00051913,0.00223956,-0.00114382,0.00367769,-0.00259281,0.0
 0130203,-0.00046299,-0.00014075,-0.00010929,-0.00015830,0.00022482,-0.
 00020501,-0.00256777,-0.00004186,-0.00003342,0.00000332,0.00006259,-0.
 00002103,-0.00010035,-0.00000680,-0.00002350,0.00000401,0.00000491,0.0
 0001167,0.00000516,0.00033986,-0.00020243,0.00017090,0.00002220,-0.000
 00448,0.00003417,0.00022582,-0.00043870,-0.00024068,-0.00038237,0.0005
 9739,-0.00001896,0.,0.00028434,0.00053153,-0.00019232,-0.00021616,0.00
 009992,-0.00013745,-0.00001619,-0.00007098,0.00003875,-0.00003003,0.00
 010982,0.00000233,-0.00003175,-0.00002362,0.00000541,0.00000580,0.0000
 1191,-0.00001167,-0.00033540,0.00018874,0.00014021,-0.00002466,-0.0000
 0505,-0.00004064,-0.00019465,-0.00023399,-0.00010913,0.00065012,0.0001
 4508,-0.00000873,0.00015860,0.00004985,0.00006376,-0.00020346,-0.00041
 190,0.00012679,0.00002667,0.00006813,0.00004837,0.00000997,0.00001073,
 -0.00012385,0.00001736,-0.00007182,-0.00001756,0.00001919,-0.00002514,
 -0.00001018,-0.00000187,-0.00000181,-0.00017679,0.00036236,0.00057286,
 -0.00001859,-0.00000692,-0.00005443,0.00039740,-0.00051685,-0.00100408
 ,0.00011890,-0.00009683,0.00050934,0.00020275,0.00027385,0.00118162,0.
 00013313,0.00010556,-0.00009194,-0.00040878,-0.00016683,-0.00097025,0.
 00004393,-0.00002670,0.00000486,-0.00009867,-0.00014870,0.00008770,0.0
 0000223,0.00001259,0.00000265,0.00002058,0.00002685,0.00000366,0.00056
 469,0.00054528,-0.00060512,0.00002507,0.00000862,0.00002688,-0.0000544
 0,0.00016617,-0.00000223,-0.00041148,-0.00048842,0.00054818,-0.0003500
 5,-0.00023960,0.00014609,0.00007956,0.00006270,-0.00003233,0.00010541,
 -0.00000504,-0.00014480,0.00007313,-0.00001264,0.00000930,0.00000521,-
 0.00018440,-0.00024427,0.00005690,0.00000673,0.00001252,-0.00000923,0.
 00001838,0.00004089,-0.00002029,0.00070336,0.00120659,-0.00032460,0.00
 000774,0.00000961,-0.00002073,0.00009938,0.00012423,-0.00005028,-0.000
 57368,-0.00105719,0.00020955,-0.00025383,-0.00053728,0.00029531,0.0000
 8306,0.00012117,-0.00005954,0.00001967,0.00017202,0.00000102,0.0000862
 6,0.00014239,0.00004164,-0.00001829,0.00002098,-0.00000567,0.00011657,
 -0.00008854,-0.00001268,0.00000057,0.00000064,-0.00001847,-0.00000615,
 0.00001346,-0.00019179,-0.00058872,-0.00007958,0.00002456,-0.00001925,
 0.00001319,-0.00017686,0.00006133,0.00007179,0.00032524,0.00035200,-0.
 00004011,0.00010889,0.00031909,0.00020386,0.00002092,-0.00009357,-0.00
 001269,-0.00008024,-0.00004025,-0.00005509,-0.00003554,-0.00008333,-0.
 00004790\\@
 The archive entry for this job was punched.


 HOW IS IT THAT THE SKY FEEDS THE STARS?

                           -- LUCRETIUS
 Job cpu time:       4 days 19 hours 36 minutes 19.6 seconds.
 Elapsed time:       0 days  2 hours 56 minutes 18.0 seconds.
 File lengths (MBytes):  RWF=   4246 Int=      0 D2E=      0 Chk=     47 Scr=      1
 Normal termination of Gaussian 16 at Fri Apr  4 19:08:58 2025.
