 Entering Gaussian System, Link 0=g16
 Input=enoloneco_mp2_avdz_opt_anharm.gjf
 Output=enoloneco_mp2_avdz_opt_anharm.log
 Initial command:
 /sw/contrib/chem-src/g16/c01/g16/l1.exe "/scr/Gau-92698.inp" -scrdir="/scr/"
 Entering Link 1 = /sw/contrib/chem-src/g16/c01/g16/l1.exe PID=     92699.
  
 Copyright (c) 1988-2019, Gaussian, Inc.  All Rights Reserved.
  
 This is part of the Gaussian(R) 16 program.  It is based on
 the Gaussian(R) 09 system (copyright 2009, Gaussian, Inc.),
 the Gaussian(R) 03 system (copyright 2003, Gaussian, Inc.),
 the Gaussian(R) 98 system (copyright 1998, Gaussian, Inc.),
 the Gaussian(R) 94 system (copyright 1995, Gaussian, Inc.),
 the Gaussian 92(TM) system (copyright 1992, Gaussian, Inc.),
 the Gaussian 90(TM) system (copyright 1990, Gaussian, Inc.),
 the Gaussian 88(TM) system (copyright 1988, Gaussian, Inc.),
 the Gaussian 86(TM) system (copyright 1986, Carnegie Mellon
 University), and the Gaussian 82(TM) system (copyright 1983,
 Carnegie Mellon University). Gaussian is a federally registered
 trademark of Gaussian, Inc.
  
 This software contains proprietary and confidential information,
 including trade secrets, belonging to Gaussian, Inc.
  
 This software is provided under written license and may be
 used, copied, transmitted, or stored only in accord with that
 written license.
  
 The following legend is applicable only to US Government
 contracts under FAR:
  
                    RESTRICTED RIGHTS LEGEND
  
 Use, reproduction and disclosure by the US Government is
 subject to restrictions as set forth in subparagraphs (a)
 and (c) of the Commercial Computer Software - Restricted
 Rights clause in FAR 52.227-19.
  
 Gaussian, Inc.
 340 Quinnipiac St., Bldg. 40, Wallingford CT 06492
  
  
 ---------------------------------------------------------------
 Warning -- This program may not be used in any manner that
 competes with the business of Gaussian, Inc. or will provide
 assistance to any competitor of Gaussian, Inc.  The licensee
 of this program is prohibited from giving any competitor of
 Gaussian, Inc. access to this program.  By using this program,
 the user acknowledges that Gaussian, Inc. is engaged in the
 business of creating and licensing software in the field of
 computational chemistry and represents and warrants to the
 licensee that it is not a competitor of Gaussian, Inc. and that
 it will not use this program in any manner prohibited above.
 ---------------------------------------------------------------
  

 Cite this work as:
 Gaussian 16, Revision C.01,
 M. J. Frisch, G. W. Trucks, H. B. Schlegel, G. E. Scuseria, 
 M. A. Robb, J. R. Cheeseman, G. Scalmani, V. Barone, 
 G. A. Petersson, H. Nakatsuji, X. Li, M. Caricato, A. V. Marenich, 
 J. Bloino, B. G. Janesko, R. Gomperts, B. Mennucci, H. P. Hratchian, 
 J. V. Ortiz, A. F. Izmaylov, J. L. Sonnenberg, D. Williams-Young, 
 F. Ding, F. Lipparini, F. Egidi, J. Goings, B. Peng, A. Petrone, 
 T. Henderson, D. Ranasinghe, V. G. Zakrzewski, J. Gao, N. Rega, 
 G. Zheng, W. Liang, M. Hada, M. Ehara, K. Toyota, R. Fukuda, 
 J. Hasegawa, M. Ishida, T. Nakajima, Y. Honda, O. Kitao, H. Nakai, 
 T. Vreven, K. Throssell, J. A. Montgomery, Jr., J. E. Peralta, 
 F. Ogliaro, M. J. Bearpark, J. J. Heyd, E. N. Brothers, K. N. Kudin, 
 V. N. Staroverov, T. A. Keith, R. Kobayashi, J. Normand, 
 K. Raghavachari, A. P. Rendell, J. C. Burant, S. S. Iyengar, 
 J. Tomasi, M. Cossi, J. M. Millam, M. Klene, C. Adamo, R. Cammi, 
 J. W. Ochterski, R. L. Martin, K. Morokuma, O. Farkas, 
 J. B. Foresman, and D. J. Fox, Gaussian, Inc., Wallingford CT, 2019.
 
 ******************************************
 Gaussian 16:  EM64L-G16RevC.01  3-Jul-2019
                22-Mar-2025 
 ******************************************
 %nprocshared=40
 Will use up to   40 processors via shared memory.
 %mem=50gb
 ----------------------------------------------
 # MP2/aug-cc-pVDZ opt freq=(vibrot,anharmonic)
 ----------------------------------------------
 1/18=20,19=15,38=1,80=1/1,3;
 2/9=110,12=2,17=6,18=5,40=1/2;
 3/5=16,7=10,11=9,25=1,30=1,71=1/1,2,3;
 4//1;
 5/5=2,38=5/2;
 8/6=4,10=1/1;
 9/15=2,16=-3/6;
 10/5=1/2;
 6/7=2,8=2,9=2,10=2/1;
 7/12=2/1,2,3,16;
 1/18=20,19=15,80=1/3(2);
 2/9=110/2;
 99//99;
 2/9=110/2;
 3/5=16,7=10,11=9,25=1,30=1,71=1/1,2,3;
 4/5=5,16=3,69=1/1;
 5/5=2,38=5/2;
 8/6=4,10=1/1;
 9/15=2,16=-3/6;
 10/5=1/2;
 7/12=2/1,2,3,16;
 1/18=20,19=15,80=1/3(-8);
 2/9=110/2;
 6/7=2,8=2,9=2,10=2/1;
 99/9=10/99;
 ----
 blah
 ----
 Symbolic Z-matrix:
 Charge =  0 Multiplicity = 1
 C                    -0.20024   1.13533   0.22427 
 C                    -0.92578   0.61391  -0.76922 
 H                     0.14451   0.54136   1.06203 
 O                     0.18454   2.4408    0.30398 
 C                    -1.43336   1.36083  -1.94721 
 H                     0.702     2.57656   1.11591 
 O                    -1.25948   2.54997  -2.16954 
 H                    -1.18746  -0.43774  -0.75246 
 H                    -2.01099   0.73545  -2.64862 
 

 GradGradGradGradGradGradGradGradGradGradGradGradGradGradGradGradGradGrad
 Berny optimization.
 Initialization pass.
                           ----------------------------
                           !    Initial Parameters    !
                           ! (Angstroms and Degrees)  !
 --------------------------                            --------------------------
 ! Name  Definition              Value          Derivative Info.                !
 --------------------------------------------------------------------------------
 ! R1    R(1,2)                  1.3362         estimate D2E/DX2                !
 ! R2    R(1,3)                  1.0833         estimate D2E/DX2                !
 ! R3    R(1,4)                  1.3633         estimate D2E/DX2                !
 ! R4    R(2,5)                  1.4843         estimate D2E/DX2                !
 ! R5    R(2,8)                  1.0838         estimate D2E/DX2                !
 ! R6    R(4,6)                  0.9723         estimate D2E/DX2                !
 ! R7    R(5,7)                  1.2222         estimate D2E/DX2                !
 ! R8    R(5,9)                  1.1031         estimate D2E/DX2                !
 ! A1    A(2,1,3)              122.2666         estimate D2E/DX2                !
 ! A2    A(2,1,4)              124.779          estimate D2E/DX2                !
 ! A3    A(3,1,4)              112.9545         estimate D2E/DX2                !
 ! A4    A(1,2,5)              125.409          estimate D2E/DX2                !
 ! A5    A(1,2,8)              119.8839         estimate D2E/DX2                !
 ! A6    A(5,2,8)              114.7071         estimate D2E/DX2                !
 ! A7    A(1,4,6)              109.4339         estimate D2E/DX2                !
 ! A8    A(2,5,7)              125.8259         estimate D2E/DX2                !
 ! A9    A(2,5,9)              113.4796         estimate D2E/DX2                !
 ! A10   A(7,5,9)              120.6945         estimate D2E/DX2                !
 ! D1    D(3,1,2,5)            179.9998         estimate D2E/DX2                !
 ! D2    D(3,1,2,8)             -0.0031         estimate D2E/DX2                !
 ! D3    D(4,1,2,5)             -0.0044         estimate D2E/DX2                !
 ! D4    D(4,1,2,8)            179.9928         estimate D2E/DX2                !
 ! D5    D(2,1,4,6)            179.9769         estimate D2E/DX2                !
 ! D6    D(3,1,4,6)             -0.027          estimate D2E/DX2                !
 ! D7    D(1,2,5,7)             -0.0546         estimate D2E/DX2                !
 ! D8    D(1,2,5,9)            179.9491         estimate D2E/DX2                !
 ! D9    D(8,2,5,7)            179.9481         estimate D2E/DX2                !
 ! D10   D(8,2,5,9)             -0.0481         estimate D2E/DX2                !
 --------------------------------------------------------------------------------
 Trust Radius=3.00D-01 FncErr=1.00D-07 GrdErr=1.00D-07 EigMax=2.50D+02 EigMin=1.00D-04
 Number of steps in this run=     38 maximum allowed number of steps=    100.
 GradGradGradGradGradGradGradGradGradGradGradGradGradGradGradGradGradGrad

                          Input orientation:                          
 ---------------------------------------------------------------------
 Center     Atomic      Atomic             Coordinates (Angstroms)
 Number     Number       Type             X           Y           Z
 ---------------------------------------------------------------------
      1          6           0       -0.200245    1.135334    0.224266
      2          6           0       -0.925784    0.613912   -0.769224
      3          1           0        0.144509    0.541357    1.062031
      4          8           0        0.184541    2.440805    0.303981
      5          6           0       -1.433359    1.360831   -1.947211
      6          1           0        0.702003    2.576558    1.115913
      7          8           0       -1.259478    2.549971   -2.169536
      8          1           0       -1.187459   -0.437740   -0.752456
      9          1           0       -2.010986    0.735449   -2.648618
 ---------------------------------------------------------------------
                    Distance matrix (angstroms):
                    1          2          3          4          5
     1  C    0.000000
     2  C    1.336156   0.000000
     3  H    1.083288   2.122331   0.000000
     4  O    1.363329   2.392097   2.045518   0.000000
     5  C    2.507336   1.484309   3.495246   2.975198   0.000000
     6  H    1.919950   3.171027   2.110864   0.972332   3.926893
     7  O    2.975477   2.412581   4.055704   2.866251   1.222176
     8  H    2.098366   1.083848   2.454615   3.359235   2.173192
     9  H    3.419380   2.173604   4.295666   4.055418   1.103054
                    6          7          8          9
     6  H    0.000000
     7  O    3.826525   0.000000
     8  H    4.018315   3.307524   0.000000
     9  H    4.992162   2.021577   2.376972   0.000000
 Stoichiometry    C3H4O2
 Framework group  C1[X(C3H4O2)]
 Deg. of freedom    21
 Full point group                 C1      NOp   1
 Largest Abelian subgroup         C1      NOp   1
 Largest concise Abelian subgroup C1      NOp   1
                         Standard orientation:                         
 ---------------------------------------------------------------------
 Center     Atomic      Atomic             Coordinates (Angstroms)
 Number     Number       Type             X           Y           Z
 ---------------------------------------------------------------------
      1          6           0        1.145403    0.513545   -0.000133
      2          6           0       -0.081756    1.042121   -0.000109
      3          1           0        2.038914    1.126040   -0.000426
      4          8           0        1.416644   -0.822530    0.000279
      5          6           0       -1.350200    0.271262    0.000276
      6          1           0        2.379612   -0.957147   -0.000206
      7          8           0       -1.446899   -0.947083   -0.000324
      8          1           0       -0.205970    2.118828   -0.000338
      9          1           0       -2.251194    0.907609    0.001124
 ---------------------------------------------------------------------
 Rotational constants (GHZ):          10.1922427           4.2698236           3.0091884
 Standard basis: Aug-CC-pVDZ (5D, 7F)
 There are   161 symmetry adapted cartesian basis functions of A   symmetry.
 There are   151 symmetry adapted basis functions of A   symmetry.
   151 basis functions,   259 primitive gaussians,   161 cartesian basis functions
    19 alpha electrons       19 beta electrons
       nuclear repulsion energy       159.4128090860 Hartrees.
 NAtoms=    9 NActive=    9 NUniq=    9 SFac= 1.00D+00 NAtFMM=   60 NAOKFM=F Big=F
 Integral buffers will be    131072 words long.
 Raffenetti 1 integral format.
 Two-electron integral symmetry is turned on.
 One-electron integrals computed using PRISM.
 NBasis=   151 RedAO= T EigKep=  3.35D-05  NBF=   151
 NBsUse=   151 1.00D-06 EigRej= -1.00D+00 NBFU=   151
 ExpMin= 2.97D-02 ExpMax= 1.17D+04 ExpMxC= 4.01D+02 IAcc=3 IRadAn=         5 AccDes= 0.00D+00
 Harris functional with IExCor=  205 and IRadAn=       5 diagonalized for initial guess.
 HarFok:  IExCor=  205 AccDes= 0.00D+00 IRadAn=         5 IDoV= 1 UseB2=F ITyADJ=14
 ICtDFT=  3500011 ScaDFX=  1.000000  1.000000  1.000000  1.000000
 FoFCou: FMM=F IPFlag=           0 FMFlag=      100000 FMFlg1=           0
         NFxFlg=           0 DoJE=T BraDBF=F KetDBF=T FulRan=T
         wScrn=  0.000000 ICntrl=       500 IOpCl=  0 I1Cent=   200000004 NGrid=           0
         NMat0=    1 NMatS0=      1 NMatT0=    0 NMatD0=    1 NMtDS0=    0 NMtDT0=    0
 Petite list used in FoFCou.
 Keep R1 ints in memory in canonical form, NReq=74570361.
 Requested convergence on RMS density matrix=1.00D-08 within 128 cycles.
 Requested convergence on MAX density matrix=1.00D-06.
 Requested convergence on             energy=1.00D-06.
 No special actions if energy rises.
 SCF Done:  E(RHF) =  -265.655336299     A.U. after   14 cycles
            NFock= 14  Conv=0.91D-08     -V/T= 2.0017
 ExpMin= 2.97D-02 ExpMax= 1.17D+04 ExpMxC= 4.01D+02 IAcc=3 IRadAn=         5 AccDes= 0.00D+00
 HarFok:  IExCor=  205 AccDes= 0.00D+00 IRadAn=         5 IDoV=-2 UseB2=F ITyADJ=14
 ICtDFT= 12500011 ScaDFX=  1.000000  1.000000  1.000000  1.000000
 Range of M.O.s used for correlation:     6   151
 NBasis=   151 NAE=    19 NBE=    19 NFC=     5 NFV=     0
 NROrb=    146 NOA=    14 NOB=    14 NVA=   132 NVB=   132

 **** Warning!!: The largest alpha MO coefficient is  0.41951220D+02

 Fully direct method using O(ONN) memory.
 JobTyp=1 Pass  1:  I=   6 to  19 NPSUse= 40 ParTrn=T ParDer=T DoDerP=T.
 Spin components of T(2) and E(2):
     alpha-alpha T2 =       0.3417467306D-01 E2=     -0.1043355993D+00
     alpha-beta  T2 =       0.1902319371D+00 E2=     -0.5902314941D+00
     beta-beta   T2 =       0.3417467306D-01 E2=     -0.1043355993D+00
 ANorm=    0.1121865091D+01
 E2 =    -0.7989026927D+00 EUMP2 =    -0.26645423899130D+03
          IDoAtm=111111111
          Differentiating once with respect to electric field.
                with respect to dipole field.
          Differentiating once with respect to nuclear coordinates.
 Keep R1 ints in memory in canonical form, NReq=74579557.
          There are     1 degrees of freedom in the 1st order CPHF.  IDoFFX=0 NUNeed=     1.
 LinEq1:  Iter=  0 NonCon=     1 RMS=5.49D-03 Max=1.16D-01 NDo=     1
 AX will form     1 AO Fock derivatives at one time.
 LinEq1:  Iter=  1 NonCon=     1 RMS=1.76D-03 Max=2.46D-02 NDo=     1
 LinEq1:  Iter=  2 NonCon=     1 RMS=6.22D-04 Max=9.62D-03 NDo=     1
 LinEq1:  Iter=  3 NonCon=     1 RMS=2.18D-04 Max=3.21D-03 NDo=     1
 LinEq1:  Iter=  4 NonCon=     1 RMS=7.29D-05 Max=9.48D-04 NDo=     1
 LinEq1:  Iter=  5 NonCon=     1 RMS=2.63D-05 Max=3.46D-04 NDo=     1
 LinEq1:  Iter=  6 NonCon=     1 RMS=9.36D-06 Max=1.81D-04 NDo=     1
 LinEq1:  Iter=  7 NonCon=     1 RMS=2.91D-06 Max=3.20D-05 NDo=     1
 LinEq1:  Iter=  8 NonCon=     1 RMS=1.13D-06 Max=3.09D-05 NDo=     1
 LinEq1:  Iter=  9 NonCon=     1 RMS=3.38D-07 Max=2.64D-06 NDo=     1
 LinEq1:  Iter= 10 NonCon=     1 RMS=7.47D-08 Max=7.53D-07 NDo=     1
 LinEq1:  Iter= 11 NonCon=     1 RMS=1.62D-08 Max=1.35D-07 NDo=     1
 LinEq1:  Iter= 12 NonCon=     1 RMS=3.71D-09 Max=4.03D-08 NDo=     1
 LinEq1:  Iter= 13 NonCon=     1 RMS=1.17D-09 Max=1.41D-08 NDo=     1
 LinEq1:  Iter= 14 NonCon=     1 RMS=2.91D-10 Max=2.13D-09 NDo=     1
 LinEq1:  Iter= 15 NonCon=     0 RMS=4.13D-11 Max=5.05D-10 NDo=     1
 Linear equations converged to 1.000D-10 1.000D-09 after    15 iterations.
 End of Minotr F.D. properties file   721 does not exist.
 End of Minotr F.D. properties file   722 does not exist.
 End of Minotr F.D. properties file   788 does not exist.

 **********************************************************************

            Population analysis using the SCF Density.

 **********************************************************************

 Orbital symmetries:
       Occupied  (A) (A) (A) (A) (A) (A) (A) (A) (A) (A) (A) (A)
                 (A) (A) (A) (A) (A) (A) (A)
       Virtual   (A) (A) (A) (A) (A) (A) (A) (A) (A) (A) (A) (A)
                 (A) (A) (A) (A) (A) (A) (A) (A) (A) (A) (A) (A)
                 (A) (A) (A) (A) (A) (A) (A) (A) (A) (A) (A) (A)
                 (A) (A) (A) (A) (A) (A) (A) (A) (A) (A) (A) (A)
                 (A) (A) (A) (A) (A) (A) (A) (A) (A) (A) (A) (A)
                 (A) (A) (A) (A) (A) (A) (A) (A) (A) (A) (A) (A)
                 (A) (A) (A) (A) (A) (A) (A) (A) (A) (A) (A) (A)
                 (A) (A) (A) (A) (A) (A) (A) (A) (A) (A) (A) (A)
                 (A) (A) (A) (A) (A) (A) (A) (A) (A) (A) (A) (A)
                 (A) (A) (A) (A) (A) (A) (A) (A) (A) (A) (A) (A)
                 (A) (A) (A) (A) (A) (A) (A) (A) (A) (A) (A) (A)
 The electronic state is 1-A.
 Alpha  occ. eigenvalues --  -20.62403 -20.55230 -11.34424 -11.33567 -11.24227
 Alpha  occ. eigenvalues --   -1.42693  -1.37404  -1.06868  -0.89541  -0.77363
 Alpha  occ. eigenvalues --   -0.76272  -0.65704  -0.64786  -0.59749  -0.58174
 Alpha  occ. eigenvalues --   -0.56109  -0.51876  -0.41417  -0.36672
 Alpha virt. eigenvalues --    0.02298   0.03848   0.04994   0.06658   0.07301
 Alpha virt. eigenvalues --    0.09997   0.10954   0.12694   0.13192   0.14199
 Alpha virt. eigenvalues --    0.14491   0.15082   0.15229   0.16701   0.17931
 Alpha virt. eigenvalues --    0.21207   0.21972   0.23001   0.24591   0.27677
 Alpha virt. eigenvalues --    0.28717   0.28986   0.31152   0.32023   0.34238
 Alpha virt. eigenvalues --    0.34538   0.35130   0.36061   0.38229   0.39148
 Alpha virt. eigenvalues --    0.41250   0.42467   0.42503   0.45984   0.45988
 Alpha virt. eigenvalues --    0.47321   0.49077   0.51566   0.53382   0.55631
 Alpha virt. eigenvalues --    0.57494   0.58242   0.61275   0.62241   0.63025
 Alpha virt. eigenvalues --    0.64405   0.65094   0.66128   0.68032   0.69854
 Alpha virt. eigenvalues --    0.72403   0.73728   0.74453   0.79277   0.81147
 Alpha virt. eigenvalues --    0.82333   0.83547   0.83747   0.85968   0.90937
 Alpha virt. eigenvalues --    0.91650   0.97580   0.97705   1.00198   1.02194
 Alpha virt. eigenvalues --    1.08626   1.09367   1.16667   1.19279   1.20749
 Alpha virt. eigenvalues --    1.22028   1.23560   1.27128   1.29713   1.30721
 Alpha virt. eigenvalues --    1.33361   1.45202   1.48310   1.49252   1.50737
 Alpha virt. eigenvalues --    1.54626   1.55055   1.58771   1.62684   1.66960
 Alpha virt. eigenvalues --    1.71593   1.72689   1.74508   1.75959   1.77960
 Alpha virt. eigenvalues --    1.79530   1.85186   1.85972   1.93625   1.94474
 Alpha virt. eigenvalues --    2.00884   2.02269   2.06278   2.07281   2.09261
 Alpha virt. eigenvalues --    2.11038   2.17147   2.22146   2.24124   2.25507
 Alpha virt. eigenvalues --    2.32978   2.34917   2.38386   2.45488   2.47162
 Alpha virt. eigenvalues --    2.49586   2.59430   2.63947   2.78651   2.82841
 Alpha virt. eigenvalues --    2.95001   2.99185   3.07640   3.14933   3.23462
 Alpha virt. eigenvalues --    3.34481   3.62547   3.67764   3.72971   3.73497
 Alpha virt. eigenvalues --    3.76100   3.78535   3.87358   3.96192   4.03090
 Alpha virt. eigenvalues --    4.13746   4.35256
          Condensed to atoms (all electrons):
               1          2          3          4          5          6
     1  C    5.042611   0.218776  -0.114584   0.017086  -0.260293   0.043512
     2  C    0.218776   5.050149   0.091967  -0.004622   0.267301  -0.063511
     3  H   -0.114584   0.091967   1.553304  -0.028346   0.024699  -0.089876
     4  O    0.017086  -0.004622  -0.028346   8.361382   0.003721   0.363524
     5  C   -0.260293   0.267301   0.024699   0.003721   4.849442  -0.008996
     6  H    0.043512  -0.063511  -0.089876   0.363524  -0.008996   0.542990
     7  O    0.013393  -0.055059  -0.001879  -0.024934   0.321676   0.005023
     8  H   -0.039749   0.096245  -0.087039   0.026725  -0.093657   0.001675
     9  H    0.028855   0.041490   0.002514  -0.002540   0.173797   0.000292
               7          8          9
     1  C    0.013393  -0.039749   0.028855
     2  C   -0.055059   0.096245   0.041490
     3  H   -0.001879  -0.087039   0.002514
     4  O   -0.024934   0.026725  -0.002540
     5  C    0.321676  -0.093657   0.173797
     6  H    0.005023   0.001675   0.000292
     7  O    8.508536  -0.002773  -0.054965
     8  H   -0.002773   1.599771  -0.053417
     9  H   -0.054965  -0.053417   0.979750
 Mulliken charges:
               1
     1  C    1.050394
     2  C    0.357264
     3  H   -0.350762
     4  O   -0.711995
     5  C    0.722308
     6  H    0.205367
     7  O   -0.709018
     8  H   -0.447781
     9  H   -0.115777
 Sum of Mulliken charges =  -0.00000
 Mulliken charges with hydrogens summed into heavy atoms:
               1
     1  C    0.699631
     2  C   -0.090517
     4  O   -0.506627
     5  C    0.606530
     7  O   -0.709018
 Electronic spatial extent (au):  <R**2>=            401.1219
 Charge=             -0.0000 electrons
 Dipole moment (field-independent basis, Debye):
    X=              3.4930    Y=              3.3775    Z=              0.0001  Tot=              4.8588
 Quadrupole moment (field-independent basis, Debye-Ang):
   XX=            -20.7785   YY=            -30.5306   ZZ=            -30.9070
   XY=             -4.9568   XZ=             -0.0051   YZ=             -0.0004
 Traceless Quadrupole moment (field-independent basis, Debye-Ang):
   XX=              6.6268   YY=             -3.1252   ZZ=             -3.5016
   XY=             -4.9568   XZ=             -0.0051   YZ=             -0.0004
 Octapole moment (field-independent basis, Debye-Ang**2):
  XXX=             29.8224  YYY=             -1.5250  ZZZ=              0.0004  XYY=              6.0219
  XXY=              1.1825  XXZ=             -0.0021  XZZ=             -0.2255  YZZ=             -3.8983
  YYZ=             -0.0020  XYZ=              0.0014
 Hexadecapole moment (field-independent basis, Debye-Ang**3):
 XXXX=           -247.0376 YYYY=           -150.7217 ZZZZ=            -32.1182 XXXY=            -31.2372
 XXXZ=             -0.0201 YYYX=             -8.7905 YYYZ=             -0.0042 ZZZX=              0.0005
 ZZZY=              0.0011 XXYY=            -72.9041 XXZZ=            -58.7434 YYZZ=            -34.7956
 XXYZ=              0.0037 YYXZ=             -0.0038 ZZXY=             -1.1082
 N-N= 1.594128090860D+02 E-N=-9.438418800006D+02  KE= 2.651952103011D+02
 Calling FoFJK, ICntrl=  10002127 FMM=F ISym2X=0 I1Cent= 0 IOpClX= 0 NMat=1 NMatS=1 NMatT=0.
 ***** Axes restored to original set *****
 -------------------------------------------------------------------
 Center     Atomic                   Forces (Hartrees/Bohr)
 Number     Number              X              Y              Z
 -------------------------------------------------------------------
      1        6           0.017421319    0.015682137    0.022493137
      2        6          -0.016175061    0.001299588   -0.027767530
      3        1           0.000244836   -0.010283333    0.004880262
      4        8          -0.000891111    0.002677724   -0.002645148
      5        6           0.004370910   -0.009689596    0.011564082
      6        1          -0.003328087   -0.002825473   -0.004385515
      7        8           0.001631610    0.013615473   -0.003163913
      8        1           0.001474883   -0.006421169    0.005259058
      9        1          -0.004749300   -0.004055352   -0.006234432
 -------------------------------------------------------------------
 Cartesian Forces:  Max     0.027767530 RMS     0.010303391

 GradGradGradGradGradGradGradGradGradGradGradGradGradGradGradGradGradGrad
 Berny optimization.
 FormGI is forming the generalized inverse of G from B-inverse, IUseBI=4.
 Internal  Forces:  Max     0.024476661 RMS     0.006789060
 Search for a local minimum.
 Step number   1 out of a maximum of   38
 All quantities printed in internal units (Hartrees-Bohrs-Radians)
 Mixed Optimization -- RFO/linear search
 Second derivative matrix not updated -- first step.
 ITU=  0
     Eigenvalues ---    0.00974   0.00974   0.01999   0.02177   0.02709
     Eigenvalues ---    0.02933   0.16000   0.16000   0.16000   0.16000
     Eigenvalues ---    0.22000   0.22000   0.22000   0.33347   0.34081
     Eigenvalues ---    0.35533   0.35600   0.52280   0.52903   0.58075
     Eigenvalues ---    0.94426
 RFO step:  Lambda=-3.30201884D-03 EMin= 9.73510853D-03
 Linear search not attempted -- first point.
 Iteration  1 RMS(Cart)=  0.02143474 RMS(Int)=  0.00033732
 Iteration  2 RMS(Cart)=  0.00039052 RMS(Int)=  0.00000047
 Iteration  3 RMS(Cart)=  0.00000010 RMS(Int)=  0.00000047
 Variable       Old X    -DE/DX   Delta X   Delta X   Delta X     New X
                                 (Linear)    (Quad)   (Total)
    R1        2.52497   0.02448   0.00000   0.04191   0.04191   2.56688
    R2        2.04712   0.00949   0.00000   0.02641   0.02641   2.07353
    R3        2.57632  -0.00174   0.00000  -0.00331  -0.00331   2.57301
    R4        2.80494  -0.00221   0.00000  -0.00643  -0.00643   2.79851
    R5        2.04818   0.00596   0.00000   0.01661   0.01661   2.06478
    R6        1.83744  -0.00583   0.00000  -0.01095  -0.01095   1.82649
    R7        2.30958   0.01406   0.00000   0.01483   0.01483   2.32441
    R8        2.08447   0.00875   0.00000   0.02598   0.02598   2.11045
    A1        2.13395  -0.00298   0.00000  -0.02392  -0.02392   2.11004
    A2        2.17780  -0.00692   0.00000  -0.03100  -0.03100   2.14680
    A3        1.97143   0.00990   0.00000   0.05492   0.05492   2.02635
    A4        2.18880   0.00139   0.00000   0.00622   0.00622   2.19502
    A5        2.09237  -0.00680   0.00000  -0.04052  -0.04052   2.05185
    A6        2.00202   0.00542   0.00000   0.03431   0.03431   2.03632
    A7        1.90998  -0.00382   0.00000  -0.02341  -0.02341   1.88657
    A8        2.19608   0.00031   0.00000   0.00137   0.00137   2.19745
    A9        1.98059   0.00103   0.00000   0.00659   0.00659   1.98718
   A10        2.10652  -0.00134   0.00000  -0.00795  -0.00795   2.09856
    D1        3.14159   0.00000   0.00000   0.00010   0.00010  -3.14150
    D2       -0.00005   0.00000   0.00000   0.00002   0.00003  -0.00003
    D3       -0.00008   0.00000   0.00000   0.00003   0.00003  -0.00004
    D4        3.14147  -0.00000   0.00000  -0.00004  -0.00004   3.14143
    D5        3.14119   0.00001   0.00000   0.00025   0.00025   3.14144
    D6       -0.00047   0.00000   0.00000   0.00019   0.00019  -0.00028
    D7       -0.00095   0.00001   0.00000   0.00045   0.00045  -0.00050
    D8        3.14071   0.00000   0.00000   0.00008   0.00008   3.14079
    D9        3.14069   0.00001   0.00000   0.00052   0.00052   3.14121
   D10       -0.00084   0.00000   0.00000   0.00015   0.00016  -0.00068
         Item               Value     Threshold  Converged?
 Maximum Force            0.024477     0.000450     NO 
 RMS     Force            0.006789     0.000300     NO 
 Maximum Displacement     0.063320     0.001800     NO 
 RMS     Displacement     0.021440     0.001200     NO 
 Predicted change in Energy=-1.670590D-03
 GradGradGradGradGradGradGradGradGradGradGradGradGradGradGradGradGradGrad

                          Input orientation:                          
 ---------------------------------------------------------------------
 Center     Atomic      Atomic             Coordinates (Angstroms)
 Number     Number       Type             X           Y           Z
 ---------------------------------------------------------------------
      1          6           0       -0.190237    1.137877    0.240109
      2          6           0       -0.928153    0.618066   -0.774950
      3          1           0        0.143243    0.507850    1.074285
      4          8           0        0.179555    2.447199    0.293202
      5          6           0       -1.433228    1.366033   -1.949058
      6          1           0        0.694042    2.581300    1.100368
      7          8           0       -1.257382    2.562816   -2.172104
      8          1           0       -1.174599   -0.445367   -0.727756
      9          1           0       -2.019499    0.740704   -2.664950
 ---------------------------------------------------------------------
                    Distance matrix (angstroms):
                    1          2          3          4          5
     1  C    0.000000
     2  C    1.358333   0.000000
     3  H    1.097266   2.140025   0.000000
     4  O    1.361576   2.390333   2.091049   0.000000
     5  C    2.527752   1.480907   3.516012   2.966094   0.000000
     6  H    1.898807   3.162692   2.145521   0.966539   3.911668
     7  O    2.998003   2.417123   4.089460   2.855851   1.230025
     8  H    2.100570   1.092636   2.427484   3.353062   2.199917
     9  H    3.455910   2.185904   4.325916   4.061850   1.116804
                    6          7          8          9
     6  H    0.000000
     7  O    3.810180   0.000000
     8  H    3.999321   3.337988   0.000000
     9  H    4.992867   2.035636   2.423497   0.000000
 Stoichiometry    C3H4O2
 Framework group  C1[X(C3H4O2)]
 Deg. of freedom    21
 Full point group                 C1      NOp   1
 Largest Abelian subgroup         C1      NOp   1
 Largest concise Abelian subgroup C1      NOp   1
                         Standard orientation:                         
 ---------------------------------------------------------------------
 Center     Atomic      Atomic             Coordinates (Angstroms)
 Number     Number       Type             X           Y           Z
 ---------------------------------------------------------------------
      1          6           0        1.169779    0.505467   -0.000089
      2          6           0       -0.077306    1.043841   -0.000092
      3          1           0        2.060250    1.146602   -0.000165
      4          8           0        1.398078   -0.836833    0.000161
      5          6           0       -1.348224    0.283677    0.000116
      6          1           0        2.354149   -0.978694   -0.000028
      7          8           0       -1.455850   -0.941631   -0.000182
      8          1           0       -0.157555    2.133526   -0.000145
      9          1           0       -2.260158    0.928370    0.000895
 ---------------------------------------------------------------------
 Rotational constants (GHZ):          10.1036097           4.2638195           2.9984466
 Standard basis: Aug-CC-pVDZ (5D, 7F)
 There are   161 symmetry adapted cartesian basis functions of A   symmetry.
 There are   151 symmetry adapted basis functions of A   symmetry.
   151 basis functions,   259 primitive gaussians,   161 cartesian basis functions
    19 alpha electrons       19 beta electrons
       nuclear repulsion energy       158.8509406436 Hartrees.
 NAtoms=    9 NActive=    9 NUniq=    9 SFac= 1.00D+00 NAtFMM=   60 NAOKFM=F Big=F
 Integral buffers will be    131072 words long.
 Raffenetti 1 integral format.
 Two-electron integral symmetry is turned on.
 One-electron integrals computed using PRISM.
 NBasis=   151 RedAO= T EigKep=  3.62D-05  NBF=   151
 NBsUse=   151 1.00D-06 EigRej= -1.00D+00 NBFU=   151
 Initial guess from the checkpoint file:  "/scr/Gau-92699.chk"
 B after Tr=     0.000000   -0.000000   -0.000000
         Rot=    0.999989   -0.000000    0.000001    0.004613 Ang=  -0.53 deg.
 ExpMin= 2.97D-02 ExpMax= 1.17D+04 ExpMxC= 4.01D+02 IAcc=3 IRadAn=         5 AccDes= 0.00D+00
 Harris functional with IExCor=  205 and IRadAn=       5 diagonalized for initial guess.
 HarFok:  IExCor=  205 AccDes= 0.00D+00 IRadAn=         5 IDoV= 1 UseB2=F ITyADJ=14
 ICtDFT=  3500011 ScaDFX=  1.000000  1.000000  1.000000  1.000000
 FoFCou: FMM=F IPFlag=           0 FMFlag=      100000 FMFlg1=           0
         NFxFlg=           0 DoJE=T BraDBF=F KetDBF=T FulRan=T
         wScrn=  0.000000 ICntrl=       500 IOpCl=  0 I1Cent=   200000004 NGrid=           0
         NMat0=    1 NMatS0=      1 NMatT0=    0 NMatD0=    1 NMtDS0=    0 NMtDT0=    0
 Petite list used in FoFCou.
 Keep R1 ints in memory in canonical form, NReq=74569935.
 Requested convergence on RMS density matrix=1.00D-08 within 128 cycles.
 Requested convergence on MAX density matrix=1.00D-06.
 Requested convergence on             energy=1.00D-06.
 No special actions if energy rises.
 SCF Done:  E(RHF) =  -265.654143040     A.U. after   12 cycles
            NFock= 12  Conv=0.50D-08     -V/T= 2.0022
 ExpMin= 2.97D-02 ExpMax= 1.17D+04 ExpMxC= 4.01D+02 IAcc=3 IRadAn=         5 AccDes= 0.00D+00
 HarFok:  IExCor=  205 AccDes= 0.00D+00 IRadAn=         5 IDoV=-2 UseB2=F ITyADJ=14
 ICtDFT= 12500011 ScaDFX=  1.000000  1.000000  1.000000  1.000000
 Range of M.O.s used for correlation:     6   151
 NBasis=   151 NAE=    19 NBE=    19 NFC=     5 NFV=     0
 NROrb=    146 NOA=    14 NOB=    14 NVA=   132 NVB=   132

 **** Warning!!: The largest alpha MO coefficient is  0.42599707D+02

 Fully direct method using O(ONN) memory.
 JobTyp=1 Pass  1:  I=   6 to  19 NPSUse= 40 ParTrn=T ParDer=T DoDerP=T.
 Spin components of T(2) and E(2):
     alpha-alpha T2 =       0.3454997426D-01 E2=     -0.1047334409D+00
     alpha-beta  T2 =       0.1924921232D+00 E2=     -0.5924030476D+00
     beta-beta   T2 =       0.3454997426D-01 E2=     -0.1047334409D+00
 ANorm=    0.1123206157D+01
 E2 =    -0.8018699294D+00 EUMP2 =    -0.26645601296960D+03
          IDoAtm=111111111
          Differentiating once with respect to electric field.
                with respect to dipole field.
          Differentiating once with respect to nuclear coordinates.
 Keep R1 ints in memory in canonical form, NReq=74579144.
          There are     1 degrees of freedom in the 1st order CPHF.  IDoFFX=0 NUNeed=     1.
 LinEq1:  Iter=  0 NonCon=     1 RMS=5.57D-03 Max=1.17D-01 NDo=     1
 AX will form     1 AO Fock derivatives at one time.
 LinEq1:  Iter=  1 NonCon=     1 RMS=1.80D-03 Max=2.61D-02 NDo=     1
 LinEq1:  Iter=  2 NonCon=     1 RMS=6.45D-04 Max=1.02D-02 NDo=     1
 LinEq1:  Iter=  3 NonCon=     1 RMS=2.34D-04 Max=3.47D-03 NDo=     1
 LinEq1:  Iter=  4 NonCon=     1 RMS=7.86D-05 Max=1.04D-03 NDo=     1
 LinEq1:  Iter=  5 NonCon=     1 RMS=2.97D-05 Max=4.49D-04 NDo=     1
 LinEq1:  Iter=  6 NonCon=     1 RMS=1.08D-05 Max=2.27D-04 NDo=     1
 LinEq1:  Iter=  7 NonCon=     1 RMS=3.24D-06 Max=3.16D-05 NDo=     1
 LinEq1:  Iter=  8 NonCon=     1 RMS=1.24D-06 Max=3.18D-05 NDo=     1
 LinEq1:  Iter=  9 NonCon=     1 RMS=3.81D-07 Max=2.93D-06 NDo=     1
 LinEq1:  Iter= 10 NonCon=     1 RMS=8.23D-08 Max=8.08D-07 NDo=     1
 LinEq1:  Iter= 11 NonCon=     1 RMS=1.79D-08 Max=1.44D-07 NDo=     1
 LinEq1:  Iter= 12 NonCon=     1 RMS=4.36D-09 Max=5.07D-08 NDo=     1
 LinEq1:  Iter= 13 NonCon=     1 RMS=1.45D-09 Max=1.73D-08 NDo=     1
 LinEq1:  Iter= 14 NonCon=     1 RMS=3.33D-10 Max=2.56D-09 NDo=     1
 LinEq1:  Iter= 15 NonCon=     0 RMS=4.58D-11 Max=5.75D-10 NDo=     1
 Linear equations converged to 1.000D-10 1.000D-09 after    15 iterations.
 End of Minotr F.D. properties file   721 does not exist.
 End of Minotr F.D. properties file   722 does not exist.
 End of Minotr F.D. properties file   788 does not exist.
 Calling FoFJK, ICntrl=  10002127 FMM=F ISym2X=0 I1Cent= 0 IOpClX= 0 NMat=1 NMatS=1 NMatT=0.
 ***** Axes restored to original set *****
 -------------------------------------------------------------------
 Center     Atomic                   Forces (Hartrees/Bohr)
 Number     Number              X              Y              Z
 -------------------------------------------------------------------
      1        6           0.002072787    0.003017173    0.002166587
      2        6          -0.003506889    0.000839235   -0.006245126
      3        1          -0.000740065   -0.000298591   -0.001111750
      4        8          -0.000803272   -0.002901901   -0.000075767
      5        6           0.000859928   -0.004590852    0.003372208
      6        1           0.000661364    0.001050238    0.000650026
      7        8           0.000430094    0.002620552   -0.000394717
      8        1           0.000960110   -0.000128514    0.001670217
      9        1           0.000065941    0.000392661   -0.000031679
 -------------------------------------------------------------------
 Cartesian Forces:  Max     0.006245126 RMS     0.002171265

 GradGradGradGradGradGradGradGradGradGradGradGradGradGradGradGradGradGrad
 Berny optimization.
 Using GEDIIS/GDIIS optimizer.
 FormGI is forming the generalized inverse of G from B-inverse, IUseBI=4.
 Internal  Forces:  Max     0.003594815 RMS     0.001265778
 Search for a local minimum.
 Step number   2 out of a maximum of   38
 All quantities printed in internal units (Hartrees-Bohrs-Radians)
 Mixed Optimization -- RFO/linear search
 Update second derivatives using D2CorX and points    1    2
 DE= -1.77D-03 DEPred=-1.67D-03 R= 1.06D+00
 TightC=F SS=  1.41D+00  RLast= 1.09D-01 DXNew= 5.0454D-01 3.2673D-01
 Trust test= 1.06D+00 RLast= 1.09D-01 DXMaxT set to 3.27D-01
 ITU=  1  0
 Use linear search instead of GDIIS.
     Eigenvalues ---    0.00974   0.00974   0.01961   0.02177   0.02696
     Eigenvalues ---    0.02933   0.13875   0.16000   0.16000   0.16521
     Eigenvalues ---    0.21973   0.22000   0.22777   0.32745   0.34074
     Eigenvalues ---    0.35534   0.37337   0.51854   0.53300   0.57407
     Eigenvalues ---    0.92888
 RFO step:  Lambda=-1.56888517D-04 EMin= 9.73507628D-03
 Quartic linear search produced a step of  0.09588.
 Iteration  1 RMS(Cart)=  0.00702354 RMS(Int)=  0.00005361
 Iteration  2 RMS(Cart)=  0.00004973 RMS(Int)=  0.00000027
 Iteration  3 RMS(Cart)=  0.00000000 RMS(Int)=  0.00000027
 Variable       Old X    -DE/DX   Delta X   Delta X   Delta X     New X
                                 (Linear)    (Quad)   (Total)
    R1        2.56688   0.00220   0.00402   0.00214   0.00616   2.57303
    R2        2.07353  -0.00090   0.00253  -0.00401  -0.00148   2.07205
    R3        2.57301  -0.00180  -0.00032  -0.00361  -0.00392   2.56908
    R4        2.79851  -0.00359  -0.00062  -0.01125  -0.01187   2.78664
    R5        2.06478  -0.00002   0.00159  -0.00084   0.00075   2.06553
    R6        1.82649   0.00104  -0.00105   0.00268   0.00163   1.82812
    R7        2.32441   0.00268   0.00142   0.00240   0.00382   2.32823
    R8        2.11045  -0.00023   0.00249  -0.00199   0.00050   2.11095
    A1        2.11004  -0.00149  -0.00229  -0.00835  -0.01065   2.09939
    A2        2.14680   0.00084  -0.00297   0.00563   0.00266   2.14946
    A3        2.02635   0.00065   0.00527   0.00272   0.00799   2.03434
    A4        2.19502   0.00018   0.00060   0.00060   0.00120   2.19621
    A5        2.05185  -0.00208  -0.00389  -0.01224  -0.01613   2.03572
    A6        2.03632   0.00190   0.00329   0.01165   0.01493   2.05126
    A7        1.88657   0.00171  -0.00224   0.01278   0.01054   1.89711
    A8        2.19745  -0.00039   0.00013  -0.00199  -0.00186   2.19559
    A9        1.98718   0.00053   0.00063   0.00300   0.00363   1.99081
   A10        2.09856  -0.00015  -0.00076  -0.00101  -0.00177   2.09679
    D1       -3.14150   0.00000   0.00001   0.00000   0.00001  -3.14149
    D2       -0.00003   0.00000   0.00000   0.00003   0.00003   0.00000
    D3       -0.00004   0.00000   0.00000   0.00011   0.00012   0.00007
    D4        3.14143   0.00000  -0.00000   0.00014   0.00014   3.14156
    D5        3.14144   0.00000   0.00002   0.00008   0.00010   3.14154
    D6       -0.00028   0.00000   0.00002   0.00018   0.00020  -0.00008
    D7       -0.00050  -0.00001   0.00004  -0.00092  -0.00087  -0.00138
    D8        3.14079   0.00001   0.00001   0.00148   0.00149  -3.14091
    D9        3.14121  -0.00001   0.00005  -0.00094  -0.00089   3.14032
   D10       -0.00068   0.00001   0.00001   0.00145   0.00147   0.00078
         Item               Value     Threshold  Converged?
 Maximum Force            0.003595     0.000450     NO 
 RMS     Force            0.001266     0.000300     NO 
 Maximum Displacement     0.018819     0.001800     NO 
 RMS     Displacement     0.007027     0.001200     NO 
 Predicted change in Energy=-9.068178D-05
 GradGradGradGradGradGradGradGradGradGradGradGradGradGradGradGradGradGrad

                          Input orientation:                          
 ---------------------------------------------------------------------
 Center     Atomic      Atomic             Coordinates (Angstroms)
 Number     Number       Type             X           Y           Z
 ---------------------------------------------------------------------
      1          6           0       -0.190663    1.139806    0.238496
      2          6           0       -0.930177    0.619654   -0.779585
      3          1           0        0.136671    0.500435    1.066948
      4          8           0        0.180738    2.446344    0.295577
      5          6           0       -1.433038    1.363856   -1.949123
      6          1           0        0.696358    2.587217    1.101898
      7          8           0       -1.256562    2.562902   -2.170672
      8          1           0       -1.168486   -0.445292   -0.717798
      9          1           0       -2.021099    0.741555   -2.666595
 ---------------------------------------------------------------------
                    Distance matrix (angstroms):
                    1          2          3          4          5
     1  C    0.000000
     2  C    1.361590   0.000000
     3  H    1.096483   2.135897   0.000000
     4  O    1.359499   2.393094   2.093685   0.000000
     5  C    2.525741   1.474627   3.508014   2.968961   0.000000
     6  H    1.904538   3.171261   2.160817   0.967401   3.916589
     7  O    2.994233   2.412025   4.083754   2.856887   1.232047
     8  H    2.093602   1.093032   2.404817   3.347968   2.204351
     9  H    3.456683   2.183066   4.318964   4.065569   1.117068
                    6          7          8          9
     6  H    0.000000
     7  O    3.811064   0.000000
     8  H    3.998130   3.341830   0.000000
     9  H    4.999258   2.036605   2.435850   0.000000
 Stoichiometry    C3H4O2
 Framework group  C1[X(C3H4O2)]
 Deg. of freedom    21
 Full point group                 C1      NOp   1
 Largest Abelian subgroup         C1      NOp   1
 Largest concise Abelian subgroup C1      NOp   1
                         Standard orientation:                         
 ---------------------------------------------------------------------
 Center     Atomic      Atomic             Coordinates (Angstroms)
 Number     Number       Type             X           Y           Z
 ---------------------------------------------------------------------
      1          6           0        1.167262    0.505816   -0.000154
      2          6           0       -0.084277    1.042078   -0.000043
      3          1           0        2.048454    1.158331   -0.000516
      4          8           0        1.402420   -0.833191    0.000201
      5          6           0       -1.348650    0.283207    0.000553
      6          1           0        2.358599   -0.980113   -0.000010
      7          8           0       -1.452298   -0.944472   -0.000341
      8          1           0       -0.149932    2.133136   -0.000333
      9          1           0       -2.264112    0.923340   -0.000153
 ---------------------------------------------------------------------
 Rotational constants (GHZ):          10.1105563           4.2648126           2.9995496
 Standard basis: Aug-CC-pVDZ (5D, 7F)
 There are   161 symmetry adapted cartesian basis functions of A   symmetry.
 There are   151 symmetry adapted basis functions of A   symmetry.
   151 basis functions,   259 primitive gaussians,   161 cartesian basis functions
    19 alpha electrons       19 beta electrons
       nuclear repulsion energy       158.8737141266 Hartrees.
 NAtoms=    9 NActive=    9 NUniq=    9 SFac= 1.00D+00 NAtFMM=   60 NAOKFM=F Big=F
 Integral buffers will be    131072 words long.
 Raffenetti 1 integral format.
 Two-electron integral symmetry is turned on.
 One-electron integrals computed using PRISM.
 NBasis=   151 RedAO= T EigKep=  3.63D-05  NBF=   151
 NBsUse=   151 1.00D-06 EigRej= -1.00D+00 NBFU=   151
 Initial guess from the checkpoint file:  "/scr/Gau-92699.chk"
 B after Tr=    -0.000000    0.000000    0.000000
         Rot=    0.999999    0.000000   -0.000000   -0.001184 Ang=   0.14 deg.
 Keep R1 ints in memory in canonical form, NReq=74569889.
 Requested convergence on RMS density matrix=1.00D-08 within 128 cycles.
 Requested convergence on MAX density matrix=1.00D-06.
 Requested convergence on             energy=1.00D-06.
 No special actions if energy rises.
 SCF Done:  E(RHF) =  -265.653976481     A.U. after   12 cycles
            NFock= 12  Conv=0.87D-08     -V/T= 2.0022
 ExpMin= 2.97D-02 ExpMax= 1.17D+04 ExpMxC= 4.01D+02 IAcc=3 IRadAn=         5 AccDes= 0.00D+00
 HarFok:  IExCor=  205 AccDes= 0.00D+00 IRadAn=         5 IDoV=-2 UseB2=F ITyADJ=14
 ICtDFT= 12500011 ScaDFX=  1.000000  1.000000  1.000000  1.000000
 Range of M.O.s used for correlation:     6   151
 NBasis=   151 NAE=    19 NBE=    19 NFC=     5 NFV=     0
 NROrb=    146 NOA=    14 NOB=    14 NVA=   132 NVB=   132

 **** Warning!!: The largest alpha MO coefficient is  0.42914542D+02

 Fully direct method using O(ONN) memory.
 JobTyp=1 Pass  1:  I=   6 to  19 NPSUse= 40 ParTrn=T ParDer=T DoDerP=T.
 Spin components of T(2) and E(2):
     alpha-alpha T2 =       0.3459420761D-01 E2=     -0.1048033982D+00
     alpha-beta  T2 =       0.1926369103D+00 E2=     -0.5925385248D+00
     beta-beta   T2 =       0.3459420761D-01 E2=     -0.1048033982D+00
 ANorm=    0.1123309986D+01
 E2 =    -0.8021453213D+00 EUMP2 =    -0.26645612180196D+03
          IDoAtm=111111111
          Differentiating once with respect to electric field.
                with respect to dipole field.
          Differentiating once with respect to nuclear coordinates.
 Keep R1 ints in memory in canonical form, NReq=74579321.
          There are     1 degrees of freedom in the 1st order CPHF.  IDoFFX=0 NUNeed=     1.
 LinEq1:  Iter=  0 NonCon=     1 RMS=5.59D-03 Max=1.18D-01 NDo=     1
 AX will form     1 AO Fock derivatives at one time.
 LinEq1:  Iter=  1 NonCon=     1 RMS=1.80D-03 Max=2.63D-02 NDo=     1
 LinEq1:  Iter=  2 NonCon=     1 RMS=6.50D-04 Max=1.04D-02 NDo=     1
 LinEq1:  Iter=  3 NonCon=     1 RMS=2.37D-04 Max=3.49D-03 NDo=     1
 LinEq1:  Iter=  4 NonCon=     1 RMS=8.00D-05 Max=1.06D-03 NDo=     1
 LinEq1:  Iter=  5 NonCon=     1 RMS=3.06D-05 Max=5.03D-04 NDo=     1
 LinEq1:  Iter=  6 NonCon=     1 RMS=1.12D-05 Max=2.38D-04 NDo=     1
 LinEq1:  Iter=  7 NonCon=     1 RMS=3.32D-06 Max=3.18D-05 NDo=     1
 LinEq1:  Iter=  8 NonCon=     1 RMS=1.27D-06 Max=3.15D-05 NDo=     1
 LinEq1:  Iter=  9 NonCon=     1 RMS=3.90D-07 Max=3.04D-06 NDo=     1
 LinEq1:  Iter= 10 NonCon=     1 RMS=8.36D-08 Max=8.15D-07 NDo=     1
 LinEq1:  Iter= 11 NonCon=     1 RMS=1.81D-08 Max=1.47D-07 NDo=     1
 LinEq1:  Iter= 12 NonCon=     1 RMS=4.40D-09 Max=5.06D-08 NDo=     1
 LinEq1:  Iter= 13 NonCon=     1 RMS=1.45D-09 Max=1.70D-08 NDo=     1
 LinEq1:  Iter= 14 NonCon=     1 RMS=3.38D-10 Max=2.62D-09 NDo=     1
 LinEq1:  Iter= 15 NonCon=     0 RMS=4.66D-11 Max=5.81D-10 NDo=     1
 Linear equations converged to 1.000D-10 1.000D-09 after    15 iterations.
 End of Minotr F.D. properties file   721 does not exist.
 End of Minotr F.D. properties file   722 does not exist.
 End of Minotr F.D. properties file   788 does not exist.
 Calling FoFJK, ICntrl=  10002127 FMM=F ISym2X=0 I1Cent= 0 IOpClX= 0 NMat=1 NMatS=1 NMatT=0.
 ***** Axes restored to original set *****
 -------------------------------------------------------------------
 Center     Atomic                   Forces (Hartrees/Bohr)
 Number     Number              X              Y              Z
 -------------------------------------------------------------------
      1        6           0.000265028    0.001343272   -0.000138861
      2        6          -0.000244052    0.000322256   -0.000689012
      3        1          -0.000094213    0.000198812   -0.000227187
      4        8          -0.000378890   -0.001574421    0.000040773
      5        6          -0.000429274   -0.001644084    0.000453862
      6        1           0.000074435   -0.000031667    0.000136464
      7        8           0.000222908    0.000675958   -0.000082027
      8        1           0.000304119    0.000223745    0.000401531
      9        1           0.000279937    0.000486129    0.000104456
 -------------------------------------------------------------------
 Cartesian Forces:  Max     0.001644084 RMS     0.000593709

 GradGradGradGradGradGradGradGradGradGradGradGradGradGradGradGradGradGrad
 Berny optimization.
 Using GEDIIS/GDIIS optimizer.
 FormGI is forming the generalized inverse of G from B-inverse, IUseBI=4.
 Internal  Forces:  Max     0.001619252 RMS     0.000439822
 Search for a local minimum.
 Step number   3 out of a maximum of   38
 All quantities printed in internal units (Hartrees-Bohrs-Radians)
 Mixed Optimization -- En-DIIS/RFO-DIIS
 Update second derivatives using D2CorX and points    1    2    3
 DE= -1.09D-04 DEPred=-9.07D-05 R= 1.20D+00
 TightC=F SS=  1.41D+00  RLast= 3.19D-02 DXNew= 5.4950D-01 9.5817D-02
 Trust test= 1.20D+00 RLast= 3.19D-02 DXMaxT set to 3.27D-01
 ITU=  1  1  0
 Use linear search instead of GDIIS.
     Eigenvalues ---    0.00973   0.00977   0.01946   0.02177   0.02693
     Eigenvalues ---    0.02933   0.11296   0.16000   0.16238   0.17081
     Eigenvalues ---    0.21925   0.22005   0.22664   0.32458   0.33774
     Eigenvalues ---    0.35599   0.36764   0.49918   0.53501   0.60453
     Eigenvalues ---    0.91923
 RFO step:  Lambda=-1.69119706D-05 EMin= 9.73389557D-03
 Quartic linear search produced a step of  0.23049.
 Iteration  1 RMS(Cart)=  0.00412439 RMS(Int)=  0.00002910
 Iteration  2 RMS(Cart)=  0.00002578 RMS(Int)=  0.00001656
 Iteration  3 RMS(Cart)=  0.00000000 RMS(Int)=  0.00001656
 Variable       Old X    -DE/DX   Delta X   Delta X   Delta X     New X
                                 (Linear)    (Quad)   (Total)
    R1        2.57303  -0.00024   0.00142  -0.00067   0.00075   2.57378
    R2        2.07205  -0.00032  -0.00034  -0.00042  -0.00077   2.07129
    R3        2.56908  -0.00162  -0.00090  -0.00326  -0.00417   2.56492
    R4        2.78664  -0.00065  -0.00274  -0.00073  -0.00347   2.78317
    R5        2.06553  -0.00026   0.00017  -0.00072  -0.00055   2.06498
    R6        1.82812   0.00015   0.00038  -0.00007   0.00031   1.82843
    R7        2.32823   0.00070   0.00088   0.00061   0.00149   2.32972
    R8        2.11095  -0.00049   0.00011  -0.00140  -0.00128   2.10967
    A1        2.09939  -0.00026  -0.00245  -0.00029  -0.00274   2.09665
    A2        2.14946   0.00055   0.00061   0.00210   0.00271   2.15217
    A3        2.03434  -0.00029   0.00184  -0.00181   0.00003   2.03436
    A4        2.19621   0.00015   0.00028   0.00076   0.00104   2.19725
    A5        2.03572  -0.00058  -0.00372  -0.00263  -0.00635   2.02937
    A6        2.05126   0.00043   0.00344   0.00186   0.00531   2.05656
    A7        1.89711  -0.00010   0.00243  -0.00267  -0.00024   1.89687
    A8        2.19559  -0.00036  -0.00043  -0.00170  -0.00218   2.19341
    A9        1.99081   0.00049   0.00084   0.00293   0.00372   1.99453
   A10        2.09679  -0.00013  -0.00041  -0.00120  -0.00166   2.09513
    D1       -3.14149  -0.00001   0.00000  -0.00035  -0.00034   3.14135
    D2        0.00000  -0.00001   0.00001  -0.00024  -0.00023  -0.00023
    D3        0.00007  -0.00001   0.00003  -0.00029  -0.00026  -0.00018
    D4        3.14156  -0.00000   0.00003  -0.00018  -0.00014   3.14142
    D5        3.14154   0.00000   0.00002   0.00001   0.00004   3.14158
    D6       -0.00008   0.00000   0.00005   0.00007   0.00012   0.00004
    D7       -0.00138   0.00008  -0.00020   0.00991   0.00970   0.00832
    D8       -3.14091  -0.00007   0.00034  -0.00944  -0.00910   3.13318
    D9        3.14032   0.00008  -0.00021   0.00979   0.00959  -3.13328
   D10        0.00078  -0.00008   0.00034  -0.00955  -0.00921  -0.00843
         Item               Value     Threshold  Converged?
 Maximum Force            0.001619     0.000450     NO 
 RMS     Force            0.000440     0.000300     NO 
 Maximum Displacement     0.009966     0.001800     NO 
 RMS     Displacement     0.004123     0.001200     NO 
 Predicted change in Energy=-1.245070D-05
 GradGradGradGradGradGradGradGradGradGradGradGradGradGradGradGradGradGrad

                          Input orientation:                          
 ---------------------------------------------------------------------
 Center     Atomic      Atomic             Coordinates (Angstroms)
 Number     Number       Type             X           Y           Z
 ---------------------------------------------------------------------
      1          6           0       -0.190971    1.141892    0.237141
      2          6           0       -0.932047    0.621298   -0.780107
      3          1           0        0.137079    0.500358    1.063098
      4          8           0        0.180225    2.446056    0.297294
      5          6           0       -1.438219    1.363409   -1.947230
      6          1           0        0.697021    2.584341    1.103505
      7          8           0       -1.254764    2.561588   -2.172166
      8          1           0       -1.165405   -0.444094   -0.712524
      9          1           0       -2.019176    0.741629   -2.669864
 ---------------------------------------------------------------------
                    Distance matrix (angstroms):
                    1          2          3          4          5
     1  C    0.000000
     2  C    1.361986   0.000000
     3  H    1.096078   2.134259   0.000000
     4  O    1.357295   2.393258   2.091425   0.000000
     5  C    2.525109   1.472791   3.505495   2.971426   0.000000
     6  H    1.902571   3.171024   2.158275   0.967562   3.918789
     7  O    2.991982   2.409710   4.080788   2.858457   1.232837
     8  H    2.089674   1.092742   2.396099   3.344163   2.205900
     9  H    3.457344   2.183463   4.317714   4.067735   1.116388
                    6          7          8          9
     6  H    0.000000
     7  O    3.813136   0.000000
     8  H    3.992244   3.342554   0.000000
     9  H    5.001163   2.035751   2.442549   0.000000
 Stoichiometry    C3H4O2
 Framework group  C1[X(C3H4O2)]
 Deg. of freedom    21
 Full point group                 C1      NOp   1
 Largest Abelian subgroup         C1      NOp   1
 Largest concise Abelian subgroup C1      NOp   1
                         Standard orientation:                         
 ---------------------------------------------------------------------
 Center     Atomic      Atomic             Coordinates (Angstroms)
 Number     Number       Type             X           Y           Z
 ---------------------------------------------------------------------
      1          6           0        1.165790    0.504794    0.000966
      2          6           0       -0.086341    1.040678   -0.000116
      3          1           0        2.044585    1.159852    0.003535
      4          8           0        1.404766   -0.831295   -0.001053
      5          6           0       -1.349601    0.283528   -0.003769
      6          1           0        2.361594   -0.975012    0.000242
      7          8           0       -1.451424   -0.945084    0.001969
      8          1           0       -0.145524    2.131814    0.001924
      9          1           0       -2.266483    0.920379    0.004486
 ---------------------------------------------------------------------
 Rotational constants (GHZ):          10.1294393           4.2624766           3.0000626
 Standard basis: Aug-CC-pVDZ (5D, 7F)
 There are   161 symmetry adapted cartesian basis functions of A   symmetry.
 There are   151 symmetry adapted basis functions of A   symmetry.
   151 basis functions,   259 primitive gaussians,   161 cartesian basis functions
    19 alpha electrons       19 beta electrons
       nuclear repulsion energy       158.9188128232 Hartrees.
 NAtoms=    9 NActive=    9 NUniq=    9 SFac= 1.00D+00 NAtFMM=   60 NAOKFM=F Big=F
 Integral buffers will be    131072 words long.
 Raffenetti 1 integral format.
 Two-electron integral symmetry is turned on.
 One-electron integrals computed using PRISM.
 NBasis=   151 RedAO= T EigKep=  3.62D-05  NBF=   151
 NBsUse=   151 1.00D-06 EigRej= -1.00D+00 NBFU=   151
 Initial guess from the checkpoint file:  "/scr/Gau-92699.chk"
 B after Tr=    -0.000000    0.000000   -0.000000
         Rot=    1.000000   -0.000001    0.000000   -0.000433 Ang=  -0.05 deg.
 Keep R1 ints in memory in canonical form, NReq=74569889.
 Requested convergence on RMS density matrix=1.00D-08 within 128 cycles.
 Requested convergence on MAX density matrix=1.00D-06.
 Requested convergence on             energy=1.00D-06.
 No special actions if energy rises.
 SCF Done:  E(RHF) =  -265.654007696     A.U. after   12 cycles
            NFock= 12  Conv=0.35D-08     -V/T= 2.0022
 ExpMin= 2.97D-02 ExpMax= 1.17D+04 ExpMxC= 4.01D+02 IAcc=3 IRadAn=         5 AccDes= 0.00D+00
 HarFok:  IExCor=  205 AccDes= 0.00D+00 IRadAn=         5 IDoV=-2 UseB2=F ITyADJ=14
 ICtDFT= 12500011 ScaDFX=  1.000000  1.000000  1.000000  1.000000
 Range of M.O.s used for correlation:     6   151
 NBasis=   151 NAE=    19 NBE=    19 NFC=     5 NFV=     0
 NROrb=    146 NOA=    14 NOB=    14 NVA=   132 NVB=   132

 **** Warning!!: The largest alpha MO coefficient is  0.43000800D+02

 Fully direct method using O(ONN) memory.
 JobTyp=1 Pass  1:  I=   6 to  19 NPSUse= 40 ParTrn=T ParDer=T DoDerP=T.
 Spin components of T(2) and E(2):
     alpha-alpha T2 =       0.3459348042D-01 E2=     -0.1048152332D+00
     alpha-beta  T2 =       0.1925807589D+00 E2=     -0.5924845645D+00
     beta-beta   T2 =       0.3459348042D-01 E2=     -0.1048152332D+00
 ANorm=    0.1123284345D+01
 E2 =    -0.8021150308D+00 EUMP2 =    -0.26645612272641D+03
          IDoAtm=111111111
          Differentiating once with respect to electric field.
                with respect to dipole field.
          Differentiating once with respect to nuclear coordinates.
 Keep R1 ints in memory in canonical form, NReq=74579262.
          There are     1 degrees of freedom in the 1st order CPHF.  IDoFFX=0 NUNeed=     1.
 LinEq1:  Iter=  0 NonCon=     1 RMS=5.59D-03 Max=1.18D-01 NDo=     1
 AX will form     1 AO Fock derivatives at one time.
 LinEq1:  Iter=  1 NonCon=     1 RMS=1.80D-03 Max=2.63D-02 NDo=     1
 LinEq1:  Iter=  2 NonCon=     1 RMS=6.51D-04 Max=1.05D-02 NDo=     1
 LinEq1:  Iter=  3 NonCon=     1 RMS=2.38D-04 Max=3.49D-03 NDo=     1
 LinEq1:  Iter=  4 NonCon=     1 RMS=8.03D-05 Max=1.07D-03 NDo=     1
 LinEq1:  Iter=  5 NonCon=     1 RMS=3.09D-05 Max=5.19D-04 NDo=     1
 LinEq1:  Iter=  6 NonCon=     1 RMS=1.13D-05 Max=2.41D-04 NDo=     1
 LinEq1:  Iter=  7 NonCon=     1 RMS=3.35D-06 Max=3.20D-05 NDo=     1
 LinEq1:  Iter=  8 NonCon=     1 RMS=1.27D-06 Max=3.13D-05 NDo=     1
 LinEq1:  Iter=  9 NonCon=     1 RMS=3.91D-07 Max=3.08D-06 NDo=     1
 LinEq1:  Iter= 10 NonCon=     1 RMS=8.37D-08 Max=8.12D-07 NDo=     1
 LinEq1:  Iter= 11 NonCon=     1 RMS=1.82D-08 Max=1.48D-07 NDo=     1
 LinEq1:  Iter= 12 NonCon=     1 RMS=4.39D-09 Max=5.00D-08 NDo=     1
 LinEq1:  Iter= 13 NonCon=     1 RMS=1.45D-09 Max=1.67D-08 NDo=     1
 LinEq1:  Iter= 14 NonCon=     1 RMS=3.38D-10 Max=2.60D-09 NDo=     1
 LinEq1:  Iter= 15 NonCon=     0 RMS=4.74D-11 Max=5.79D-10 NDo=     1
 Linear equations converged to 1.000D-10 1.000D-09 after    15 iterations.
 End of Minotr F.D. properties file   721 does not exist.
 End of Minotr F.D. properties file   722 does not exist.
 End of Minotr F.D. properties file   788 does not exist.
 Calling FoFJK, ICntrl=  10002127 FMM=F ISym2X=0 I1Cent= 0 IOpClX= 0 NMat=1 NMatS=1 NMatT=0.
 ***** Axes restored to original set *****
 -------------------------------------------------------------------
 Center     Atomic                   Forces (Hartrees/Bohr)
 Number     Number              X              Y              Z
 -------------------------------------------------------------------
      1        6          -0.000312970    0.000063792   -0.000514123
      2        6          -0.000177249    0.000029903    0.000756851
      3        1           0.000077529    0.000013528   -0.000006460
      4        8           0.000071703   -0.000097854    0.000231445
      5        6           0.001360275   -0.000637679   -0.001161377
      6        1          -0.000001239    0.000074743   -0.000035776
      7        8          -0.000501497    0.000240442    0.000363382
      8        1          -0.000070265    0.000040101   -0.000041325
      9        1          -0.000446287    0.000273024    0.000407383
 -------------------------------------------------------------------
 Cartesian Forces:  Max     0.001360275 RMS     0.000453298

 GradGradGradGradGradGradGradGradGradGradGradGradGradGradGradGradGradGrad
 Berny optimization.
 Using GEDIIS/GDIIS optimizer.
 FormGI is forming the generalized inverse of G from B-inverse, IUseBI=4.
 Internal  Forces:  Max     0.000624132 RMS     0.000255670
 Search for a local minimum.
 Step number   4 out of a maximum of   38
 All quantities printed in internal units (Hartrees-Bohrs-Radians)
 Mixed Optimization -- En-DIIS/RFO-DIIS
 Swapping is turned off.
 Update second derivatives using D2CorX and points    1    2    3    4
 DE= -9.24D-07 DEPred=-1.25D-05 R= 7.42D-02
 Trust test= 7.42D-02 RLast= 2.22D-02 DXMaxT set to 1.63D-01
 ITU= -1  1  1  0
     Eigenvalues ---    0.00973   0.01898   0.01943   0.02177   0.02693
     Eigenvalues ---    0.02935   0.09429   0.16050   0.16057   0.17417
     Eigenvalues ---    0.21253   0.22053   0.22317   0.31662   0.33450
     Eigenvalues ---    0.35549   0.36264   0.48925   0.53826   0.57415
     Eigenvalues ---    0.90472
 En-DIIS/RFO-DIIS/Sim-DIIS IScMMF=       -3 using points:     4    3
 RFO step:  Lambda=-5.51259837D-05.
 DidBck=T Rises=F RFO-DIIS coefs:   -0.16805    1.16805
 Iteration  1 RMS(Cart)=  0.00853635 RMS(Int)=  0.00014347
 Iteration  2 RMS(Cart)=  0.00012954 RMS(Int)=  0.00007619
 Iteration  3 RMS(Cart)=  0.00000001 RMS(Int)=  0.00007619
 Variable       Old X    -DE/DX   Delta X   Delta X   Delta X     New X
                                 (Linear)    (Quad)   (Total)
    R1        2.57378  -0.00031  -0.00087   0.00371   0.00284   2.57662
    R2        2.07129   0.00001   0.00089  -0.00171  -0.00081   2.07047
    R3        2.56492   0.00001   0.00487  -0.01170  -0.00684   2.55808
    R4        2.78317   0.00011   0.00405  -0.01130  -0.00725   2.77593
    R5        2.06498  -0.00003   0.00064  -0.00098  -0.00034   2.06464
    R6        1.82843  -0.00002  -0.00036   0.00086   0.00050   1.82893
    R7        2.32972   0.00009  -0.00174   0.00500   0.00326   2.33298
    R8        2.10967  -0.00018   0.00150  -0.00303  -0.00152   2.10814
    A1        2.09665  -0.00007   0.00320  -0.00984  -0.00664   2.09001
    A2        2.15217   0.00023  -0.00317   0.00752   0.00435   2.15653
    A3        2.03436  -0.00016  -0.00003   0.00232   0.00229   2.03665
    A4        2.19725  -0.00009  -0.00121   0.00284   0.00163   2.19888
    A5        2.02937   0.00012   0.00741  -0.02015  -0.01274   2.01663
    A6        2.05656  -0.00003  -0.00620   0.01731   0.01111   2.06767
    A7        1.89687   0.00015   0.00028   0.00143   0.00170   1.89858
    A8        2.19341  -0.00012   0.00254  -0.00618  -0.00387   2.18954
    A9        1.99453   0.00012  -0.00434   0.01113   0.00656   2.00108
   A10        2.09513   0.00002   0.00194  -0.00462  -0.00292   2.09221
    D1        3.14135   0.00006   0.00040   0.00032   0.00072  -3.14111
    D2       -0.00023   0.00005   0.00027   0.00037   0.00064   0.00041
    D3       -0.00018   0.00004   0.00030   0.00023   0.00053   0.00035
    D4        3.14142   0.00004   0.00017   0.00028   0.00045  -3.14131
    D5        3.14158   0.00001  -0.00004   0.00030   0.00025  -3.14135
    D6        0.00004  -0.00001  -0.00014   0.00022   0.00007   0.00011
    D7        0.00832  -0.00062  -0.01133  -0.01117  -0.02250  -0.01418
    D8        3.13318   0.00061   0.01063   0.01210   0.02273  -3.12728
    D9       -3.13328  -0.00062  -0.01120  -0.01122  -0.02242   3.12749
   D10       -0.00843   0.00062   0.01076   0.01205   0.02281   0.01438
         Item               Value     Threshold  Converged?
 Maximum Force            0.000624     0.000450     NO 
 RMS     Force            0.000256     0.000300     YES
 Maximum Displacement     0.017639     0.001800     NO 
 RMS     Displacement     0.008528     0.001200     NO 
 Predicted change in Energy=-2.762322D-05
 GradGradGradGradGradGradGradGradGradGradGradGradGradGradGradGradGradGrad

                          Input orientation:                          
 ---------------------------------------------------------------------
 Center     Atomic      Atomic             Coordinates (Angstroms)
 Number     Number       Type             X           Y           Z
 ---------------------------------------------------------------------
      1          6           0       -0.191304    1.145360    0.234931
      2          6           0       -0.929722    0.622432   -0.785064
      3          1           0        0.129000    0.500209    1.060538
      4          8           0        0.183395    2.444621    0.297901
      5          6           0       -1.429034    1.357930   -1.954493
      6          1           0        0.697069    2.581920    1.106589
      7          8           0       -1.259592    2.561823   -2.169134
      8          1           0       -1.158385   -0.442791   -0.703190
      9          1           0       -2.027685    0.744974   -2.668932
 ---------------------------------------------------------------------
                    Distance matrix (angstroms):
                    1          2          3          4          5
     1  C    0.000000
     2  C    1.363489   0.000000
     3  H    1.095647   2.131215   0.000000
     4  O    1.353678   2.394204   2.089333   0.000000
     5  C    2.524031   1.468956   3.500509   2.975584   0.000000
     6  H    1.900711   3.172443   2.158320   0.967827   3.922842
     7  O    2.987830   2.405348   4.075441   2.860456   1.234560
     8  H    2.082676   1.092562   2.378517   3.337619   2.209436
     9  H    3.459049   2.183918   4.315107   4.071826   1.115581
                    6          7          8          9
     6  H    0.000000
     7  O    3.815664   0.000000
     8  H    3.983326   3.344689   0.000000
     9  H    5.005319   2.034872   2.455730   0.000000
 Stoichiometry    C3H4O2
 Framework group  C1[X(C3H4O2)]
 Deg. of freedom    21
 Full point group                 C1      NOp   1
 Largest Abelian subgroup         C1      NOp   1
 Largest concise Abelian subgroup C1      NOp   1
                         Standard orientation:                         
 ---------------------------------------------------------------------
 Center     Atomic      Atomic             Coordinates (Angstroms)
 Number     Number       Type             X           Y           Z
 ---------------------------------------------------------------------
      1          6           0        1.163279    0.503325   -0.001650
      2          6           0       -0.090807    1.038458    0.000182
      3          1           0        2.036646    1.164879   -0.005993
      4          8           0        1.408846   -0.827888    0.001773
      5          6           0       -1.351191    0.283989    0.006426
      6          1           0        2.366464   -0.968084   -0.000234
      7          8           0       -1.449139   -0.946641   -0.003354
      8          1           0       -0.137250    2.130027   -0.003330
      9          1           0       -2.271206    0.914781   -0.007551
 ---------------------------------------------------------------------
 Rotational constants (GHZ):          10.1559543           4.2597426           3.0010473
 Standard basis: Aug-CC-pVDZ (5D, 7F)
 There are   161 symmetry adapted cartesian basis functions of A   symmetry.
 There are   151 symmetry adapted basis functions of A   symmetry.
   151 basis functions,   259 primitive gaussians,   161 cartesian basis functions
    19 alpha electrons       19 beta electrons
       nuclear repulsion energy       158.9813255559 Hartrees.
 NAtoms=    9 NActive=    9 NUniq=    9 SFac= 1.00D+00 NAtFMM=   60 NAOKFM=F Big=F
 Integral buffers will be    131072 words long.
 Raffenetti 1 integral format.
 Two-electron integral symmetry is turned on.
 One-electron integrals computed using PRISM.
 NBasis=   151 RedAO= T EigKep=  3.61D-05  NBF=   151
 NBsUse=   151 1.00D-06 EigRej= -1.00D+00 NBFU=   151
 Initial guess from the checkpoint file:  "/scr/Gau-92699.chk"
 B after Tr=    -0.000000    0.000000    0.000000
         Rot=    1.000000    0.000001   -0.000000   -0.000871 Ang=   0.10 deg.
 Keep R1 ints in memory in canonical form, NReq=74569948.
 Requested convergence on RMS density matrix=1.00D-08 within 128 cycles.
 Requested convergence on MAX density matrix=1.00D-06.
 Requested convergence on             energy=1.00D-06.
 No special actions if energy rises.
 SCF Done:  E(RHF) =  -265.653884381     A.U. after   12 cycles
            NFock= 12  Conv=0.76D-08     -V/T= 2.0022
 ExpMin= 2.97D-02 ExpMax= 1.17D+04 ExpMxC= 4.01D+02 IAcc=3 IRadAn=         5 AccDes= 0.00D+00
 HarFok:  IExCor=  205 AccDes= 0.00D+00 IRadAn=         5 IDoV=-2 UseB2=F ITyADJ=14
 ICtDFT= 12500011 ScaDFX=  1.000000  1.000000  1.000000  1.000000
 Range of M.O.s used for correlation:     6   151
 NBasis=   151 NAE=    19 NBE=    19 NFC=     5 NFV=     0
 NROrb=    146 NOA=    14 NOB=    14 NVA=   132 NVB=   132

 **** Warning!!: The largest alpha MO coefficient is  0.43171455D+02

 Fully direct method using O(ONN) memory.
 JobTyp=1 Pass  1:  I=   6 to  19 NPSUse= 40 ParTrn=T ParDer=T DoDerP=T.
 Spin components of T(2) and E(2):
     alpha-alpha T2 =       0.3460811735D-01 E2=     -0.1048536435D+00
     alpha-beta  T2 =       0.1925680376D+00 E2=     -0.5924720299D+00
     beta-beta   T2 =       0.3460811735D-01 E2=     -0.1048536435D+00
 ANorm=    0.1123291713D+01
 E2 =    -0.8021793169D+00 EUMP2 =    -0.26645606369819D+03
          IDoAtm=111111111
          Differentiating once with respect to electric field.
                with respect to dipole field.
          Differentiating once with respect to nuclear coordinates.
 Keep R1 ints in memory in canonical form, NReq=74579203.
          There are     1 degrees of freedom in the 1st order CPHF.  IDoFFX=0 NUNeed=     1.
 LinEq1:  Iter=  0 NonCon=     1 RMS=5.60D-03 Max=1.18D-01 NDo=     1
 AX will form     1 AO Fock derivatives at one time.
 LinEq1:  Iter=  1 NonCon=     1 RMS=1.81D-03 Max=2.64D-02 NDo=     1
 LinEq1:  Iter=  2 NonCon=     1 RMS=6.53D-04 Max=1.06D-02 NDo=     1
 LinEq1:  Iter=  3 NonCon=     1 RMS=2.40D-04 Max=3.48D-03 NDo=     1
 LinEq1:  Iter=  4 NonCon=     1 RMS=8.13D-05 Max=1.08D-03 NDo=     1
 LinEq1:  Iter=  5 NonCon=     1 RMS=3.15D-05 Max=5.59D-04 NDo=     1
 LinEq1:  Iter=  6 NonCon=     1 RMS=1.15D-05 Max=2.46D-04 NDo=     1
 LinEq1:  Iter=  7 NonCon=     1 RMS=3.40D-06 Max=3.24D-05 NDo=     1
 LinEq1:  Iter=  8 NonCon=     1 RMS=1.28D-06 Max=3.09D-05 NDo=     1
 LinEq1:  Iter=  9 NonCon=     1 RMS=3.95D-07 Max=3.19D-06 NDo=     1
 LinEq1:  Iter= 10 NonCon=     1 RMS=8.41D-08 Max=8.10D-07 NDo=     1
 LinEq1:  Iter= 11 NonCon=     1 RMS=1.83D-08 Max=1.51D-07 NDo=     1
 LinEq1:  Iter= 12 NonCon=     1 RMS=4.39D-09 Max=4.92D-08 NDo=     1
 LinEq1:  Iter= 13 NonCon=     1 RMS=1.44D-09 Max=1.62D-08 NDo=     1
 LinEq1:  Iter= 14 NonCon=     1 RMS=3.42D-10 Max=2.58D-09 NDo=     1
 LinEq1:  Iter= 15 NonCon=     0 RMS=5.02D-11 Max=6.28D-10 NDo=     1
 Linear equations converged to 1.000D-10 1.000D-09 after    15 iterations.
 End of Minotr F.D. properties file   721 does not exist.
 End of Minotr F.D. properties file   722 does not exist.
 End of Minotr F.D. properties file   788 does not exist.
 Calling FoFJK, ICntrl=  10002127 FMM=F ISym2X=0 I1Cent= 0 IOpClX= 0 NMat=1 NMatS=1 NMatT=0.
 ***** Axes restored to original set *****
 -------------------------------------------------------------------
 Center     Atomic                   Forces (Hartrees/Bohr)
 Number     Number              X              Y              Z
 -------------------------------------------------------------------
      1        6          -0.001580701   -0.002409063   -0.001690286
      2        6           0.002600663   -0.000993423    0.003016464
      3        1           0.000190139    0.000086863    0.000507703
      4        8           0.000891732    0.002246173    0.000402019
      5        6          -0.003009384    0.003324615   -0.000153971
      6        1          -0.000146865    0.000045607   -0.000260151
      7        8           0.000737535   -0.001594946   -0.000324826
      8        1          -0.000572052   -0.000121922   -0.001078799
      9        1           0.000888932   -0.000583906   -0.000418153
 -------------------------------------------------------------------
 Cartesian Forces:  Max     0.003324615 RMS     0.001497429

 GradGradGradGradGradGradGradGradGradGradGradGradGradGradGradGradGradGrad
 Berny optimization.
 Using GEDIIS/GDIIS optimizer.
 FormGI is forming the generalized inverse of G from B-inverse, IUseBI=4.
 Internal  Forces:  Max     0.002412432 RMS     0.000867482
 Search for a local minimum.
 Step number   5 out of a maximum of   38
 All quantities printed in internal units (Hartrees-Bohrs-Radians)
 Mixed Optimization -- En-DIIS/RFO-DIIS
 Swapping is turned off.
 Update second derivatives using D2CorX and points    1    2    3    4    5
 DE=  5.90D-05 DEPred=-2.76D-05 R=-2.14D+00
 Trust test=-2.14D+00 RLast= 5.09D-02 DXMaxT set to 8.17D-02
 ITU= -1 -1  1  1  0
     Eigenvalues ---    0.00973   0.01928   0.02177   0.02690   0.02914
     Eigenvalues ---    0.05103   0.09026   0.15270   0.16126   0.17540
     Eigenvalues ---    0.19845   0.22086   0.22173   0.31060   0.33027
     Eigenvalues ---    0.35490   0.36878   0.50175   0.51900   0.54079
     Eigenvalues ---    0.89828
 En-DIIS/RFO-DIIS/Sim-DIIS IScMMF=       -3 using points:     5    4    3
 RFO step:  Lambda=-1.47281627D-04.
 EnCoef did     4 forward-backward iterations
 DidBck=T Rises=T En-DIIS coefs:    0.33797    0.33231    0.32971
 Iteration  1 RMS(Cart)=  0.00710357 RMS(Int)=  0.00006811
 Iteration  2 RMS(Cart)=  0.00006786 RMS(Int)=  0.00001030
 Iteration  3 RMS(Cart)=  0.00000000 RMS(Int)=  0.00001030
 Variable       Old X    -DE/DX   Delta X   Delta X   Delta X     New X
                                 (Linear)    (Quad)   (Total)
    R1        2.57662  -0.00114  -0.00213  -0.00239  -0.00452   2.57210
    R2        2.07047   0.00039   0.00079  -0.00043   0.00036   2.07083
    R3        2.55808   0.00241   0.00590   0.00110   0.00700   2.56508
    R4        2.77593   0.00176   0.00594   0.00237   0.00831   2.78423
    R5        2.06464   0.00016   0.00041  -0.00055  -0.00014   2.06450
    R6        1.82893  -0.00029  -0.00043   0.00003  -0.00040   1.82853
    R7        2.33298  -0.00140  -0.00265  -0.00102  -0.00367   2.32932
    R8        2.10814   0.00011   0.00143  -0.00099   0.00044   2.10859
    A1        2.09001   0.00051   0.00530   0.00224   0.00754   2.09754
    A2        2.15653  -0.00025  -0.00378   0.00084  -0.00293   2.15359
    A3        2.03665  -0.00026  -0.00152  -0.00308  -0.00460   2.03205
    A4        2.19888  -0.00045  -0.00142  -0.00073  -0.00215   2.19673
    A5        2.01663   0.00148   0.01053   0.00442   0.01494   2.03157
    A6        2.06767  -0.00103  -0.00911  -0.00369  -0.01280   2.05488
    A7        1.89858   0.00016  -0.00105  -0.00016  -0.00121   1.89737
    A8        2.18954   0.00029   0.00328   0.00013   0.00344   2.19298
    A9        2.00108  -0.00048  -0.00557  -0.00069  -0.00623   1.99486
   A10        2.09221   0.00024   0.00248   0.00062   0.00313   2.09534
    D1       -3.14111  -0.00010  -0.00036  -0.00004  -0.00041  -3.14152
    D2        0.00041  -0.00009  -0.00034  -0.00005  -0.00039   0.00002
    D3        0.00035  -0.00007  -0.00027  -0.00002  -0.00029   0.00006
    D4       -3.14131  -0.00006  -0.00025  -0.00002  -0.00028  -3.14159
    D5       -3.14135  -0.00002  -0.00018  -0.00005  -0.00023  -3.14158
    D6        0.00011   0.00001  -0.00009  -0.00003  -0.00012  -0.00000
    D7       -0.01418   0.00106   0.01170   0.00126   0.01296  -0.00122
    D8       -3.12728  -0.00103  -0.01205  -0.00126  -0.01331  -3.14059
    D9        3.12749   0.00105   0.01168   0.00126   0.01294   3.14043
   D10        0.01438  -0.00104  -0.01206  -0.00126  -0.01332   0.00106
         Item               Value     Threshold  Converged?
 Maximum Force            0.002412     0.000450     NO 
 RMS     Force            0.000867     0.000300     NO 
 Maximum Displacement     0.019927     0.001800     NO 
 RMS     Displacement     0.007106     0.001200     NO 
 Predicted change in Energy=-7.313521D-05
 GradGradGradGradGradGradGradGradGradGradGradGradGradGradGradGradGradGrad

                          Input orientation:                          
 ---------------------------------------------------------------------
 Center     Atomic      Atomic             Coordinates (Angstroms)
 Number     Number       Type             X           Y           Z
 ---------------------------------------------------------------------
      1          6           0       -0.191284    1.141912    0.236534
      2          6           0       -0.930433    0.620497   -0.780508
      3          1           0        0.135507    0.502346    1.064193
      4          8           0        0.181372    2.445735    0.297035
      5          6           0       -1.433926    1.361968   -1.949903
      6          1           0        0.696840    2.584113    1.104144
      7          8           0       -1.256707    2.561641   -2.170655
      8          1           0       -1.165712   -0.444263   -0.713735
      9          1           0       -2.021915    0.742528   -2.667960
 ---------------------------------------------------------------------
                    Distance matrix (angstroms):
                    1          2          3          4          5
     1  C    0.000000
     2  C    1.361099   0.000000
     3  H    1.095836   2.133802   0.000000
     4  O    1.357382   2.393471   2.089831   0.000000
     5  C    2.524498   1.473353   3.505260   2.971946   0.000000
     6  H    1.903012   3.171075   2.156489   0.967617   3.919312
     7  O    2.990872   2.409772   4.079608   2.858495   1.232621
     8  H    2.090088   1.092487   2.397971   3.344903   2.205112
     9  H    3.456415   2.183735   4.317537   4.067749   1.115815
                    6          7          8          9
     6  H    0.000000
     7  O    3.813287   0.000000
     8  H    3.993099   3.341609   0.000000
     9  H    5.001183   2.035197   2.441425   0.000000
 Stoichiometry    C3H4O2
 Framework group  C1[X(C3H4O2)]
 Deg. of freedom    21
 Full point group                 C1      NOp   1
 Largest Abelian subgroup         C1      NOp   1
 Largest concise Abelian subgroup C1      NOp   1
                         Standard orientation:                         
 ---------------------------------------------------------------------
 Center     Atomic      Atomic             Coordinates (Angstroms)
 Number     Number       Type             X           Y           Z
 ---------------------------------------------------------------------
      1          6           0        1.164808    0.505074   -0.000137
      2          6           0       -0.086392    1.040881   -0.000008
[...]
 0.00029747,-0.00142441,0.00068693,0.00012730,-0.00001128,-0.00008256,0
 .00016864,0.00022827,-0.00005217,0.00258932,-0.00053192,-0.00001577,-0
 .00036149,0.00894675,0.04506303,-0.00626121,-0.00016132,-0.00029981,-0
 .00020869,-0.00002844,0.00028408,-0.00012066,0.00091709,-0.00237112,0.
 00241625,-0.00005517,-0.00016861,0.00005585,-0.00012769,-0.00032764,-0
 .00000470,-0.00897981,-0.04207561,-0.00095165,0.00000270,-0.00040780,-
 0.00283181,-0.00393941,-0.00704602,0.00011950,0.00044057,-0.00015023,0
 .00036643,0.00053582,0.00050681,-0.00034458,-0.00152698,-0.00021936,-0
 .00006388,0.00013214,0.00001305,0.00011192,0.00058800,0.00005691,0.003
 81767,0.00431383,0.00715936,-0.00011404,-0.00057245,-0.00037778,-0.000
 64243,0.00180937,-0.00299024,-0.00017325,0.00013720,-0.00004321,-0.000
 08907,0.00020662,0.00014683,0.01080106,0.01414203,0.01030643,-0.000107
 05,0.00000908,0.00006336,-0.00080615,-0.00259866,-0.00008474,0.0000919
 9,0.00002053,-0.00022361,-0.00896106,-0.00014265,0.00012297,-0.0001731
 0,-0.00187332,0.00280492,-0.00417732,-0.00003968,-0.00017500,-0.000067
 11,0.00015450,-0.00014046,0.00021681,0.01600565,0.01726496,0.01997439,
 0.00005284,0.00008202,-0.00000975,-0.00059733,-0.00332656,0.00027829,-
 0.00040628,-0.00008856,-0.00054668,-0.01315372,-0.01654429,-0.00058208
 ,-0.00092541,-0.00032065,-0.00133891,0.00206356,-0.00257278,0.00002625
 ,0.00022544,-0.00023066,0.00017742,0.00032776,-0.00007713,0.00949537,0
 .01666282,0.00968842,0.00004193,-0.00008266,-0.00004004,-0.00098942,-0
 .00294680,-0.00041646,-0.00003351,0.00017084,0.00008727,-0.00679705,-0
 .01549555,-0.00611796,0.00088120,-0.00163804,0.00090943,-0.00087485,-0
 .00238543,0.00134635,-0.00024834,-0.00006990,0.00133740,-0.00252168,0.
 00018355,0.00180495,-0.00088721,-0.00152183,-0.00124108,0.00123121,-0.
 00128696,0.00167855,-0.01057444,-0.00022490,-0.01346250,-0.00002376,0.
 00053501,-0.00009854,-0.00023826,-0.00078906,0.00058956,0.00016627,0.0
 0041976,-0.00088888,0.00103344,0.00007877,-0.00044285,0.00017726,-0.00
 023116,0.00065288,-0.00004021,0.00123080,-0.00070356,0.00019546,-0.001
 31158,0.00053799,-0.00019519,-0.00051631,0.00021809,-0.00080808,0.0011
 2506,0.00006914,-0.00057362,-0.00004165,-0.00082146,0.00011347,-0.0000
 2590,-0.00014915,0.00118943,0.00071816,0.00102480,0.00024891,-0.000308
 90,0.00064907,-0.00084904,-0.00018128,0.00030448,-0.00035165,-0.000303
 69,-0.00097058,0.00025738,0.00094583,-0.00113533,-0.00071210,-0.000386
 20,-0.00109822,-0.00007781,-0.00009293,0.00011118,0.00037045,0.0003901
 1,0.00151328,-0.00104062,0.00004616,-0.00052862,-0.00658168,0.00487122
 ,0.00363683,0.00018902,-0.00057852,-0.00080015,0.00016206,0.00048559,0
 .00079680,0.38215696,-0.00025049,-0.00217175,0.00023105,-0.01212359,0.
 00862759,-0.02853987,-0.00015000,0.00003739,0.00009620,0.00037937,-0.0
 0023724,0.00055470,1.04203732,0.53330415,-0.00043233,0.00069059,-0.001
 76687,0.01105895,0.00006362,0.00834067,-0.00099625,-0.00063504,-0.0005
 6615,0.00084701,0.00072674,0.00066737,1.16127886,1.27074551,0.82455764
 ,-0.00013237,-0.00016985,0.00014844,0.00009841,0.00006576,-0.00011494,
 -0.00004465,-0.00000969,-0.00000299,-0.00024663,0.00010812,-0.00020948
 ,0.00023252,-0.00018755,-0.00023548,0.00028609,0.00010794,-0.00034868,
 0.00026306,-0.00011163,0.00040449,-0.00029950,0.00000817,0.00001172,-0
 .00000463,-0.00002784,0.00004515,-0.00013236,-0.00008062,-0.00022420,0
 .00014097,0.00005564,-0.00001987,0.00002493,-0.00020093,-0.00004584,-0
 .00005023,-0.00000509,0.00007463,-0.00001131,-0.00003671,-0.00004314,-
 0.00014379,0.00010502,-0.00043527,-0.00027753,-0.00005117,-0.00002358,
 0.00012928,0.00017979,0.00032680,-0.00000228,0.00061168,-0.00038779,-0
 .00181553,-0.00121581,-0.00298683,-0.00005252,-0.00002590,-0.00016623,
 0.00001125,-0.00014513,0.00020079,-0.01442208,0.01811713,-0.00143791,-
 0.00006737,-0.00004919,0.00016479,0.00676171,-0.00028310,0.00130393,-0
 .00103317,-0.00127251,-0.00435372,-0.00000694,-0.00037195,-0.00021885,
 -0.00050795,-0.00063781,-0.00090969,-0.00071525,-0.01054180,0.00987414
 ,-0.03026400,0.00008591,0.00022005,-0.00000686,-0.01257257,-0.02170890
 ,0.00002492,0.00050916,-0.00011594,-0.00302548,0.00005037,-0.00469352,
 -0.00000985,0.00007187,-0.00001056,0.00040235,0.00009964,0.00056337,0.
 01102025,0.01809283,-0.00769975,0.00010415,-0.00024355,0.00013322,-0.0
 0315819,-0.00634829,0.00942348,0.00028754,0.00034785,-0.00051111,0.000
 15114,-0.00096458,0.00255601,-0.00004022,0.00000192,0.00006285,0.00015
 096,0.00001348,0.00000124,0.00062689,0.00079717,-0.00000303,0.00003127
 ,0.00005816,0.00001311,0.00028888,0.00057659,-0.00003776,-0.00063652,-
 0.00034031,-0.00002944,-0.00033653,-0.00083459,-0.00466628,0.00012165,
 0.00007442,0.00004459,0.00007374,0.00006202,0.00015264,0.00009965,0.00
 168147,-0.00026397,0.00311770,0.00000120,0.00002708,-0.00000844,-0.000
 49186,0.00057863,-0.00100104,0.00063674,0.00468252,-0.00020761,0.00080
 545,-0.00020399,0.00250435,-0.00008118,0.00313091,0.00002996,-0.000052
 07,-0.00000517,-0.00001731,0.00002993,0.00010682,-0.00040177,0.0016251
 9,-0.00092269,0.00003749,0.00008984,0.00003104,0.00043549,0.00079006,0
 .00053534,-0.00170809,-0.00085898,-0.00231024,0.00108671,-0.00078800,0
 .00084596,0.01172960,-0.00058761,0.00648405,-0.00006936,0.00037073,0.0
 0109560,0.00000116,-0.00038636,-0.00062726,-0.36132308,-1.04861936,-1.
 17007981,-0.00015727,0.00003937,0.00015077,0.00929796,0.02501724,-0.00
 532039,-0.00085995,-0.00078908,-0.00067252,0.34029424,0.00108253,-0.00
 160436,0.00286587,0.01616416,-0.00078217,0.03090830,0.00110584,0.00049
 952,0.00129138,-0.00052956,-0.00005864,-0.00066355,-1.03792082,-0.5489
 4609,-1.24458609,0.00005047,-0.00011574,0.00002439,-0.00422836,0.01521
 443,-0.01123101,-0.00146733,-0.00052577,-0.00234824,1.02574307,0.53631
 882,0.00001659,-0.00030855,0.00094666,-0.00073391,0.00278219,0.0054914
 9,0.00076943,0.00005047,0.00046132,-0.00055723,-0.00039967,-0.00029321
 ,-1.17472466,-1.26275442,-0.82258665,0.00014353,0.00000639,-0.00001786
 ,0.00733588,0.03809240,0.00186437,-0.00037322,-0.00120776,-0.00036203,
 1.16812360,1.22373896,0.81449591,-0.32915918,-0.62964366,0.60931373,0.
 80351379,-1.60301018,1.40241709,-0.00132684,0.01296812,0.01058820,-0.0
 3531220,-0.00299662,-0.00229963,-0.00876901,0.04834699,0.17064204,0.01
 752113,0.01810339,0.01071033,-0.01571190,-0.00945326,-0.06069889,0.334
 82343,0.62246731,-0.81752680,0.00456985,0.00190189,-0.00463472,-0.3401
 6315,0.61940488,-0.62596640,1.59985665,-0.01355961,0.00473460,-0.02186
 997,-0.61180136,0.61968308,-0.81618955,1.60501089,-1.40879097,0.002058
 41,0.00409980,0.00854160,0.81841369,-1.58809085,1.39654990,-0.00553503
 ,-0.00006989,0.00369519,0.00036541,-0.00146191,-0.00084899,0.00273315,
 0.00445556,-0.00397222,-0.00005915,0.01542083,0.02454931,0.01191049,0.
 00187287,-0.00278607,0.00488426,-0.01520414,-0.00192809,-0.02302415,-0
 .00166309,-0.02253706,-0.00301649,-0.01412732,-0.00667353,-0.00230275,
 -0.00070989,-0.00231087,0.00456415,0.01003384,0.00725859,0.00276906,0.
 00645550,0.00059005,-0.00455440,0.00076859,0.00157393,0.00332062,0.001
 79827,0.00002688,0.00246797,-0.00153806,-0.00133575,0.00159524,-0.0006
 0177,-0.00024354,-0.00249839,0.00251834,-0.00357872,0.00334843,-0.0019
 4899,0.00644262,-0.00490624,-0.00110900,0.00038028,-0.00043042,0.00010
 405,0.00120965,0.00047597,0.00122666,-0.00901596,0.00078236,0.00036756
 ,-0.00453550,0.00169883,0.00141764,0.00485607,-0.00153200,-0.00116291,
 0.00160723,-0.00054574,-0.00071741,0.00128454,0.00102386,0.00478231,-0
 .00342375,0.00089907,-0.00374358,0.00125659,-0.00060424,0.00061792,-0.
 00036399,-0.00176877,0.00110384,-0.00099502,0.00231419,-0.00014883,-0.
 00295917,-0.00048293,0.00000746,0.00037351,-0.00086367,-0.00182405,-0.
 00377202,-0.00093815,-0.00033232,-0.00018504,-0.00071727,0.00187726,0.
 00439811,0.00061773,-0.00194265,0.00262726,-0.00262298,0.00021686,0.00
 025163,-0.00005478,0.00217912,-0.00341822,0.00042064,-0.00416270,0.003
 63361,0.00003615,0.00087684,-0.00085979,-0.00133125,-0.00068490,-0.003
 40293,-0.00217404,0.00040202,0.00028425,0.00028701,-0.00041916,-0.0000
 4250,0.00305681,0.00373304,0.00026874,0.00081111,-0.00014810,-0.000557
 31,-0.00064986,-0.00033740,0.00035234,-0.00039606,0.00026375,0.0000439
 8,-0.00010959,0.00041168,0.00028919,0.00004478,0.00053308,-0.00049904,
 0.00002273,-0.00010507,0.00003770,0.00027381,-0.00095298,0.00057184,-0
 .00136020,0.00152288,-0.00114802,0.00284883,0.00027806,-0.00035820,0.0
 0040981,-0.00017927,-0.00099243,-0.00004570,-0.00061323,0.00473758,-0.
 00333180,0.00005883,-0.00011466,0.00017094,-0.00078605,-0.00344295,-0.
 00018375,0.00003111,0.00085121,-0.00051827,-0.00031880,-0.00136417,0.0
 0004399,0.00038372,-0.00059868,0.00053342,0.00093435,0.00010440,0.0000
 1895,-0.00124380,0.00063862,-0.00003541,-0.00011411,0.00002242,0.00028
 836,0.00052078,0.00065867,0.00305418,-0.00238379,-0.00231933,0.0299470
 5,-0.04862144,0.00372502,-0.00174707,0.00200196,0.00134443,-0.00108032
 ,-0.00038701,0.00071753,0.00054110,0.00027941,-0.00095117,0.00038080,-
 0.00003006,-0.00019343,-0.00011631,0.00007411,-0.00005838,-0.03084629,
 -0.00161961,0.00091232,-0.00092311,-0.04907438,-0.17453234,0.01069036,
 0.00133607,-0.00101114,0.00135795,0.00066183,-0.00017441,0.00057592,-0
 .00019744,0.00033868,-0.00003815,-0.00004699,0.00025924,0.00002464,-0.
 00004981,0.00042161,-0.00030382,0.04903173,0.17375694,-0.00264638,-0.0
 0222352,0.00155718,0.00392677,0.01146761,0.04190849,0.00163198,0.00247
 374,-0.00139244,0.00026483,-0.00117595,-0.00044927,-0.00075941,0.00075
 841,-0.00053588,-0.00018644,0.00005561,0.00016446,0.00000489,-0.000101
 10,-0.00006522,-0.00240124,-0.01120825,-0.04127083,0.00098765,-0.00021
 502,-0.00022423,-0.00030976,0.00075232,-0.00006578,-0.00051935,-0.0003
 3095,0.00063203,-0.00022391,0.00029947,0.00018201,-0.00043398,-0.00161
 101,-0.00035062,0.00010283,-0.00003907,-0.00013957,0.00011941,0.000597
 64,-0.00008889,-0.00013314,-0.00004140,0.00016499,0.00041025,-0.000307
 12,0.00026959,-0.00011493,0.00020445,-0.00086817,0.00041994,0.00025392
 ,0.00006777,0.00004923,0.00009538,0.00003186,-0.00003536,-0.00105988,-
 0.00076577,-0.00126245,-0.00002776,-0.00004631,0.00005927,0.00021791,0
 .00032525,0.00011057,0.00003508,0.00002908,-0.00004656,0.00058802,0.00
 095669,-0.00020174,0.00001071,0.00083061,0.00022455,0.00138911,-0.0007
 8280,0.00037096,-0.00093932,0.00022770,0.00027849,0.00033088,-0.000088
 18,-0.00059193,-0.00236550,0.00015118,-0.00014687,0.00004091,-0.000068
 26,0.00003989,0.00088844,-0.00024725,0.00013658,-0.00017553,0.00008350
 ,-0.00010994,0.00082029,-0.00010650,-0.01955819,-0.03954809,0.02910809
 ,0.04645243,-0.09521367,0.08242330,0.00144222,0.00875475,-0.00107891,-
 0.51207208,-0.00633960,-0.00195987,-0.00985295,0.77117411,2.83224318,0
 .00547565,0.01555570,0.00235541,-0.03290429,-0.23251159,-0.64588894,0.
 02011965,0.03931216,-0.04765826,0.00328684,-0.00156246,-0.00352053,-0.
 02149660,0.03798574,-0.03987592,0.09779949,-0.00200313,0.00142403,-0.0
 0145634,-0.03820994,0.03912111,-0.04707438,0.10003387,-0.08426150,-0.0
 0334670,-0.00074524,0.00050429,0.04827506,-0.09873545,0.08367065,0.000
 90230,-0.00142474,0.00159337,-0.00316379,-0.00103205,0.00139815,0.0004
 6587,0.00042121,-0.00057065,-0.00082802,0.00150024,0.00335883,0.001185
 63,0.00021949,-0.00211508,-0.00034669,-0.00077513,0.00033281,-0.001150
 94,-0.00050976,-0.00374046,0.00033554,-0.00372051,0.00248338,0.0008483
 4,-0.00243801,-0.00123810,-0.00004755,0.00085837,0.00023693,0.00004766
 ,0.00047645,-0.00083935,-0.00045574,0.00075725,0.00126035,0.00376538,0
 .00307942,-0.00367851,-0.00071543,-0.00002018,0.00030180,0.00079818,0.
 00015043,0.00007868,-0.00241846,-0.00088886,-0.00130632,-0.00150630,-0
 .00962179,0.00537654,-0.01634062,0.00037335,-0.00044453,0.00044595,0.0
 0014965,-0.00020461,0.00065302,0.00301892,-0.00699583,0.00194288,0.001
 22328,0.00133291,0.00187960,0.00504081,0.00590452,0.00012084,-0.000226
 49,-0.00056874,0.00008315,0.00064798,0.00056664,-0.00203817,0.00754427
 ,-0.00833189,-0.00039167,0.00048490,0.00049376,-0.00063937,-0.00023088
 ,0.00055426,-0.00013641,-0.00002366,-0.00010988,0.00004255,-0.00002094
 ,-0.00013775,0.00010359,-0.00001834,-0.00000886,0.00036199,0.00004378,
 -0.00114643,0.00022638,0.00018133,-0.00104075,0.00036067,0.00008865,0.
 00041057,-0.00005311,0.00005737,0.00030283,0.00002056,0.00003603,-0.00
 001017,0.00011091,-0.00012340,-0.00011553,0.00068227,0.00097123,-0.000
 08290,0.00036307,-0.00033627,-0.00014572,-0.00015919,-0.00024399,-0.00
 022643,-0.00016506,-0.00010237,-0.00010119,-0.00002806,0.00000720,0.00
 006321,0.00004261,-0.00000438,0.00043467,-0.00007429,-0.00030387,0.000
 04565,-0.00117282,-0.00011023,0.00129405,0.00031441,-0.00000153,-0.000
 15788,-0.00032017,0.00004540,0.00001147,0.00075122,0.00004445,0.000813
 90,-0.00002586,-0.00000332,0.00000086,0.00014881,0.00026886,0.00129771
 ,-0.00014295,0.00054122,-0.00361240,0.00177225,-0.00024043,-0.00012576
 ,-0.00017290,0.00009791,-0.00011068,0.00005900,-0.00390842,-0.00087985
 ,-0.00641323,0.00000716,0.00002973,-0.00000154,0.00147018,-0.00112084,
 -0.00017863,-0.00106836,0.00013309,0.00094809,0.00063758,-0.00045448,-
 0.00004797,0.00022683,0.00021375,-0.00002359,-0.00004297,-0.00035898,0
 .00254984,0.00039469,0.00423492,-0.00000569,-0.00002864,-0.00001762,-0
 .00078351,0.00327726,-0.00240965,-0.00182785,-0.00778419,-0.00120106,0
 .50795953,-0.76658828,0.03244833,-0.00190695,0.00180244,0.00254424,0.0
 0213120,-0.00059923,-0.00117240,-0.00060546,0.00917175,-0.00274214,0.0
 0061624,-0.00024919,-0.00069911,0.00003705,0.00141063,-0.00203763,-0.5
 0583509,0.00710689,0.01120745,0.00748054,-0.77020642,-2.83101820,0.231
 40272,0.00095985,-0.00108698,0.00040166,0.00224950,0.00210061,0.004163
 79,-0.00187263,0.00706738,-0.00680752,-0.00003868,0.00159014,-0.000281
 86,-0.00101059,0.00381160,-0.00296293,0.76382821,2.80630460,-0.0076590
 2,-0.01757552,-0.00436288,0.03402339,0.23750144,0.64064857,0.00290848,
 0.00181454,0.00021833,-0.00240633,-0.00061503,-0.00079442,0.00203629,0
 .01176052,-0.00298629,-0.00079081,-0.00063325,0.00003985,-0.00097732,0
 .00110289,-0.00125425,-0.02753807,-0.23144265,-0.63247776,-0.00015647,
 -0.00024816,0.00009268,0.00059412,0.00160997,-0.00106711,0.00006862,0.
 00004905,0.00013840,-0.00002809,-0.00001050,0.00003599,-0.00122330,-0.
 00222912,-0.00005120,0.00006893,-0.00003125,-0.00003739,0.00034167,0.0
 0035290,-0.00042090,-0.00056866,-0.00101613,0.00040340,0.00090318,-0.0
 0012895,-0.00068351,0.00002381,0.00096044,0.00070253,0.00156395,0.0000
 5397,0.00024469,-0.00002384,-0.00000909,0.00007579,-0.00007269,-0.0012
 4082,-0.00260263,-0.00112001,-0.00003615,-0.00002040,-0.00000804,-0.00
 013049,0.00071050,-0.00043345,-0.00099214,0.00002339,-0.00191295,0.001
 52323,0.00154965,0.00002326,-0.00020604,-0.00002081,-0.00073260,0.0027
 0425,-0.00168553,0.00012912,-0.00003696,0.00021270,0.00004329,-0.00005
 207,0.00004509,-0.00048221,-0.00295873,-0.00021529,-0.00003765,0.00000
 086,0.00003613,-0.00024719,0.00051922,-0.00008677,0.00039784,-0.001953
 74,0.00096886,0.00090613,0.00198322,0.00074562,-0.00106733,-0.00609362
 ,-0.02180989,-0.00345005,0.00030008,-0.00341595,0.00032969,0.00345867,
 0.00194790,0.00001255,-0.00045596,0.00328336,-0.00290511,-0.00173074,-
 0.00233319,0.00365063,0.00370396,0.00288446,-0.00300103,-0.00093434,-0
 .00233220,0.00139128,0.00173845,-0.00010869,-0.00003787,-0.00067840,-0
 .00025190,0.00040251,0.00047594,-0.00204581,0.00211177,-0.00026339,-0.
 00013322,-0.00024065,-0.00212573,-0.00341847,0.00044742,0.00423854,-0.
 00007834,-0.00044937,-0.00096827,-0.00002334,0.00048099,-0.00179491,0.
 00223326,-0.00672337,0.00636656,-0.00362479,-0.00187249,0.00028059,0.0
 0005092,0.00076500,0.00065981,-0.00057214,0.91836835,0.03201290,0.0469
 3863,0.03074604,-0.00213507,0.00142804,-0.00508340,-0.00265886,-0.0035
 7627,-0.00251835,0.58928261,-1.26346331,-0.01474333,-0.01236725,-0.025
 65418,0.00109295,-0.00100758,0.00030576,0.00087189,0.00305981,0.001066
 31,3.68115434,0.92177442,4.36723475,0.00009266,-0.00087850,-0.00016064
 ,-0.00041716,0.00020441,0.00098097,0.00012286,0.00006883,0.00008954,-0
 .00101003,0.00025765,-0.00062887,0.00032401,-0.00115177,-0.00085025,-0
 .00135836,0.00050634,-0.00073829,0.00064984,0.00025365,0.00003316,0.00
 044595,-0.00038307,0.00129706,-0.00150881,0.00062852,-0.00032075,-0.00
 007389,-0.00093777,0.00069468,0.00089546,0.00016399,0.00015531,-0.0000
 0073,0.00012459,0.00001591,-0.00034671,-0.00043760,-0.00110015,0.00026
 195,0.00149103,0.00015431,0.00565009,-0.00395400,0.00595529,0.00184110
 ,0.00164326,-0.00168994,-0.00242713,0.00125721,-0.00031972,-0.90907792
 ,-0.61739818,-3.66862175,0.00071746,0.00014121,-0.00011828,0.90288337,
 -0.02548141,-0.02673961,-0.02987919,0.00011148,-0.00140121,0.00184569,
 0.00351061,0.00930735,0.00075642,-0.59601147,1.21873426,-0.90970694,-0
 .00011676,-0.00012242,0.00017943,0.61835067,-1.19944138,0.01529495,0.0
 0632358,0.02610636,-0.00103759,0.00441748,-0.00123275,-0.00129820,-0.0
 0303498,-0.00342713,-3.67789663,-0.94566115,-4.34228184,-0.00000184,0.
 00060109,0.00048720,3.66478321,0.93708687,4.31978871,0.00022271,-0.000
 07909,0.00038149,0.00024693,0.00030548,-0.00007126,-0.00002497,-0.0000
 7451,0.00003627,-0.00013963,-0.00009331,0.00091672,0.00010244,0.000423
 10,-0.00041559,0.00003134,-0.00005119,-0.00028182,-0.00030032,0.000617
 78,0.00078554,0.00068308,-0.00021020,-0.00014476,-0.00007458,-0.000127
 50,-0.00008172,-0.00019129,-0.00007269,-0.00106833,0.00004812,0.000089
 20,0.00103747,-0.00052880,-0.00006994,-0.00005535,0.00000879,-0.000490
 73,-0.00058103,0.00010334,-0.00045093,0.00037863,0.00008929,0.00075375
 ,0.00017506,0.00006547,-0.00010425,0.00011221,0.00089551,-0.00000035,0
 .00084613,-0.00025025,0.00019279,-0.00040160,-0.00027565,0.00003093,-0
 .00025979,-0.00065270,-0.00026396,-0.00067369,0.00028718,-0.00044728,-
 0.00105796,0.00000667,0.00024810,0.00012158,-0.00035399,0.00004371,0.0
 0029447,-0.00101160,0.00089652,0.00031946,0.00031110,-0.00023092,-0.00
 006243,0.00090473,-0.00045622,0.00022153,-0.00006797,0.00009226,0.0000
 4782,-0.00013187,-0.00012939,0.00039756,0.00006287,0.00019985,-0.00019
 586,0.00035082,0.00013879,-0.00007966,0.00003525,-0.00001593,-0.000072
 04,-0.00061947,0.00000176,-0.00001626,0.00017876,-0.00004523,-0.000308
 89,0.00044221,0.00002551,-0.00002399,0.00000780,-0.00014142,0.00033701
 ,-0.00119138,-0.00048708,-0.00076671,0.00014758,0.00044759,-0.00007307
 ,0.00025177,-0.00012854,-0.00006130,0.00071807,0.00092701,-0.00062559,
 -0.00017853,-0.00021796,0.00023765,0.00004281,-0.00024651,0.00106820,0
 .00008630,0.00011432,-0.00004133,0.00016464,-0.00045873,0.00025774,-0.
 00018293,-0.00011122,0.00011746,-0.00010939,0.00018328,0.00021001,0.00
 016232,-0.00004186,-0.00000745,0.00070170,-0.00016426,-0.00036142,-0.0
 0024334,-0.00018707,-0.00013979,-0.00052303,0.00014429,0.00021639,-0.0
 0007052,0.00017182,-0.00002283,0.00005576,-0.00003393,-0.00004127,0.00
 020944,0.00020554,0.00004047,0.00023884,0.00006305,0.00023514,-0.00021
 733,-0.00005101,-0.00000536,-0.00000335,-0.00010640,-0.00021803,0.0003
 2770,-0.00025512,-0.00031974,-0.00023363,0.00007500,0.00002725,-0.0001
 8389,0.00003474,0.00013216,-0.00016576,-0.00000476,-0.00003788,0.00004
 989,0.00003896,0.00014600,-0.00003770,-0.00032318,-0.00014896,0.000314
 82,0.00003255,0.00014078,-0.00001061,0.00000717,0.00016242,-0.00037858
 ,0.00025338,0.00020879,-0.00011234,-0.00029558,-0.00024332,0.00024403,
 -0.00006669,-0.00024895,0.00000059,0.00020432,-0.00013561,-0.00004911,
 0.00000049,0.00000440,0.00002890,0.00018754,0.00026046\\@
 The archive entry for this job was punched.


 ERWIN WITH HIS PSI CAN DO
 CALCULATIONS QUITE A FEW.
 BUT ONE THING HAS NOT BEEN SEEN
 JUST WHAT DOES PSI REALLY MEAN.
 -- WALTER HUCKEL, TRANS. BY FELIX BLOCH
 Job cpu time:       1 days 21 hours 33 minutes 38.9 seconds.
 Elapsed time:       0 days  1 hours  9 minutes 38.4 seconds.
 File lengths (MBytes):  RWF=   2665 Int=      0 D2E=      0 Chk=     43 Scr=      1
 Normal termination of Gaussian 16 at Sat Mar 22 09:08:01 2025.
