 Entering Gaussian System, Link 0=g16
 Input=enolonetc_mp2_avdz_opt_anharm.gjf
 Output=enolonetc_mp2_avdz_opt_anharm.log
 Initial command:
 /sw/contrib/chem-src/g16/c01/g16/l1.exe "/scr/Gau-22289.inp" -scrdir="/scr/"
 Entering Link 1 = /sw/contrib/chem-src/g16/c01/g16/l1.exe PID=     22290.
  
 Copyright (c) 1988-2019, Gaussian, Inc.  All Rights Reserved.
  
 This is part of the Gaussian(R) 16 program.  It is based on
 the Gaussian(R) 09 system (copyright 2009, Gaussian, Inc.),
 the Gaussian(R) 03 system (copyright 2003, Gaussian, Inc.),
 the Gaussian(R) 98 system (copyright 1998, Gaussian, Inc.),
 the Gaussian(R) 94 system (copyright 1995, Gaussian, Inc.),
 the Gaussian 92(TM) system (copyright 1992, Gaussian, Inc.),
 the Gaussian 90(TM) system (copyright 1990, Gaussian, Inc.),
 the Gaussian 88(TM) system (copyright 1988, Gaussian, Inc.),
 the Gaussian 86(TM) system (copyright 1986, Carnegie Mellon
 University), and the Gaussian 82(TM) system (copyright 1983,
 Carnegie Mellon University). Gaussian is a federally registered
 trademark of Gaussian, Inc.
  
 This software contains proprietary and confidential information,
 including trade secrets, belonging to Gaussian, Inc.
  
 This software is provided under written license and may be
 used, copied, transmitted, or stored only in accord with that
 written license.
  
 The following legend is applicable only to US Government
 contracts under FAR:
  
                    RESTRICTED RIGHTS LEGEND
  
 Use, reproduction and disclosure by the US Government is
 subject to restrictions as set forth in subparagraphs (a)
 and (c) of the Commercial Computer Software - Restricted
 Rights clause in FAR 52.227-19.
  
 Gaussian, Inc.
 340 Quinnipiac St., Bldg. 40, Wallingford CT 06492
  
  
 ---------------------------------------------------------------
 Warning -- This program may not be used in any manner that
 competes with the business of Gaussian, Inc. or will provide
 assistance to any competitor of Gaussian, Inc.  The licensee
 of this program is prohibited from giving any competitor of
 Gaussian, Inc. access to this program.  By using this program,
 the user acknowledges that Gaussian, Inc. is engaged in the
 business of creating and licensing software in the field of
 computational chemistry and represents and warrants to the
 licensee that it is not a competitor of Gaussian, Inc. and that
 it will not use this program in any manner prohibited above.
 ---------------------------------------------------------------
  

 Cite this work as:
 Gaussian 16, Revision C.01,
 M. J. Frisch, G. W. Trucks, H. B. Schlegel, G. E. Scuseria, 
 M. A. Robb, J. R. Cheeseman, G. Scalmani, V. Barone, 
 G. A. Petersson, H. Nakatsuji, X. Li, M. Caricato, A. V. Marenich, 
 J. Bloino, B. G. Janesko, R. Gomperts, B. Mennucci, H. P. Hratchian, 
 J. V. Ortiz, A. F. Izmaylov, J. L. Sonnenberg, D. Williams-Young, 
 F. Ding, F. Lipparini, F. Egidi, J. Goings, B. Peng, A. Petrone, 
 T. Henderson, D. Ranasinghe, V. G. Zakrzewski, J. Gao, N. Rega, 
 G. Zheng, W. Liang, M. Hada, M. Ehara, K. Toyota, R. Fukuda, 
 J. Hasegawa, M. Ishida, T. Nakajima, Y. Honda, O. Kitao, H. Nakai, 
 T. Vreven, K. Throssell, J. A. Montgomery, Jr., J. E. Peralta, 
 F. Ogliaro, M. J. Bearpark, J. J. Heyd, E. N. Brothers, K. N. Kudin, 
 V. N. Staroverov, T. A. Keith, R. Kobayashi, J. Normand, 
 K. Raghavachari, A. P. Rendell, J. C. Burant, S. S. Iyengar, 
 J. Tomasi, M. Cossi, J. M. Millam, M. Klene, C. Adamo, R. Cammi, 
 J. W. Ochterski, R. L. Martin, K. Morokuma, O. Farkas, 
 J. B. Foresman, and D. J. Fox, Gaussian, Inc., Wallingford CT, 2019.
 
 ******************************************
 Gaussian 16:  EM64L-G16RevC.01  3-Jul-2019
                22-Mar-2025 
 ******************************************
 %nprocshared=40
 Will use up to   40 processors via shared memory.
 %mem=50gb
 ----------------------------------------------
 # MP2/aug-cc-pVDZ opt freq=(vibrot,anharmonic)
 ----------------------------------------------
 1/18=20,19=15,38=1,80=1/1,3;
 2/9=110,12=2,17=6,18=5,40=1/2;
 3/5=16,7=10,11=9,25=1,30=1,71=1/1,2,3;
 4//1;
 5/5=2,38=5/2;
 8/6=4,10=1/1;
 9/15=2,16=-3/6;
 10/5=1/2;
 6/7=2,8=2,9=2,10=2/1;
 7/12=2/1,2,3,16;
 1/18=20,19=15,80=1/3(2);
 2/9=110/2;
 99//99;
 2/9=110/2;
 3/5=16,7=10,11=9,25=1,30=1,71=1/1,2,3;
 4/5=5,16=3,69=1/1;
 5/5=2,38=5/2;
 8/6=4,10=1/1;
 9/15=2,16=-3/6;
 10/5=1/2;
 7/12=2/1,2,3,16;
 1/18=20,19=15,80=1/3(-8);
 2/9=110/2;
 6/7=2,8=2,9=2,10=2/1;
 99/9=10/99;
 ----
 blah
 ----
 Symbolic Z-matrix:
 Charge =  0 Multiplicity = 1
 C                    -0.89926   0.47391  -0.10944 
 C                    -1.71799   0.17863  -1.12274 
 H                    -0.90731  -0.03556   0.84929 
 O                     0.05759   1.45249  -0.13655 
 C                    -2.71524  -0.90529  -0.97202 
 H                     0.04805   1.89546  -1.00202 
 O                    -2.84993  -1.57262   0.04454 
 H                    -1.69781   0.69532  -2.07188 
 H                    -3.34308  -1.07215  -1.86303 
 

 GradGradGradGradGradGradGradGradGradGradGradGradGradGradGradGradGradGrad
 Berny optimization.
 Initialization pass.
                           ----------------------------
                           !    Initial Parameters    !
                           ! (Angstroms and Degrees)  !
 --------------------------                            --------------------------
 ! Name  Definition              Value          Derivative Info.                !
 --------------------------------------------------------------------------------
 ! R1    R(1,2)                  1.3358         estimate D2E/DX2                !
 ! R2    R(1,3)                  1.0857         estimate D2E/DX2                !
 ! R3    R(1,4)                  1.3689         estimate D2E/DX2                !
 ! R4    R(2,5)                  1.4806         estimate D2E/DX2                !
 ! R5    R(2,8)                  1.0809         estimate D2E/DX2                !
 ! R6    R(4,6)                  0.9723         estimate D2E/DX2                !
 ! R7    R(5,7)                  1.2235         estimate D2E/DX2                !
 ! R8    R(5,9)                  1.1027         estimate D2E/DX2                !
 ! A1    A(2,1,3)              124.166          estimate D2E/DX2                !
 ! A2    A(2,1,4)              124.8497         estimate D2E/DX2                !
 ! A3    A(3,1,4)              110.9844         estimate D2E/DX2                !
 ! A4    A(1,2,5)              119.8311         estimate D2E/DX2                !
 ! A5    A(1,2,8)              123.3008         estimate D2E/DX2                !
 ! A6    A(5,2,8)              116.8682         estimate D2E/DX2                !
 ! A7    A(1,4,6)              109.661          estimate D2E/DX2                !
 ! A8    A(2,5,7)              123.9214         estimate D2E/DX2                !
 ! A9    A(2,5,9)              114.3319         estimate D2E/DX2                !
 ! A10   A(7,5,9)              121.7468         estimate D2E/DX2                !
 ! D1    D(3,1,2,5)              0.0            estimate D2E/DX2                !
 ! D2    D(3,1,2,8)           -179.9999         estimate D2E/DX2                !
 ! D3    D(4,1,2,5)           -180.0            estimate D2E/DX2                !
 ! D4    D(4,1,2,8)              0.0001         estimate D2E/DX2                !
 ! D5    D(2,1,4,6)              0.0003         estimate D2E/DX2                !
 ! D6    D(3,1,4,6)           -179.9997         estimate D2E/DX2                !
 ! D7    D(1,2,5,7)              0.0008         estimate D2E/DX2                !
 ! D8    D(1,2,5,9)           -179.9992         estimate D2E/DX2                !
 ! D9    D(8,2,5,7)           -179.9992         estimate D2E/DX2                !
 ! D10   D(8,2,5,9)              0.0008         estimate D2E/DX2                !
 --------------------------------------------------------------------------------
 Trust Radius=3.00D-01 FncErr=1.00D-07 GrdErr=1.00D-07 EigMax=2.50D+02 EigMin=1.00D-04
 Number of steps in this run=     38 maximum allowed number of steps=    100.
 GradGradGradGradGradGradGradGradGradGradGradGradGradGradGradGradGradGrad

                          Input orientation:                          
 ---------------------------------------------------------------------
 Center     Atomic      Atomic             Coordinates (Angstroms)
 Number     Number       Type             X           Y           Z
 ---------------------------------------------------------------------
      1          6           0       -0.899262    0.473912   -0.109435
      2          6           0       -1.717991    0.178634   -1.122740
      3          1           0       -0.907307   -0.035559    0.849294
      4          8           0        0.057594    1.452487   -0.136548
      5          6           0       -2.715240   -0.905293   -0.972016
      6          1           0        0.048046    1.895465   -1.002023
      7          8           0       -2.849931   -1.572624    0.044538
      8          1           0       -1.697810    0.695321   -2.071883
      9          1           0       -3.343081   -1.072151   -1.863033
 ---------------------------------------------------------------------
                    Distance matrix (angstroms):
                    1          2          3          4          5
     1  C    0.000000
     2  C    1.335774   0.000000
     3  H    1.085719   2.142897   0.000000
     4  O    1.368911   2.397494   2.029088   0.000000
     5  C    2.438037   1.480581   2.709655   3.734399   0.000000
     6  H    1.927412   2.465962   2.840585   0.972300   3.934577
     7  O    2.831453   2.389714   2.604610   4.199737   1.223460
     8  H    2.130235   1.080854   3.113255   2.720343   2.192450
     9  H    3.381962   2.180233   3.790018   4.573744   1.102696
                    6          7          8          9
     6  H    0.000000
     7  O    4.639095   0.000000
     8  H    2.373386   3.309108   0.000000
     9  H    4.587791   2.032855   2.423735   0.000000
 Stoichiometry    C3H4O2
 Framework group  C1[X(C3H4O2)]
 Deg. of freedom    21
 Full point group                 C1      NOp   1
 Largest Abelian subgroup         C1      NOp   1
 Largest concise Abelian subgroup C1      NOp   1
                         Standard orientation:                         
 ---------------------------------------------------------------------
 Center     Atomic      Atomic             Coordinates (Angstroms)
 Number     Number       Type             X           Y           Z
 ---------------------------------------------------------------------
      1          6           0       -0.861386   -0.334793    0.000003
      2          6           0       -0.007248    0.692212   -0.000001
      3          1           0       -0.560583   -1.378011    0.000011
      4          8           0       -2.225294   -0.217868   -0.000000
      5          6           0        1.451204    0.437187    0.000003
      6          1           0       -2.473026    0.722342   -0.000011
      7          8           0        1.948886   -0.680475   -0.000004
      8          1           0       -0.322352    1.726115   -0.000007
      9          1           0        2.071812    1.348660    0.000013
 ---------------------------------------------------------------------
 Rotational constants (GHZ):          20.4263882           2.7313290           2.4091834
 Standard basis: Aug-CC-pVDZ (5D, 7F)
 There are   161 symmetry adapted cartesian basis functions of A   symmetry.
 There are   151 symmetry adapted basis functions of A   symmetry.
   151 basis functions,   259 primitive gaussians,   161 cartesian basis functions
    19 alpha electrons       19 beta electrons
       nuclear repulsion energy       155.6640473036 Hartrees.
 NAtoms=    9 NActive=    9 NUniq=    9 SFac= 1.00D+00 NAtFMM=   60 NAOKFM=F Big=F
 Integral buffers will be    131072 words long.
 Raffenetti 1 integral format.
 Two-electron integral symmetry is turned on.
 One-electron integrals computed using PRISM.
 NBasis=   151 RedAO= T EigKep=  3.64D-05  NBF=   151
 NBsUse=   151 1.00D-06 EigRej= -1.00D+00 NBFU=   151
 ExpMin= 2.97D-02 ExpMax= 1.17D+04 ExpMxC= 4.01D+02 IAcc=3 IRadAn=         5 AccDes= 0.00D+00
 Harris functional with IExCor=  205 and IRadAn=       5 diagonalized for initial guess.
 HarFok:  IExCor=  205 AccDes= 0.00D+00 IRadAn=         5 IDoV= 1 UseB2=F ITyADJ=14
 ICtDFT=  3500011 ScaDFX=  1.000000  1.000000  1.000000  1.000000
 FoFCou: FMM=F IPFlag=           0 FMFlag=      100000 FMFlg1=           0
         NFxFlg=           0 DoJE=T BraDBF=F KetDBF=T FulRan=T
         wScrn=  0.000000 ICntrl=       500 IOpCl=  0 I1Cent=   200000004 NGrid=           0
         NMat0=    1 NMatS0=      1 NMatT0=    0 NMatD0=    1 NMtDS0=    0 NMtDT0=    0
 Petite list used in FoFCou.
 Keep R1 ints in memory in canonical form, NReq=74565760.
 Requested convergence on RMS density matrix=1.00D-08 within 128 cycles.
 Requested convergence on MAX density matrix=1.00D-06.
 Requested convergence on             energy=1.00D-06.
 No special actions if energy rises.
 SCF Done:  E(RHF) =  -265.663623197     A.U. after   14 cycles
            NFock= 14  Conv=0.71D-08     -V/T= 2.0017
 ExpMin= 2.97D-02 ExpMax= 1.17D+04 ExpMxC= 4.01D+02 IAcc=3 IRadAn=         5 AccDes= 0.00D+00
 HarFok:  IExCor=  205 AccDes= 0.00D+00 IRadAn=         5 IDoV=-2 UseB2=F ITyADJ=14
 ICtDFT= 12500011 ScaDFX=  1.000000  1.000000  1.000000  1.000000
 Range of M.O.s used for correlation:     6   151
 NBasis=   151 NAE=    19 NBE=    19 NFC=     5 NFV=     0
 NROrb=    146 NOA=    14 NOB=    14 NVA=   132 NVB=   132

 **** Warning!!: The largest alpha MO coefficient is  0.42433370D+02

 Fully direct method using O(ONN) memory.
 JobTyp=1 Pass  1:  I=   6 to  19 NPSUse= 40 ParTrn=T ParDer=T DoDerP=T.
 Spin components of T(2) and E(2):
     alpha-alpha T2 =       0.3405599620D-01 E2=     -0.1041964716D+00
     alpha-beta  T2 =       0.1888629224D+00 E2=     -0.5888232634D+00
     beta-beta   T2 =       0.3405599620D-01 E2=     -0.1041964716D+00
 ANorm=    0.1121148926D+01
 E2 =    -0.7972162065D+00 EUMP2 =    -0.26646083940376D+03
          IDoAtm=111111111
          Differentiating once with respect to electric field.
                with respect to dipole field.
          Differentiating once with respect to nuclear coordinates.
 Keep R1 ints in memory in canonical form, NReq=74573199.
          There are     1 degrees of freedom in the 1st order CPHF.  IDoFFX=0 NUNeed=     1.
 LinEq1:  Iter=  0 NonCon=     1 RMS=5.59D-03 Max=1.13D-01 NDo=     1
 AX will form     1 AO Fock derivatives at one time.
 LinEq1:  Iter=  1 NonCon=     1 RMS=1.74D-03 Max=2.69D-02 NDo=     1
 LinEq1:  Iter=  2 NonCon=     1 RMS=6.29D-04 Max=1.01D-02 NDo=     1
 LinEq1:  Iter=  3 NonCon=     1 RMS=2.27D-04 Max=2.87D-03 NDo=     1
 LinEq1:  Iter=  4 NonCon=     1 RMS=7.96D-05 Max=9.88D-04 NDo=     1
 LinEq1:  Iter=  5 NonCon=     1 RMS=2.90D-05 Max=5.19D-04 NDo=     1
 LinEq1:  Iter=  6 NonCon=     1 RMS=1.13D-05 Max=2.77D-04 NDo=     1
 LinEq1:  Iter=  7 NonCon=     1 RMS=3.55D-06 Max=5.23D-05 NDo=     1
 LinEq1:  Iter=  8 NonCon=     1 RMS=1.29D-06 Max=2.44D-05 NDo=     1
 LinEq1:  Iter=  9 NonCon=     1 RMS=3.36D-07 Max=2.79D-06 NDo=     1
 LinEq1:  Iter= 10 NonCon=     1 RMS=6.84D-08 Max=5.19D-07 NDo=     1
 LinEq1:  Iter= 11 NonCon=     1 RMS=1.95D-08 Max=3.69D-07 NDo=     1
 LinEq1:  Iter= 12 NonCon=     1 RMS=5.05D-09 Max=5.84D-08 NDo=     1
 LinEq1:  Iter= 13 NonCon=     1 RMS=1.44D-09 Max=1.35D-08 NDo=     1
 LinEq1:  Iter= 14 NonCon=     1 RMS=2.90D-10 Max=2.73D-09 NDo=     1
 LinEq1:  Iter= 15 NonCon=     0 RMS=4.82D-11 Max=3.44D-10 NDo=     1
 Linear equations converged to 1.000D-10 1.000D-09 after    15 iterations.
 End of Minotr F.D. properties file   721 does not exist.
 End of Minotr F.D. properties file   722 does not exist.
 End of Minotr F.D. properties file   788 does not exist.

 **********************************************************************

            Population analysis using the SCF Density.

 **********************************************************************

 Orbital symmetries:
       Occupied  (A) (A) (A) (A) (A) (A) (A) (A) (A) (A) (A) (A)
                 (A) (A) (A) (A) (A) (A) (A)
       Virtual   (A) (A) (A) (A) (A) (A) (A) (A) (A) (A) (A) (A)
                 (A) (A) (A) (A) (A) (A) (A) (A) (A) (A) (A) (A)
                 (A) (A) (A) (A) (A) (A) (A) (A) (A) (A) (A) (A)
                 (A) (A) (A) (A) (A) (A) (A) (A) (A) (A) (A) (A)
                 (A) (A) (A) (A) (A) (A) (A) (A) (A) (A) (A) (A)
                 (A) (A) (A) (A) (A) (A) (A) (A) (A) (A) (A) (A)
                 (A) (A) (A) (A) (A) (A) (A) (A) (A) (A) (A) (A)
                 (A) (A) (A) (A) (A) (A) (A) (A) (A) (A) (A) (A)
                 (A) (A) (A) (A) (A) (A) (A) (A) (A) (A) (A) (A)
                 (A) (A) (A) (A) (A) (A) (A) (A) (A) (A) (A) (A)
                 (A) (A) (A) (A) (A) (A) (A) (A) (A) (A) (A) (A)
 The electronic state is 1-A.
 Alpha  occ. eigenvalues --  -20.63196 -20.55826 -11.34711 -11.34588 -11.24558
 Alpha  occ. eigenvalues --   -1.43237  -1.38335  -1.07300  -0.90220  -0.81329
 Alpha  occ. eigenvalues --   -0.71519  -0.68882  -0.64074  -0.60376  -0.59625
 Alpha  occ. eigenvalues --   -0.56827  -0.53307  -0.42639  -0.37181
 Alpha virt. eigenvalues --    0.02527   0.04165   0.05195   0.06708   0.06924
 Alpha virt. eigenvalues --    0.10339   0.11125   0.12530   0.13086   0.13256
 Alpha virt. eigenvalues --    0.13944   0.14565   0.15017   0.16488   0.17753
 Alpha virt. eigenvalues --    0.21378   0.23433   0.23573   0.24969   0.25869
 Alpha virt. eigenvalues --    0.27582   0.28702   0.30536   0.30906   0.32370
 Alpha virt. eigenvalues --    0.33492   0.35657   0.36509   0.38090   0.38227
 Alpha virt. eigenvalues --    0.40471   0.41406   0.43806   0.43891   0.44921
 Alpha virt. eigenvalues --    0.47042   0.47774   0.51745   0.54019   0.55461
 Alpha virt. eigenvalues --    0.56445   0.58760   0.62076   0.63407   0.63564
 Alpha virt. eigenvalues --    0.63998   0.66071   0.67117   0.68071   0.68085
 Alpha virt. eigenvalues --    0.72735   0.73937   0.74258   0.76212   0.78115
 Alpha virt. eigenvalues --    0.79262   0.84424   0.85441   0.88412   0.89009
 Alpha virt. eigenvalues --    0.92874   0.94114   0.95274   0.99509   1.03333
 Alpha virt. eigenvalues --    1.06679   1.08882   1.13028   1.18227   1.20216
 Alpha virt. eigenvalues --    1.23529   1.25416   1.27578   1.29692   1.31481
 Alpha virt. eigenvalues --    1.34813   1.42787   1.46730   1.47873   1.49785
 Alpha virt. eigenvalues --    1.50680   1.57700   1.58625   1.60309   1.64954
 Alpha virt. eigenvalues --    1.67926   1.69788   1.71196   1.75937   1.77851
 Alpha virt. eigenvalues --    1.82075   1.85158   1.90524   1.93896   1.97843
 Alpha virt. eigenvalues --    1.98463   2.02529   2.03266   2.06514   2.09784
 Alpha virt. eigenvalues --    2.13849   2.16169   2.19730   2.19879   2.22481
 Alpha virt. eigenvalues --    2.32666   2.35220   2.39905   2.42284   2.44264
 Alpha virt. eigenvalues --    2.49605   2.60427   2.67278   2.71866   2.86680
 Alpha virt. eigenvalues --    2.91381   2.92794   3.04005   3.07802   3.27461
 Alpha virt. eigenvalues --    3.43921   3.54883   3.69685   3.71524   3.74465
 Alpha virt. eigenvalues --    3.77779   3.80383   3.82624   3.91998   4.05754
 Alpha virt. eigenvalues --    4.13041   4.29089
          Condensed to atoms (all electrons):
               1          2          3          4          5          6
     1  C    4.796089   0.227495   0.335251  -0.011911  -0.024583  -0.118514
     2  C    0.227495   5.151961  -0.099087  -0.050005   0.089461   0.029575
     3  H    0.335251  -0.099087   1.127555  -0.153973  -0.059185   0.010312
     4  O   -0.011911  -0.050005  -0.153973   8.614519   0.000805   0.334393
     5  C   -0.024583   0.089461  -0.059185   0.000805   4.977814   0.012331
     6  H   -0.118514   0.029575   0.010312   0.334393   0.012331   0.552780
     7  O   -0.057431  -0.011028   0.000876   0.003137   0.299297  -0.001835
     8  H    0.020487   0.022563   0.052259  -0.059641  -0.131802   0.009391
     9  H   -0.007340   0.044564  -0.004221   0.002317   0.213245   0.000986
               7          8          9
     1  C   -0.057431   0.020487  -0.007340
     2  C   -0.011028   0.022563   0.044564
     3  H    0.000876   0.052259  -0.004221
     4  O    0.003137  -0.059641   0.002317
     5  C    0.299297  -0.131802   0.213245
     6  H   -0.001835   0.009391   0.000986
     7  O    8.553152  -0.003681  -0.057844
     8  H   -0.003681   1.689503  -0.076614
     9  H   -0.057844  -0.076614   0.976524
 Mulliken charges:
               1
     1  C    0.840456
     2  C    0.594500
     3  H   -0.209786
     4  O   -0.679641
     5  C    0.622618
     6  H    0.170581
     7  O   -0.724643
     8  H   -0.522466
     9  H   -0.091619
 Sum of Mulliken charges =  -0.00000
 Mulliken charges with hydrogens summed into heavy atoms:
               1
     1  C    0.630670
     2  C    0.072034
     4  O   -0.509060
     5  C    0.530998
     7  O   -0.724643
 Electronic spatial extent (au):  <R**2>=            474.4477
 Charge=             -0.0000 electrons
 Dipole moment (field-independent basis, Debye):
    X=             -2.2718    Y=              3.2928    Z=              0.0000  Tot=              4.0004
 Quadrupole moment (field-independent basis, Debye-Ang):
   XX=            -33.9492   YY=            -26.2683   ZZ=            -30.7845
   XY=              1.2649   XZ=              0.0001   YZ=             -0.0000
 Traceless Quadrupole moment (field-independent basis, Debye-Ang):
   XX=             -3.6152   YY=              4.0657   ZZ=             -0.4505
   XY=              1.2649   XZ=              0.0001   YZ=             -0.0000
 Octapole moment (field-independent basis, Debye-Ang**2):
  XXX=            -16.1570  YYY=             -0.1625  ZZZ=             -0.0000  XYY=             -5.9542
  XXY=             21.2456  XXZ=             -0.0001  XZZ=             -0.0452  YZZ=             -1.5909
  YYZ=             -0.0000  XYZ=              0.0001
 Hexadecapole moment (field-independent basis, Debye-Ang**3):
 XXXX=           -470.6790 YYYY=            -89.3232 ZZZZ=            -31.5984 XXXY=            -13.1927
 XXXZ=              0.0005 YYYX=             -1.1308 YYYZ=             -0.0001 ZZZX=              0.0000
 ZZZY=             -0.0000 XXYY=            -84.7263 XXZZ=            -81.2438 YYZZ=            -22.6216
 XXYZ=             -0.0001 YYXZ=              0.0001 ZZXY=             -0.6603
 N-N= 1.556640473036D+02 E-N=-9.361092156737D+02  KE= 2.652084711707D+02
 Calling FoFJK, ICntrl=  10002127 FMM=F ISym2X=0 I1Cent= 0 IOpClX= 0 NMat=1 NMatS=1 NMatT=0.
 ***** Axes restored to original set *****
 -------------------------------------------------------------------
 Center     Atomic                   Forces (Hartrees/Bohr)
 Number     Number              X              Y              Z
 -------------------------------------------------------------------
      1        6           0.023223180    0.018976790    0.008470276
      2        6          -0.021171841   -0.016587530   -0.009085272
      3        1          -0.002348676   -0.003707561    0.002563070
      4        8          -0.001125845   -0.002162644    0.001965772
      5        6           0.010469395    0.011816978   -0.002419074
      6        1          -0.001014692   -0.001931267    0.001737262
      7        8          -0.004857926   -0.009728863    0.009241380
      8        1           0.002778986    0.006757691   -0.007566633
      9        1          -0.005952582   -0.003433594   -0.004906783
 -------------------------------------------------------------------
 Cartesian Forces:  Max     0.023223180 RMS     0.009547600

 GradGradGradGradGradGradGradGradGradGradGradGradGradGradGradGradGradGrad
 Berny optimization.
 FormGI is forming the generalized inverse of G from B-inverse, IUseBI=4.
 Internal  Forces:  Max     0.025131725 RMS     0.006564616
 Search for a local minimum.
 Step number   1 out of a maximum of   38
 All quantities printed in internal units (Hartrees-Bohrs-Radians)
 Mixed Optimization -- RFO/linear search
 Second derivative matrix not updated -- first step.
 ITU=  0
     Eigenvalues ---    0.01023   0.01023   0.02043   0.02103   0.02703
     Eigenvalues ---    0.02938   0.16000   0.16000   0.16000   0.16000
     Eigenvalues ---    0.22000   0.22000   0.22000   0.33386   0.34503
     Eigenvalues ---    0.35312   0.35891   0.51186   0.52910   0.58162
     Eigenvalues ---    0.93866
 RFO step:  Lambda=-2.79413026D-03 EMin= 1.02282106D-02
 Linear search not attempted -- first point.
 Iteration  1 RMS(Cart)=  0.02337270 RMS(Int)=  0.00019800
 Iteration  2 RMS(Cart)=  0.00023502 RMS(Int)=  0.00000002
 Iteration  3 RMS(Cart)=  0.00000003 RMS(Int)=  0.00000000
 Variable       Old X    -DE/DX   Delta X   Delta X   Delta X     New X
                                 (Linear)    (Quad)   (Total)
    R1        2.52425   0.02513   0.00000   0.04300   0.04300   2.56725
    R2        2.05171   0.00402   0.00000   0.01130   0.01130   2.06301
    R3        2.58687  -0.00450   0.00000  -0.00874  -0.00874   2.57813
    R4        2.79789   0.00141   0.00000   0.00405   0.00405   2.80195
    R5        2.04252   0.00993   0.00000   0.02744   0.02744   2.06996
    R6        1.83738  -0.00242   0.00000  -0.00454  -0.00454   1.83284
    R7        2.31201   0.01352   0.00000   0.01436   0.01436   2.32637
    R8        2.08379   0.00787   0.00000   0.02339   0.02339   2.10718
    A1        2.16710  -0.00672   0.00000  -0.03545  -0.03545   2.13166
    A2        2.17904   0.00706   0.00000   0.03171   0.03171   2.21075
    A3        1.93704  -0.00034   0.00000   0.00374   0.00374   1.94078
    A4        2.09145   0.00163   0.00000   0.00731   0.00731   2.09875
    A5        2.15200  -0.00437   0.00000  -0.02548  -0.02548   2.12653
    A6        2.03973   0.00274   0.00000   0.01817   0.01817   2.05790
    A7        1.91394  -0.00256   0.00000  -0.01572  -0.01572   1.89823
    A8        2.16284   0.00492   0.00000   0.02209   0.02209   2.18493
    A9        1.99547   0.00072   0.00000   0.00848   0.00848   2.00394
   A10        2.12488  -0.00564   0.00000  -0.03057  -0.03057   2.09431
    D1        0.00000  -0.00000   0.00000  -0.00000  -0.00000  -0.00000
    D2       -3.14159   0.00000   0.00000   0.00000   0.00000  -3.14159
    D3       -3.14159  -0.00000   0.00000  -0.00000  -0.00000   3.14159
    D4        0.00000  -0.00000   0.00000  -0.00000  -0.00000   0.00000
    D5        0.00000  -0.00000   0.00000  -0.00000  -0.00000   0.00000
    D6       -3.14159  -0.00000   0.00000  -0.00000  -0.00000  -3.14159
    D7        0.00001  -0.00000   0.00000  -0.00001  -0.00001   0.00001
    D8       -3.14158  -0.00000   0.00000  -0.00000  -0.00000  -3.14158
    D9       -3.14158  -0.00000   0.00000  -0.00001  -0.00001  -3.14159
   D10        0.00001  -0.00000   0.00000  -0.00000  -0.00000   0.00001
         Item               Value     Threshold  Converged?
 Maximum Force            0.025132     0.000450     NO 
 RMS     Force            0.006565     0.000300     NO 
 Maximum Displacement     0.043679     0.001800     NO 
 RMS     Displacement     0.023360     0.001200     NO 
 Predicted change in Energy=-1.409144D-03
 GradGradGradGradGradGradGradGradGradGradGradGradGradGradGradGradGradGrad

                          Input orientation:                          
 ---------------------------------------------------------------------
 Center     Atomic      Atomic             Coordinates (Angstroms)
 Number     Number       Type             X           Y           Z
 ---------------------------------------------------------------------
      1          6           0       -0.883540    0.492400   -0.114484
      2          6           0       -1.725750    0.175848   -1.132365
      3          1           0       -0.906878   -0.031760    0.842863
      4          8           0        0.075299    1.462889   -0.122316
      5          6           0       -2.719931   -0.911903   -0.968417
      6          1           0        0.065252    1.904351   -0.985860
      7          8           0       -2.866962   -1.591376    0.047559
      8          1           0       -1.698144    0.705007   -2.091052
      9          1           0       -3.364326   -1.095264   -1.859775
 ---------------------------------------------------------------------
                    Distance matrix (angstroms):
                    1          2          3          4          5
     1  C    0.000000
     2  C    1.358530   0.000000
     3  H    1.091697   2.148297   0.000000
     4  O    1.364288   2.433198   2.032293   0.000000
     5  C    2.464467   1.482726   2.709714   3.764151   0.000000
     6  H    1.911310   2.493366   2.835100   0.969896   3.960913
     7  O    2.881379   2.411984   2.628087   4.244324   1.231060
     8  H    2.148395   1.095377   3.126785   2.755976   2.217827
     9  H    3.423597   2.197676   3.804516   4.625357   1.115072
                    6          7          8          9
     6  H    0.000000
     7  O    4.678241   0.000000
     8  H    2.401966   3.348606   0.000000
     9  H    4.639335   2.032589   2.463865   0.000000
 Stoichiometry    C3H4O2
 Framework group  C1[X(C3H4O2)]
 Deg. of freedom    21
 Full point group                 C1      NOp   1
 Largest Abelian subgroup         C1      NOp   1
 Largest concise Abelian subgroup C1      NOp   1
                         Standard orientation:                         
 ---------------------------------------------------------------------
 Center     Atomic      Atomic             Coordinates (Angstroms)
 Number     Number       Type             X           Y           Z
 ---------------------------------------------------------------------
      1          6           0       -0.885461   -0.324578    0.000001
      2          6           0        0.002271    0.703788   -0.000002
      3          1           0       -0.565137   -1.368223    0.000006
      4          8           0       -2.246196   -0.226183    0.000000
      5          6           0        1.459921    0.432246    0.000001
      6          1           0       -2.491080    0.712289   -0.000006
      7          8           0        1.973064   -0.686768   -0.000002
      8          1           0       -0.324499    1.749288   -0.000004
      9          1           0        2.105386    1.341510    0.000011
 ---------------------------------------------------------------------
 Rotational constants (GHZ):          20.2001784           2.6726987           2.3603935
 Standard basis: Aug-CC-pVDZ (5D, 7F)
 There are   161 symmetry adapted cartesian basis functions of A   symmetry.
 There are   151 symmetry adapted basis functions of A   symmetry.
   151 basis functions,   259 primitive gaussians,   161 cartesian basis functions
    19 alpha electrons       19 beta electrons
       nuclear repulsion energy       154.4931780402 Hartrees.
 NAtoms=    9 NActive=    9 NUniq=    9 SFac= 1.00D+00 NAtFMM=   60 NAOKFM=F Big=F
 Integral buffers will be    131072 words long.
 Raffenetti 1 integral format.
 Two-electron integral symmetry is turned on.
 One-electron integrals computed using PRISM.
 NBasis=   151 RedAO= T EigKep=  4.05D-05  NBF=   151
 NBsUse=   151 1.00D-06 EigRej= -1.00D+00 NBFU=   151
 Initial guess from the checkpoint file:  "/scr/Gau-22290.chk"
 B after Tr=    -0.000000    0.000000   -0.000000
         Rot=    1.000000    0.000000    0.000000    0.000433 Ang=   0.05 deg.
 ExpMin= 2.97D-02 ExpMax= 1.17D+04 ExpMxC= 4.01D+02 IAcc=3 IRadAn=         5 AccDes= 0.00D+00
 Harris functional with IExCor=  205 and IRadAn=       5 diagonalized for initial guess.
 HarFok:  IExCor=  205 AccDes= 0.00D+00 IRadAn=         5 IDoV= 1 UseB2=F ITyADJ=14
 ICtDFT=  3500011 ScaDFX=  1.000000  1.000000  1.000000  1.000000
 FoFCou: FMM=F IPFlag=           0 FMFlag=      100000 FMFlg1=           0
         NFxFlg=           0 DoJE=T BraDBF=F KetDBF=T FulRan=T
         wScrn=  0.000000 ICntrl=       500 IOpCl=  0 I1Cent=   200000004 NGrid=           0
         NMat0=    1 NMatS0=      1 NMatT0=    0 NMatD0=    1 NMtDS0=    0 NMtDT0=    0
 Petite list used in FoFCou.
 Keep R1 ints in memory in canonical form, NReq=74564980.
 Requested convergence on RMS density matrix=1.00D-08 within 128 cycles.
 Requested convergence on MAX density matrix=1.00D-06.
 Requested convergence on             energy=1.00D-06.
 No special actions if energy rises.
 SCF Done:  E(RHF) =  -265.662411975     A.U. after   12 cycles
            NFock= 12  Conv=0.56D-08     -V/T= 2.0023
 ExpMin= 2.97D-02 ExpMax= 1.17D+04 ExpMxC= 4.01D+02 IAcc=3 IRadAn=         5 AccDes= 0.00D+00
 HarFok:  IExCor=  205 AccDes= 0.00D+00 IRadAn=         5 IDoV=-2 UseB2=F ITyADJ=14
 ICtDFT= 12500011 ScaDFX=  1.000000  1.000000  1.000000  1.000000
 Range of M.O.s used for correlation:     6   151
 NBasis=   151 NAE=    19 NBE=    19 NFC=     5 NFV=     0
 NROrb=    146 NOA=    14 NOB=    14 NVA=   132 NVB=   132

 **** Warning!!: The largest alpha MO coefficient is  0.40312147D+02

 Fully direct method using O(ONN) memory.
 JobTyp=1 Pass  1:  I=   6 to  19 NPSUse= 40 ParTrn=T ParDer=T DoDerP=T.
 Spin components of T(2) and E(2):
     alpha-alpha T2 =       0.3440745538D-01 E2=     -0.1045070641D+00
     alpha-beta  T2 =       0.1909895278D+00 E2=     -0.5908216940D+00
     beta-beta   T2 =       0.3440745538D-01 E2=     -0.1045070641D+00
 ANorm=    0.1122410103D+01
 E2 =    -0.7998358222D+00 EUMP2 =    -0.26646224779719D+03
          IDoAtm=111111111
          Differentiating once with respect to electric field.
                with respect to dipole field.
          Differentiating once with respect to nuclear coordinates.
 Keep R1 ints in memory in canonical form, NReq=74572373.
          There are     1 degrees of freedom in the 1st order CPHF.  IDoFFX=0 NUNeed=     1.
 LinEq1:  Iter=  0 NonCon=     1 RMS=5.69D-03 Max=1.13D-01 NDo=     1
 AX will form     1 AO Fock derivatives at one time.
 LinEq1:  Iter=  1 NonCon=     1 RMS=1.79D-03 Max=2.87D-02 NDo=     1
 LinEq1:  Iter=  2 NonCon=     1 RMS=6.55D-04 Max=1.05D-02 NDo=     1
 LinEq1:  Iter=  3 NonCon=     1 RMS=2.46D-04 Max=3.22D-03 NDo=     1
 LinEq1:  Iter=  4 NonCon=     1 RMS=8.66D-05 Max=1.02D-03 NDo=     1
 LinEq1:  Iter=  5 NonCon=     1 RMS=3.26D-05 Max=6.53D-04 NDo=     1
 LinEq1:  Iter=  6 NonCon=     1 RMS=1.21D-05 Max=2.72D-04 NDo=     1
 LinEq1:  Iter=  7 NonCon=     1 RMS=3.75D-06 Max=5.60D-05 NDo=     1
 LinEq1:  Iter=  8 NonCon=     1 RMS=1.38D-06 Max=2.43D-05 NDo=     1
 LinEq1:  Iter=  9 NonCon=     1 RMS=3.61D-07 Max=3.14D-06 NDo=     1
 LinEq1:  Iter= 10 NonCon=     1 RMS=7.20D-08 Max=5.37D-07 NDo=     1
 LinEq1:  Iter= 11 NonCon=     1 RMS=2.06D-08 Max=3.82D-07 NDo=     1
 LinEq1:  Iter= 12 NonCon=     1 RMS=5.42D-09 Max=6.22D-08 NDo=     1
 LinEq1:  Iter= 13 NonCon=     1 RMS=1.55D-09 Max=1.48D-08 NDo=     1
 LinEq1:  Iter= 14 NonCon=     1 RMS=3.15D-10 Max=2.93D-09 NDo=     1
 LinEq1:  Iter= 15 NonCon=     0 RMS=5.24D-11 Max=3.88D-10 NDo=     1
 Linear equations converged to 1.000D-10 1.000D-09 after    15 iterations.
 End of Minotr F.D. properties file   721 does not exist.
 End of Minotr F.D. properties file   722 does not exist.
 End of Minotr F.D. properties file   788 does not exist.
 Calling FoFJK, ICntrl=  10002127 FMM=F ISym2X=0 I1Cent= 0 IOpClX= 0 NMat=1 NMatS=1 NMatT=0.
 ***** Axes restored to original set *****
 -------------------------------------------------------------------
 Center     Atomic                   Forces (Hartrees/Bohr)
 Number     Number              X              Y              Z
 -------------------------------------------------------------------
      1        6           0.004485055    0.004192951    0.000626129
      2        6          -0.003328741   -0.003509266    0.000295346
      3        1          -0.001353748   -0.001261253   -0.000197234
      4        8          -0.003730171   -0.003445584   -0.000600292
      5        6           0.002624008    0.003626424   -0.001878485
      6        1           0.000378924    0.000670419   -0.000551775
      7        8           0.000135907   -0.000799547    0.001791214
      8        1           0.000628141    0.000389870    0.000465054
      9        1           0.000160624    0.000135986    0.000050043
 -------------------------------------------------------------------
 Cartesian Forces:  Max     0.004485055 RMS     0.002110981

 GradGradGradGradGradGradGradGradGradGradGradGradGradGradGradGradGradGrad
 Berny optimization.
 Using GEDIIS/GDIIS optimizer.
 FormGI is forming the generalized inverse of G from B-inverse, IUseBI=4.
 Internal  Forces:  Max     0.004322804 RMS     0.001361519
 Search for a local minimum.
 Step number   2 out of a maximum of   38
 All quantities printed in internal units (Hartrees-Bohrs-Radians)
 Mixed Optimization -- RFO/linear search
 Update second derivatives using D2CorX and points    1    2
 DE= -1.41D-03 DEPred=-1.41D-03 R= 9.99D-01
 TightC=F SS=  1.41D+00  RLast= 9.30D-02 DXNew= 5.0454D-01 2.7896D-01
 Trust test= 9.99D-01 RLast= 9.30D-02 DXMaxT set to 3.00D-01
 ITU=  1  0
 Use linear search instead of GDIIS.
     Eigenvalues ---    0.01023   0.01023   0.02018   0.02103   0.02694
     Eigenvalues ---    0.02938   0.14472   0.16000   0.16000   0.16332
     Eigenvalues ---    0.21868   0.22000   0.22816   0.32684   0.34450
     Eigenvalues ---    0.35370   0.37326   0.49351   0.52982   0.62314
     Eigenvalues ---    0.92460
 RFO step:  Lambda=-1.65365651D-04 EMin= 1.02282106D-02
 Quartic linear search produced a step of  0.02253.
 Iteration  1 RMS(Cart)=  0.00809649 RMS(Int)=  0.00003709
 Iteration  2 RMS(Cart)=  0.00003522 RMS(Int)=  0.00000000
 Iteration  3 RMS(Cart)=  0.00000000 RMS(Int)=  0.00000000
 Variable       Old X    -DE/DX   Delta X   Delta X   Delta X     New X
                                 (Linear)    (Quad)   (Total)
    R1        2.56725  -0.00064   0.00097   0.00045   0.00142   2.56867
    R2        2.06301   0.00046   0.00025   0.00175   0.00201   2.06502
    R3        2.57813  -0.00432  -0.00020  -0.00895  -0.00915   2.56898
    R4        2.80195  -0.00414   0.00009  -0.01210  -0.01201   2.78994
    R5        2.06996  -0.00020   0.00062   0.00044   0.00106   2.07102
    R6        1.83284   0.00079  -0.00010   0.00136   0.00126   1.83410
    R7        2.32637   0.00190   0.00032   0.00260   0.00292   2.32929
    R8        2.10718  -0.00016   0.00053   0.00039   0.00092   2.10810
    A1        2.13166  -0.00172  -0.00080  -0.01255  -0.01335   2.11831
    A2        2.21075  -0.00028   0.00071  -0.00012   0.00059   2.21134
    A3        1.94078   0.00200   0.00008   0.01267   0.01276   1.95354
    A4        2.09875  -0.00081   0.00016  -0.00349  -0.00332   2.09543
    A5        2.12653  -0.00047  -0.00057  -0.00469  -0.00527   2.12126
    A6        2.05790   0.00128   0.00041   0.00818   0.00859   2.06649
    A7        1.89823   0.00095  -0.00035   0.00548   0.00513   1.90335
    A8        2.18493  -0.00066   0.00050  -0.00224  -0.00174   2.18319
    A9        2.00394   0.00017   0.00019   0.00084   0.00103   2.00498
   A10        2.09431   0.00049  -0.00069   0.00139   0.00071   2.09502
    D1       -0.00000  -0.00000  -0.00000  -0.00000  -0.00000  -0.00000
    D2       -3.14159  -0.00000   0.00000  -0.00000  -0.00000  -3.14159
    D3        3.14159   0.00000  -0.00000   0.00000   0.00000   3.14159
    D4        0.00000  -0.00000  -0.00000  -0.00000  -0.00000   0.00000
    D5        0.00000  -0.00000  -0.00000  -0.00000  -0.00000   0.00000
    D6       -3.14159  -0.00000  -0.00000  -0.00000  -0.00000  -3.14159
    D7        0.00001   0.00000  -0.00000   0.00001   0.00001   0.00002
    D8       -3.14158  -0.00000  -0.00000  -0.00002  -0.00002   3.14159
    D9       -3.14159   0.00000  -0.00000   0.00001   0.00001  -3.14158
   D10        0.00001  -0.00000  -0.00000  -0.00002  -0.00002  -0.00001
         Item               Value     Threshold  Converged?
 Maximum Force            0.004323     0.000450     NO 
 RMS     Force            0.001362     0.000300     NO 
 Maximum Displacement     0.022324     0.001800     NO 
 RMS     Displacement     0.008100     0.001200     NO 
 Predicted change in Energy=-8.318095D-05
 GradGradGradGradGradGradGradGradGradGradGradGradGradGradGradGradGradGrad

                          Input orientation:                          
 ---------------------------------------------------------------------
 Center     Atomic      Atomic             Coordinates (Angstroms)
 Number     Number       Type             X           Y           Z
 ---------------------------------------------------------------------
      1          6           0       -0.884459    0.492341   -0.116142
      2          6           0       -1.727133    0.175612   -1.134588
      3          1           0       -0.918692   -0.040695    0.837182
      4          8           0        0.071176    1.459194   -0.123189
      5          6           0       -2.715443   -0.908248   -0.966775
      6          1           0        0.065263    1.904263   -0.985669
      7          8           0       -2.858071   -1.585390    0.053252
      8          1           0       -1.695209    0.708350   -2.091796
      9          1           0       -3.362413   -1.095235   -1.856121
 ---------------------------------------------------------------------
                    Distance matrix (angstroms):
                    1          2          3          4          5
     1  C    0.000000
     2  C    1.359283   0.000000
     3  H    1.092760   2.142018   0.000000
     4  O    1.359445   2.429903   2.037601   0.000000
     5  C    2.457180   1.476371   2.689837   3.752555   0.000000
     6  H    1.910909   2.494613   2.841446   0.970563   3.955111
     7  O    2.870680   2.406473   2.600350   4.228606   1.232606
     8  H    2.146436   1.095936   3.121371   2.749418   2.218094
     9  H    3.418799   2.193126   3.786517   4.617109   1.115558
                    6          7          8          9
     6  H    0.000000
     7  O    4.669359   0.000000
     8  H    2.398538   3.348839   0.000000
     9  H    4.637202   2.034777   2.467394   0.000000
 Stoichiometry    C3H4O2
 Framework group  C1[X(C3H4O2)]
 Deg. of freedom    21
 Full point group                 C1      NOp   1
 Largest Abelian subgroup         C1      NOp   1
 Largest concise Abelian subgroup C1      NOp   1
                         Standard orientation:                         
 ---------------------------------------------------------------------
 Center     Atomic      Atomic             Coordinates (Angstroms)
 Number     Number       Type             X           Y           Z
 ---------------------------------------------------------------------
      1          6           0       -0.882726   -0.323575    0.000003
      2          6           0        0.004040    0.706618   -0.000000
      3          1           0       -0.546702   -1.363388    0.000009
      4          8           0       -2.238826   -0.228252   -0.000001
      5          6           0        1.454924    0.433475    0.000006
      6          1           0       -2.490572    0.709094   -0.000008
      7          8           0        1.964625   -0.688809   -0.000004
      8          1           0       -0.329883    1.750444   -0.000006
      9          1           0        2.103341    1.341233   -0.000002
 ---------------------------------------------------------------------
 Rotational constants (GHZ):          20.1209617           2.6915052           2.3739508
 Standard basis: Aug-CC-pVDZ (5D, 7F)
 There are   161 symmetry adapted cartesian basis functions of A   symmetry.
 There are   151 symmetry adapted basis functions of A   symmetry.
   151 basis functions,   259 primitive gaussians,   161 cartesian basis functions
    19 alpha electrons       19 beta electrons
       nuclear repulsion energy       154.7535595189 Hartrees.
 NAtoms=    9 NActive=    9 NUniq=    9 SFac= 1.00D+00 NAtFMM=   60 NAOKFM=F Big=F
 Integral buffers will be    131072 words long.
 Raffenetti 1 integral format.
 Two-electron integral symmetry is turned on.
 One-electron integrals computed using PRISM.
 NBasis=   151 RedAO= T EigKep=  4.02D-05  NBF=   151
 NBsUse=   151 1.00D-06 EigRej= -1.00D+00 NBFU=   151
 Initial guess from the checkpoint file:  "/scr/Gau-22290.chk"
 B after Tr=     0.000000   -0.000000    0.000000
         Rot=    1.000000    0.000000   -0.000000   -0.000127 Ang=  -0.01 deg.
 ExpMin= 2.97D-02 ExpMax= 1.17D+04 ExpMxC= 4.01D+02 IAcc=3 IRadAn=         5 AccDes= 0.00D+00
 Harris functional with IExCor=  205 and IRadAn=       5 diagonalized for initial guess.
 HarFok:  IExCor=  205 AccDes= 0.00D+00 IRadAn=         5 IDoV= 1 UseB2=F ITyADJ=14
 ICtDFT=  3500011 ScaDFX=  1.000000  1.000000  1.000000  1.000000
 FoFCou: FMM=F IPFlag=           0 FMFlag=      100000 FMFlg1=           0
         NFxFlg=           0 DoJE=T BraDBF=F KetDBF=T FulRan=T
         wScrn=  0.000000 ICntrl=       500 IOpCl=  0 I1Cent=   200000004 NGrid=           0
         NMat0=    1 NMatS0=      1 NMatT0=    0 NMatD0=    1 NMtDS0=    0 NMtDT0=    0
 Petite list used in FoFCou.
 Keep R1 ints in memory in canonical form, NReq=74565157.
 Requested convergence on RMS density matrix=1.00D-08 within 128 cycles.
 Requested convergence on MAX density matrix=1.00D-06.
 Requested convergence on             energy=1.00D-06.
 No special actions if energy rises.
 SCF Done:  E(RHF) =  -265.662583114     A.U. after   11 cycles
            NFock= 11  Conv=0.59D-08     -V/T= 2.0022
 ExpMin= 2.97D-02 ExpMax= 1.17D+04 ExpMxC= 4.01D+02 IAcc=3 IRadAn=         5 AccDes= 0.00D+00
 HarFok:  IExCor=  205 AccDes= 0.00D+00 IRadAn=         5 IDoV=-2 UseB2=F ITyADJ=14
 ICtDFT= 12500011 ScaDFX=  1.000000  1.000000  1.000000  1.000000
 Range of M.O.s used for correlation:     6   151
 NBasis=   151 NAE=    19 NBE=    19 NFC=     5 NFV=     0
 NROrb=    146 NOA=    14 NOB=    14 NVA=   132 NVB=   132

 **** Warning!!: The largest alpha MO coefficient is  0.39100835D+02

 Fully direct method using O(ONN) memory.
 JobTyp=1 Pass  1:  I=   6 to  19 NPSUse= 40 ParTrn=T ParDer=T DoDerP=T.
 Spin components of T(2) and E(2):
     alpha-alpha T2 =       0.3440726626D-01 E2=     -0.1045470429D+00
     alpha-beta  T2 =       0.1908268685D+00 E2=     -0.5906716753D+00
     beta-beta   T2 =       0.3440726626D-01 E2=     -0.1045470429D+00
 ANorm=    0.1122337472D+01
 E2 =    -0.7997657610D+00 EUMP2 =    -0.26646234887534D+03
          IDoAtm=111111111
          Differentiating once with respect to electric field.
                with respect to dipole field.
          Differentiating once with respect to nuclear coordinates.
 Keep R1 ints in memory in canonical form, NReq=74572609.
          There are     1 degrees of freedom in the 1st order CPHF.  IDoFFX=0 NUNeed=     1.
 LinEq1:  Iter=  0 NonCon=     1 RMS=5.70D-03 Max=1.13D-01 NDo=     1
 AX will form     1 AO Fock derivatives at one time.
 LinEq1:  Iter=  1 NonCon=     1 RMS=1.79D-03 Max=2.88D-02 NDo=     1
 LinEq1:  Iter=  2 NonCon=     1 RMS=6.60D-04 Max=1.06D-02 NDo=     1
 LinEq1:  Iter=  3 NonCon=     1 RMS=2.49D-04 Max=3.38D-03 NDo=     1
 LinEq1:  Iter=  4 NonCon=     1 RMS=8.81D-05 Max=1.01D-03 NDo=     1
 LinEq1:  Iter=  5 NonCon=     1 RMS=3.31D-05 Max=6.70D-04 NDo=     1
 LinEq1:  Iter=  6 NonCon=     1 RMS=1.22D-05 Max=2.67D-04 NDo=     1
 LinEq1:  Iter=  7 NonCon=     1 RMS=3.77D-06 Max=5.67D-05 NDo=     1
 LinEq1:  Iter=  8 NonCon=     1 RMS=1.37D-06 Max=2.41D-05 NDo=     1
 LinEq1:  Iter=  9 NonCon=     1 RMS=3.62D-07 Max=3.19D-06 NDo=     1
 LinEq1:  Iter= 10 NonCon=     1 RMS=7.26D-08 Max=5.69D-07 NDo=     1
 LinEq1:  Iter= 11 NonCon=     1 RMS=2.09D-08 Max=3.88D-07 NDo=     1
 LinEq1:  Iter= 12 NonCon=     1 RMS=5.51D-09 Max=6.29D-08 NDo=     1
 LinEq1:  Iter= 13 NonCon=     1 RMS=1.57D-09 Max=1.47D-08 NDo=     1
 LinEq1:  Iter= 14 NonCon=     1 RMS=3.16D-10 Max=2.90D-09 NDo=     1
 LinEq1:  Iter= 15 NonCon=     0 RMS=5.24D-11 Max=3.81D-10 NDo=     1
 Linear equations converged to 1.000D-10 1.000D-09 after    15 iterations.
 End of Minotr F.D. properties file   721 does not exist.
 End of Minotr F.D. properties file   722 does not exist.
 End of Minotr F.D. properties file   788 does not exist.
 Calling FoFJK, ICntrl=  10002127 FMM=F ISym2X=0 I1Cent= 0 IOpClX= 0 NMat=1 NMatS=1 NMatT=0.
 ***** Axes restored to original set *****
 -------------------------------------------------------------------
 Center     Atomic                   Forces (Hartrees/Bohr)
 Number     Number              X              Y              Z
 -------------------------------------------------------------------
      1        6           0.001362121    0.001322618    0.000095811
      2        6          -0.000319716   -0.000273404   -0.000095277
      3        1          -0.000234292   -0.000085214   -0.000288622
      4        8          -0.001332504   -0.001266010   -0.000146926
      5        6           0.000167107    0.000700733   -0.001010748
      6        1           0.000071188    0.000072771   -0.000002030
      7        8          -0.000020411   -0.000250188    0.000436463
      8        1           0.000113083   -0.000172543    0.000547691
      9        1           0.000193424   -0.000048762    0.000463638
 -------------------------------------------------------------------
 Cartesian Forces:  Max     0.001362121 RMS     0.000600834

 GradGradGradGradGradGradGradGradGradGradGradGradGradGradGradGradGradGrad
 Berny optimization.
 Using GEDIIS/GDIIS optimizer.
 FormGI is forming the generalized inverse of G from B-inverse, IUseBI=4.
 Internal  Forces:  Max     0.001734527 RMS     0.000409644
 Search for a local minimum.
 Step number   3 out of a maximum of   38
 All quantities printed in internal units (Hartrees-Bohrs-Radians)
 Mixed Optimization -- En-DIIS/RFO-DIIS
 Update second derivatives using D2CorX and points    1    2    3
 DE= -1.01D-04 DEPred=-8.32D-05 R= 1.22D+00
 TightC=F SS=  1.41D+00  RLast= 2.70D-02 DXNew= 5.0454D-01 8.1099D-02
 Trust test= 1.22D+00 RLast= 2.70D-02 DXMaxT set to 3.00D-01
 ITU=  1  1  0
 Use linear search instead of GDIIS.
     Eigenvalues ---    0.01023   0.01023   0.02011   0.02103   0.02690
     Eigenvalues ---    0.02938   0.12674   0.16000   0.16037   0.16531
     Eigenvalues ---    0.21764   0.22031   0.22818   0.33709   0.33927
     Eigenvalues ---    0.35387   0.36732   0.45366   0.53090   0.61510
     Eigenvalues ---    0.92106
 RFO step:  Lambda=-6.52403420D-06 EMin= 1.02282103D-02
 Quartic linear search produced a step of  0.26363.
 Iteration  1 RMS(Cart)=  0.00244156 RMS(Int)=  0.00000349
 Iteration  2 RMS(Cart)=  0.00000326 RMS(Int)=  0.00000000
 Iteration  3 RMS(Cart)=  0.00000000 RMS(Int)=  0.00000000
 Variable       Old X    -DE/DX   Delta X   Delta X   Delta X     New X
                                 (Linear)    (Quad)   (Total)
    R1        2.56867  -0.00033   0.00038  -0.00028   0.00010   2.56877
    R2        2.06502  -0.00020   0.00053  -0.00098  -0.00045   2.06457
    R3        2.56898  -0.00173  -0.00241  -0.00234  -0.00475   2.56423
    R4        2.78994  -0.00054  -0.00317   0.00085  -0.00232   2.78762
    R5        2.07102  -0.00056   0.00028  -0.00171  -0.00143   2.06959
    R6        1.83410   0.00003   0.00033  -0.00028   0.00005   1.83415
    R7        2.32929   0.00050   0.00077   0.00026   0.00103   2.33032
    R8        2.10810  -0.00047   0.00024  -0.00158  -0.00134   2.10676
    A1        2.11831  -0.00036  -0.00352  -0.00033  -0.00385   2.11446
    A2        2.21134   0.00005   0.00016   0.00072   0.00088   2.21221
    A3        1.95354   0.00031   0.00336  -0.00039   0.00298   1.95651
    A4        2.09543  -0.00010  -0.00088   0.00030  -0.00058   2.09485
    A5        2.12126  -0.00013  -0.00139  -0.00036  -0.00175   2.11951
    A6        2.06649   0.00023   0.00226   0.00006   0.00233   2.06882
    A7        1.90335   0.00018   0.00135  -0.00008   0.00127   1.90463
    A8        2.18319  -0.00020  -0.00046  -0.00036  -0.00081   2.18238
    A9        2.00498   0.00028   0.00027   0.00193   0.00221   2.00718
   A10        2.09502  -0.00008   0.00019  -0.00158  -0.00139   2.09362
    D1       -0.00000   0.00000  -0.00000   0.00000   0.00000  -0.00000
    D2       -3.14159   0.00000  -0.00000   0.00000  -0.00000  -3.14159
    D3        3.14159   0.00000   0.00000   0.00000   0.00000  -3.14159
    D4        0.00000   0.00000  -0.00000   0.00000   0.00000   0.00000
    D5        0.00000  -0.00000  -0.00000  -0.00000  -0.00000  -0.00000
    D6       -3.14159   0.00000  -0.00000   0.00000  -0.00000  -3.14159
    D7        0.00002  -0.00000   0.00000  -0.00011  -0.00011  -0.00009
    D8        3.14159   0.00000  -0.00000   0.00010   0.00010  -3.14150
    D9       -3.14158  -0.00000   0.00000  -0.00011  -0.00011   3.14150
   D10       -0.00001   0.00000  -0.00000   0.00010   0.00010   0.00009
         Item               Value     Threshold  Converged?
 Maximum Force            0.001735     0.000450     NO 
 RMS     Force            0.000410     0.000300     NO 
 Maximum Displacement     0.005813     0.001800     NO 
 RMS     Displacement     0.002442     0.001200     NO 
 Predicted change in Energy=-7.968535D-06
 GradGradGradGradGradGradGradGradGradGradGradGradGradGradGradGradGradGrad

                          Input orientation:                          
 ---------------------------------------------------------------------
 Center     Atomic      Atomic             Coordinates (Angstroms)
 Number     Number       Type             X           Y           Z
 ---------------------------------------------------------------------
      1          6           0       -0.884464    0.492817   -0.117038
      2          6           0       -1.727225    0.176008   -1.135458
      3          1           0       -0.921768   -0.042443    0.834650
      4          8           0        0.069688    1.457606   -0.123066
      5          6           0       -2.714416   -0.907082   -0.966870
      6          1           0        0.065277    1.903873   -0.984966
      7          8           0       -2.855708   -1.583659    0.054378
      8          1           0       -1.693954    0.709416   -2.091377
      9          1           0       -3.362412   -1.096344   -1.854099
 ---------------------------------------------------------------------
                    Distance matrix (angstroms):
                    1          2          3          4          5
     1  C    0.000000
     2  C    1.359336   0.000000
     3  H    1.092522   2.139581   0.000000
     4  O    1.356930   2.428235   2.037241   0.000000
     5  C    2.455740   1.475145   2.684523   3.748999   0.000000
     6  H    1.909551   2.494239   2.841374   0.970590   3.953289
     7  O    2.868264   2.405329   2.593124   4.223590   1.233153
     8  H    2.144809   1.095177   3.118204   2.746720   2.217865
     9  H    3.418046   2.192980   3.781113   4.615024   1.114851
                    6          7          8          9
     6  H    0.000000
     7  O    4.666397   0.000000
     8  H    2.397033   3.348452   0.000000
     9  H    4.637429   2.033841   2.469984   0.000000
 Stoichiometry    C3H4O2
 Framework group  C1[X(C3H4O2)]
 Deg. of freedom    21
 Full point group                 C1      NOp   1
 Largest Abelian subgroup         C1      NOp   1
 Largest concise Abelian subgroup C1      NOp   1
                         Standard orientation:                         
 ---------------------------------------------------------------------
 Center     Atomic      Atomic             Coordinates (Angstroms)
 Number     Number       Type             X           Y           Z
 ---------------------------------------------------------------------
      1          6           0       -0.882526   -0.322818   -0.000014
      2          6           0        0.004147    0.707523   -0.000005
      3          1           0       -0.542443   -1.361062   -0.000043
      4          8           0       -2.236210   -0.229025    0.000009
      5          6           0        1.453702    0.433949   -0.000036
      6          1           0       -2.490092    0.707771    0.000034
      7          8           0        1.962206   -0.689479    0.000021
      8          1           0       -0.331497    1.749999    0.000026
      9          1           0        2.104121    1.339404    0.000068
 ---------------------------------------------------------------------
 Rotational constants (GHZ):          20.1047566           2.6970879           2.3780662
 Standard basis: Aug-CC-pVDZ (5D, 7F)
 There are   161 symmetry adapted cartesian basis functions of A   symmetry.
 There are   151 symmetry adapted basis functions of A   symmetry.
   151 basis functions,   259 primitive gaussians,   161 cartesian basis functions
    19 alpha electrons       19 beta electrons
       nuclear repulsion energy       154.8498328017 Hartrees.
 NAtoms=    9 NActive=    9 NUniq=    9 SFac= 1.00D+00 NAtFMM=   60 NAOKFM=F Big=F
 Integral buffers will be    131072 words long.
 Raffenetti 1 integral format.
 Two-electron integral symmetry is turned on.
 One-electron integrals computed using PRISM.
 NBasis=   151 RedAO= T EigKep=  4.01D-05  NBF=   151
 NBsUse=   151 1.00D-06 EigRej= -1.00D+00 NBFU=   151
 Initial guess from the checkpoint file:  "/scr/Gau-22290.chk"
 B after Tr=    -0.000000   -0.000000    0.000000
         Rot=    1.000000   -0.000000    0.000000   -0.000016 Ang=  -0.00 deg.
 Keep R1 ints in memory in canonical form, NReq=74565157.
 Requested convergence on RMS density matrix=1.00D-08 within 128 cycles.
 Requested convergence on MAX density matrix=1.00D-06.
 Requested convergence on             energy=1.00D-06.
 No special actions if energy rises.
 SCF Done:  E(RHF) =  -265.662707402     A.U. after   10 cycles
            NFock= 10  Conv=0.61D-08     -V/T= 2.0022
 ExpMin= 2.97D-02 ExpMax= 1.17D+04 ExpMxC= 4.01D+02 IAcc=3 IRadAn=         5 AccDes= 0.00D+00
 HarFok:  IExCor=  205 AccDes= 0.00D+00 IRadAn=         5 IDoV=-2 UseB2=F ITyADJ=14
 ICtDFT= 12500011 ScaDFX=  1.000000  1.000000  1.000000  1.000000
 Range of M.O.s used for correlation:     6   151
 NBasis=   151 NAE=    19 NBE=    19 NFC=     5 NFV=     0
 NROrb=    146 NOA=    14 NOB=    14 NVA=   132 NVB=   132

 **** Warning!!: The largest alpha MO coefficient is  0.38641204D+02

 Fully direct method using O(ONN) memory.
 JobTyp=1 Pass  1:  I=   6 to  19 NPSUse= 40 ParTrn=T ParDer=T DoDerP=T.
 Spin components of T(2) and E(2):
     alpha-alpha T2 =       0.3439661820D-01 E2=     -0.1045488576D+00
     alpha-beta  T2 =       0.1907069565D+00 E2=     -0.5905518010D+00
     beta-beta   T2 =       0.3439661820D-01 E2=     -0.1045488576D+00
 ANorm=    0.1122274562D+01
 E2 =    -0.7996495161D+00 EUMP2 =    -0.26646235691822D+03
          IDoAtm=111111111
          Differentiating once with respect to electric field.
                with respect to dipole field.
          Differentiating once with respect to nuclear coordinates.
 Keep R1 ints in memory in canonical form, NReq=74572845.
          There are     1 degrees of freedom in the 1st order CPHF.  IDoFFX=0 NUNeed=     1.
 LinEq1:  Iter=  0 NonCon=     1 RMS=5.70D-03 Max=1.13D-01 NDo=     1
 AX will form     1 AO Fock derivatives at one time.
 LinEq1:  Iter=  1 NonCon=     1 RMS=1.79D-03 Max=2.88D-02 NDo=     1
 LinEq1:  Iter=  2 NonCon=     1 RMS=6.61D-04 Max=1.07D-02 NDo=     1
 LinEq1:  Iter=  3 NonCon=     1 RMS=2.49D-04 Max=3.41D-03 NDo=     1
 LinEq1:  Iter=  4 NonCon=     1 RMS=8.84D-05 Max=1.01D-03 NDo=     1
 LinEq1:  Iter=  5 NonCon=     1 RMS=3.32D-05 Max=6.72D-04 NDo=     1
 LinEq1:  Iter=  6 NonCon=     1 RMS=1.22D-05 Max=2.65D-04 NDo=     1
 LinEq1:  Iter=  7 NonCon=     1 RMS=3.77D-06 Max=5.69D-05 NDo=     1
 LinEq1:  Iter=  8 NonCon=     1 RMS=1.37D-06 Max=2.40D-05 NDo=     1
 LinEq1:  Iter=  9 NonCon=     1 RMS=3.61D-07 Max=3.20D-06 NDo=     1
 LinEq1:  Iter= 10 NonCon=     1 RMS=7.24D-08 Max=5.79D-07 NDo=     1
 LinEq1:  Iter= 11 NonCon=     1 RMS=2.09D-08 Max=3.88D-07 NDo=     1
 LinEq1:  Iter= 12 NonCon=     1 RMS=5.53D-09 Max=6.31D-08 NDo=     1
 LinEq1:  Iter= 13 NonCon=     1 RMS=1.57D-09 Max=1.46D-08 NDo=     1
 LinEq1:  Iter= 14 NonCon=     1 RMS=3.16D-10 Max=2.88D-09 NDo=     1
 LinEq1:  Iter= 15 NonCon=     0 RMS=5.22D-11 Max=3.76D-10 NDo=     1
 Linear equations converged to 1.000D-10 1.000D-09 after    15 iterations.
 End of Minotr F.D. properties file   721 does not exist.
 End of Minotr F.D. properties file   722 does not exist.
 End of Minotr F.D. properties file   788 does not exist.
 Calling FoFJK, ICntrl=  10002127 FMM=F ISym2X=0 I1Cent= 0 IOpClX= 0 NMat=1 NMatS=1 NMatT=0.
 ***** Axes restored to original set *****
 -------------------------------------------------------------------
 Center     Atomic                   Forces (Hartrees/Bohr)
 Number     Number              X              Y              Z
 -------------------------------------------------------------------
      1        6          -0.000025130   -0.000025310    0.000002789
      2        6           0.000124264    0.000105397    0.000053170
      3        1           0.000000720   -0.000008512    0.000017696
      4        8          -0.000076767   -0.000041357   -0.000071071
      5        6          -0.000104649   -0.000040452   -0.000184469
      6        1           0.000052344    0.000040361    0.000023986
      7        8           0.000008438   -0.000018737    0.000073736
      8        1          -0.000028548   -0.000027040   -0.000001765
      9        1           0.000049327    0.000015650    0.000085929
 -------------------------------------------------------------------
 Cartesian Forces:  Max     0.000184469 RMS     0.000064615

 GradGradGradGradGradGradGradGradGradGradGradGradGradGradGradGradGradGrad
 Berny optimization.
 Using GEDIIS/GDIIS optimizer.
 FormGI is forming the generalized inverse of G from B-inverse, IUseBI=4.
 Internal  Forces:  Max     0.000128853 RMS     0.000041190
 Search for a local minimum.
 Step number   4 out of a maximum of   38
 All quantities printed in internal units (Hartrees-Bohrs-Radians)
 Mixed Optimization -- En-DIIS/RFO-DIIS
 Swapping is turned off.
 Update second derivatives using D2CorX and points    1    2    3    4
 DE= -8.04D-06 DEPred=-7.97D-06 R= 1.01D+00
 TightC=F SS=  1.41D+00  RLast= 8.69D-03 DXNew= 5.0454D-01 2.6069D-02
 Trust test= 1.01D+00 RLast= 8.69D-03 DXMaxT set to 3.00D-01
 ITU=  1  1  1  0
     Eigenvalues ---    0.01023   0.01023   0.02009   0.02103   0.02689
     Eigenvalues ---    0.02938   0.12700   0.16000   0.16106   0.16604
     Eigenvalues ---    0.21668   0.21996   0.22883   0.33144   0.34812
     Eigenvalues ---    0.35390   0.36327   0.45218   0.53105   0.60676
     Eigenvalues ---    0.91690
 En-DIIS/RFO-DIIS/Sim-DIIS IScMMF=       -3 using points:     4    3
 RFO step:  Lambda=-2.19901257D-07.
 DidBck=F Rises=F RFO-DIIS coefs:    1.01601   -0.01601
 Iteration  1 RMS(Cart)=  0.00040118 RMS(Int)=  0.00000022
 Iteration  2 RMS(Cart)=  0.00000020 RMS(Int)=  0.00000009
 Variable       Old X    -DE/DX   Delta X   Delta X   Delta X     New X
                                 (Linear)    (Quad)   (Total)
    R1        2.56877  -0.00006   0.00000  -0.00009  -0.00009   2.56868
    R2        2.06457   0.00002  -0.00001   0.00006   0.00005   2.06462
    R3        2.56423  -0.00002  -0.00008  -0.00000  -0.00008   2.56415
    R4        2.78762   0.00006  -0.00004   0.00020   0.00016   2.78778
    R5        2.06959  -0.00001  -0.00002  -0.00002  -0.00004   2.06954
    R6        1.83415  -0.00000   0.00000  -0.00001  -0.00001   1.83414
    R7        2.33032   0.00007   0.00002   0.00007   0.00009   2.33041
    R8        2.10676  -0.00010  -0.00002  -0.00029  -0.00031   2.10645
    A1        2.11446   0.00000  -0.00006   0.00003  -0.00003   2.11443
    A2        2.21221  -0.00000   0.00001   0.00000   0.00001   2.21223
    A3        1.95651  -0.00000   0.00005  -0.00004   0.00001   1.95653
    A4        2.09485  -0.00002  -0.00001  -0.00010  -0.00011   2.09475
    A5        2.11951   0.00005  -0.00003   0.00030   0.00028   2.11979
    A6        2.06882  -0.00003   0.00004  -0.00020  -0.00017   2.06865
    A7        1.90463   0.00013   0.00002   0.00080   0.00082   1.90544
    A8        2.18238  -0.00005  -0.00001  -0.00022  -0.00023   2.18214
    A9        2.00718   0.00003   0.00004   0.00016   0.00020   2.00738
   A10        2.09362   0.00002  -0.00002   0.00006   0.00004   2.09366
    D1       -0.00000  -0.00000   0.00000  -0.00000  -0.00000  -0.00000
    D2       -3.14159  -0.00000  -0.00000  -0.00000  -0.00000   3.14159
    D3       -3.14159  -0.00000   0.00000  -0.00002  -0.00002   3.14158
    D4        0.00000  -0.00000   0.00000  -0.00002  -0.00002  -0.00002
    D5       -0.00000   0.00000  -0.00000   0.00001   0.00001   0.00001
    D6       -3.14159  -0.00000  -0.00000  -0.00000  -0.00000   3.14159
    D7       -0.00009   0.00001  -0.00000   0.00071   0.00070   0.00061
    D8       -3.14150  -0.00001   0.00000  -0.00068  -0.00068   3.14101
    D9        3.14150   0.00001  -0.00000   0.00071   0.00070  -3.14098
   D10        0.00009  -0.00001   0.00000  -0.00068  -0.00067  -0.00058
         Item               Value     Threshold  Converged?
 Maximum Force            0.000129     0.000450     YES
 RMS     Force            0.000041     0.000300     YES
 Maximum Displacement     0.000992     0.001800     YES
 RMS     Displacement     0.000401     0.001200     YES
 Predicted change in Energy=-1.099472D-07
 Optimization completed.
    -- Stationary point found.
                           ----------------------------
                           !   Optimized Parameters   !
                           ! (Angstroms and Degrees)  !
 --------------------------                            --------------------------
 ! Name  Definition              Value          Derivative Info.                !
 --------------------------------------------------------------------------------
 ! R1    R(1,2)                  1.3593         -DE/DX =   -0.0001              !
 ! R2    R(1,3)                  1.0925         -DE/DX =    0.0                 !
 ! R3    R(1,4)                  1.3569         -DE/DX =    0.0                 !
 ! R4    R(2,5)                  1.4751         -DE/DX =    0.0001              !
 ! R5    R(2,8)                  1.0952         -DE/DX =    0.0                 !
 ! R6    R(4,6)                  0.9706         -DE/DX =    0.0                 !
 ! R7    R(5,7)                  1.2332         -DE/DX =    0.0001              !
 ! R8    R(5,9)                  1.1149         -DE/DX =   -0.0001              !
 ! A1    A(2,1,3)              121.1495         -DE/DX =    0.0                 !
 ! A2    A(2,1,4)              126.7505         -DE/DX =    0.0                 !
 ! A3    A(3,1,4)              112.1            -DE/DX =    0.0                 !
 ! A4    A(1,2,5)              120.0263         -DE/DX =    0.0                 !
 ! A5    A(1,2,8)              121.439          -DE/DX =    0.0001              !
 ! A6    A(5,2,8)              118.5347         -DE/DX =    0.0                 !
 ! A7    A(1,4,6)              109.1271         -DE/DX =    0.0001              !
 ! A8    A(2,5,7)              125.0409         -DE/DX =   -0.0001              !
 ! A9    A(2,5,9)              115.0032         -DE/DX =    0.0                 !
 ! A10   A(7,5,9)              119.9559         -DE/DX =    0.0                 !
 ! D1    D(3,1,2,5)              0.0            -DE/DX =    0.0                 !
 ! D2    D(3,1,2,8)            180.0001         -DE/DX =    0.0                 !
 ! D3    D(4,1,2,5)            180.0001         -DE/DX =    0.0                 !
 ! D4    D(4,1,2,8)              0.0002         -DE/DX =    0.0                 !
 ! D5    D(2,1,4,6)             -0.0001         -DE/DX =    0.0                 !
 ! D6    D(3,1,4,6)            180.0001         -DE/DX =    0.0                 !
 ! D7    D(1,2,5,7)             -0.0052         -DE/DX =    0.0                 !
 ! D8    D(1,2,5,9)            180.0053         -DE/DX =    0.0                 !
 ! D9    D(8,2,5,7)           -180.0052         -DE/DX =    0.0                 !
 ! D10   D(8,2,5,9)              0.0053         -DE/DX =    0.0                 !
 --------------------------------------------------------------------------------
 GradGradGradGradGradGradGradGradGradGradGradGradGradGradGradGradGradGrad

                          Input orientation:                          
 ---------------------------------------------------------------------
 Center     Atomic      Atomic             Coordinates (Angstroms)
 Number     Number       Type             X           Y           Z
 ---------------------------------------------------------------------
      1          6           0       -0.884464    0.492817   -0.117038
      2          6           0       -1.727225    0.176008   -1.135458
      3          1           0       -0.921768   -0.042443    0.834650
      4          8           0        0.069688    1.457606   -0.123066
      5          6           0       -2.714416   -0.907082   -0.966870
      6          1           0        0.065277    1.903873   -0.984966
      7          8           0       -2.855708   -1.583659    0.054378
      8          1           0       -1.693954    0.709416   -2.091377
      9          1           0       -3.362412   -1.096344   -1.854099
 ---------------------------------------------------------------------
                    Distance matrix (angstroms):
                    1          2          3          4          5
     1  C    0.000000
     2  C    1.359336   0.000000
     3  H    1.092522   2.139581   0.000000
     4  O    1.356930   2.428235   2.037241   0.000000
     5  C    2.455740   1.475145   2.684523   3.748999   0.000000
     6  H    1.909551   2.494239   2.841374   0.970590   3.953289
     7  O    2.868264   2.405329   2.593124   4.223590   1.233153
     8  H    2.144809   1.095177   3.118204   2.746720   2.217865
     9  H    3.418046   2.192980   3.781113   4.615024   1.114851
                    6          7          8          9
     6  H    0.000000
     7  O    4.666397   0.000000
     8  H    2.397033   3.348452   0.000000
     9  H    4.637429   2.033841   2.469984   0.000000
 Stoichiometry    C3H4O2
 Framework group  C1[X(C3H4O2)]
 Deg. of freedom    21
 Full point group                 C1      NOp   1
 Largest Abelian subgroup         C1      NOp   1
 Largest concise Abelian subgroup C1      NOp   1
                         Standard orientation:                         
 ---------------------------------------------------------------------
 Center     Atomic      Atomic             Coordinates (Angstroms)
 Number     Number       Type             X           Y           Z
 ---------------------------------------------------------------------
      1          6           0       -0.882526   -0.322818   -0.000014
      2          6           0        0.004147    0.707523   -0.000005
      3          1           0       -0.542443   -1.361062   -0.000043
      4          8           0       -2.236210   -0.229025    0.000009
      5          6           0        1.453702    0.433949   -0.000036
      6          1           0       -2.490092    0.707771    0.000034
      7          8           0        1.962206   -0.689479    0.000021
      8          1           0       -0.331497    1.749999    0.000026
      9          1           0        2.104121    1.339404    0.000068
 ---------------------------------------------------------------------
 Rotational constants (GHZ):          20.1047566           2.6970879           2.3780662

 **********************************************************************

            Population analysis using the SCF Density.

 **********************************************************************

 Orbital symmetries:
       Occupied  (A) (A) (A) (A) (A) (A) (A) (A) (A) (A) (A) (A)
                 (A) (A) (A) (A) (A) (A) (A)
       Virtual   (A) (A) (A) (A) (A) (A) (A) (A) (A) (A) (A) (A)
                 (A) (A) (A) (A) (A) (A) (A) (A) (A) (A) (A) (A)
                 (A) (A) (A) (A) (A) (A) (A) (A) (A) (A) (A) (A)
                 (A) (A) (A) (A) (A) (A) (A) (A) (A) (A) (A) (A)
                 (A) (A) (A) (A) (A) (A) (A) (A) (A) (A) (A) (A)
                 (A) (A) (A) (A) (A) (A) (A) (A) (A) (A) (A) (A)
                 (A) (A) (A) (A) (A) (A) (A) (A) (A) (A) (A) (A)
                 (A) (A) (A) (A) (A) (A) (A) (A) (A) (A) (A) (A)
                 (A) (A) (A) (A) (A) (A) (A) (A) (A) (A) (A) (A)
                 (A) (A) (A) (A) (A) (A) (A) (A) (A) (A) (A) (A)
                 (A) (A) (A) (A) (A) (A) (A) (A) (A) (A) (A) (A)
 The electronic state is 1-A.
 Alpha  occ. eigenvalues --  -20.63981 -20.55629 -11.35373 -11.34743 -11.25040
 Alpha  occ. eigenvalues --   -1.44337  -1.37523  -1.06861  -0.90320  -0.81362
 Alpha  occ. eigenvalues --   -0.71512  -0.68845  -0.63780  -0.61030  -0.60123
 Alpha  occ. eigenvalues --   -0.56099  -0.52890  -0.42547  -0.36826
 Alpha virt. eigenvalues --    0.02468   0.04168   0.05230   0.06653   0.06810
 Alpha virt. eigenvalues --    0.10370   0.11155   0.12472   0.13068   0.13167
 Alpha virt. eigenvalues --    0.13989   0.14598   0.14882   0.16566   0.17802
 Alpha virt. eigenvalues --    0.21182   0.23406   0.23417   0.24823   0.25883
 Alpha virt. eigenvalues --    0.27360   0.28656   0.30639   0.30940   0.32185
 Alpha virt. eigenvalues --    0.33294   0.35639   0.36494   0.38050   0.38230
 Alpha virt. eigenvalues --    0.39999   0.41197   0.43761   0.43843   0.44755
 Alpha virt. eigenvalues --    0.47252   0.47629   0.51337   0.53934   0.55143
 Alpha virt. eigenvalues --    0.56206   0.59028   0.61914   0.62994   0.63189
 Alpha virt. eigenvalues --    0.63640   0.65658   0.66926   0.67761   0.67807
 Alpha virt. eigenvalues --    0.73137   0.73721   0.74242   0.76102   0.78313
 Alpha virt. eigenvalues --    0.78915   0.84752   0.85354   0.88019   0.88097
 Alpha virt. eigenvalues --    0.92379   0.94022   0.94389   0.99309   1.02958
 Alpha virt. eigenvalues --    1.07135   1.09000   1.13449   1.17778   1.20354
 Alpha virt. eigenvalues --    1.23354   1.25434   1.26448   1.29790   1.30061
 Alpha virt. eigenvalues --    1.35086   1.43328   1.46415   1.48409   1.49658
 Alpha virt. eigenvalues --    1.50946   1.56899   1.58512   1.60679   1.64578
 Alpha virt. eigenvalues --    1.67467   1.69280   1.71519   1.76213   1.77541
 Alpha virt. eigenvalues --    1.82091   1.84493   1.90431   1.94206   1.97973
 Alpha virt. eigenvalues --    1.98327   2.02422   2.03412   2.06402   2.09788
 Alpha virt. eigenvalues --    2.13153   2.13458   2.18013   2.19340   2.21794
 Alpha virt. eigenvalues --    2.31366   2.34475   2.38601   2.40726   2.42464
 Alpha virt. eigenvalues --    2.48436   2.59593   2.66688   2.71247   2.85036
 Alpha virt. eigenvalues --    2.88657   2.90707   3.03056   3.04329   3.23063
 Alpha virt. eigenvalues --    3.42811   3.55473   3.69007   3.71094   3.74539
 Alpha virt. eigenvalues --    3.78060   3.79929   3.82218   3.91658   4.03957
 Alpha virt. eigenvalues --    4.11923   4.28288
          Condensed to atoms (all electrons):
               1          2          3          4          5          6
     1  C    4.795209   0.236237   0.357226   0.009574  -0.012777  -0.110322
     2  C    0.236237   5.114569  -0.092640  -0.065541   0.085047   0.016391
     3  H    0.357226  -0.092640   1.089459  -0.156758  -0.064555   0.012637
     4  O    0.009574  -0.065541  -0.156758   8.594628  -0.000380   0.331708
     5  C   -0.012777   0.085047  -0.064555  -0.000380   4.972297   0.013759
     6  H   -0.110322   0.016391   0.012637   0.331708   0.013759   0.559514
     7  O   -0.056993  -0.010370   0.005467   0.003274   0.290915  -0.001985
     8  H   -0.010459   0.105212   0.046893  -0.057511  -0.139695   0.010348
     9  H   -0.004905   0.024854  -0.002856   0.001966   0.247045   0.000832
               7          8          9
     1  C   -0.056993  -0.010459  -0.004905
     2  C   -0.010370   0.105212   0.024854
     3  H    0.005467   0.046893  -0.002856
     4  O    0.003274  -0.057511   0.001966
     5  C    0.290915  -0.139695   0.247045
     6  H   -0.001985   0.010348   0.000832
     7  O    8.572276  -0.002195  -0.062262
     8  H   -0.002195   1.604745  -0.065905
     9  H   -0.062262  -0.065905   0.934751
 Mulliken charges:
               1
     1  C    0.797211
     2  C    0.586241
     3  H   -0.194875
     4  O   -0.660959
     5  C    0.608344
     6  H    0.167118
     7  O   -0.738127
     8  H   -0.491433
     9  H   -0.073521
 Sum of Mulliken charges =  -0.00000
 Mulliken charges with hydrogens summed into heavy atoms:
               1
     1  C    0.602336
     2  C    0.094808
     4  O   -0.493841
     5  C    0.534823
     7  O   -0.738127
 Electronic spatial extent (au):  <R**2>=            479.8186
 Charge=             -0.0000 electrons
 Dipole moment (field-independent basis, Debye):
    X=             -2.5797    Y=              3.2826    Z=             -0.0000  Tot=              4.1750
 Quadrupole moment (field-independent basis, Debye-Ang):
   XX=            -33.6295   YY=            -26.6024   ZZ=            -30.9318
   XY=              1.2754   XZ=             -0.0002   YZ=              0.0002
 Traceless Quadrupole moment (field-independent basis, Debye-Ang):
   XX=             -3.2416   YY=              3.7855   ZZ=             -0.5439
   XY=              1.2754   XZ=             -0.0002   YZ=              0.0002
 Octapole moment (field-independent basis, Debye-Ang**2):
  XXX=            -18.2758  YYY=             -0.3302  ZZZ=              0.0002  XYY=             -6.1016
  XXY=             21.5555  XXZ=              0.0003  XZZ=             -0.2988  YZZ=             -1.7519
  YYZ=              0.0003  XYZ=             -0.0001
 Hexadecapole moment (field-independent basis, Debye-Ang**3):
 XXXX=           -472.8976 YYYY=            -91.4675 ZZZZ=            -32.0196 XXXY=            -12.6856
 XXXZ=             -0.0008 YYYX=             -1.3362 YYYZ=              0.0006 ZZZX=             -0.0000
 ZZZY=              0.0001 XXYY=            -86.2544 XXZZ=            -82.1824 YYZZ=            -23.0924
 XXYZ=              0.0009 YYXZ=              0.0002 ZZXY=             -0.6384
 N-N= 1.548498328017D+02 E-N=-9.343249582726D+02  KE= 2.650763207139D+02
 Unable to Open any file for archive entry.
 1\1\GINC-N3030\FOpt\RMP2-FC\Aug-CC-pVDZ\C3H4O2\GDS001\22-Mar-2025\0\\#
  MP2/aug-cc-pVDZ opt freq=(vibrot,anharmonic)\\blah\\0,1\C,-0.88446376
 22,0.4928174356,-0.1170380708\C,-1.7272252152,0.1760080374,-1.13545770
 04\H,-0.9217680986,-0.0424431075,0.8346497148\O,0.0696877982,1.4576058
 418,-0.1230663419\C,-2.7144162964,-0.9070821779,-0.9668701849\H,0.0652
 772396,1.9038728988,-0.9849657492\O,-2.8557079165,-1.583658598,0.05437
 79109\H,-1.6939538,0.7094157658,-2.0913774923\H,-3.3624117231,-1.09634
 44224,-1.8540988293\\Version=EM64L-G16RevC.01\State=1-A\HF=-265.662707
 4\MP2=-266.4623569\RMSD=6.126e-09\RMSF=6.462e-05\Dipole=0.4353269,0.96
 91406,-1.0141737\PG=C01 [X(C3H4O2)]\\@
 The archive entry for this job was punched.


 IT IS DOUBTED WHETHER A MAN EVER BRINGS HIS FACULTIES TO BEAR WITH THEIR FULL FORCE
 ON A SUBJECT UNTIL HE WRITES UPON IT.

                          -- CICERO
 Job cpu time:       0 days  0 hours 25 minutes 58.0 seconds.
 Elapsed time:       0 days  0 hours  0 minutes 48.6 seconds.
 File lengths (MBytes):  RWF=     16 Int=      0 D2E=      0 Chk=      3 Scr=      1
 Normal termination of Gaussian 16 at Sat Mar 22 17:32:42 2025.
 Link1:  Proceeding to internal job step number  2.
 ----------------------------------------------------------------------
 #N Geom=AllCheck Guess=TCheck SCRF=Check GenChk RMP2(FC)/Aug-CC-pVDZ F
 req
[...]
 0039077,0.00088889,0.00023163,0.00831407,-0.01932165,0.00027857,0.0001
 0681,0.00037186,0.00021574,0.00016322,-0.00015131,0.00008886,-0.000029
 81,-0.00072359,0.00005833,-0.00011674,0.00011727,-0.00054792,-0.000884
 67,0.00115695,0.00077065,-0.00741090,-0.00145474,-0.00088587,-0.000356
 94,-0.00483418,-0.02133175,0.02944538,0.00049209,0.00046686,0.00007448
 ,0.00037919,0.00025766,0.00010501,0.00237808,0.00325513,-0.00214006,-0
 .00002197,-0.00010359,0.00004181,-0.00021857,-0.00010209,0.00005021,0.
 00336829,0.01819731,-0.02697826,-0.00034289,-0.00043184,-0.00024638,-0
 .00252083,-0.00329966,0.00131367,-0.00013130,0.00007492,0.00006662,-0.
 00032530,0.00018113,-0.00015400,0.01449243,-0.00044510,0.02843743,0.00
 008877,-0.00004947,-0.00005596,-0.00061419,0.00124990,-0.00380010,-0.0
 0007033,-0.00042606,-0.00008819,-0.01057637,-0.00046194,-0.00009613,-0
 .00030042,0.00019323,-0.00028263,0.00102193,0.00002787,-0.00016359,-0.
 00009330,0.00026496,-0.00004310,-0.00021474,-0.00224907,-0.00406337,0.
 00372197,-0.00010110,0.00003545,0.00005588,-0.00079978,-0.00036844,-0.
 00057081,-0.00002035,0.00024878,0.00024634,0.00314617,0.00473303,-0.00
 019670,-0.00024838,0.00031295,-0.00534628,-0.00569862,0.00062560,0.000
 15605,-0.00000251,0.00006570,-0.00031340,-0.00037380,-0.00031244,0.031
 89140,0.00721992,0.04784571,0.00004365,0.00015574,-0.00004742,0.000102
 32,0.00335023,-0.00611416,-0.00086392,-0.00053572,-0.00024162,-0.02547
 311,-0.00386685,-0.04213432,-0.00369723,0.00006068,-0.00252724,-0.0001
 2546,-0.00214568,0.00013839,0.00265906,0.00138381,-0.00241750,-0.01171
 450,0.00070908,0.00438425,-0.00214973,-0.00807470,-0.00613077,-0.00111
 608,-0.00083884,0.00201984,-0.00657790,-0.00435812,-0.00464616,0.00047
 480,-0.00071022,0.00070652,-0.00072665,0.00009899,-0.00071809,-0.00000
 407,-0.00025551,-0.00000235,0.00105577,-0.00050765,-0.00048199,-0.0009
 0672,0.00048459,0.00003597,-0.00015219,0.00018479,0.00016640,0.0004202
 4,0.00024735,-0.00010933,0.00000454,-0.00006710,-0.00035372,0.00146350
 ,0.00075371,0.00134717,-0.00041092,0.00089105,-0.00120542,-0.00008999,
 -0.00005924,0.00012783,-0.00153430,0.00126787,0.00047709,0.00158926,-0
 .00024067,-0.00034969,-0.00109628,0.00002302,-0.00009798,0.00004073,-0
 .00205007,-0.00047890,0.00036199,0.00059393,-0.00041826,0.00097318,0.0
 0110463,-0.00090615,-0.00002713,-0.00011504,0.00006923,-0.00111103,-0.
 00099705,0.00083108,-0.00107012,-0.00273357,0.00100618,0.00329155,0.00
 940722,0.00692156,-0.00004369,0.00021535,-0.00003310,0.00004028,0.0005
 0208,-0.00092019,0.57091760,-0.00140063,-0.00121951,0.00178100,0.02051
 930,0.00944186,0.00300171,0.00016959,-0.00011378,0.00010581,-0.0005770
 0,-0.00027517,-0.00055647,0.31435402,-0.50686852,-0.00154376,-0.000787
 62,-0.00036005,-0.01434844,-0.01841873,-0.00207468,0.00004183,0.000178
 49,-0.00050064,0.00114282,0.00152682,-0.00068782,1.62664970,0.45730014
 ,1.67665410,-0.00012553,-0.00014596,-0.00001749,-0.00011543,-0.0000768
 6,0.00022233,0.00003303,-0.00001946,-0.00002832,0.00014311,0.00014689,
 0.00016768,-0.00008188,0.00011927,-0.00025667,-0.00008706,-0.00027166,
 -0.00014184,-0.00019959,0.00005579,-0.00024429,0.00027940,-0.00000167,
 0.00005081,0.00002753,0.00021335,-0.00001139,0.00026124,-0.00000388,0.
 00006838,-0.00026980,0.00000557,0.00016245,0.00021758,0.00003830,0.000
 37362,-0.00002838,0.00002587,-0.00025645,-0.00006124,-0.00000574,-0.00
 004113,0.00004374,0.00013643,-0.00026215,-0.00002090,-0.00003434,-0.00
 004540,-0.00020172,-0.00027364,0.00014385,-0.00060850,-0.00025284,0.00
 049452,-0.00299444,-0.00212923,-0.00216223,0.00000398,-0.00000002,-0.0
 0033984,0.00015540,0.00009589,-0.00018353,-0.01093995,-0.00288428,0.01
 900928,0.00002440,-0.00003448,0.00001102,0.00946629,-0.00008892,-0.000
 66072,-0.00007503,-0.00209472,-0.00207697,0.00042234,-0.00015232,0.000
 23436,-0.00039744,0.00086659,0.00099859,0.00004997,0.01661297,-0.00510
 934,0.00742898,-0.00007455,-0.00009396,0.00013774,0.00185286,0.0076313
 6,0.00017894,-0.00039045,0.00048343,-0.00222549,0.00034602,-0.00468837
 ,-0.00004977,-0.00010127,0.00028544,-0.00165028,-0.00143071,-0.0002974
 7,-0.01828185,-0.03017507,0.00445552,0.00008846,0.00021448,-0.00018908
 ,-0.00722710,0.01076993,-0.02311446,0.00003512,-0.00048771,0.00020405,
 0.00251160,0.00167921,0.00155344,0.00003334,0.00007393,0.00001157,-0.0
 0002819,-0.00000488,0.00005478,-0.00122757,-0.00152423,0.00012800,-0.0
 0001689,-0.00000324,-0.00010677,0.00056748,0.00003286,0.00051946,-0.00
 170870,-0.00004307,0.00019567,0.00033104,0.00173813,-0.00014803,0.0037
 2004,0.00002611,0.00000519,-0.00004504,-0.00003616,-0.00009666,0.00001
 376,-0.00223132,-0.00188078,-0.00027088,-0.00003103,0.00005553,-0.0000
 8643,0.00058418,0.00061899,0.00043662,-0.00053844,0.00078529,-0.000649
 75,-0.00052806,0.00017312,0.00144249,0.00360195,-0.00406973,0.00010229
 ,0.00004598,0.00006297,0.00011818,0.00007780,0.00002624,0.00147036,0.0
 0108642,0.00098237,-0.00005327,-0.00003257,0.00000146,-0.00052688,-0.0
 0061732,0.00042689,-0.00127977,-0.00352703,0.00376266,0.00086893,0.002
 13215,-0.00119798,0.00749975,-0.00250480,0.00308243,0.00031925,0.00006
 801,-0.00001074,0.00026111,0.00025986,0.00068424,-0.56088621,-0.328776
 04,-1.63082277,0.00022626,0.00004023,0.00014667,0.00432534,-0.01695478
 ,0.02864764,-0.00016620,0.00053160,-0.00062365,0.54755178,0.00002218,-
 0.00050533,-0.00018705,-0.01277929,-0.00439436,-0.00022348,0.00006191,
 0.00036979,-0.00009664,-0.00000223,-0.00016588,-0.00035497,-0.33612288
 ,0.50595687,-0.44668743,0.00007613,0.00015431,0.00006180,0.00276792,-0
 .00154230,0.02033045,0.00077248,0.00046479,-0.00010719,0.34520378,-0.5
 0033787,0.00282876,0.00387366,-0.00257649,0.02276178,0.01960073,0.0147
 3105,0.00000104,-0.00008439,0.00042078,0.00118699,0.00015299,0.0016453
 2,-1.61679176,-0.43250920,-1.67842339,0.00007901,-0.00000706,0.0002752
 9,-0.00907525,-0.01771917,0.02263810,-0.00108474,-0.00057208,-0.001365
 98,1.60009416,0.42726451,1.64265532,0.00198848,-0.00201621,-0.00306345
 ,0.00019911,0.00936998,-0.01367906,0.00021463,-0.00561602,0.01632381,-
 0.68975968,0.00454597,-0.00591297,0.01494820,0.07697835,0.22447402,-0.
 00309849,-0.00462698,0.00021997,-0.10122468,-1.64553833,2.23806949,0.0
 0071635,0.00160203,-0.00082576,-0.00144219,0.00185756,0.00085633,-0.00
 036864,0.00073099,0.00097727,-0.00132126,0.00152649,-0.00248587,0.0005
 7870,-0.00026546,-0.00012628,0.00085070,0.00036272,0.00050135,0.001467
 71,0.00120151,-0.00319235,-0.00011112,-0.00036172,0.00042626,0.0001470
 4,0.00213917,0.00124152,-0.00070307,-0.00251530,-0.00539413,0.00035128
 ,-0.00026040,-0.00039329,-0.00016450,0.00279390,0.00076382,-0.00105936
 ,-0.00388120,0.00222055,-0.00296712,-0.00049754,0.00032288,-0.00002476
 ,-0.00119265,-0.00057854,-0.00001271,-0.00232595,0.00180675,-0.0027678
 2,-0.00031478,-0.00014064,0.00006256,0.00043497,0.00010141,0.00025884,
 0.00047959,0.00045600,0.00081853,-0.00032626,0.00215451,0.00457686,0.0
 0004787,0.00407633,0.00033865,-0.00016913,-0.00010090,-0.00076688,0.00
 071545,-0.00024356,-0.00540757,0.00067704,-0.00053808,0.00238485,0.009
 10501,0.00800270,0.00679363,-0.00024494,0.00028778,0.00006644,0.000254
 39,-0.00059422,-0.00096273,-0.00699054,-0.00974061,0.00023511,0.000451
 55,-0.00039779,-0.01325270,-0.01065443,-0.00276366,0.00003183,0.000197
 49,0.00024264,0.00063781,-0.00007030,0.00002378,0.00430683,0.00398133,
 0.00008396,-0.00013215,0.00015916,-0.00062870,-0.00029229,0.00046991,-
 0.00029178,-0.00017661,-0.00005229,0.00003727,0.00032572,0.00037554,0.
 00014231,0.00028316,-0.00009819,-0.00012501,-0.00007716,-0.00028506,0.
 00006157,-0.00059954,0.00064770,0.00030706,-0.00049951,0.00002054,-0.0
 0015440,0.00005909,0.00046373,0.00024686,0.00019051,-0.00012352,0.0002
 3533,0.00016067,-0.00033842,0.00047087,0.00021565,0.00025240,-0.000031
 74,-0.00062894,-0.00084021,-0.00021056,-0.00010094,-0.00008029,-0.0001
 8617,-0.00002326,0.00002373,-0.00020696,-0.00007659,0.00020768,-0.0001
 0244,-0.00078356,-0.00027755,-0.00031685,-0.00010487,0.00030792,-0.001
 05321,-0.00068093,0.00111245,0.00076989,-0.00049388,-0.00004721,0.0001
 6925,0.00027911,-0.00017189,0.00015464,0.00316320,0.00209216,0.0018459
 0,-0.00009215,-0.00009748,0.00000519,-0.00151277,-0.00007547,0.0007630
 7,-0.00133774,0.00030537,-0.00221076,0.00066749,0.00002562,-0.00048529
 ,-0.00004530,-0.00003399,0.00009849,0.00044464,0.00502763,0.00348826,0
 .00321100,-0.00011878,-0.00012755,0.00001904,-0.00274473,-0.00296550,-
 0.00032139,-0.00059735,0.00066506,0.00231465,0.00221127,-0.00193040,0.
 00002860,-0.00018356,-0.00012158,-0.00010246,0.00018310,-0.00018635,-0
 .00378103,-0.00246365,-0.00249200,0.00004671,0.00005969,-0.00002446,0.
 00157362,0.00116627,0.00122334,-0.00335858,0.00332466,-0.01729941,0.68
 892131,-0.07990717,0.10402156,0.00091221,-0.00139818,-0.00192250,0.000
 28551,0.00191817,0.00223503,-0.00208932,-0.00606944,0.00908019,0.00021
 717,-0.00030916,0.00137762,-0.00063563,-0.00186373,-0.00001992,-0.6847
 0941,-0.00678454,0.00710504,-0.02223009,-0.07644676,-0.22329815,1.6455
 3687,-0.00241621,0.00155283,-0.00131869,0.00113624,-0.00262145,0.00188
 891,0.00115469,-0.00142032,0.00346595,-0.00041206,-0.00099432,0.000742
 05,-0.00028057,0.00122068,-0.00054714,0.08245369,0.21737096,0.00202881
 ,-0.00274867,0.01148815,0.09740527,1.63886205,-2.23206002,0.00002347,0
 .00064211,0.00211414,0.00373422,0.00339986,-0.00208334,-0.00474384,-0.
 01046039,0.01009256,0.00157469,0.00094061,0.00104553,-0.00303915,-0.00
 359021,0.00222718,-0.09643969,-1.62692516,2.20883814,-0.00028943,0.000
 42557,-0.00011186,-0.00083459,-0.00258963,0.00028499,0.00016283,-0.000
 06482,0.00000287,0.00024577,-0.00005978,0.00017071,-0.00091663,0.00127
 452,-0.00275999,-0.00005570,0.00002168,0.00001484,0.00007791,-0.000521
 91,0.00026122,0.00045673,0.00159551,-0.00054377,0.00115312,0.00041338,
 -0.00015628,-0.00015505,-0.00261892,-0.00109656,0.00005528,-0.00008160
 ,0.00011107,0.00006071,0.00000882,0.00014159,0.00016484,0.00066381,0.0
 0027916,-0.00074328,0.00001513,-0.00004543,-0.00004685,-0.00017065,0.0
 0021860,0.00017137,0.00185115,0.00108472,-0.00012020,-0.00008112,-0.00
 053686,-0.00009679,-0.00013770,-0.00057268,0.00036267,0.00012470,0.002
 00814,0.00003504,0.00009356,0.00011429,0.00004076,0.00003527,0.0002293
 5,-0.00159175,0.00045285,-0.00468706,0.00002807,-0.00003397,0.00003365
 ,-0.00042613,-0.00053519,0.00063919,-0.00103287,-0.00061271,-0.0016623
 5,0.00268099,0.00061319,0.00389746,-0.69663807,0.07615806,0.25149479,-
 0.13024017,-1.68165631,2.26017813,-0.00060383,0.00803798,-0.00538397,-
 0.00417049,-0.00328882,-0.00446760,-0.00884744,-0.00176036,-0.00586007
 ,0.01628610,0.01299179,0.00078625,-0.00150962,0.00470785,-0.01356441,0
 .68870408,-0.09205947,0.12177421,0.00034924,0.00306222,-0.01641038,-0.
 68291467,-0.09453286,-0.25636555,1.67891186,-0.01026958,0.00648456,-0.
 02103734,0.10459706,0.25028120,0.12651520,1.68368424,-2.25903031,0.009
 06203,0.00464106,0.01442005,-0.11667218,-1.66567180,2.23425503,0.01133
 748,0.00785288,0.01275666,0.00014892,-0.00012856,0.00089284,-0.0061850
 2,-0.00042324,-0.01277014,-0.01139662,0.02102120,0.01142291,0.01282066
 ,0.00098898,-0.00035446,0.00220567,-0.01256899,-0.00227196,-0.01823841
 ,-0.00847866,-0.01177230,-0.01242772,-0.01256379,-0.00299603,-0.001229
 93,0.00007186,-0.00269412,0.01045893,0.00517307,0.01112459,-0.00036616
 ,0.00080798,-0.00505556,0.00046957,-0.00102686,-0.00169310,0.00116615,
 -0.00053416,0.00083226,-0.00023928,0.00220199,-0.00013584,-0.00044934,
 -0.00084227,0.00082195,-0.00186109,-0.00055513,0.00173063,0.00015072,0
 .00041040,0.00162127,0.00004237,0.00039077,-0.00086146,-0.00207935,-0.
 00072628,-0.00106786,0.00055806,-0.00032404,-0.00373317,-0.00259639,-0
 .00075726,-0.00119973,-0.00098586,-0.00177489,0.00274721,0.00331559,0.
 00139544,0.00136757,0.00060021,0.00033857,0.00047960,0.00090948,0.0028
 4999,-0.00560177,-0.00210157,-0.00011054,0.00131045,0.00037993,0.00068
 803,-0.00021206,0.00022879,0.00067923,-0.00443208,0.00664107,-0.000268
 25,0.00274242,-0.00012258,0.00004956,0.00007266,-0.00515467,0.00043121
 ,-0.00171271,-0.00100460,0.00072447,0.00045809,0.00015190,-0.00163854,
 0.00163233,-0.00273339,0.00155694,0.00385121,0.00612334,-0.00009946,-0
 .00032508,0.00002624,-0.00054174,-0.00418703,0.00026920,-0.00205298,0.
 00177220,-0.00027882,0.00008365,-0.00088801,0.00000127,0.00173465,-0.0
 0146148,-0.00074471,0.00260891,-0.00093593,0.00035768,0.00031166,-0.00
 011938,0.00070178,-0.00255971,0.00126349,0.00083866,0.00054505,0.00043
 506,-0.00027812,0.00009051,0.00035684,-0.00046947,-0.00056517,-0.00082
 338,-0.00000561,0.00015817,-0.00017486,0.00034931,0.00057067,-0.000921
 62,-0.00003182,-0.00000653,0.00004811,-0.00005958,-0.00004864,0.000234
 76,-0.00039844,0.00027720,-0.00038090,0.00023221,-0.00059030,-0.000253
 63,0.00033882,0.00047655,0.00051447,-0.00021028,0.00075491,0.00205575,
 -0.00203242,0.00001195,-0.00000372,-0.00006551,-0.00069480,-0.00166895
 ,0.00156939,0.00074697,0.00167346,0.00000217,-0.00013751,-0.00026361,-
 0.00077687,0.00038972,-0.00171622,-0.00077719,-0.00081978,-0.00001030,
 -0.00128927,-0.00240623,0.00233051,0.00001358,-0.00010151,0.00016780,0
 .00090052,0.00219555,-0.00227245,-0.00197997,0.00084598,0.00110399,0.0
 0326926,0.00180937,-0.00024205,0.00062346,-0.00182617,-0.00084314,-0.0
 0020485,-0.00004623,0.00016275,0.00036301,-0.00004284,-0.00046689,0.00
 013890,-0.00040717,-0.00030664,-0.00018612,-0.00004953,0.00022422,-0.0
 0197339,0.00106055,-0.00231692,-0.00001394,0.00161482,0.00277143,0.000
 88167,-0.00133662,0.00146763,0.00011374,-0.00021487,-0.00046984,0.0000
 1638,-0.00044791,0.00025081,-0.00008910,-0.00047902,0.00024465,-0.0000
 4879,0.00004913,-0.00019063,-0.00003781,-0.00015794,-0.00175439,0.0006
 9010,-0.00042934,-0.00123838,0.00013187,0.00125229,-0.00054306,-0.0017
 7994,-0.00083106,0.00103125,0.00048886,0.00034519,0.00003763,0.0002978
 9,0.00068567,-0.00008240,-0.00016888,0.00008996,0.00020465,0.00004343,
 -0.00021924,0.00024663,0.00040288,-0.00083367,0.00034036,-0.00002636,-
 0.00024306,-0.00006313,-0.00026104,0.00006174,0.00000609,-0.00009713,0
 .00013874,0.00009953,0.00011396,0.00003606,0.00001262,0.00032424,0.000
 22689,0.00007281,0.00002194,-0.00001918,-0.00004785,-0.00015724,-0.000
 13735,0.00013345,-0.00005031,-0.00008814,-0.00010620,0.00013194,-0.000
 24556,-0.00002033,0.00003749,-0.00002393,-0.00027231,-0.00017610,0.000
 14388,-0.00011313,-0.00005490,0.00008524,0.00014782,0.00002338,0.00031
 780,0.00032910,0.00004341,-0.00002923,0.00004225,-0.00001188,-0.000147
 04,-0.00030714,0.00017061,-0.00012547,-0.00000276,-0.00005982,0.000024
 31,0.00019649,-0.00006569,0.00003669,0.00005440,0.00019211,0.00000312,
 -0.00000029,0.00008937,-0.00006454,0.00000951,-0.00008036,-0.00006880,
 0.00005014,-0.00010104,-0.00011289,0.00007840,-0.00002788,0.00000777,-
 0.00000333,0.00013589,0.00015932,-0.00015582,-0.00003511,0.00001152,0.
 00000333,-0.00010730,0.00002781,-0.00003634,-0.01662402,-0.01833069,-0
 .01841890,-0.00278750,0.00561650,-0.01313283,0.00064896,0.00234971,0.0
 0148185,-0.00347069,0.00339221,0.00261055,-0.00313164,-0.00433151,-0.0
 0392803,-0.00050120,-0.00513072,0.00642128,-0.00079986,0.00157099,-0.0
 0331584,0.00551783,-0.00160238,0.00353032,-0.00008441,-0.00050331,0.00
 012272,-0.00484782,0.00065486,0.00353569,0.00457935,-0.00037542,-0.000
 20546,0.00035597,-0.00061796,-0.00291242,-0.00077537,0.00023428,0.0033
 3368,-0.00014348,0.00009441,-0.00009977,-0.00122292,-0.00250665,-0.001
 16713,0.01772448,0.04943361,-0.02370249,-0.00209183,-0.00658662,0.0007
 9892,0.00053772,0.00076544,0.00317446,-1.37514452,0.03058751,0.0229560
 8,-0.02130464,-0.00455927,-0.00226409,0.00322712,0.00170095,-0.0017374
 9,0.00302240,-0.04749110,0.28206875,0.01233542,0.01501310,-0.02395887,
 -0.00306420,-0.00066045,-0.00061265,0.00138783,0.00122209,-0.00153215,
 0.09704979,-3.26683271,5.05583916,0.00021976,0.00007455,-0.00059063,0.
 00037667,0.00015109,0.00038399,0.00019630,0.00020816,-0.00012142,0.000
 22260,-0.00167403,0.00031253,-0.00052580,0.00010580,0.00031186,0.00047
 747,0.00010612,0.00031917,-0.00041882,0.00016864,0.00036159,-0.0002452
 2,-0.00077992,-0.00000927,0.00179808,0.00023705,-0.00080049,-0.0006516
 1,0.00041793,-0.00161401,0.00045851,-0.00032941,0.00153028,-0.00005770
 ,-0.00018403,0.00029347,-0.00139708,0.00007929,-0.00111221,0.00041265,
 0.00030374,-0.00065589,-0.00570314,-0.02949410,0.02129084,0.00304179,0
 .00687868,-0.00031313,-0.00098438,-0.00130264,-0.00103425,1.35755768,0
 .01898336,-0.10744433,-0.00058906,0.00045740,0.00202685,-1.35413268,-0
 .01423274,-0.00878073,0.01329070,0.00582451,0.00245016,-0.00038455,0.0
 0027342,0.00137589,-0.00048895,0.00311234,-0.30253855,3.25119761,0.001
 42585,-0.00075119,0.00017643,0.00423433,0.30754725,-0.00789937,-0.0161
 2723,0.02812954,0.00170604,0.00164925,-0.00348505,-0.00404707,-0.00352
 543,-0.00021446,-0.07709050,3.28178953,-5.02988822,0.00017490,-0.00169
 168,0.00147452,0.08678309,-3.26361709,5.00492718,-0.00022483,-0.000279
 96,0.00044927,0.00002722,-0.00014141,0.00003060,-0.00002043,0.00020198
 ,-0.00006628,0.00054872,0.00058654,-0.00006740,0.00004522,-0.00016542,
 -0.00008017,-0.00022008,-0.00033427,-0.00008451,-0.00008254,-0.0002064
 0,-0.00039707,0.00002392,-0.00002245,-0.00006398,0.00039533,0.00012142
 ,-0.00008819,0.00004597,0.00032330,0.00058786,-0.00050512,-0.00009479,
 0.00023923,-0.00021578,-0.00013088,-0.00018408,0.00039718,0.00000277,-
 0.00000873,0.00030705,-0.00011699,0.00064105,-0.00019402,0.00015707,-0
 .00050040,0.00008635,0.00020348,-0.00040182,0.00044236,0.00000615,0.00
 083413,-0.00023062,-0.00037088,0.00046903,-0.00047255,0.00000499,-0.00
 076696,-0.00017246,0.00006248,-0.00042041,-0.00140836,-0.00214201,0.00
 040936,0.00158446,0.00104939,0.00011485,-0.00037885,0.00055816,0.00022
 922,0.00100173,0.00158610,-0.00046578,0.00011301,-0.00016717,-0.000330
 05,0.00050820,-0.00015656,0.00034521,-0.00002854,0.00007993,0.00003763
 ,-0.00138776,-0.00185339,-0.00171974,0.00067991,0.00085879,0.00120638,
 0.00028342,0.00054321,-0.00038406,-0.00022712,0.00108191,0.00124834,-0
 .00093609,-0.00032053,0.00020444,-0.00013391,0.00035674,0.00044888,0.0
 0075531,0.00012431,0.00000322,-0.00002252,-0.00076762,-0.00100484,-0.0
 0014612,0.00012166,-0.00000700,0.00048128,0.00064635,0.00017297,0.0002
 5711,-0.00019943,-0.00017498,0.00050188,0.00003925,0.00056088,-0.00004
 610,0.00015636,0.00006909,-0.00063608,-0.00023370,-0.00029441,-0.00003
 948,-0.00009946,-0.00001622,-0.00033760,-0.00043057,-0.00028282,-0.000
 15067,-0.00000869,-0.00008103,-0.00003215,0.00009145,0.00016314,0.0000
 6403,-0.00009257,-0.00003996,-0.00035659,0.00027995,-0.00004385,-0.000
 05872,0.00003750,-0.00038141,0.00052167,-0.00014687,0.00011221,-0.0000
 4473,-0.00007289,0.00019627,-0.00000390,-0.00002343,-0.00003489,0.0000
 6106,-0.00011715,-0.00009772,-0.00023160,0.00014951,-0.00012472,0.0001
 0131,-0.00008398,0.00005445,0.00007089,0.00014104,-0.00031165,-0.00029
 653,-0.00000736,0.00012465,-0.00011426,0.00001712,0.00043236,0.0003701
 7,0.00000548,-0.00008827,0.00007622,-0.00004022,-0.00000264,-0.0000004
 7,-0.00006443,0.00001354,0.00011870,-0.00002853,0.00018714,0.00007389,
 0.00000344,-0.00011079,-0.00005664,0.00005464,-0.00003684,0.00022267,-
 0.00002641,-0.00013005,-0.00029530,-0.00000905,-0.00045428,-0.00020044
 ,0.00005457,0.00011786,0.00003043,-0.00010453,0.00016160,-0.00000283,0
 .00003158,-0.00002751,0.00010951,0.00002429,0.00029286\\@
 The archive entry for this job was punched.


 The earth never tires,
 The earth is rude, silent, incomprehensible at first,
 Nature is rude and incomprehensible at first,
 Be not discouraged, keep on,
 There are divine things well envelop'd,
 I swear to you there are divine things more beautiful than words can tell.
                                 -- Walt Whitman
 Job cpu time:       1 days 20 hours 11 minutes 36.1 seconds.
 Elapsed time:       0 days  1 hours  7 minutes 33.9 seconds.
 File lengths (MBytes):  RWF=   2665 Int=      0 D2E=      0 Chk=     43 Scr=      1
 Normal termination of Gaussian 16 at Sat Mar 22 18:40:24 2025.
