blah                                                                    
SP        RHF                                                         Aug-CC-pVDZ         
Number of atoms                            I                7
Info1-9                                    I   N=           9
          18          16           0           0           0         110
           1           1           2
Full Title                                 C   N=           1
blah        
Route                                      C   N=           2
# HF/aug-cc-pVDZ pop=nbo
Charge                                     I                0
Multiplicity                               I                1
Number of electrons                        I               24
Number of alpha electrons                  I               12
Number of beta electrons                   I               12
Number of basis functions                  I              105
Number of independent functions            I              105
Number of point charges in /Mol/           I                0
Number of translation vectors              I                0
Atomic numbers                             I   N=           7
           6           6           1           8           1           1
           1
Nuclear charges                            R   N=           7
  6.00000000E+00  6.00000000E+00  1.00000000E+00  8.00000000E+00  1.00000000E+00
  1.00000000E+00  1.00000000E+00
Current cartesian coordinates              R   N=          21
  6.81964364E-02  7.87163527E-01  1.88972612E-06  2.31502033E+00 -3.45120682E-01
  1.88972612E-06 -1.21046407E-01  2.82563566E+00 -7.55890450E-06 -2.13881281E+00
 -5.61388499E-01 -5.66917837E-06  3.99989258E+00  7.97976540E-01 -9.44863062E-06
  2.47215294E+00 -2.37883071E+00  5.66917837E-06 -3.53979718E+00  5.94073202E-01
  2.64561657E-05
Number of symbols in /Mol/                 I                0
Int Atom Types                             I   N=           7
           0           0           0           0           0           0
           0
Force Field                                I                0
Atom Types                                 C   N=           7
                                                            
                        
MM charges                                 R   N=           7
  0.00000000E+00  0.00000000E+00  0.00000000E+00  0.00000000E+00  0.00000000E+00
  0.00000000E+00  0.00000000E+00
Integer atomic weights                     I   N=           7
          12          12           1          16           1           1
           1
Real atomic weights                        R   N=           7
  1.20000000E+01  1.20000000E+01  1.00782504E+00  1.59949146E+01  1.00782504E+00
  1.00782504E+00  1.00782504E+00
Atom fragment info                         I   N=           7
           0           0           0           0           0           0
           0
Atom residue num                           I   N=           7
           0           0           0           0           0           0
           0
Nuclear spins                              I   N=           7
           0           0           1           0           1           1
           1
Nuclear ZEff                               R   N=           7
 -3.60000000E+00 -3.60000000E+00 -1.00000000E+00 -5.60000000E+00 -1.00000000E+00
 -1.00000000E+00 -1.00000000E+00
Nuclear ZNuc                               R   N=           7
  6.00000000E+00  6.00000000E+00  1.00000000E+00  8.00000000E+00  1.00000000E+00
  1.00000000E+00  1.00000000E+00
Nuclear QMom                               R   N=           7
  0.00000000E+00  0.00000000E+00  0.00000000E+00  0.00000000E+00  0.00000000E+00
  0.00000000E+00  0.00000000E+00
Nuclear GFac                               R   N=           7
  0.00000000E+00  0.00000000E+00  2.79284600E+00  0.00000000E+00  2.79284600E+00
  2.79284600E+00  2.79284600E+00
MicOpt                                     I   N=           7
          -1          -1          -1          -1          -1          -1
          -1
Number of residues                         I                0
Number of secondary structures             I                0
SymInf integers                            I   N=          26
           1           1           1           1           1           0
           0           0           0           0           0           0
           0           0           0           0           0           0
           0           0           0           0           0           0
           0           0
RotTr to input orientation                 R   N=          12
  1.00000000E+00  2.05873038E-07  0.00000000E+00 -2.05873038E-07  1.00000000E+00
  0.00000000E+00  0.00000000E+00  0.00000000E+00  1.00000000E+00  1.85037171E-17
  1.57477177E-07 -3.14954354E-07
Number of contracted shells                I               47
Number of primitive shells                 I               97
Pure/Cartesian d shells                    I                0
Pure/Cartesian f shells                    I                0
Highest angular momentum                   I                2
Largest degree of contraction              I                7
Shell types                                I   N=          47
           0           0           0           0           1           1
           1          -2          -2           0           0           0
           0           1           1           1          -2          -2
           0           0           0           1           1           0
           0           0           0           1           1           1
          -2          -2           0           0           0           1
           1           0           0           0           1           1
           0           0           0           1           1
Number of primitives per shell             I   N=          47
           7           7           1           1           3           1
           1           1           1           7           7           1
           1           3           1           1           1           1
           3           1           1           1           1           7
           7           1           1           3           1           1
           1           1           3           1           1           1
           1           3           1           1           1           1
           3           1           1           1           1
Shell to atom map                          I   N=          47
           1           1           1           1           1           1
           1           1           1           2           2           2
           2           2           2           2           2           2
           3           3           3           3           3           4
           4           4           4           4           4           4
           4           4           5           5           5           5
           5           6           6           6           6           6
           7           7           7           7           7
Primitive exponents                        R   N=          97
  6.66500000E+03  1.00000000E+03  2.28000000E+02  6.47100000E+01  2.10600000E+01
  7.49500000E+00  2.79700000E+00  6.66500000E+03  2.28000000E+02  6.47100000E+01
  2.10600000E+01  7.49500000E+00  2.79700000E+00  5.21500000E-01  1.59600000E-01
  4.69000000E-02  9.43900000E+00  2.00200000E+00  5.45600000E-01  1.51700000E-01
  4.04100000E-02  5.50000000E-01  1.51000000E-01  6.66500000E+03  1.00000000E+03
  2.28000000E+02  6.47100000E+01  2.10600000E+01  7.49500000E+00  2.79700000E+00
  6.66500000E+03  2.28000000E+02  6.47100000E+01  2.10600000E+01  7.49500000E+00
  2.79700000E+00  5.21500000E-01  1.59600000E-01  4.69000000E-02  9.43900000E+00
  2.00200000E+00  5.45600000E-01  1.51700000E-01  4.04100000E-02  5.50000000E-01
  1.51000000E-01  1.30100000E+01  1.96200000E+00  4.44600000E-01  1.22000000E-01
  2.97400000E-02  7.27000000E-01  1.41000000E-01  1.17200000E+04  1.75900000E+03
  4.00800000E+02  1.13700000E+02  3.70300000E+01  1.32700000E+01  5.02500000E+00
  1.17200000E+04  4.00800000E+02  1.13700000E+02  3.70300000E+01  1.32700000E+01
  5.02500000E+00  1.01300000E+00  3.02300000E-01  7.89600000E-02  1.77000000E+01
  3.85400000E+00  1.04600000E+00  2.75300000E-01  6.85600000E-02  1.18500000E+00
  3.32000000E-01  1.30100000E+01  1.96200000E+00  4.44600000E-01  1.22000000E-01
  2.97400000E-02  7.27000000E-01  1.41000000E-01  1.30100000E+01  1.96200000E+00
  4.44600000E-01  1.22000000E-01  2.97400000E-02  7.27000000E-01  1.41000000E-01
  1.30100000E+01  1.96200000E+00  4.44600000E-01  1.22000000E-01  2.97400000E-02
  7.27000000E-01  1.41000000E-01
Contraction coefficients                   R   N=          97
  6.93516317E-04  5.34150243E-03  2.71366714E-02  1.01992385E-01  2.75508636E-01
  4.51086433E-01  2.87565745E-01  7.73354740E-06  2.78072137E-04 -2.57875654E-03
 -8.95087684E-03 -1.06058855E-01 -1.31517686E-01  1.09948660E+00  1.00000000E+00
  1.00000000E+00  5.69792516E-02  3.13207212E-01  7.60376742E-01  1.00000000E+00
  1.00000000E+00  1.00000000E+00  1.00000000E+00  6.93516317E-04  5.34150243E-03
  2.71366714E-02  1.01992385E-01  2.75508636E-01  4.51086433E-01  2.87565745E-01
  7.73354740E-06  2.78072137E-04 -2.57875654E-03 -8.95087684E-03 -1.06058855E-01
 -1.31517686E-01  1.09948660E+00  1.00000000E+00  1.00000000E+00  5.69792516E-02
  3.13207212E-01  7.60376742E-01  1.00000000E+00  1.00000000E+00  1.00000000E+00
  1.00000000E+00  3.34987264E-02  2.34800801E-01  8.13682958E-01  1.00000000E+00
  1.00000000E+00  1.00000000E+00  1.00000000E+00  7.11864434E-04  5.48520199E-03
  2.79099296E-02  1.05133208E-01  2.84002490E-01  4.51673946E-01  2.73208126E-01
  7.69030046E-06  3.13484579E-04 -2.96614853E-03 -1.08753543E-02 -1.20753817E-01
 -1.06275264E-01  1.09597548E+00  1.00000000E+00  1.00000000E+00  6.26791663E-02
  3.33536566E-01  7.41239642E-01  1.00000000E+00  1.00000000E+00  1.00000000E+00
  1.00000000E+00  3.34987264E-02  2.34800801E-01  8.13682958E-01  1.00000000E+00
  1.00000000E+00  1.00000000E+00  1.00000000E+00  3.34987264E-02  2.34800801E-01
  8.13682958E-01  1.00000000E+00  1.00000000E+00  1.00000000E+00  1.00000000E+00
  3.34987264E-02  2.34800801E-01  8.13682958E-01  1.00000000E+00  1.00000000E+00
  1.00000000E+00  1.00000000E+00
Coordinates of each shell                  R   N=         141
  6.81965984E-02  7.87163356E-01  2.20468048E-06  6.81965984E-02  7.87163356E-01
  2.20468048E-06  6.81965984E-02  7.87163356E-01  2.20468048E-06  6.81965984E-02
  7.87163356E-01  2.20468048E-06  6.81965984E-02  7.87163356E-01  2.20468048E-06
  6.81965984E-02  7.87163356E-01  2.20468048E-06  6.81965984E-02  7.87163356E-01
  2.20468048E-06  6.81965984E-02  7.87163356E-01  2.20468048E-06  6.81965984E-02
  7.87163356E-01  2.20468048E-06  2.31502026E+00 -3.45121316E-01  2.20468048E-06
  2.31502026E+00 -3.45121316E-01  2.20468048E-06  2.31502026E+00 -3.45121316E-01
  2.20468048E-06  2.31502026E+00 -3.45121316E-01  2.20468048E-06  2.31502026E+00
 -3.45121316E-01  2.20468048E-06  2.31502026E+00 -3.45121316E-01  2.20468048E-06
  2.31502026E+00 -3.45121316E-01  2.20468048E-06  2.31502026E+00 -3.45121316E-01
  2.20468048E-06  2.31502026E+00 -3.45121316E-01  2.20468048E-06 -1.21045825E-01
  2.82563553E+00 -7.24395014E-06 -1.21045825E-01  2.82563553E+00 -7.24395014E-06
 -1.21045825E-01  2.82563553E+00 -7.24395014E-06 -1.21045825E-01  2.82563553E+00
 -7.24395014E-06 -1.21045825E-01  2.82563553E+00 -7.24395014E-06 -2.13881293E+00
 -5.61388216E-01 -5.35422402E-06 -2.13881293E+00 -5.61388216E-01 -5.35422402E-06
 -2.13881293E+00 -5.61388216E-01 -5.35422402E-06 -2.13881293E+00 -5.61388216E-01
 -5.35422402E-06 -2.13881293E+00 -5.61388216E-01 -5.35422402E-06 -2.13881293E+00
 -5.61388216E-01 -5.35422402E-06 -2.13881293E+00 -5.61388216E-01 -5.35422402E-06
 -2.13881293E+00 -5.61388216E-01 -5.35422402E-06 -2.13881293E+00 -5.61388216E-01
 -5.35422402E-06  3.99989275E+00  7.97975559E-01 -9.13367627E-06  3.99989275E+00
  7.97975559E-01 -9.13367627E-06  3.99989275E+00  7.97975559E-01 -9.13367627E-06
  3.99989275E+00  7.97975559E-01 -9.13367627E-06  3.99989275E+00  7.97975559E-01
 -9.13367627E-06  2.47215245E+00 -2.37883138E+00  5.98413273E-06  2.47215245E+00
 -2.37883138E+00  5.98413273E-06  2.47215245E+00 -2.37883138E+00  5.98413273E-06
  2.47215245E+00 -2.37883138E+00  5.98413273E-06  2.47215245E+00 -2.37883138E+00
  5.98413273E-06 -3.53979706E+00  5.94073773E-01  2.67711201E-05 -3.53979706E+00
  5.94073773E-01  2.67711201E-05 -3.53979706E+00  5.94073773E-01  2.67711201E-05
 -3.53979706E+00  5.94073773E-01  2.67711201E-05 -3.53979706E+00  5.94073773E-01
  2.67711201E-05
Num ILSW                                   I              100
ILSW                                       I   N=         100
           0           0           0           0           2           0
           0           0           0           0           0          -1
           5           0           0           0           0           0
           0           0           1           0           0           0
           1           0           0           0           0           0
           0           0      100000           0          -1           0
           0           0           0           0           0           0
           0           0           0           1           0           0
           0 -2000000000           1           0           0           0
           0           0           4          52           0           0
           0           0           0           0           0           0
           0           0           0           0           0           1
           0           0           0           0           0           0
           0           0           0           0           0           0
           0           0           0           0           0           0
           0           0           0           0           0           0
           0           0           0           0
Num RLSW                                   I               52
RLSW                                       R   N=          52
  1.00000000E+00  1.00000000E+00  1.00000000E+00  1.00000000E+00  1.00000000E+00
  0.00000000E+00  0.00000000E+00  1.00000000E+00  0.00000000E+00  0.00000000E+00
  0.00000000E+00  0.00000000E+00  1.00000000E+00  0.00000000E+00  0.00000000E+00
  0.00000000E+00  0.00000000E+00  1.00000000E+00  0.00000000E+00  0.00000000E+00
  0.00000000E+00  0.00000000E+00  1.00000000E+00  0.00000000E+00  0.00000000E+00
  0.00000000E+00  0.00000000E+00  1.00000000E+00  0.00000000E+00  0.00000000E+00
  0.00000000E+00  0.00000000E+00  1.00000000E+00  0.00000000E+00  0.00000000E+00
  0.00000000E+00  0.00000000E+00  0.00000000E+00  1.00000000E+00  1.00000000E+00
  0.00000000E+00  1.00000000E+00  0.00000000E+00  0.00000000E+00  0.00000000E+00
  0.00000000E+00  0.00000000E+00  0.00000000E+00  0.00000000E+00  0.00000000E+00
  0.00000000E+00  0.00000000E+00
MxBond                                     I                3
NBond                                      I   N=           7
           3           3           1           2           1           1
           1
IBond                                      I   N=          21
           2           3           4           1           5           6
           1           0           0           1           7           0
           2           0           0           2           0           0
           4           0           0
RBond                                      R   N=          21
  2.00000000E+00  1.00000000E+00  1.50000000E+00  2.00000000E+00  1.00000000E+00
  1.00000000E+00  1.00000000E+00  0.00000000E+00  0.00000000E+00  1.50000000E+00
  1.00000000E+00  0.00000000E+00  1.00000000E+00  0.00000000E+00  0.00000000E+00
  1.00000000E+00  0.00000000E+00  0.00000000E+00  1.00000000E+00  0.00000000E+00
  0.00000000E+00
Virial Ratio                               R      2.001360656775511E+00
SCF Energy                                 R     -1.529172630035247E+02
Total Energy                               R     -1.529172630035247E+02
RMS Density                                R      1.409734156454923E-09
Job Status                                 I                1
Nuclear derivative order                   I                0
External E-field                           R   N=          35
  0.00000000E+00  0.00000000E+00  0.00000000E+00  0.00000000E+00  0.00000000E+00
  0.00000000E+00  0.00000000E+00  0.00000000E+00  0.00000000E+00  0.00000000E+00
  0.00000000E+00  0.00000000E+00  0.00000000E+00  0.00000000E+00  0.00000000E+00
  0.00000000E+00  0.00000000E+00  0.00000000E+00  0.00000000E+00  0.00000000E+00
  0.00000000E+00  0.00000000E+00  0.00000000E+00  0.00000000E+00  0.00000000E+00
  0.00000000E+00  0.00000000E+00  0.00000000E+00  0.00000000E+00  0.00000000E+00
  0.00000000E+00  0.00000000E+00  0.00000000E+00  0.00000000E+00  0.00000000E+00
IOpCl                                      I                0
IROHF                                      I                0
Alpha Orbital Energies                     R   N=         105
 -2.06001421E+01 -1.13040047E+01 -1.12186872E+01 -1.40539561E+00 -1.02690540E+00
 -7.98328340E-01 -7.43116153E-01 -6.21970600E-01 -5.76243750E-01 -5.73820195E-01
 -5.22108432E-01 -3.45781718E-01  3.14477702E-02  4.88687156E-02  5.37049225E-02
  7.02181952E-02  1.10806572E-01  1.18239033E-01  1.26012065E-01  1.29345462E-01
  1.55121745E-01  1.77796311E-01  1.97446859E-01  2.07313575E-01  2.10704539E-01
  2.26311701E-01  2.37132298E-01  2.51138019E-01  3.07322283E-01  3.09607438E-01
  3.57558668E-01  3.60299907E-01  3.78255338E-01  4.04940501E-01  4.05170120E-01
  4.22875806E-01  4.46319157E-01  4.52083894E-01  5.00177327E-01  5.18409161E-01
  5.27464836E-01  5.43367551E-01  5.84513911E-01  6.01034958E-01  6.28471799E-01
  6.31400883E-01  6.42547806E-01  6.46840636E-01  6.64780092E-01  6.77489382E-01
  6.92641488E-01  7.15005475E-01  7.24310541E-01  7.91918277E-01  8.40183182E-01
  8.81031617E-01  8.82403633E-01  9.16608951E-01  9.62391039E-01  1.02059676E+00
  1.06902736E+00  1.18648840E+00  1.20703553E+00  1.21200477E+00  1.22229948E+00
  1.23256649E+00  1.28823013E+00  1.49879542E+00  1.51571194E+00  1.52101268E+00
  1.55089107E+00  1.57671013E+00  1.63106803E+00  1.68097257E+00  1.74417806E+00
  1.78782842E+00  1.79954839E+00  1.88709897E+00  1.91563208E+00  1.98288285E+00
  2.02787888E+00  2.08771396E+00  2.09213438E+00  2.11704096E+00  2.13832701E+00
  2.15710116E+00  2.19797558E+00  2.35047073E+00  2.38220708E+00  2.43777200E+00
  2.46211389E+00  2.56015762E+00  2.67993663E+00  2.70080158E+00  2.79834339E+00
  2.85203231E+00  2.97802957E+00  3.17598163E+00  3.33490875E+00  3.49663052E+00
  3.69943760E+00  3.74656869E+00  3.79474118E+00  3.94842147E+00  4.34741306E+00
Alpha MO coefficients                      R   N=       11025
  9.75293323E-06  3.26684967E-04  2.69220649E-03  5.95176776E-03 -5.01884979E-04
 -2.49927623E-04 -1.83778570E-09 -6.87101222E-03 -1.69714897E-03 -1.46862295E-08
 -7.17434860E-04 -7.99868031E-04  2.36781961E-09 -2.07421872E-04  5.87656397E-10
 -2.02401669E-09 -8.33073082E-05 -1.31970864E-04 -9.57916934E-04 -1.56090072E-09
  1.43940657E-08  1.20852116E-03  3.75358222E-03  7.20404057E-06 -5.21696905E-05
  4.84280791E-03 -2.30287635E-03  1.13573727E-04 -4.14391088E-05 -3.24922231E-11
 -1.70331603E-03  4.84835140E-04  7.42574513E-09  7.50102730E-04  1.35219854E-04
 -2.15578452E-09  3.66959757E-05 -6.91388155E-11  6.40454412E-10 -1.59795290E-04
 -2.06607835E-05  5.05551280E-04 -6.75951808E-09 -5.45914887E-09  6.97416623E-04
 -1.74576786E-04 -2.94544754E-04  1.63339940E-03 -2.16185265E-04  7.34801632E-05
  2.86417605E-04 -1.31580266E-09 -8.05442484E-04 -5.13930634E-04 -3.89223292E-09
  9.97259324E-01  1.70578726E-02 -1.14178395E-02 -7.95354673E-03  2.46911305E-04
  1.62185062E-03  2.88387162E-08 -2.63181336E-03 -2.65710082E-03 -3.17051469E-08
 -8.69675478E-04 -1.15888718E-03 -1.08901196E-08 -1.59300674E-05 -2.06215434E-09
  1.37301470E-09 -8.99908087E-06 -6.08038874E-05  3.08449884E-04 -5.49818388E-10
 -7.53550063E-09 -1.80893168E-04 -4.82893688E-04  1.06850791E-04 -1.01696647E-03
 -4.85378257E-05  2.60908892E-05 -1.81037898E-05  8.74550572E-10  5.29156337E-04
  2.02349751E-04  2.14756927E-09  7.08734203E-05  1.32652151E-03 -1.62741337E-04
 -1.84123698E-05 -5.33809954E-05 -3.72102208E-10 -1.24676184E-04  6.02357085E-05
 -5.60722864E-09  1.52527279E-04  1.86190266E-03 -2.93001288E-04 -2.38261357E-04
  3.32162883E-04  9.57964059E-09  3.16964258E-04 -6.30153523E-04 -1.77159292E-08
  9.97604270E-01  2.05860557E-02 -2.89728673E-02 -7.87926532E-03 -1.62119157E-03
 -5.21991801E-04 -2.78040826E-09 -1.18951792E-02  1.59290010E-03  1.52677411E-08
 -1.65263127E-03 -9.27551348E-04  7.42247176E-09 -8.15808706E-04  1.81859916E-09
 -1.61222540E-09  3.05289625E-04  1.86279431E-04  2.45945727E-03  9.04444856E-09
 -9.71657407E-09 -1.45458210E-03  2.67954703E-03  9.57382113E-03 -1.42021494E-04
  1.39364270E-02  3.82900918E-03 -1.70019527E-04  6.00316307E-05 -6.80616393E-10
 -1.17802669E-02  6.56882828E-03 -9.05241152E-09 -1.46701576E-03  1.05212936E-03
 -9.50539527E-10  4.45449744E-05  1.78428738E-09  1.08193511E-10  1.76879735E-04
 -2.06362127E-04 -6.19330096E-04  1.18246350E-08  3.29446694E-09  8.06471608E-04
 -1.57035521E-03  3.84072369E-04  7.20907276E-03  1.47668327E-03  7.34880535E-05
  2.44182027E-04 -8.86440425E-11 -1.20529185E-04 -2.15081794E-03  2.13624535E-08
 -6.62046217E-05  8.15824892E-04 -1.93231408E-03 -2.73969565E-03  4.04731908E-04
  1.98453742E-04  6.23699146E-10 -2.30809479E-03 -1.31003856E-03 -5.75863457E-09
 -1.18332398E-03 -2.74635323E-04 -2.09453099E-09  7.61033426E-05  2.06863133E-09
 -1.33413959E-09 -2.77146879E-05  2.92529027E-05  4.98061792E-04 -1.59990956E-08
 -2.67167411E-09 -2.08338576E-04 -1.25225457E-03  1.12009859E-04  4.83849957E-03
  5.36122763E-04 -5.96721240E-05 -6.56530784E-06 -5.99846351E-11 -1.01027313E-03
 -1.04915624E-03  7.05125871E-09  1.08869292E-04  5.44457425E-03  3.73771065E-04
 -4.66082038E-05  3.98695523E-05  1.89464260E-10 -7.12145655E-05  1.70523821E-03
 -1.91351702E-09 -2.93499349E-04  9.78328735E-05 -8.50760771E-04  2.89889977E-04
  1.33359598E-04 -1.67043102E-09  5.01223343E-05  3.97474469E-04  2.46219667E-09
 -1.01475933E-02 -4.55861734E-04  1.28390040E-02  1.18729400E-02  7.99724519E-05
 -3.88007770E-05 -4.15829671E-10  7.90679036E-03 -4.92144496E-03  8.62354108E-09
  3.57431182E-03 -2.57898044E-03  3.90708948E-09  1.87550274E-04 -6.51552561E-10
  1.22152408E-09  3.87107819E-06 -1.17525816E-05 -3.66358704E-04  3.27423870E-09
 -2.17680912E-10  2.95248210E-04 -8.12306873E-04  9.97548199E-01  2.11375087E-02
 -3.54457490E-02 -1.91252446E-02  9.84384868E-06  3.66685088E-05 -2.05349511E-09
  4.71526451E-03 -2.12683012E-03  1.04550618E-08  2.38773257E-03 -1.00087480E-03
  1.70482456E-09 -6.53448369E-04 -2.83313363E-09 -3.29031459E-09  4.16460669E-05
 -7.95298224E-05  2.31897106E-03  8.94281646E-09  4.29729609E-09 -1.35294216E-03
  1.40062345E-03  7.17028707E-05  2.65651612E-03  1.47652315E-03  3.98342714E-06
 -6.70798821E-05  2.17158111E-10 -2.81434937E-04 -8.20190607E-04  5.13483612E-09
 -2.93300313E-06 -1.24001650E-04  2.98654378E-04  2.05700981E-04 -3.23356263E-05
 -1.51988536E-05  1.22165369E-10 -3.58671159E-07  2.76123661E-04 -5.39901935E-10
  1.21570446E-04  4.04524061E-04 -6.65827919E-09 -4.09018442E-06  1.78659569E-10
 -2.04304512E-12  3.34069126E-05  1.75331975E-05 -1.19991437E-04  2.97624251E-10
  2.16252468E-10 -3.61634616E-05 -6.62485597E-05  2.89247059E-04  9.56471969E-03
  2.54882729E-04  2.89610409E-04  2.13266977E-04 -2.29893378E-09 -2.26204416E-03
 -1.96275964E-03  1.83829937E-08  2.93902847E-04  9.18723266E-03  4.82944862E-04
 -1.12531989E-05 -3.43435894E-04  1.39433885E-10  6.23920414E-05  2.91100079E-03
 -6.19842709E-09 -1.35406030E-04  7.01339646E-04  5.75770328E-04  1.78236957E-05
  2.24553522E-05  2.76448779E-09  3.65293336E-04 -6.78638937E-05  4.60159359E-10
 -7.33610890E-02  1.35421060E-01  4.46562496E-02 -1.62344602E-01 -9.13048716E-02
 -5.54320586E-02 -1.91756464E-07  9.48900998E-02  3.31224272E-02  3.10440957E-07
 -2.47657192E-02  3.03421881E-02 -2.32439855E-08 -1.33312663E-02  2.90397663E-09
  1.13408296E-07  1.91740433E-02  2.04898033E-02  1.29727324E-02 -1.45245061E-07
 -7.80618140E-08  7.10030303E-03 -6.97365342E-02 -1.48554874E-02  2.73721504E-02
 -1.08248142E-01  1.17383228E-01 -2.37392763E-02  4.48722910E-03 -2.04683214E-08
  1.05440841E-02 -1.99902433E-02  5.93046084E-08 -3.04424219E-02  9.46150281E-03
  2.40590346E-08 -6.83682191E-04 -2.70216290E-08 -6.01191211E-09  9.82585649E-03
  4.92020441E-05 -9.90299591E-03  1.80880274E-07  2.30201455E-07  2.64370845E-03
  9.21497366E-03  3.66091415E-02 -2.22548712E-02 -1.10477135E-02 -1.41735913E-03
 -1.02919898E-02  2.59658971E-08  2.27110213E-02  1.01007175E-02 -5.61291911E-08
 -2.03058324E-01  4.18761997E-01  4.65251721E-01  1.06243454E-01  2.00113930E-02
  8.00798170E-02  1.25957604E-06  8.66606362E-02  1.72951048E-02 -1.42986236E-07
  1.40060462E-02  1.26000564E-02  1.93675690E-07 -8.82238322E-03 -1.03109804E-07
  2.05401918E-07  2.73683604E-03  1.81209426E-03  9.89554184E-03  6.02019520E-07
 -4.42511729E-07  8.98171846E-04  2.32691703E-02  2.61256899E-03  2.41523496E-02
  1.03884130E-02 -1.93791245E-03  1.17586836E-03 -1.22180476E-08 -1.66817513E-02
 -2.81970511E-03 -1.53759235E-07  1.00966567E-02 -3.52564622E-03  1.00657737E-02
  9.85414343E-04  3.79309834E-03  4.25246437E-09  7.96183530E-04  3.86935664E-03
  1.29422280E-07  1.96143354E-01  4.53368731E-03 -1.28382090E-03  3.17558905E-02
 -2.26874410E-02 -6.82220182E-07  6.47318989E-03 -7.34710316E-03 -1.34998920E-07
 -1.35869204E-01  2.77699275E-01  1.03257160E-01 -4.42477071E-03  1.48835063E-01
 -4.50526086E-02 -2.31924053E-07  4.37842891E-02  2.85280428E-03 -5.01362817E-08
 -4.95000442E-03  1.93128753E-03  6.08979366E-08 -8.21223611E-03  1.60476170E-08
  1.81892378E-08  5.16753454E-03 -1.64554425E-02 -1.10917670E-03 -1.64550576E-07
  6.63901548E-08  2.99836421E-02  2.45731031E-02 -1.53527249E-01  2.97491573E-01
  1.86795142E-01 -1.36275049E-02 -1.01362829E-01  5.65908728E-02 -1.79397819E-07
 -6.29593207E-02 -1.63814848E-03  1.18014411E-07  2.87851595E-03  3.81475389E-03
 -3.17754710E-08 -8.32184317E-03  3.01715104E-08  3.64938162E-09  8.97064907E-03
 -1.40600609E-02  8.78794188E-03 -1.17859069E-07  6.95625381E-08  2.77104230E-02
 -1.12096886E-02  1.07182545E-01  5.16862541E-02  3.50707682E-04  3.31030557E-03
 -1.44109408E-02  6.50229803E-08 -1.38206327E-02 -9.42039272E-03  9.37564142E-08
  4.74291368E-02 -1.06684349E-01 -1.11375289E-01 -2.37023350E-02  1.23629303E-01
 -4.30465379E-03 -7.18195890E-07  5.59732045E-02  1.37989335E-02  7.87088980E-09
  7.32135457E-03 -1.00441058E-02 -1.80163295E-07 -2.05662101E-04  1.48695687E-07
 -8.69633154E-08  2.96333399E-03  8.60595684E-03 -1.07849612E-02 -1.38911513E-07
  1.87331560E-07  6.74260404E-03 -1.53753621E-03  1.23726026E-01  2.30270063E-02
  9.50884752E-04 -1.70912854E-02 -8.02793085E-03  1.06521828E-07 -1.45656307E-03
  5.83114520E-03  1.26576852E-07  1.15572643E-01  3.48631053E-02  6.56946912E-03
 -4.70076560E-03  1.75699663E-02 -4.20953154E-08 -1.22898665E-03  6.73078279E-04
 -1.65178552E-10 -1.18144049E-01  3.02884848E-03  1.30426330E-03 -1.35325616E-02
  1.36204136E-02  3.82605344E-07 -6.79570254E-04 -3.33715119E-03 -4.09635070E-08
  1.00600670E-01 -2.17391914E-01 -3.09595580E-01  3.58303046E-01  1.64839217E-01
 -7.55433930E-02  1.05944534E-06 -1.15634234E-01  1.00928485E-01 -3.00293639E-08
  7.76763661E-02 -5.64184039E-02  1.85048699E-08  8.82821699E-03 -1.96959273E-07
 -7.33830640E-08  5.71340175E-03 -2.09545655E-02 -1.17803832E-02  1.30801402E-07
 -1.38156075E-07 -2.30502010E-02  5.47471274E-02 -1.11385478E-01  2.17465087E-01
  2.93556743E-01 -3.43832729E-01  1.08085321E-01 -5.43466439E-02 -5.17108999E-10
 -1.46802339E-01  5.51081489E-02  1.17207369E-07  6.48805897E-02 -3.46374480E-02
 -5.46786153E-08 -4.99345297E-03 -1.06005894E-07 -2.32600277E-08 -6.63419526E-03
  8.64502743E-03  7.49493205E-03  2.82318637E-07  3.57820767E-07  6.00789659E-02
 -5.37874937E-02 -1.94918247E-01 -1.81674162E-01  2.79309156E-02  2.88240619E-03
  1.89227460E-02 -7.84311443E-08 -1.50989041E-02  3.50993390E-02 -3.35632289E-07
 -3.27984594E-02  8.09945895E-02  5.83949451E-02 -3.40891869E-02 -2.77703355E-01
 -9.04737103E-02  2.16414384E-06 -1.46510273E-01 -8.16107557E-02  6.73953408E-07
 -4.18821078E-02  8.90173557E-03  1.86134274E-07  2.40364370E-03 -2.56389996E-07
  1.11994798E-07  5.60075043E-04 -1.86561029E-02  1.09684487E-02  1.44984022E-07
 -3.37173288E-07  7.05837665E-03  2.67088974E-04  1.76306605E-01  1.57289603E-01
 -1.12719371E-02 -1.37175024E-02 -1.18692568E-02  1.06331975E-07 -3.51054018E-02
  4.60815329E-03  7.62194537E-08  1.78027527E-01  1.71920212E-01 -1.29813070E-02
  1.99064532E-03  1.81461258E-02 -1.29480673E-08 -2.23578274E-02  2.70231596E-02
  3.39609770E-10  1.73636724E-01 -7.62719240E-03 -3.46919369E-03  1.32753751E-02
 -1.95768717E-02 -4.22467055E-07 -4.13190282E-03  1.14796957E-02  2.24969463E-07
  3.15987206E-02 -5.87779647E-02  9.68285660E-03  6.21832184E-02 -6.90143348E-02
 -2.88899736E-01 -6.99849534E-07 -3.92550114E-02  2.06438382E-02 -5.59542135E-07
 -1.06878340E-02  2.02468244E-02 -9.80589359E-08 -3.64042587E-03  2.10055086E-07
  2.34483086E-07  2.50472522E-04  2.67257746E-02  1.34576978E-02  6.76770423E-07
 -8.93187085E-07 -3.68703126E-02 -1.35761209E-02 -1.05793661E-03  1.10228373E-02
  5.03603347E-02 -1.76791094E-02 -5.70438809E-02 -1.13002661E-01 -4.05317284E-08
 -3.20904158E-02 -1.48066188E-02 -9.15075138E-07  6.58713643E-03 -7.41255511E-03
  7.57293917E-08  5.32157666E-04  1.15024048E-07 -1.67208299E-08  4.85738998E-03
  3.18223985E-03 -4.11973844E-04  1.80144731E-07  1.29932088E-08  9.15633510E-03
  7.57439975E-03 -2.45854992E-01 -2.38480514E-01 -2.40257475E-02 -4.49838294E-03