 Entering Gaussian System, Link 0=g16
 Input=enoloneto2_mp2_avdz_opt_anharm.gjf
 Output=enoloneto2_mp2_avdz_opt_anharm.log
 Initial command:
 /sw/contrib/chem-src/g16/c01/g16/l1.exe "/scr/Gau-12950.inp" -scrdir="/scr/"
 Entering Link 1 = /sw/contrib/chem-src/g16/c01/g16/l1.exe PID=     12951.
  
 Copyright (c) 1988-2019, Gaussian, Inc.  All Rights Reserved.
  
 This is part of the Gaussian(R) 16 program.  It is based on
 the Gaussian(R) 09 system (copyright 2009, Gaussian, Inc.),
 the Gaussian(R) 03 system (copyright 2003, Gaussian, Inc.),
 the Gaussian(R) 98 system (copyright 1998, Gaussian, Inc.),
 the Gaussian(R) 94 system (copyright 1995, Gaussian, Inc.),
 the Gaussian 92(TM) system (copyright 1992, Gaussian, Inc.),
 the Gaussian 90(TM) system (copyright 1990, Gaussian, Inc.),
 the Gaussian 88(TM) system (copyright 1988, Gaussian, Inc.),
 the Gaussian 86(TM) system (copyright 1986, Carnegie Mellon
 University), and the Gaussian 82(TM) system (copyright 1983,
 Carnegie Mellon University). Gaussian is a federally registered
 trademark of Gaussian, Inc.
  
 This software contains proprietary and confidential information,
 including trade secrets, belonging to Gaussian, Inc.
  
 This software is provided under written license and may be
 used, copied, transmitted, or stored only in accord with that
 written license.
  
 The following legend is applicable only to US Government
 contracts under FAR:
  
                    RESTRICTED RIGHTS LEGEND
  
 Use, reproduction and disclosure by the US Government is
 subject to restrictions as set forth in subparagraphs (a)
 and (c) of the Commercial Computer Software - Restricted
 Rights clause in FAR 52.227-19.
  
 Gaussian, Inc.
 340 Quinnipiac St., Bldg. 40, Wallingford CT 06492
  
  
 ---------------------------------------------------------------
 Warning -- This program may not be used in any manner that
 competes with the business of Gaussian, Inc. or will provide
 assistance to any competitor of Gaussian, Inc.  The licensee
 of this program is prohibited from giving any competitor of
 Gaussian, Inc. access to this program.  By using this program,
 the user acknowledges that Gaussian, Inc. is engaged in the
 business of creating and licensing software in the field of
 computational chemistry and represents and warrants to the
 licensee that it is not a competitor of Gaussian, Inc. and that
 it will not use this program in any manner prohibited above.
 ---------------------------------------------------------------
  

 Cite this work as:
 Gaussian 16, Revision C.01,
 M. J. Frisch, G. W. Trucks, H. B. Schlegel, G. E. Scuseria, 
 M. A. Robb, J. R. Cheeseman, G. Scalmani, V. Barone, 
 G. A. Petersson, H. Nakatsuji, X. Li, M. Caricato, A. V. Marenich, 
 J. Bloino, B. G. Janesko, R. Gomperts, B. Mennucci, H. P. Hratchian, 
 J. V. Ortiz, A. F. Izmaylov, J. L. Sonnenberg, D. Williams-Young, 
 F. Ding, F. Lipparini, F. Egidi, J. Goings, B. Peng, A. Petrone, 
 T. Henderson, D. Ranasinghe, V. G. Zakrzewski, J. Gao, N. Rega, 
 G. Zheng, W. Liang, M. Hada, M. Ehara, K. Toyota, R. Fukuda, 
 J. Hasegawa, M. Ishida, T. Nakajima, Y. Honda, O. Kitao, H. Nakai, 
 T. Vreven, K. Throssell, J. A. Montgomery, Jr., J. E. Peralta, 
 F. Ogliaro, M. J. Bearpark, J. J. Heyd, E. N. Brothers, K. N. Kudin, 
 V. N. Staroverov, T. A. Keith, R. Kobayashi, J. Normand, 
 K. Raghavachari, A. P. Rendell, J. C. Burant, S. S. Iyengar, 
 J. Tomasi, M. Cossi, J. M. Millam, M. Klene, C. Adamo, R. Cammi, 
 J. W. Ochterski, R. L. Martin, K. Morokuma, O. Farkas, 
 J. B. Foresman, and D. J. Fox, Gaussian, Inc., Wallingford CT, 2019.
 
 ******************************************
 Gaussian 16:  EM64L-G16RevC.01  3-Jul-2019
                22-Mar-2025 
 ******************************************
 %nprocshared=40
 Will use up to   40 processors via shared memory.
 %mem=50gb
 ----------------------------------------------
 # MP2/aug-cc-pVDZ opt freq=(vibrot,anharmonic)
 ----------------------------------------------
 1/18=20,19=15,38=1,80=1/1,3;
 2/9=110,12=2,17=6,18=5,40=1/2;
 3/5=16,7=10,11=9,25=1,30=1,71=1/1,2,3;
 4//1;
 5/5=2,38=5/2;
 8/6=4,10=1/1;
 9/15=2,16=-3/6;
 10/5=1/2;
 6/7=2,8=2,9=2,10=2/1;
 7/12=2/1,2,3,16;
 1/18=20,19=15,80=1/3(2);
 2/9=110/2;
 99//99;
 2/9=110/2;
 3/5=16,7=10,11=9,25=1,30=1,71=1/1,2,3;
 4/5=5,16=3,69=1/1;
 5/5=2,38=5/2;
 8/6=4,10=1/1;
 9/15=2,16=-3/6;
 10/5=1/2;
 7/12=2/1,2,3,16;
 1/18=20,19=15,80=1/3(-8);
 2/9=110/2;
 6/7=2,8=2,9=2,10=2/1;
 99/9=10/99;
 ----
 blah
 ----
 Symbolic Z-matrix:
 Charge =  0 Multiplicity = 1
 C                    -0.65765   0.83557  -0.1147 
 C                    -1.33758   0.48857  -1.20814 
 H                    -0.79671   0.39794   0.86612 
 O                     0.30491   1.80778  -0.14669 
 C                    -2.36682  -0.5625   -1.13614 
 H                     0.67895   1.90962   0.74721 
 O                    -3.0069   -0.90206  -2.12317 
 H                    -1.16781   0.95171  -2.17188 
 H                    -2.52753  -1.02406  -0.14774 
 

 GradGradGradGradGradGradGradGradGradGradGradGradGradGradGradGradGradGrad
 Berny optimization.
 Initialization pass.
                           ----------------------------
                           !    Initial Parameters    !
                           ! (Angstroms and Degrees)  !
 --------------------------                            --------------------------
 ! Name  Definition              Value          Derivative Info.                !
 --------------------------------------------------------------------------------
 ! R1    R(1,2)                  1.3335         estimate D2E/DX2                !
 ! R2    R(1,3)                  1.083          estimate D2E/DX2                !
 ! R3    R(1,4)                  1.3685         estimate D2E/DX2                !
 ! R4    R(2,5)                  1.4728         estimate D2E/DX2                !
 ! R5    R(2,8)                  1.0826         estimate D2E/DX2                !
 ! R6    R(4,6)                  0.9743         estimate D2E/DX2                !
 ! R7    R(5,7)                  1.2244         estimate D2E/DX2                !
 ! R8    R(5,9)                  1.1026         estimate D2E/DX2                !
 ! A1    A(2,1,3)              124.8884         estimate D2E/DX2                !
 ! A2    A(2,1,4)              121.6227         estimate D2E/DX2                !
 ! A3    A(3,1,4)              113.4889         estimate D2E/DX2                !
 ! A4    A(1,2,5)              120.1268         estimate D2E/DX2                !
 ! A5    A(1,2,8)              122.5907         estimate D2E/DX2                !
 ! A6    A(5,2,8)              117.2825         estimate D2E/DX2                !
 ! A7    A(1,4,6)              108.8341         estimate D2E/DX2                !
 ! A8    A(2,5,7)              121.5875         estimate D2E/DX2                !
 ! A9    A(2,5,9)              116.3846         estimate D2E/DX2                !
 ! A10   A(7,5,9)              122.0278         estimate D2E/DX2                !
 ! D1    D(3,1,2,5)             -0.0001         estimate D2E/DX2                !
 ! D2    D(3,1,2,8)           -179.9999         estimate D2E/DX2                !
 ! D3    D(4,1,2,5)            179.9998         estimate D2E/DX2                !
 ! D4    D(4,1,2,8)              0.0            estimate D2E/DX2                !
 ! D5    D(2,1,4,6)           -179.9981         estimate D2E/DX2                !
 ! D6    D(3,1,4,6)              0.0018         estimate D2E/DX2                !
 ! D7    D(1,2,5,7)           -179.9992         estimate D2E/DX2                !
 ! D8    D(1,2,5,9)              0.0007         estimate D2E/DX2                !
 ! D9    D(8,2,5,7)              0.0007         estimate D2E/DX2                !
 ! D10   D(8,2,5,9)           -179.9994         estimate D2E/DX2                !
 --------------------------------------------------------------------------------
 Trust Radius=3.00D-01 FncErr=1.00D-07 GrdErr=1.00D-07 EigMax=2.50D+02 EigMin=1.00D-04
 Number of steps in this run=     38 maximum allowed number of steps=    100.
 GradGradGradGradGradGradGradGradGradGradGradGradGradGradGradGradGradGrad

                          Input orientation:                          
 ---------------------------------------------------------------------
 Center     Atomic      Atomic             Coordinates (Angstroms)
 Number     Number       Type             X           Y           Z
 ---------------------------------------------------------------------
      1          6           0       -0.657652    0.835569   -0.114701
      2          6           0       -1.337579    0.488568   -1.208136
      3          1           0       -0.796712    0.397941    0.866115
      4          8           0        0.304910    1.807778   -0.146695
      5          6           0       -2.366824   -0.562503   -1.136135
      6          1           0        0.678955    1.909620    0.747215
      7          8           0       -3.006896   -0.902063   -2.123175
      8          1           0       -1.167806    0.951707   -2.171882
      9          1           0       -2.527526   -1.024061   -0.147742
 ---------------------------------------------------------------------
                    Distance matrix (angstroms):
                    1          2          3          4          5
     1  C    0.000000
     2  C    1.333533   0.000000
     3  H    1.082985   2.145523   0.000000
     4  O    1.368481   2.358971   2.055967   0.000000
     5  C    2.432941   1.472848   2.719690   3.706129   0.000000
     6  H    1.919115   3.147887   2.115870   0.974348   4.351456
     7  O    3.545741   2.357492   3.938372   4.713573   1.224434
     8  H    2.122673   1.082648   3.110273   2.646344   2.191631
     9  H    2.637375   2.197375   2.458803   4.005248   1.102625
                    6          7          8          9
     6  H    0.000000
     7  O    5.452540   0.000000
     8  H    3.584585   2.611721   0.000000
     9  H    4.437223   2.036422   3.138414   0.000000
 Stoichiometry    C3H4O2
 Framework group  C1[X(C3H4O2)]
 Deg. of freedom    21
 Full point group                 C1      NOp   1
 Largest Abelian subgroup         C1      NOp   1
 Largest concise Abelian subgroup C1      NOp   1
                         Standard orientation:                         
 ---------------------------------------------------------------------
 Center     Atomic      Atomic             Coordinates (Angstroms)
 Number     Number       Type             X           Y           Z
 ---------------------------------------------------------------------
      1          6           0        1.085494    0.349271   -0.000002
      2          6           0       -0.055709   -0.340631   -0.000006
      3          1           0        1.156019    1.429957    0.000002
      4          8           0        2.302396   -0.276741   -0.000000
      5          6           0       -1.347382    0.367086   -0.000004
      6          1           0        3.003954    0.399403    0.000034
      7          8           0       -2.411030   -0.239456    0.000007
      8          1           0       -0.082843   -1.422939   -0.000009
      9          1           0       -1.302477    1.468797   -0.000011
 ---------------------------------------------------------------------
 Rotational constants (GHZ):          38.8814717           2.2382745           2.1164384
 Standard basis: Aug-CC-pVDZ (5D, 7F)
 There are   161 symmetry adapted cartesian basis functions of A   symmetry.
 There are   151 symmetry adapted basis functions of A   symmetry.
   151 basis functions,   259 primitive gaussians,   161 cartesian basis functions
    19 alpha electrons       19 beta electrons
       nuclear repulsion energy       153.1604228125 Hartrees.
 NAtoms=    9 NActive=    9 NUniq=    9 SFac= 1.00D+00 NAtFMM=   60 NAOKFM=F Big=F
 Integral buffers will be    131072 words long.
 Raffenetti 1 integral format.
 Two-electron integral symmetry is turned on.
 One-electron integrals computed using PRISM.
 NBasis=   151 RedAO= T EigKep=  2.69D-05  NBF=   151
 NBsUse=   151 1.00D-06 EigRej= -1.00D+00 NBFU=   151
 ExpMin= 2.97D-02 ExpMax= 1.17D+04 ExpMxC= 4.01D+02 IAcc=3 IRadAn=         5 AccDes= 0.00D+00
 Harris functional with IExCor=  205 and IRadAn=       5 diagonalized for initial guess.
 HarFok:  IExCor=  205 AccDes= 0.00D+00 IRadAn=         5 IDoV= 1 UseB2=F ITyADJ=14
 ICtDFT=  3500011 ScaDFX=  1.000000  1.000000  1.000000  1.000000
 FoFCou: FMM=F IPFlag=           0 FMFlag=      100000 FMFlg1=           0
         NFxFlg=           0 DoJE=T BraDBF=F KetDBF=T FulRan=T
         wScrn=  0.000000 ICntrl=       500 IOpCl=  0 I1Cent=   200000004 NGrid=           0
         NMat0=    1 NMatS0=      1 NMatT0=    0 NMatD0=    1 NMtDS0=    0 NMtDT0=    0
 Petite list used in FoFCou.
 Keep R1 ints in memory in canonical form, NReq=74562169.
 Requested convergence on RMS density matrix=1.00D-08 within 128 cycles.
 Requested convergence on MAX density matrix=1.00D-06.
 Requested convergence on             energy=1.00D-06.
 No special actions if energy rises.
 SCF Done:  E(RHF) =  -265.663717670     A.U. after   14 cycles
            NFock= 14  Conv=0.69D-08     -V/T= 2.0017
 ExpMin= 2.97D-02 ExpMax= 1.17D+04 ExpMxC= 4.01D+02 IAcc=3 IRadAn=         5 AccDes= 0.00D+00
 HarFok:  IExCor=  205 AccDes= 0.00D+00 IRadAn=         5 IDoV=-2 UseB2=F ITyADJ=14
 ICtDFT= 12500011 ScaDFX=  1.000000  1.000000  1.000000  1.000000
 Range of M.O.s used for correlation:     6   151
 NBasis=   151 NAE=    19 NBE=    19 NFC=     5 NFV=     0
 NROrb=    146 NOA=    14 NOB=    14 NVA=   132 NVB=   132

 **** Warning!!: The largest alpha MO coefficient is  0.44168137D+02

 Fully direct method using O(ONN) memory.
 JobTyp=1 Pass  1:  I=   6 to  19 NPSUse= 40 ParTrn=T ParDer=T DoDerP=T.
 Spin components of T(2) and E(2):
     alpha-alpha T2 =       0.3403637018D-01 E2=     -0.1041454566D+00
     alpha-beta  T2 =       0.1896435174D+00 E2=     -0.5893177760D+00
     beta-beta   T2 =       0.3403637018D-01 E2=     -0.1041454566D+00
 ANorm=    0.1121479495D+01
 E2 =    -0.7976086892D+00 EUMP2 =    -0.26646132635962D+03
          IDoAtm=111111111
          Differentiating once with respect to electric field.
                with respect to dipole field.
          Differentiating once with respect to nuclear coordinates.
 Keep R1 ints in memory in canonical form, NReq=74570197.
          There are     1 degrees of freedom in the 1st order CPHF.  IDoFFX=0 NUNeed=     1.
 LinEq1:  Iter=  0 NonCon=     1 RMS=5.53D-03 Max=1.03D-01 NDo=     1
 AX will form     1 AO Fock derivatives at one time.
 LinEq1:  Iter=  1 NonCon=     1 RMS=1.73D-03 Max=2.11D-02 NDo=     1
 LinEq1:  Iter=  2 NonCon=     1 RMS=5.84D-04 Max=6.71D-03 NDo=     1
 LinEq1:  Iter=  3 NonCon=     1 RMS=1.94D-04 Max=2.23D-03 NDo=     1
 LinEq1:  Iter=  4 NonCon=     1 RMS=6.75D-05 Max=8.92D-04 NDo=     1
 LinEq1:  Iter=  5 NonCon=     1 RMS=2.44D-05 Max=2.66D-04 NDo=     1
 LinEq1:  Iter=  6 NonCon=     1 RMS=7.40D-06 Max=9.97D-05 NDo=     1
 LinEq1:  Iter=  7 NonCon=     1 RMS=2.19D-06 Max=3.28D-05 NDo=     1
 LinEq1:  Iter=  8 NonCon=     1 RMS=9.96D-07 Max=2.51D-05 NDo=     1
 LinEq1:  Iter=  9 NonCon=     1 RMS=2.21D-07 Max=2.28D-06 NDo=     1
 LinEq1:  Iter= 10 NonCon=     1 RMS=4.89D-08 Max=5.77D-07 NDo=     1
 LinEq1:  Iter= 11 NonCon=     1 RMS=1.24D-08 Max=1.95D-07 NDo=     1
 LinEq1:  Iter= 12 NonCon=     1 RMS=3.28D-09 Max=4.08D-08 NDo=     1
 LinEq1:  Iter= 13 NonCon=     1 RMS=1.05D-09 Max=1.27D-08 NDo=     1
 LinEq1:  Iter= 14 NonCon=     1 RMS=2.08D-10 Max=1.76D-09 NDo=     1
 LinEq1:  Iter= 15 NonCon=     0 RMS=3.54D-11 Max=2.36D-10 NDo=     1
 Linear equations converged to 1.000D-10 1.000D-09 after    15 iterations.
 End of Minotr F.D. properties file   721 does not exist.
 End of Minotr F.D. properties file   722 does not exist.
 End of Minotr F.D. properties file   788 does not exist.

 **********************************************************************

            Population analysis using the SCF Density.

 **********************************************************************

 Orbital symmetries:
       Occupied  (A) (A) (A) (A) (A) (A) (A) (A) (A) (A) (A) (A)
                 (A) (A) (A) (A) (A) (A) (A)
       Virtual   (A) (A) (A) (A) (A) (A) (A) (A) (A) (A) (A) (A)
                 (A) (A) (A) (A) (A) (A) (A) (A) (A) (A) (A) (A)
                 (A) (A) (A) (A) (A) (A) (A) (A) (A) (A) (A) (A)
                 (A) (A) (A) (A) (A) (A) (A) (A) (A) (A) (A) (A)
                 (A) (A) (A) (A) (A) (A) (A) (A) (A) (A) (A) (A)
                 (A) (A) (A) (A) (A) (A) (A) (A) (A) (A) (A) (A)
                 (A) (A) (A) (A) (A) (A) (A) (A) (A) (A) (A) (A)
                 (A) (A) (A) (A) (A) (A) (A) (A) (A) (A) (A) (A)
                 (A) (A) (A) (A) (A) (A) (A) (A) (A) (A) (A) (A)
                 (A) (A) (A) (A) (A) (A) (A) (A) (A) (A) (A) (A)
                 (A) (A) (A) (A) (A) (A) (A) (A) (A) (A) (A) (A)
 The electronic state is 1-A.
 Alpha  occ. eigenvalues --  -20.63409 -20.55760 -11.34783 -11.34315 -11.24762
 Alpha  occ. eigenvalues --   -1.43538  -1.38060  -1.08291  -0.88336  -0.80369
 Alpha  occ. eigenvalues --   -0.75402  -0.69297  -0.62074  -0.61229  -0.60760
 Alpha  occ. eigenvalues --   -0.55697  -0.52996  -0.42680  -0.37239
 Alpha virt. eigenvalues --    0.01927   0.04198   0.05112   0.06620   0.08566
 Alpha virt. eigenvalues --    0.09214   0.11195   0.11827   0.12886   0.13291
 Alpha virt. eigenvalues --    0.14195   0.15361   0.16305   0.17251   0.17983
 Alpha virt. eigenvalues --    0.20302   0.22564   0.23196   0.24258   0.25813
 Alpha virt. eigenvalues --    0.26463   0.28980   0.30380   0.31341   0.32323
 Alpha virt. eigenvalues --    0.32831   0.36241   0.36749   0.37496   0.39123
 Alpha virt. eigenvalues --    0.39650   0.41875   0.43690   0.45022   0.46556
 Alpha virt. eigenvalues --    0.46902   0.47702   0.50208   0.51808   0.55973
 Alpha virt. eigenvalues --    0.58917   0.59556   0.62149   0.62433   0.62614
 Alpha virt. eigenvalues --    0.63213   0.64847   0.65308   0.67031   0.68279
 Alpha virt. eigenvalues --    0.70171   0.71899   0.76559   0.80170   0.80561
 Alpha virt. eigenvalues --    0.82320   0.83816   0.84280   0.85256   0.90304
 Alpha virt. eigenvalues --    0.93526   0.94202   0.95597   1.01048   1.02235
 Alpha virt. eigenvalues --    1.06387   1.09250   1.15560   1.19565   1.20150
 Alpha virt. eigenvalues --    1.21115   1.25632   1.26416   1.28658   1.29768
 Alpha virt. eigenvalues --    1.33207   1.38385   1.45783   1.47447   1.47942
 Alpha virt. eigenvalues --    1.50725   1.57826   1.59383   1.60269   1.64441
 Alpha virt. eigenvalues --    1.67573   1.68029   1.73605   1.75074   1.79785
 Alpha virt. eigenvalues --    1.83608   1.86132   1.89983   1.93943   1.95313
 Alpha virt. eigenvalues --    1.99516   2.02132   2.06512   2.07432   2.09504
 Alpha virt. eigenvalues --    2.12897   2.17740   2.20026   2.21264   2.26242
 Alpha virt. eigenvalues --    2.32038   2.38119   2.38294   2.43398   2.46518
 Alpha virt. eigenvalues --    2.57527   2.65250   2.66996   2.72119   2.75557
 Alpha virt. eigenvalues --    2.78708   2.98902   3.04561   3.18500   3.34188
 Alpha virt. eigenvalues --    3.46414   3.48542   3.67648   3.71686   3.74392
 Alpha virt. eigenvalues --    3.76632   3.78294   3.78465   3.92811   4.00060
 Alpha virt. eigenvalues --    4.10668   4.30716
          Condensed to atoms (all electrons):
               1          2          3          4          5          6
     1  C    5.013291   0.241208  -0.005972  -0.144766  -0.056626   0.005637
     2  C    0.241208   5.118390  -0.071713   0.061634   0.131608  -0.028320
     3  H   -0.005972  -0.071713   1.613707   0.002323  -0.072733  -0.111740
     4  O   -0.144766   0.061634   0.002323   8.511383  -0.001030   0.342800
     5  C   -0.056626   0.131608  -0.072733  -0.001030   4.903125   0.008792
     6  H    0.005637  -0.028320  -0.111740   0.342800   0.008792   0.553563
     7  O   -0.010630  -0.040504  -0.002728  -0.001344   0.271524  -0.000079
     8  H   -0.084115   0.210483   0.071162   0.009424  -0.181081  -0.015756
     9  H   -0.050403  -0.007353  -0.037951   0.001686   0.320026   0.001295
               7          8          9
     1  C   -0.010630  -0.084115  -0.050403
     2  C   -0.040504   0.210483  -0.007353
     3  H   -0.002728   0.071162  -0.037951
     4  O   -0.001344   0.009424   0.001686
     5  C    0.271524  -0.181081   0.320026
     6  H   -0.000079  -0.015756   0.001295
     7  O    8.543828   0.011506  -0.050778
     8  H    0.011506   1.339657   0.009175
     9  H   -0.050778   0.009175   0.953735
 Mulliken charges:
               1
     1  C    1.092377
     2  C    0.384567
     3  H   -0.384357
     4  O   -0.782109
     5  C    0.676394
     6  H    0.243809
     7  O   -0.720795
     8  H   -0.370455
     9  H   -0.139432
 Sum of Mulliken charges =  -0.00000
 Mulliken charges with hydrogens summed into heavy atoms:
               1
     1  C    0.708020
     2  C    0.014112
     4  O   -0.538300
     5  C    0.536962
     7  O   -0.720795
 Electronic spatial extent (au):  <R**2>=            527.3329
 Charge=             -0.0000 electrons
 Dipole moment (field-independent basis, Debye):
    X=              4.6432    Y=              3.1262    Z=              0.0000  Tot=              5.5976
 Quadrupole moment (field-independent basis, Debye-Ang):
   XX=            -34.1818   YY=            -26.3347   ZZ=            -30.8242
   XY=              2.7515   XZ=              0.0003   YZ=              0.0001
 Traceless Quadrupole moment (field-independent basis, Debye-Ang):
   XX=             -3.7349   YY=              4.1122   ZZ=             -0.3774
   XY=              2.7515   XZ=              0.0003   YZ=              0.0001
 Octapole moment (field-independent basis, Debye-Ang**2):
  XXX=             58.3851  YYY=              1.1619  ZZZ=              0.0001  XYY=              2.3562
  XXY=             18.2620  XXZ=              0.0006  XZZ=             -0.1886  YZZ=             -0.0703
  YYZ=              0.0000  XYZ=              0.0001
 Hexadecapole moment (field-independent basis, Debye-Ang**3):
 XXXX=           -524.4403 YYYY=            -61.8660 ZZZZ=            -31.7086 XXXY=             28.3053
 XXXZ=              0.0025 YYYX=              2.0111 YYYZ=              0.0001 ZZZX=              0.0001
 ZZZY=              0.0000 XXYY=            -97.3848 XXZZ=            -95.7607 YYZZ=            -17.5903
 XXYZ=              0.0003 YYXZ=              0.0001 ZZXY=              0.5983
 N-N= 1.531604228125D+02 E-N=-9.310819883702D+02  KE= 2.652136338643D+02
 Calling FoFJK, ICntrl=  10002127 FMM=F ISym2X=0 I1Cent= 0 IOpClX= 0 NMat=1 NMatS=1 NMatT=0.
 ***** Axes restored to original set *****
 -------------------------------------------------------------------
 Center     Atomic                   Forces (Hartrees/Bohr)
 Number     Number              X              Y              Z
 -------------------------------------------------------------------
      1        6           0.019390954    0.014969810    0.014515282
      2        6          -0.016783963   -0.013997644   -0.009146024
      3        1          -0.006636445   -0.008370429    0.005698135
      4        8           0.003470320    0.001900120    0.005155170
      5        6           0.013065794    0.014320402   -0.004125424
      6        1          -0.002439730   -0.000203253   -0.007343303
      7        8          -0.010436185   -0.008401134   -0.006681811
      8        1           0.002577552    0.004301444   -0.005664342
      9        1          -0.002208297   -0.004519316    0.007592316
 -------------------------------------------------------------------
 Cartesian Forces:  Max     0.019390954 RMS     0.009384636

 GradGradGradGradGradGradGradGradGradGradGradGradGradGradGradGradGradGrad
 Berny optimization.
 FormGI is forming the generalized inverse of G from B-inverse, IUseBI=4.
 Internal  Forces:  Max     0.023967268 RMS     0.006894547
 Search for a local minimum.
 Step number   1 out of a maximum of   38
 All quantities printed in internal units (Hartrees-Bohrs-Radians)
 Mixed Optimization -- RFO/linear search
 Second derivative matrix not updated -- first step.
 ITU=  0
     Eigenvalues ---    0.01125   0.01125   0.02096   0.02109   0.02723
     Eigenvalues ---    0.02968   0.16000   0.16000   0.16000   0.16000
     Eigenvalues ---    0.22000   0.22000   0.22000   0.33393   0.35402
     Eigenvalues ---    0.35636   0.35676   0.51270   0.52498   0.58679
     Eigenvalues ---    0.93445
 RFO step:  Lambda=-3.46250621D-03 EMin= 1.12511956D-02
 Linear search not attempted -- first point.
 Iteration  1 RMS(Cart)=  0.03037727 RMS(Int)=  0.00077198
 Iteration  2 RMS(Cart)=  0.00083246 RMS(Int)=  0.00000044
 Iteration  3 RMS(Cart)=  0.00000055 RMS(Int)=  0.00000005
 Variable       Old X    -DE/DX   Delta X   Delta X   Delta X     New X
                                 (Linear)    (Quad)   (Total)
    R1        2.52001   0.02397   0.00000   0.04061   0.04061   2.56062
    R2        2.04655   0.00940   0.00000   0.02611   0.02611   2.07266
    R3        2.58605   0.00198   0.00000   0.00384   0.00384   2.58989
    R4        2.78328  -0.00145   0.00000  -0.00406  -0.00406   2.77922
    R5        2.04591   0.00729   0.00000   0.02023   0.02023   2.06614
    R6        1.84125  -0.00769   0.00000  -0.01456  -0.01456   1.82669
    R7        2.31385   0.01317   0.00000   0.01404   0.01404   2.32789
    R8        2.08366   0.00902   0.00000   0.02673   0.02673   2.11039
    A1        2.17971  -0.00801   0.00000  -0.04869  -0.04869   2.13102
    A2        2.12272   0.00040   0.00000   0.00179   0.00179   2.12450
    A3        1.98075   0.00761   0.00000   0.04691   0.04691   2.02766
    A4        2.09661  -0.00186   0.00000  -0.00833  -0.00833   2.08828
    A5        2.13961  -0.00115   0.00000  -0.00856  -0.00856   2.13105
    A6        2.04697   0.00301   0.00000   0.01689   0.01689   2.06386
    A7        1.89951   0.00155   0.00000   0.00947   0.00947   1.90898
    A8        2.12210   0.01010   0.00000   0.04520   0.04520   2.16730
    A9        2.03130  -0.00373   0.00000  -0.01455  -0.01455   2.01674
   A10        2.12979  -0.00637   0.00000  -0.03065  -0.03065   2.09914
    D1       -0.00000  -0.00000   0.00000  -0.00000  -0.00000  -0.00000
    D2       -3.14159  -0.00000   0.00000  -0.00000  -0.00000   3.14159
    D3        3.14159   0.00000   0.00000   0.00001   0.00001  -3.14159
    D4       -0.00000   0.00000   0.00000   0.00001   0.00001   0.00001
    D5       -3.14156  -0.00000   0.00000  -0.00002  -0.00002  -3.14157
    D6        0.00003  -0.00000   0.00000  -0.00001  -0.00001   0.00003
    D7       -3.14158  -0.00000   0.00000  -0.00001  -0.00001  -3.14159
    D8        0.00001  -0.00000   0.00000  -0.00000  -0.00000   0.00001
    D9        0.00001  -0.00000   0.00000  -0.00001  -0.00001   0.00000
   D10       -3.14158  -0.00000   0.00000  -0.00000  -0.00000  -3.14159
         Item               Value     Threshold  Converged?
 Maximum Force            0.023967     0.000450     NO 
 RMS     Force            0.006895     0.000300     NO 
 Maximum Displacement     0.065930     0.001800     NO 
 RMS     Displacement     0.030579     0.001200     NO 
 Predicted change in Energy=-1.752339D-03
 GradGradGradGradGradGradGradGradGradGradGradGradGradGradGradGradGradGrad

                          Input orientation:                          
 ---------------------------------------------------------------------
 Center     Atomic      Atomic             Coordinates (Angstroms)
 Number     Number       Type             X           Y           Z
 ---------------------------------------------------------------------
      1          6           0       -0.648938    0.842724   -0.109611
      2          6           0       -1.336523    0.494468   -1.224073
      3          1           0       -0.831232    0.365057    0.860738
      4          8           0        0.316512    1.815180   -0.132906
      5          6           0       -2.363293   -0.555659   -1.147023
      6          1           0        0.689326    1.918253    0.752974
      7          8           0       -3.036466   -0.936952   -2.105641
      8          1           0       -1.154825    0.970616   -2.191382
      9          1           0       -2.511690   -1.011132   -0.138212
 ---------------------------------------------------------------------
                    Distance matrix (angstroms):
                    1          2          3          4          5
     1  C    0.000000
     2  C    1.355020   0.000000
     3  H    1.096802   2.149071   0.000000
     4  O    1.370513   2.380640   2.099405   0.000000
     5  C    2.443504   1.470700   2.688129   3.718960   0.000000
     6  H    1.921397   3.168587   2.176265   0.966643   4.364483
     7  O    3.584922   2.390801   3.918889   4.765330   1.231866
     8  H    2.146171   1.093352   3.128395   2.667479   2.209207
     9  H    2.628202   2.197031   2.390761   3.998348   1.116772
                    6          7          8          9
     6  H    0.000000
     7  O    5.495944   0.000000
     8  H    3.601131   2.680809   0.000000
     9  H    4.429674   2.037565   3.159734   0.000000
 Stoichiometry    C3H4O2
 Framework group  C1[X(C3H4O2)]
 Deg. of freedom    21
 Full point group                 C1      NOp   1
 Largest Abelian subgroup         C1      NOp   1
 Largest concise Abelian subgroup C1      NOp   1
                         Standard orientation:                         
 ---------------------------------------------------------------------
 Center     Atomic      Atomic             Coordinates (Angstroms)
 Number     Number       Type             X           Y           Z
 ---------------------------------------------------------------------
      1          6           0        1.097767    0.349410    0.000002
      2          6           0       -0.055739   -0.361578   -0.000000
      3          1           0        1.106380    1.446179    0.000000
      4          8           0        2.322934   -0.264814   -0.000003
      5          6           0       -1.345733    0.344734   -0.000001
      6          1           0        3.018312    0.406638    0.000017
      7          8           0       -2.442154   -0.216828    0.000002
      8          1           0       -0.064355   -1.454896   -0.000001
      9          1           0       -1.284342    1.459817   -0.000008
 ---------------------------------------------------------------------
 Rotational constants (GHZ):          39.3706304           2.1980941           2.0818621
 Standard basis: Aug-CC-pVDZ (5D, 7F)
 There are   161 symmetry adapted cartesian basis functions of A   symmetry.
 There are   151 symmetry adapted basis functions of A   symmetry.
   151 basis functions,   259 primitive gaussians,   161 cartesian basis functions
    19 alpha electrons       19 beta electrons
       nuclear repulsion energy       152.1471436704 Hartrees.
 NAtoms=    9 NActive=    9 NUniq=    9 SFac= 1.00D+00 NAtFMM=   60 NAOKFM=F Big=F
 Integral buffers will be    131072 words long.
 Raffenetti 1 integral format.
 Two-electron integral symmetry is turned on.
 One-electron integrals computed using PRISM.
 NBasis=   151 RedAO= T EigKep=  2.88D-05  NBF=   151
 NBsUse=   151 1.00D-06 EigRej= -1.00D+00 NBFU=   151
 Initial guess from the checkpoint file:  "/scr/Gau-12951.chk"
 B after Tr=     0.000000    0.000000    0.000000
         Rot=    1.000000    0.000000    0.000000   -0.000185 Ang=   0.02 deg.
 ExpMin= 2.97D-02 ExpMax= 1.17D+04 ExpMxC= 4.01D+02 IAcc=3 IRadAn=         5 AccDes= 0.00D+00
 Harris functional with IExCor=  205 and IRadAn=       5 diagonalized for initial guess.
 HarFok:  IExCor=  205 AccDes= 0.00D+00 IRadAn=         5 IDoV= 1 UseB2=F ITyADJ=14
 ICtDFT=  3500011 ScaDFX=  1.000000  1.000000  1.000000  1.000000
 FoFCou: FMM=F IPFlag=           0 FMFlag=      100000 FMFlg1=           0
         NFxFlg=           0 DoJE=T BraDBF=F KetDBF=T FulRan=T
         wScrn=  0.000000 ICntrl=       500 IOpCl=  0 I1Cent=   200000004 NGrid=           0
         NMat0=    1 NMatS0=      1 NMatT0=    0 NMatD0=    1 NMtDS0=    0 NMtDT0=    0
 Petite list used in FoFCou.
 Keep R1 ints in memory in canonical form, NReq=74561579.
 Requested convergence on RMS density matrix=1.00D-08 within 128 cycles.
 Requested convergence on MAX density matrix=1.00D-06.
 Requested convergence on             energy=1.00D-06.
 No special actions if energy rises.
 SCF Done:  E(RHF) =  -265.662766449     A.U. after   12 cycles
            NFock= 12  Conv=0.70D-08     -V/T= 2.0023
 ExpMin= 2.97D-02 ExpMax= 1.17D+04 ExpMxC= 4.01D+02 IAcc=3 IRadAn=         5 AccDes= 0.00D+00
 HarFok:  IExCor=  205 AccDes= 0.00D+00 IRadAn=         5 IDoV=-2 UseB2=F ITyADJ=14
 ICtDFT= 12500011 ScaDFX=  1.000000  1.000000  1.000000  1.000000
 Range of M.O.s used for correlation:     6   151
 NBasis=   151 NAE=    19 NBE=    19 NFC=     5 NFV=     0
 NROrb=    146 NOA=    14 NOB=    14 NVA=   132 NVB=   132

 **** Warning!!: The largest alpha MO coefficient is  0.38451350D+02

 Fully direct method using O(ONN) memory.
 JobTyp=1 Pass  1:  I=   6 to  19 NPSUse= 40 ParTrn=T ParDer=T DoDerP=T.
 Spin components of T(2) and E(2):
     alpha-alpha T2 =       0.3440643291D-01 E2=     -0.1044911123D+00
     alpha-beta  T2 =       0.1918779083D+00 E2=     -0.5914164533D+00
     beta-beta   T2 =       0.3440643291D-01 E2=     -0.1044911123D+00
 ANorm=    0.1122804869D+01
 E2 =    -0.8003986779D+00 EUMP2 =    -0.26646316512651D+03
          IDoAtm=111111111
          Differentiating once with respect to electric field.
                with respect to dipole field.
          Differentiating once with respect to nuclear coordinates.
 Keep R1 ints in memory in canonical form, NReq=74570079.
          There are     1 degrees of freedom in the 1st order CPHF.  IDoFFX=0 NUNeed=     1.
 LinEq1:  Iter=  0 NonCon=     1 RMS=5.62D-03 Max=9.51D-02 NDo=     1
 AX will form     1 AO Fock derivatives at one time.
 LinEq1:  Iter=  1 NonCon=     1 RMS=1.78D-03 Max=2.19D-02 NDo=     1
 LinEq1:  Iter=  2 NonCon=     1 RMS=6.05D-04 Max=7.34D-03 NDo=     1
 LinEq1:  Iter=  3 NonCon=     1 RMS=2.08D-04 Max=2.72D-03 NDo=     1
 LinEq1:  Iter=  4 NonCon=     1 RMS=7.24D-05 Max=8.41D-04 NDo=     1
 LinEq1:  Iter=  5 NonCon=     1 RMS=2.67D-05 Max=2.79D-04 NDo=     1
 LinEq1:  Iter=  6 NonCon=     1 RMS=8.73D-06 Max=1.69D-04 NDo=     1
 LinEq1:  Iter=  7 NonCon=     1 RMS=2.38D-06 Max=3.26D-05 NDo=     1
 LinEq1:  Iter=  8 NonCon=     1 RMS=1.14D-06 Max=2.42D-05 NDo=     1
 LinEq1:  Iter=  9 NonCon=     1 RMS=2.50D-07 Max=2.59D-06 NDo=     1
 LinEq1:  Iter= 10 NonCon=     1 RMS=5.47D-08 Max=6.59D-07 NDo=     1
 LinEq1:  Iter= 11 NonCon=     1 RMS=1.36D-08 Max=1.99D-07 NDo=     1
 LinEq1:  Iter= 12 NonCon=     1 RMS=3.65D-09 Max=4.95D-08 NDo=     1
 LinEq1:  Iter= 13 NonCon=     1 RMS=1.17D-09 Max=1.39D-08 NDo=     1
 LinEq1:  Iter= 14 NonCon=     1 RMS=2.35D-10 Max=2.13D-09 NDo=     1
 LinEq1:  Iter= 15 NonCon=     0 RMS=4.02D-11 Max=3.17D-10 NDo=     1
 Linear equations converged to 1.000D-10 1.000D-09 after    15 iterations.
 End of Minotr F.D. properties file   721 does not exist.
 End of Minotr F.D. properties file   722 does not exist.
 End of Minotr F.D. properties file   788 does not exist.
 Calling FoFJK, ICntrl=  10002127 FMM=F ISym2X=0 I1Cent= 0 IOpClX= 0 NMat=1 NMatS=1 NMatT=0.
 ***** Axes restored to original set *****
 -------------------------------------------------------------------
 Center     Atomic                   Forces (Hartrees/Bohr)
 Number     Number              X              Y              Z
 -------------------------------------------------------------------
      1        6           0.004682444    0.004147837    0.001756968
      2        6          -0.003554749   -0.002819237   -0.002415646
      3        1          -0.001038918   -0.000766887   -0.000894187
      4        8          -0.003729271   -0.003427894   -0.000990410
      5        6           0.002952948    0.002652076    0.000988857
      6        1          -0.000132096   -0.000223937    0.000302446
      7        8          -0.000347021   -0.000250122   -0.000318486
      8        1           0.001060279    0.000850780    0.000687679
      9        1           0.000106384   -0.000162615    0.000882781
 -------------------------------------------------------------------
 Cartesian Forces:  Max     0.004682444 RMS     0.002091031

 GradGradGradGradGradGradGradGradGradGradGradGradGradGradGradGradGradGrad
 Berny optimization.
 Using GEDIIS/GDIIS optimizer.
 FormGI is forming the generalized inverse of G from B-inverse, IUseBI=4.
 Internal  Forces:  Max     0.005299602 RMS     0.001515710
 Search for a local minimum.
 Step number   2 out of a maximum of   38
 All quantities printed in internal units (Hartrees-Bohrs-Radians)
 Mixed Optimization -- RFO/linear search
 Update second derivatives using D2CorX and points    1    2
 DE= -1.84D-03 DEPred=-1.75D-03 R= 1.05D+00
 TightC=F SS=  1.41D+00  RLast= 1.10D-01 DXNew= 5.0454D-01 3.3111D-01
 Trust test= 1.05D+00 RLast= 1.10D-01 DXMaxT set to 3.31D-01
 ITU=  1  0
 Use linear search instead of GDIIS.
     Eigenvalues ---    0.01125   0.01125   0.02083   0.02109   0.02703
     Eigenvalues ---    0.02968   0.13934   0.16000   0.16000   0.16238
     Eigenvalues ---    0.20824   0.22000   0.22954   0.32870   0.34808
     Eigenvalues ---    0.35661   0.36865   0.50814   0.53141   0.62621
     Eigenvalues ---    0.93613
 RFO step:  Lambda=-2.30871518D-04 EMin= 1.12511956D-02
 Quartic linear search produced a step of  0.08414.
 Iteration  1 RMS(Cart)=  0.01735579 RMS(Int)=  0.00010602
 Iteration  2 RMS(Cart)=  0.00011534 RMS(Int)=  0.00000001
 Iteration  3 RMS(Cart)=  0.00000000 RMS(Int)=  0.00000001
 Variable       Old X    -DE/DX   Delta X   Delta X   Delta X     New X
                                 (Linear)    (Quad)   (Total)
    R1        2.56062  -0.00004   0.00342  -0.00077   0.00265   2.56326
    R2        2.07266  -0.00028   0.00220  -0.00130   0.00090   2.07356
    R3        2.58989  -0.00530   0.00032  -0.01127  -0.01094   2.57895
    R4        2.77922  -0.00341  -0.00034  -0.01037  -0.01071   2.76851
    R5        2.06614  -0.00006   0.00170  -0.00052   0.00118   2.06732
    R6        1.82669   0.00020  -0.00123   0.00067  -0.00056   1.82613
    R7        2.32789   0.00051   0.00118   0.00035   0.00153   2.32942
    R8        2.11039   0.00085   0.00225   0.00232   0.00457   2.11496
    A1        2.13102  -0.00166  -0.00410  -0.01041  -0.01451   2.11651
    A2        2.12450   0.00011   0.00015   0.00052   0.00067   2.12518
    A3        2.02766   0.00155   0.00395   0.00989   0.01383   2.04150
    A4        2.08828  -0.00289  -0.00070  -0.01409  -0.01479   2.07349
    A5        2.13105  -0.00013  -0.00072  -0.00341  -0.00413   2.12691
    A6        2.06386   0.00302   0.00142   0.01750   0.01892   2.08278
    A7        1.90898  -0.00063   0.00080  -0.00438  -0.00359   1.90539
    A8        2.16730   0.00043   0.00380   0.00143   0.00524   2.17254
    A9        2.01674  -0.00054  -0.00122  -0.00303  -0.00426   2.01248
   A10        2.09914   0.00011  -0.00258   0.00160  -0.00098   2.09816
    D1       -0.00000   0.00000  -0.00000   0.00000   0.00000  -0.00000
    D2        3.14159   0.00000  -0.00000   0.00000   0.00000  -3.14159
    D3       -3.14159  -0.00000   0.00000  -0.00000  -0.00000  -3.14159
    D4        0.00001  -0.00000   0.00000  -0.00000  -0.00000   0.00000
    D5       -3.14157  -0.00000  -0.00000  -0.00000  -0.00001  -3.14158
    D6        0.00003  -0.00000  -0.00000  -0.00001  -0.00001   0.00001
    D7       -3.14159   0.00000  -0.00000   0.00001   0.00000  -3.14158
    D8        0.00001  -0.00000  -0.00000  -0.00002  -0.00002  -0.00001
    D9        0.00000   0.00000  -0.00000   0.00001   0.00000   0.00001
   D10       -3.14159  -0.00000  -0.00000  -0.00002  -0.00002   3.14158
         Item               Value     Threshold  Converged?
 Maximum Force            0.005300     0.000450     NO 
 RMS     Force            0.001516     0.000300     NO 
 Maximum Displacement     0.035472     0.001800     NO 
 RMS     Displacement     0.017386     0.001200     NO 
 Predicted change in Energy=-1.245615D-04
 GradGradGradGradGradGradGradGradGradGradGradGradGradGradGradGradGradGrad

                          Input orientation:                          
 ---------------------------------------------------------------------
 Center     Atomic      Atomic             Coordinates (Angstroms)
 Number     Number       Type             X           Y           Z
 ---------------------------------------------------------------------
      1          6           0       -0.650662    0.842743   -0.115327
      2          6           0       -1.335753    0.498328   -1.234213
      3          1           0       -0.847731    0.352882    0.846556
      4          8           0        0.311854    1.810092   -0.131517
      5          6           0       -2.355726   -0.549350   -1.142865
      6          1           0        0.679316    1.907031    0.756967
      7          8           0       -3.038258   -0.943280   -2.090735
      8          1           0       -1.147251    0.980224   -2.198073
      9          1           0       -2.492919   -0.996114   -0.125928
 ---------------------------------------------------------------------
                    Distance matrix (angstroms):
                    1          2          3          4          5
     1  C    0.000000
     2  C    1.356420   0.000000
     3  H    1.097278   2.142176   0.000000
     4  O    1.364722   2.377241   2.103504   0.000000
     5  C    2.429197   1.465031   2.654405   3.702131   0.000000
     6  H    1.913752   3.163818   2.180660   0.966348   4.342193
     7  O    3.576692   2.389641   3.886659   4.758450   1.232675
     8  H    2.145538   1.093976   3.122985   2.662391   2.216635
     9  H    2.602963   2.191046   2.339265   3.967566   1.119187
                    6          7          8          9
     6  H    0.000000
     7  O    5.482155   0.000000
     8  H    3.595494   2.699499   0.000000
     9  H    4.389855   2.039767   3.163941   0.000000
 Stoichiometry    C3H4O2
 Framework group  C1[X(C3H4O2)]
 Deg. of freedom    21
 Full point group                 C1      NOp   1
 Largest Abelian subgroup         C1      NOp   1
 Largest concise Abelian subgroup C1      NOp   1
                         Standard orientation:                         
 ---------------------------------------------------------------------
 Center     Atomic      Atomic             Coordinates (Angstroms)
 Number     Number       Type             X           Y           Z
 ---------------------------------------------------------------------
      1          6           0        1.093501    0.345176   -0.000001
      2          6           0       -0.056482   -0.374139   -0.000002
      3          1           0        1.078973    1.442358   -0.000001
      4          8           0        2.317900   -0.257580    0.000000
      5          6           0       -1.335690    0.339965   -0.000004
      6          1           0        3.005744    0.421168    0.000013
      7          8           0       -2.440283   -0.207175    0.000003
      8          1           0       -0.053374   -1.468111   -0.000001
      9          1           0       -1.260249    1.456607    0.000004
 ---------------------------------------------------------------------
 Rotational constants (GHZ):          39.5522392           2.2091752           2.0923100
 Standard basis: Aug-CC-pVDZ (5D, 7F)
 There are   161 symmetry adapted cartesian basis functions of A   symmetry.
 There are   151 symmetry adapted basis functions of A   symmetry.
   151 basis functions,   259 primitive gaussians,   161 cartesian basis functions
    19 alpha electrons       19 beta electrons
       nuclear repulsion energy       152.4177933368 Hartrees.
 NAtoms=    9 NActive=    9 NUniq=    9 SFac= 1.00D+00 NAtFMM=   60 NAOKFM=F Big=F
 Integral buffers will be    131072 words long.
 Raffenetti 1 integral format.
 Two-electron integral symmetry is turned on.
 One-electron integrals computed using PRISM.
 NBasis=   151 RedAO= T EigKep=  2.85D-05  NBF=   151
 NBsUse=   151 1.00D-06 EigRej= -1.00D+00 NBFU=   151
 Initial guess from the checkpoint file:  "/scr/Gau-12951.chk"
 B after Tr=     0.000000   -0.000000   -0.000000
         Rot=    1.000000    0.000000    0.000000   -0.000038 Ang=   0.00 deg.
 ExpMin= 2.97D-02 ExpMax= 1.17D+04 ExpMxC= 4.01D+02 IAcc=3 IRadAn=         5 AccDes= 0.00D+00
 Harris functional with IExCor=  205 and IRadAn=       5 diagonalized for initial guess.
 HarFok:  IExCor=  205 AccDes= 0.00D+00 IRadAn=         5 IDoV= 1 UseB2=F ITyADJ=14
 ICtDFT=  3500011 ScaDFX=  1.000000  1.000000  1.000000  1.000000
 FoFCou: FMM=F IPFlag=           0 FMFlag=      100000 FMFlg1=           0
         NFxFlg=           0 DoJE=T BraDBF=F KetDBF=T FulRan=T
         wScrn=  0.000000 ICntrl=       500 IOpCl=  0 I1Cent=   200000004 NGrid=           0
         NMat0=    1 NMatS0=      1 NMatT0=    0 NMatD0=    1 NMtDS0=    0 NMtDT0=    0
 Petite list used in FoFCou.
 Keep R1 ints in memory in canonical form, NReq=74562169.
 Requested convergence on RMS density matrix=1.00D-08 within 128 cycles.
 Requested convergence on MAX density matrix=1.00D-06.
 Requested convergence on             energy=1.00D-06.
 No special actions if energy rises.
 SCF Done:  E(RHF) =  -265.662876743     A.U. after   11 cycles
            NFock= 11  Conv=0.79D-08     -V/T= 2.0022
 ExpMin= 2.97D-02 ExpMax= 1.17D+04 ExpMxC= 4.01D+02 IAcc=3 IRadAn=         5 AccDes= 0.00D+00
 HarFok:  IExCor=  205 AccDes= 0.00D+00 IRadAn=         5 IDoV=-2 UseB2=F ITyADJ=14
 ICtDFT= 12500011 ScaDFX=  1.000000  1.000000  1.000000  1.000000
 Range of M.O.s used for correlation:     6   151
 NBasis=   151 NAE=    19 NBE=    19 NFC=     5 NFV=     0
 NROrb=    146 NOA=    14 NOB=    14 NVA=   132 NVB=   132

 **** Warning!!: The largest alpha MO coefficient is  0.36579266D+02

 Fully direct method using O(ONN) memory.
 JobTyp=1 Pass  1:  I=   6 to  19 NPSUse= 40 ParTrn=T ParDer=T DoDerP=T.
 Spin components of T(2) and E(2):
     alpha-alpha T2 =       0.3441663358D-01 E2=     -0.1045549889D+00
     alpha-beta  T2 =       0.1917504667D+00 E2=     -0.5913248572D+00
     beta-beta   T2 =       0.3441663358D-01 E2=     -0.1045549889D+00
 ANorm=    0.1122757202D+01
 E2 =    -0.8004348349D+00 EUMP2 =    -0.26646331157827D+03
          IDoAtm=111111111
          Differentiating once with respect to electric field.
                with respect to dipole field.
          Differentiating once with respect to nuclear coordinates.
 Keep R1 ints in memory in canonical form, NReq=74570079.
          There are     1 degrees of freedom in the 1st order CPHF.  IDoFFX=0 NUNeed=     1.
 LinEq1:  Iter=  0 NonCon=     1 RMS=5.63D-03 Max=9.11D-02 NDo=     1
 AX will form     1 AO Fock derivatives at one time.
 LinEq1:  Iter=  1 NonCon=     1 RMS=1.78D-03 Max=2.18D-02 NDo=     1
 LinEq1:  Iter=  2 NonCon=     1 RMS=6.06D-04 Max=7.16D-03 NDo=     1
 LinEq1:  Iter=  3 NonCon=     1 RMS=2.09D-04 Max=2.66D-03 NDo=     1
 LinEq1:  Iter=  4 NonCon=     1 RMS=7.29D-05 Max=8.74D-04 NDo=     1
 LinEq1:  Iter=  5 NonCon=     1 RMS=2.68D-05 Max=2.73D-04 NDo=     1
 LinEq1:  Iter=  6 NonCon=     1 RMS=8.98D-06 Max=1.73D-04 NDo=     1
 LinEq1:  Iter=  7 NonCon=     1 RMS=2.42D-06 Max=3.32D-05 NDo=     1
 LinEq1:  Iter=  8 NonCon=     1 RMS=1.16D-06 Max=2.53D-05 NDo=     1
 LinEq1:  Iter=  9 NonCon=     1 RMS=2.51D-07 Max=2.60D-06 NDo=     1
 LinEq1:  Iter= 10 NonCon=     1 RMS=5.48D-08 Max=6.36D-07 NDo=     1
 LinEq1:  Iter= 11 NonCon=     1 RMS=1.40D-08 Max=2.12D-07 NDo=     1
 LinEq1:  Iter= 12 NonCon=     1 RMS=3.92D-09 Max=5.11D-08 NDo=     1
 LinEq1:  Iter= 13 NonCon=     1 RMS=1.21D-09 Max=1.39D-08 NDo=     1
 LinEq1:  Iter= 14 NonCon=     1 RMS=2.35D-10 Max=1.99D-09 NDo=     1
 LinEq1:  Iter= 15 NonCon=     0 RMS=3.99D-11 Max=3.02D-10 NDo=     1
 Linear equations converged to 1.000D-10 1.000D-09 after    15 iterations.
 End of Minotr F.D. properties file   721 does not exist.
 End of Minotr F.D. properties file   722 does not exist.
 End of Minotr F.D. properties file   788 does not exist.
 Calling FoFJK, ICntrl=  10002127 FMM=F ISym2X=0 I1Cent= 0 IOpClX= 0 NMat=1 NMatS=1 NMatT=0.
 ***** Axes restored to original set *****
 -------------------------------------------------------------------
 Center     Atomic                   Forces (Hartrees/Bohr)
 Number     Number              X              Y              Z
 -------------------------------------------------------------------
      1        6           0.000957972    0.001075631   -0.000386463
      2        6          -0.000451477   -0.000147289   -0.000996482
      3        1           0.000131201    0.000257690   -0.000415687
      4        8          -0.001441479   -0.001525212    0.000274776
      5        6          -0.000090833   -0.000193030    0.000326486
      6        1           0.000482653    0.000341527    0.000463886
      7        8           0.000043732   -0.000039333    0.000276132
      8        1           0.000219921   -0.000014309    0.000769542
      9        1           0.000148311    0.000244325   -0.000312190
 -------------------------------------------------------------------
 Cartesian Forces:  Max     0.001525212 RMS     0.000602314

 GradGradGradGradGradGradGradGradGradGradGradGradGradGradGradGradGradGrad
 Berny optimization.
 Using GEDIIS/GDIIS optimizer.
 FormGI is forming the generalized inverse of G from B-inverse, IUseBI=4.
 Internal  Forces:  Max     0.001524032 RMS     0.000479445
 Search for a local minimum.
 Step number   3 out of a maximum of   38
 All quantities printed in internal units (Hartrees-Bohrs-Radians)
 Mixed Optimization -- En-DIIS/RFO-DIIS
 Update second derivatives using D2CorX and points    1    2    3
 DE= -1.46D-04 DEPred=-1.25D-04 R= 1.18D+00
 TightC=F SS=  1.41D+00  RLast= 3.64D-02 DXNew= 5.5686D-01 1.0911D-01
 Trust test= 1.18D+00 RLast= 3.64D-02 DXMaxT set to 3.31D-01
 ITU=  1  1  0
 Use linear search instead of GDIIS.
     Eigenvalues ---    0.01125   0.01125   0.02071   0.02109   0.02697
     Eigenvalues ---    0.02968   0.11470   0.16000   0.16217   0.16929
     Eigenvalues ---    0.19642   0.22427   0.23217   0.33644   0.35536
     Eigenvalues ---    0.36370   0.36933   0.48299   0.53032   0.62350
     Eigenvalues ---    0.93994
 RFO step:  Lambda=-2.15684720D-05 EMin= 1.12511953D-02
 Quartic linear search produced a step of  0.18658.
 Iteration  1 RMS(Cart)=  0.00633226 RMS(Int)=  0.00001694
 Iteration  2 RMS(Cart)=  0.00002123 RMS(Int)=  0.00000000
 Iteration  3 RMS(Cart)=  0.00000000 RMS(Int)=  0.00000000
 Variable       Old X    -DE/DX   Delta X   Delta X   Delta X     New X
                                 (Linear)    (Quad)   (Total)
    R1        2.56326   0.00005   0.00049   0.00058   0.00107   2.56433
    R2        2.07356  -0.00050   0.00017  -0.00126  -0.00109   2.07246
    R3        2.57895  -0.00152  -0.00204  -0.00224  -0.00428   2.57467
    R4        2.76851  -0.00006  -0.00200   0.00088  -0.00112   2.76739
    R5        2.06732  -0.00065   0.00022  -0.00187  -0.00165   2.06567
    R6        1.82613   0.00064  -0.00010   0.00123   0.00112   1.82725
    R7        2.32942  -0.00022   0.00029  -0.00018   0.00010   2.32952
    R8        2.11496  -0.00040   0.00085  -0.00139  -0.00054   2.11442
    A1        2.11651  -0.00032  -0.00271  -0.00092  -0.00362   2.11289
    A2        2.12518   0.00076   0.00013   0.00399   0.00411   2.12929
    A3        2.04150  -0.00044   0.00258  -0.00307  -0.00049   2.04100
    A4        2.07349  -0.00070  -0.00276  -0.00225  -0.00501   2.06847
    A5        2.12691  -0.00014  -0.00077  -0.00142  -0.00219   2.12472
    A6        2.08278   0.00084   0.00353   0.00368   0.00721   2.08999
    A7        1.90539   0.00071  -0.00067   0.00575   0.00509   1.91048
    A8        2.17254   0.00037   0.00098   0.00224   0.00322   2.17576
    A9        2.01248  -0.00033  -0.00079  -0.00187  -0.00266   2.00982
   A10        2.09816  -0.00003  -0.00018  -0.00037  -0.00056   2.09760
    D1       -0.00000  -0.00000   0.00000  -0.00000  -0.00000  -0.00000
    D2       -3.14159  -0.00000   0.00000  -0.00000  -0.00000   3.14159
    D3       -3.14159  -0.00000  -0.00000  -0.00000  -0.00000   3.14159
    D4        0.00000  -0.00000  -0.00000  -0.00000  -0.00000   0.00000
    D5       -3.14158  -0.00000  -0.00000  -0.00000  -0.00001  -3.14158
    D6        0.00001  -0.00000  -0.00000  -0.00000  -0.00001   0.00001
    D7       -3.14158  -0.00000   0.00000  -0.00007  -0.00007   3.14153
    D8       -0.00001   0.00000  -0.00000   0.00007   0.00007   0.00006
    D9        0.00001  -0.00000   0.00000  -0.00007  -0.00007  -0.00006
   D10        3.14158   0.00000  -0.00000   0.00007   0.00007  -3.14153
         Item               Value     Threshold  Converged?
 Maximum Force            0.001524     0.000450     NO 
 RMS     Force            0.000479     0.000300     NO 
 Maximum Displacement     0.012352     0.001800     NO 
 RMS     Displacement     0.006334     0.001200     NO 
 Predicted change in Energy=-1.469365D-05
 GradGradGradGradGradGradGradGradGradGradGradGradGradGradGradGradGradGrad

                          Input orientation:                          
 ---------------------------------------------------------------------
 Center     Atomic      Atomic             Coordinates (Angstroms)
 Number     Number       Type             X           Y           Z
 ---------------------------------------------------------------------
      1          6           0       -0.651368    0.843097   -0.118847
      2          6           0       -1.335913    0.499618   -1.239040
      3          1           0       -0.852011    0.350499    0.840238
      4          8           0        0.310660    1.807829   -0.127954
      5          6           0       -2.354363   -0.548223   -1.142259
      6          1           0        0.678219    1.904686    0.761144
      7          8           0       -3.040988   -0.947751   -2.084886
      8          1           0       -1.144981    0.983247   -2.200562
      9          1           0       -2.486382   -0.990446   -0.122969
 ---------------------------------------------------------------------
                    Distance matrix (angstroms):
                    1          2          3          4          5
     1  C    0.000000
     2  C    1.356987   0.000000
     3  H    1.096701   2.140045   0.000000
     4  O    1.362457   2.378472   2.100716   0.000000
     5  C    2.425559   1.464438   2.644817   3.698938   0.000000
     6  H    1.915504   3.167282   2.182511   0.966942   4.340076
     7  O    3.575294   2.391153   3.877296   4.759868   1.232729
     8  H    2.144023   1.093103   3.119721   2.663555   2.219912
     9  H    2.594065   2.188490   2.323160   3.956490   1.118903
                    6          7          8          9
     6  H    0.000000
     7  O    5.483500   0.000000
     8  H    3.597889   2.708685   0.000000
     9  H    4.379286   2.039247   3.164050   0.000000
 Stoichiometry    C3H4O2
 Framework group  C1[X(C3H4O2)]
 Deg. of freedom    21
 Full point group                 C1      NOp   1
 Largest Abelian subgroup         C1      NOp   1
 Largest concise Abelian subgroup C1      NOp   1
                         Standard orientation:                         
 ---------------------------------------------------------------------
 Center     Atomic      Atomic             Coordinates (Angstroms)
 Number     Number       Type             X           Y           Z
 ---------------------------------------------------------------------
      1          6           0        1.092188    0.341555    0.000002
      2          6           0       -0.056998   -0.380098    0.000015
      3          1           0        1.071751    1.438065   -0.000000
      4          8           0        2.318075   -0.252995   -0.000010
      5          6           0       -1.333368    0.337856    0.000028
      6          1           0        3.005798    0.426721   -0.000011
      7          8           0       -2.441521   -0.202160   -0.000020
      8          1           0       -0.049557   -1.473176    0.000017
      9          1           0       -1.251356    1.453749   -0.000034
 ---------------------------------------------------------------------
 Rotational constants (GHZ):          39.7520044           2.2095322           2.0931868
 Standard basis: Aug-CC-pVDZ (5D, 7F)
 There are   161 symmetry adapted cartesian basis functions of A   symmetry.
 There are   151 symmetry adapted basis functions of A   symmetry.
   151 basis functions,   259 primitive gaussians,   161 cartesian basis functions
    19 alpha electrons       19 beta electrons
       nuclear repulsion energy       152.4679153240 Hartrees.
 NAtoms=    9 NActive=    9 NUniq=    9 SFac= 1.00D+00 NAtFMM=   60 NAOKFM=F Big=F
 Integral buffers will be    131072 words long.
 Raffenetti 1 integral format.
 Two-electron integral symmetry is turned on.
 One-electron integrals computed using PRISM.
 NBasis=   151 RedAO= T EigKep=  2.85D-05  NBF=   151
 NBsUse=   151 1.00D-06 EigRej= -1.00D+00 NBFU=   151
 Initial guess from the checkpoint file:  "/scr/Gau-12951.chk"
 B after Tr=    -0.000000    0.000000   -0.000000
         Rot=    1.000000   -0.000000   -0.000000    0.000014 Ang=  -0.00 deg.
 Keep R1 ints in memory in canonical form, NReq=74562169.
 Requested convergence on RMS density matrix=1.00D-08 within 128 cycles.
 Requested convergence on MAX density matrix=1.00D-06.
 Requested convergence on             energy=1.00D-06.
 No special actions if energy rises.
 SCF Done:  E(RHF) =  -265.662964327     A.U. after   11 cycles
            NFock= 11  Conv=0.30D-08     -V/T= 2.0022
 ExpMin= 2.97D-02 ExpMax= 1.17D+04 ExpMxC= 4.01D+02 IAcc=3 IRadAn=         5 AccDes= 0.00D+00
 HarFok:  IExCor=  205 AccDes= 0.00D+00 IRadAn=         5 IDoV=-2 UseB2=F ITyADJ=14
 ICtDFT= 12500011 ScaDFX=  1.000000  1.000000  1.000000  1.000000
 Range of M.O.s used for correlation:     6   151
 NBasis=   151 NAE=    19 NBE=    19 NFC=     5 NFV=     0
 NROrb=    146 NOA=    14 NOB=    14 NVA=   132 NVB=   132

 **** Warning!!: The largest alpha MO coefficient is  0.37019639D+02

 Fully direct method using O(ONN) memory.
 JobTyp=1 Pass  1:  I=   6 to  19 NPSUse= 40 ParTrn=T ParDer=T DoDerP=T.
 Spin components of T(2) and E(2):
     alpha-alpha T2 =       0.3441239412D-01 E2=     -0.1045616745D+00
     alpha-beta  T2 =       0.1916597444D+00 E2=     -0.5912390872D+00
     beta-beta   T2 =       0.3441239412D-01 E2=     -0.1045616745D+00
 ANorm=    0.1122713023D+01
 E2 =    -0.8003624363D+00 EUMP2 =    -0.26646332676343D+03
          IDoAtm=111111111
          Differentiating once with respect to electric field.
                with respect to dipole field.
          Differentiating once with respect to nuclear coordinates.
 Keep R1 ints in memory in canonical form, NReq=74570020.
          There are     1 degrees of freedom in the 1st order CPHF.  IDoFFX=0 NUNeed=     1.
 LinEq1:  Iter=  0 NonCon=     1 RMS=5.63D-03 Max=9.01D-02 NDo=     1
 AX will form     1 AO Fock derivatives at one time.
 LinEq1:  Iter=  1 NonCon=     1 RMS=1.78D-03 Max=2.18D-02 NDo=     1
 LinEq1:  Iter=  2 NonCon=     1 RMS=6.06D-04 Max=7.15D-03 NDo=     1
 LinEq1:  Iter=  3 NonCon=     1 RMS=2.09D-04 Max=2.63D-03 NDo=     1
 LinEq1:  Iter=  4 NonCon=     1 RMS=7.29D-05 Max=8.84D-04 NDo=     1
 LinEq1:  Iter=  5 NonCon=     1 RMS=2.67D-05 Max=2.71D-04 NDo=     1
 LinEq1:  Iter=  6 NonCon=     1 RMS=9.05D-06 Max=1.74D-04 NDo=     1
 LinEq1:  Iter=  7 NonCon=     1 RMS=2.43D-06 Max=3.35D-05 NDo=     1
 LinEq1:  Iter=  8 NonCon=     1 RMS=1.17D-06 Max=2.57D-05 NDo=     1
 LinEq1:  Iter=  9 NonCon=     1 RMS=2.51D-07 Max=2.61D-06 NDo=     1
 LinEq1:  Iter= 10 NonCon=     1 RMS=5.46D-08 Max=6.21D-07 NDo=     1
 LinEq1:  Iter= 11 NonCon=     1 RMS=1.41D-08 Max=2.16D-07 NDo=     1
 LinEq1:  Iter= 12 NonCon=     1 RMS=3.98D-09 Max=5.16D-08 NDo=     1
 LinEq1:  Iter= 13 NonCon=     1 RMS=1.22D-09 Max=1.41D-08 NDo=     1
 LinEq1:  Iter= 14 NonCon=     1 RMS=2.34D-10 Max=1.93D-09 NDo=     1
 LinEq1:  Iter= 15 NonCon=     0 RMS=3.98D-11 Max=2.95D-10 NDo=     1
 Linear equations converged to 1.000D-10 1.000D-09 after    15 iterations.
 End of Minotr F.D. properties file   721 does not exist.
 End of Minotr F.D. properties file   722 does not exist.
 End of Minotr F.D. properties file   788 does not exist.
 Calling FoFJK, ICntrl=  10002127 FMM=F ISym2X=0 I1Cent= 0 IOpClX= 0 NMat=1 NMatS=1 NMatT=0.
 ***** Axes restored to original set *****
 -------------------------------------------------------------------
 Center     Atomic                   Forces (Hartrees/Bohr)
 Number     Number              X              Y              Z
 -------------------------------------------------------------------
      1        6          -0.000045047    0.000008110   -0.000177428
      2        6           0.000338705    0.000343830   -0.000034242
      3        1           0.000084362    0.000072600    0.000037896
      4        8          -0.000167154   -0.000177987    0.000036655
      5        6          -0.000457339   -0.000441617    0.000011641
      6        1          -0.000058228   -0.000048238   -0.000031672
      7        8           0.000226340    0.000151832    0.000222446
      8        1           0.000003615   -0.000016876    0.000066776
      9        1           0.000074745    0.000108347   -0.000132073
 -------------------------------------------------------------------
 Cartesian Forces:  Max     0.000457339 RMS     0.000184271

 GradGradGradGradGradGradGradGradGradGradGradGradGradGradGradGradGradGrad
 Berny optimization.
 Using GEDIIS/GDIIS optimizer.
 FormGI is forming the generalized inverse of G from B-inverse, IUseBI=4.
 Internal  Forces:  Max     0.000345376 RMS     0.000129019
 Search for a local minimum.
 Step number   4 out of a maximum of   38
 All quantities printed in internal units (Hartrees-Bohrs-Radians)
 Mixed Optimization -- En-DIIS/RFO-DIIS
 Swapping is turned off.
 Update second derivatives using D2CorX and points    1    2    3    4
 DE= -1.52D-05 DEPred=-1.47D-05 R= 1.03D+00
 TightC=F SS=  1.41D+00  RLast= 1.35D-02 DXNew= 5.5686D-01 4.0473D-02
 Trust test= 1.03D+00 RLast= 1.35D-02 DXMaxT set to 3.31D-01
 ITU=  1  1  1  0
     Eigenvalues ---    0.01125   0.01125   0.02066   0.02109   0.02697
     Eigenvalues ---    0.02968   0.11879   0.15987   0.16005   0.16964
     Eigenvalues ---    0.19017   0.22145   0.23903   0.33344   0.35558
     Eigenvalues ---    0.35809   0.37472   0.46653   0.53130   0.61930
     Eigenvalues ---    0.93731
 En-DIIS/RFO-DIIS/Sim-DIIS IScMMF=       -3 using points:     4    3
 RFO step:  Lambda=-1.20848757D-06.
 DidBck=F Rises=F RFO-DIIS coefs:    1.03847   -0.03847
 Iteration  1 RMS(Cart)=  0.00080391 RMS(Int)=  0.00000028
 Iteration  2 RMS(Cart)=  0.00000032 RMS(Int)=  0.00000003
 Variable       Old X    -DE/DX   Delta X   Delta X   Delta X     New X
                                 (Linear)    (Quad)   (Total)
    R1        2.56433  -0.00024   0.00004  -0.00037  -0.00033   2.56400
    R2        2.07246  -0.00001  -0.00004   0.00001  -0.00003   2.07243
    R3        2.57467  -0.00032  -0.00016  -0.00055  -0.00071   2.57396
    R4        2.76739   0.00025  -0.00004   0.00076   0.00072   2.76810
    R5        2.06567  -0.00007  -0.00006  -0.00014  -0.00021   2.06546
    R6        1.82725  -0.00006   0.00004  -0.00014  -0.00010   1.82716
    R7        2.32952  -0.00035   0.00000  -0.00036  -0.00036   2.32916
    R8        2.11442  -0.00017  -0.00002  -0.00050  -0.00052   2.11390
    A1        2.11289   0.00012  -0.00014   0.00078   0.00064   2.11353
    A2        2.12929  -0.00000   0.00016  -0.00005   0.00011   2.12940
    A3        2.04100  -0.00012  -0.00002  -0.00073  -0.00075   2.04025
    A4        2.06847  -0.00014  -0.00019  -0.00058  -0.00077   2.06770
    A5        2.12472   0.00005  -0.00008   0.00021   0.00013   2.12485
    A6        2.08999   0.00009   0.00028   0.00036   0.00064   2.09063
    A7        1.91048  -0.00011   0.00020  -0.00071  -0.00051   1.90996
    A8        2.17576  -0.00005   0.00012  -0.00021  -0.00009   2.17567
    A9        2.00982  -0.00005  -0.00010  -0.00035  -0.00045   2.00937
   A10        2.09760   0.00010  -0.00002   0.00056   0.00054   2.09815
    D1       -0.00000   0.00000  -0.00000   0.00001   0.00001   0.00001
    D2        3.14159   0.00000  -0.00000   0.00000  -0.00000   3.14159
    D3        3.14159   0.00000  -0.00000   0.00002   0.00002  -3.14157
    D4        0.00000   0.00000  -0.00000   0.00001   0.00001   0.00001
    D5       -3.14158  -0.00000  -0.00000  -0.00002  -0.00002   3.14158
    D6        0.00001  -0.00000  -0.00000  -0.00000  -0.00000   0.00001
    D7        3.14153   0.00000  -0.00000   0.00040   0.00040  -3.14125
    D8        0.00006  -0.00000   0.00000  -0.00040  -0.00040  -0.00034
    D9       -0.00006   0.00000  -0.00000   0.00041   0.00041   0.00035
   D10       -3.14153  -0.00000   0.00000  -0.00039  -0.00039   3.14126
         Item               Value     Threshold  Converged?
 Maximum Force            0.000345     0.000450     YES
 RMS     Force            0.000129     0.000300     YES
 Maximum Displacement     0.001959     0.001800     NO 
 RMS     Displacement     0.000804     0.001200     YES
 Predicted change in Energy=-6.042484D-07
 GradGradGradGradGradGradGradGradGradGradGradGradGradGradGradGradGradGrad

                          Input orientation:                          
 ---------------------------------------------------------------------
 Center     Atomic      Atomic             Coordinates (Angstroms)
 Number     Number       Type             X           Y           Z
 ---------------------------------------------------------------------
      1          6           0       -0.651525    0.843120   -0.119284
      2          6           0       -1.335800    0.499985   -1.239535
      3          1           0       -0.851942    0.350788    0.839963
      4          8           0        0.310393    1.807433   -0.127870
      5          6           0       -2.354473   -0.548101   -1.142020
      6          1           0        0.677384    1.903649    0.761475
      7          8           0       -3.040963   -0.948122   -2.084288
      8          1           0       -1.144718    0.983629   -2.200894
      9          1           0       -2.485485   -0.989825   -0.122684
 ---------------------------------------------------------------------
                    Distance matrix (angstroms):
                    1          2          3          4          5
     1  C    0.000000
     2  C    1.356811   0.000000
     3  H    1.096683   2.140255   0.000000
     4  O    1.362079   2.378060   2.099890   0.000000
     5  C    2.425184   1.464817   2.644591   3.698453   0.000000
     6  H    1.914800   3.166579   2.180911   0.966889   4.338955
     7  O    3.574801   2.391276   3.876883   4.759437   1.232539
     8  H    2.143847   1.092994   3.119779   2.663349   2.220567
     9  H    2.592896   2.188302   2.322153   3.954947   1.118629
                    6          7          8          9
     6  H    0.000000
     7  O    5.482433   0.000000
     8  H    3.597517   2.709428   0.000000
     9  H    4.376947   2.039163   3.164037   0.000000
 Stoichiometry    C3H4O2
 Framework group  C1[X(C3H4O2)]
 Deg. of freedom    21
 Full point group                 C1      NOp   1
 Largest Abelian subgroup         C1      NOp   1
 Largest concise Abelian subgroup C1      NOp   1
                         Standard orientation:                         
 ---------------------------------------------------------------------
 Center     Atomic      Atomic             Coordinates (Angstroms)
 Number     Number       Type             X           Y           Z
 ---------------------------------------------------------------------
      1          6           0        1.091956    0.341191   -0.000006
      2          6           0       -0.056815   -0.380793   -0.000081
      3          1           0        1.071819    1.437689   -0.000001
      4          8           0        2.317788   -0.252606    0.000049
      5          6           0       -1.333226    0.337861   -0.000162
      6          1           0        3.004798    0.427756    0.000090
      7          8           0       -2.441377   -0.201725    0.000114
      8          1           0       -0.049112   -1.473759   -0.000087
      9          1           0       -1.250281    1.453411    0.000188
 ---------------------------------------------------------------------
 Rotational constants (GHZ):          39.7583712           2.2100357           2.0936563
 Standard basis: Aug-CC-pVDZ (5D, 7F)
 There are   161 symmetry adapted cartesian basis functions of A   symmetry.
 There are   151 symmetry adapted basis functions of A   symmetry.
   151 basis functions,   259 primitive gaussians,   161 cartesian basis functions
    19 alpha electrons       19 beta electrons
       nuclear repulsion energy       152.4839913968 Hartrees.
 NAtoms=    9 NActive=    9 NUniq=    9 SFac= 1.00D+00 NAtFMM=   60 NAOKFM=F Big=F
 Integral buffers will be    131072 words long.
 Raffenetti 1 integral format.
 Two-electron integral symmetry is turned on.
 One-electron integrals computed using PRISM.
 NBasis=   151 RedAO= T EigKep=  2.85D-05  NBF=   151
 NBsUse=   151 1.00D-06 EigRej= -1.00D+00 NBFU=   151
 Initial guess from the checkpoint file:  "/scr/Gau-12951.chk"
 B after Tr=     0.000000   -0.000000    0.000000
         Rot=    1.000000    0.000000    0.000000    0.000002 Ang=   0.00 deg.
 Keep R1 ints in memory in canonical form, NReq=74562169.
 Requested convergence on RMS density matrix=1.00D-08 within 128 cycles.
 Requested convergence on MAX density matrix=1.00D-06.
 Requested convergence on             energy=1.00D-06.
 No special actions if energy rises.
 SCF Done:  E(RHF) =  -265.663018843     A.U. after    9 cycles
            NFock=  9  Conv=0.84D-08     -V/T= 2.0022
 ExpMin= 2.97D-02 ExpMax= 1.17D+04 ExpMxC= 4.01D+02 IAcc=3 IRadAn=         5 AccDes= 0.00D+00
 HarFok:  IExCor=  205 AccDes= 0.00D+00 IRadAn=         5 IDoV=-2 UseB2=F ITyADJ=14
 ICtDFT= 12500011 ScaDFX=  1.000000  1.000000  1.000000  1.000000
 Range of M.O.s used for correlation:     6   151
 NBasis=   151 NAE=    19 NBE=    19 NFC=     5 NFV=     0
 NROrb=    146 NOA=    14 NOB=    14 NVA=   132 NVB=   132

 **** Warning!!: The largest alpha MO coefficient is  0.37053972D+02

 Fully direct method using O(ONN) memory.
 JobTyp=1 Pass  1:  I=   6 to  19 NPSUse= 40 ParTrn=T ParDer=T DoDerP=T.
 Spin components of T(2) and E(2):
     alpha-alpha T2 =       0.3440567173D-01 E2=     -0.1045551700D+00
     alpha-beta  T2 =       0.1916182068D+00 E2=     -0.5911982110D+00
     beta-beta   T2 =       0.3440567173D-01 E2=     -0.1045551700D+00
 ANorm=    0.1122688537D+01
 E2 =    -0.8003085511D+00 EUMP2 =    -0.26646332739456D+03
          IDoAtm=111111111
          Differentiating once with respect to electric field.
                with respect to dipole field.
          Differentiating once with respect to nuclear coordinates.
 Keep R1 ints in memory in canonical form, NReq=74570020.
          There are     1 degrees of freedom in the 1st order CPHF.  IDoFFX=0 NUNeed=     1.
 LinEq1:  Iter=  0 NonCon=     1 RMS=5.63D-03 Max=9.06D-02 NDo=     1
 AX will form     1 AO Fock derivatives at one time.
 LinEq1:  Iter=  1 NonCon=     1 RMS=1.78D-03 Max=2.18D-02 NDo=     1
 LinEq1:  Iter=  2 NonCon=     1 RMS=6.05D-04 Max=7.15D-03 NDo=     1
 LinEq1:  Iter=  3 NonCon=     1 RMS=2.09D-04 Max=2.61D-03 NDo=     1
 LinEq1:  Iter=  4 NonCon=     1 RMS=7.28D-05 Max=8.85D-04 NDo=     1
 LinEq1:  Iter=  5 NonCon=     1 RMS=2.67D-05 Max=2.71D-04 NDo=     1
 LinEq1:  Iter=  6 NonCon=     1 RMS=9.02D-06 Max=1.72D-04 NDo=     1
 LinEq1:  Iter=  7 NonCon=     1 RMS=2.43D-06 Max=3.35D-05 NDo=     1
 LinEq1:  Iter=  8 NonCon=     1 RMS=1.16D-06 Max=2.58D-05 NDo=     1
 LinEq1:  Iter=  9 NonCon=     1 RMS=2.50D-07 Max=2.60D-06 NDo=     1
 LinEq1:  Iter= 10 NonCon=     1 RMS=5.45D-08 Max=6.18D-07 NDo=     1
 LinEq1:  Iter= 11 NonCon=     1 RMS=1.41D-08 Max=2.15D-07 NDo=     1
 LinEq1:  Iter= 12 NonCon=     1 RMS=3.97D-09 Max=5.14D-08 NDo=     1
 LinEq1:  Iter= 13 NonCon=     1 RMS=1.22D-09 Max=1.41D-08 NDo=     1
 LinEq1:  Iter= 14 NonCon=     1 RMS=2.34D-10 Max=1.92D-09 NDo=     1
 LinEq1:  Iter= 15 NonCon=     0 RMS=3.97D-11 Max=2.92D-10 NDo=     1
 Linear equations converged to 1.000D-10 1.000D-09 after    15 iterations.
 End of Minotr F.D. properties file   721 does not exist.
 End of Minotr F.D. properties file   722 does not exist.
 End of Minotr F.D. properties file   788 does not exist.
 Calling FoFJK, ICntrl=  10002127 FMM=F ISym2X=0 I1Cent= 0 IOpClX= 0 NMat=1 NMatS=1 NMatT=0.
 ***** Axes restored to original set *****
 -------------------------------------------------------------------
 Center     Atomic                   Forces (Hartrees/Bohr)
 Number     Number              X              Y              Z
 -------------------------------------------------------------------
      1        6          -0.000088731   -0.000067144   -0.000049401
      2        6           0.000050368    0.000073466    0.000023553
      3        1           0.000006480    0.000006267    0.000003004
      4        8           0.000051622    0.000036914    0.000038361
      5        6          -0.000073523   -0.000154638   -0.000097441
      6        1           0.000008486    0.000011104   -0.000013582
      7        8           0.000050315    0.000062502    0.000087752
      8        1          -0.000005261   -0.000004233   -0.000000020
      9        1           0.000000244    0.000035762    0.000007774
 -------------------------------------------------------------------
 Cartesian Forces:  Max     0.000154638 RMS     0.000055650

 GradGradGradGradGradGradGradGradGradGradGradGradGradGradGradGradGradGrad
 Berny optimization.
 Using GEDIIS/GDIIS optimizer.
 FormGI is forming the generalized inverse of G from B-inverse, IUseBI=4.
 Internal  Forces:  Max     0.000115395 RMS     0.000032682
 Search for a local minimum.
 Step number   5 out of a maximum of   38
 All quantities printed in internal units (Hartrees-Bohrs-Radians)
 Mixed Optimization -- En-DIIS/RFO-DIIS
 Swapping is turned off.
 Update second derivatives using D2CorX and points    1    2    3    4    5
 DE= -6.31D-07 DEPred=-6.04D-07 R= 1.04D+00
 Trust test= 1.04D+00 RLast= 2.24D-03 DXMaxT set to 3.31D-01
 ITU=  0  1  1  1  0
     Eigenvalues ---    0.01125   0.01194   0.02065   0.02109   0.02697
     Eigenvalues ---    0.02968   0.11684   0.14646   0.16276   0.17334
     Eigenvalues ---    0.18790   0.22092   0.24015   0.32703   0.34770
     Eigenvalues ---    0.35677   0.37324   0.51340   0.53551   0.63094
     Eigenvalues ---    0.89293
 En-DIIS/RFO-DIIS/Sim-DIIS IScMMF=       -3 using points:     5    4    3
 RFO step:  Lambda=-3.09602191D-07.
 DidBck=T Rises=F RFO-DIIS coefs:    0.49321    0.66873   -0.16193
 Iteration  1 RMS(Cart)=  0.00050400 RMS(Int)=  0.00000066
 Iteration  2 RMS(Cart)=  0.00000051 RMS(Int)=  0.00000044
 Variable       Old X    -DE/DX   Delta X   Delta X   Delta X     New X
                                 (Linear)    (Quad)   (Total)
    R1        2.56400  -0.00003   0.00034  -0.00045  -0.00011   2.56389
    R2        2.07243  -0.00000  -0.00016   0.00014  -0.00002   2.07241
    R3        2.57396   0.00008  -0.00033   0.00030  -0.00003   2.57392
    R4        2.76810   0.00006  -0.00054   0.00080   0.00025   2.76835
    R5        2.06546  -0.00000  -0.00016   0.00011  -0.00005   2.06540
    R6        1.82716  -0.00001   0.00023  -0.00025  -0.00002   1.82713
    R7        2.32916  -0.00012   0.00020  -0.00036  -0.00016   2.32900
    R8        2.11390  -0.00001   0.00017  -0.00030  -0.00012   2.11378
    A1        2.11353   0.00000  -0.00091   0.00106   0.00014   2.11368
    A2        2.12940   0.00002   0.00061  -0.00052   0.00009   2.12949
    A3        2.04025  -0.00002   0.00030  -0.00053  -0.00023   2.04002
    A4        2.06770  -0.00002  -0.00042   0.00020  -0.00022   2.06748
    A5        2.12485   0.00002  -0.00042   0.00051   0.00009   2.12494
    A6        2.09063   0.00000   0.00084  -0.00071   0.00014   2.09077
    A7        1.90996   0.00003   0.00108  -0.00102   0.00006   1.91003
    A8        2.17567   0.00000   0.00057  -0.00058  -0.00002   2.17565
    A9        2.00937  -0.00003  -0.00020  -0.00000  -0.00021   2.00916
   A10        2.09815   0.00003  -0.00036   0.00059   0.00022   2.09837
    D1        0.00001  -0.00000  -0.00000  -0.00002  -0.00002  -0.00002
    D2        3.14159  -0.00000  -0.00000   0.00000   0.00000  -3.14159
    D3       -3.14157  -0.00000  -0.00001  -0.00008  -0.00009   3.14152
    D4        0.00001  -0.00000  -0.00001  -0.00005  -0.00006  -0.00005
    D5        3.14158   0.00000   0.00001   0.00005   0.00006  -3.14154
    D6        0.00001  -0.00000   0.00000  -0.00000  -0.00000   0.00000
    D7       -3.14125  -0.00003  -0.00021  -0.00136  -0.00157   3.14036
    D8       -0.00034   0.00003   0.00021   0.00135   0.00156   0.00122
    D9        0.00035  -0.00003  -0.00022  -0.00138  -0.00160  -0.00125
   D10        3.14126   0.00002   0.00021   0.00132   0.00153  -3.14040
         Item               Value     Threshold  Converged?
 Maximum Force            0.000115     0.000450     YES
 RMS     Force            0.000033     0.000300     YES
 Maximum Displacement     0.001138     0.001800     YES
 RMS     Displacement     0.000504     0.001200     YES
 Predicted change in Energy=-1.417095D-07
 Optimization completed.
    -- Stationary point found.
                           ----------------------------
                           !   Optimized Parameters   !
                           ! (Angstroms and Degrees)  !
 --------------------------                            --------------------------
 ! Name  Definition              Value          Derivative Info.                !
 --------------------------------------------------------------------------------
 ! R1    R(1,2)                  1.3568         -DE/DX =    0.0                 !
 ! R2    R(1,3)                  1.0967         -DE/DX =    0.0                 !
 ! R3    R(1,4)                  1.3621         -DE/DX =    0.0001              !
 ! R4    R(2,5)                  1.4648         -DE/DX =    0.0001              !
 ! R5    R(2,8)                  1.093          -DE/DX =    0.0                 !
 ! R6    R(4,6)                  0.9669         -DE/DX =    0.0                 !
 ! R7    R(5,7)                  1.2325         -DE/DX =   -0.0001              !
 ! R8    R(5,9)                  1.1186         -DE/DX =    0.0                 !
 ! A1    A(2,1,3)              121.0966         -DE/DX =    0.0                 !
 ! A2    A(2,1,4)              122.0056         -DE/DX =    0.0                 !
 ! A3    A(3,1,4)              116.8978         -DE/DX =    0.0                 !
 ! A4    A(1,2,5)              118.4706         -DE/DX =    0.0                 !
 ! A5    A(1,2,8)              121.7449         -DE/DX =    0.0                 !
 ! A6    A(5,2,8)              119.7845         -DE/DX =    0.0                 !
 ! A7    A(1,4,6)              109.4329         -DE/DX =    0.0                 !
 ! A8    A(2,5,7)              124.6567         -DE/DX =    0.0                 !
 ! A9    A(2,5,9)              115.1284         -DE/DX =    0.0                 !
 ! A10   A(7,5,9)              120.2149         -DE/DX =    0.0                 !
 ! D1    D(3,1,2,5)              0.0003         -DE/DX =    0.0                 !
[...]
 0.00064004,0.00902478,0.01083391,-0.02720824,0.00050729,-0.00006572,0.
 00112589,0.00027187,-0.00003009,0.00039304,-0.00293512,-0.00193375,-0.
 00261566,0.00023861,0.00008601,0.00005653,0.00033630,0.00005223,0.0003
 8451,-0.00538319,-0.00860993,-0.00169687,-0.00121117,0.00029440,-0.015
 34689,-0.02975152,0.04087009,0.00089429,0.00076663,0.00017508,0.000192
 89,0.00017354,-0.00011191,0.00143450,0.00175161,-0.00081159,-0.0000303
 7,-0.00010558,0.00011081,-0.00028688,-0.00030222,-0.00012620,0.0146680
 3,0.02836879,-0.03964344,0.00054429,-0.00026604,0.00238667,-0.00330788
 ,-0.00235963,-0.00278827,0.00025890,0.00016667,-0.00021123,-0.00007175
 ,0.00030332,-0.00025628,-0.00045398,0.00020236,-0.00148169,-0.00009534
 ,0.00001944,-0.00009938,-0.00161594,-0.00145310,0.00068110,0.00068294,
 0.00095091,0.00017131,0.00405876,0.00052830,-0.00009462,0.00234001,-0.
 00351326,-0.00264708,-0.00315455,-0.00008487,0.00014283,-0.00023482,0.
 00007638,-0.00008526,-0.00045353,0.00045806,0.00421112,-0.01352542,-0.
 00005972,-0.00010319,-0.00013218,-0.00084169,-0.00144715,0.00115873,0.
 00100075,0.00058467,0.00030992,0.00243607,-0.00056132,-0.00025824,-0.0
 0028716,0.00017183,0.00102545,0.00068869,0.00126696,0.00062058,0.00060
 267,0.00023935,0.00053960,0.00033004,0.00035744,-0.00203875,-0.0141647
 0,0.03938480,0.00015539,0.00012528,0.00001444,-0.00163960,-0.00112183,
 -0.00179761,-0.00000221,0.00013518,-0.00075724,0.00159777,0.01369182,-
 0.03887995,-0.00234218,-0.00464935,-0.00238123,0.00101981,-0.00082634,
 0.00804584,0.00304805,0.00127579,-0.00362183,-0.00915859,0.00099232,0.
 00433621,-0.00158424,-0.00393833,-0.01220185,-0.00265553,-0.00065182,-
 0.00365912,0.00537525,0.00504212,-0.00608745,0.00016364,0.00105745,0.0
 0054243,-0.00025105,0.00020392,-0.00041193,-0.00088696,0.00106784,-0.0
 0029307,0.00095786,0.00002139,-0.00009023,-0.00071636,-0.00146394,-0.0
 0079943,0.00050581,0.00091252,-0.00238041,0.00015531,-0.00013674,0.000
 63711,0.00000009,-0.00028348,0.00149560,0.00114448,0.00264417,0.001531
 95,-0.00029617,0.00031645,-0.00048745,0.00056625,-0.00033997,-0.000547
 62,-0.00144154,0.00291611,0.00047855,0.00154685,-0.00008623,-0.0003655
 2,-0.00071062,-0.00034397,0.00086375,-0.00044717,-0.00288486,-0.000896
 97,0.00061254,0.00063180,-0.00205036,0.00092611,0.00069289,0.00027585,
 -0.00051886,-0.00041615,0.00073119,-0.00090920,-0.00080720,0.00141736,
 -0.00276188,-0.00088792,0.00158443,0.00880605,0.01785798,-0.00989251,0
 .00021727,0.00005554,-0.00100975,-0.00000109,-0.00015125,-0.00122177,-
 0.53853930,-0.00093290,-0.00349291,0.00068426,0.01089850,0.00735708,-0
 .00868008,-0.00027310,0.00061959,-0.00129057,-0.00033294,0.00048837,-0
 .00108482,0.13037212,-0.06370605,0.00173263,0.00087801,0.00045145,0.01
 303422,0.01420405,-0.00966695,0.00002006,-0.00025745,0.00140568,-0.000
 56198,-0.00042996,0.00009365,-0.33504552,-1.22204481,2.34205016,-0.000
 04228,-0.00008197,-0.00007305,0.00024228,0.00011701,0.00005100,-0.0002
 0345,0.00006559,0.00009354,-0.00006639,0.00046606,-0.00001649,-0.00014
 422,-0.00050301,0.00015231,0.00007673,-0.00002403,0.00004252,-0.000024
 08,0.00004166,0.00014989,0.00002206,0.00009346,-0.00019788,-0.00002324
 ,0.00039479,-0.00011705,-0.00006509,-0.00042213,-0.00013671,0.00009435
 ,-0.00041167,0.00007207,-0.00024190,-0.00019627,-0.00009525,0.00029047
 ,0.00026648,0.00020656,-0.00000149,-0.00011862,0.00008792,0.00020232,0
 .00015627,-0.00038182,-0.00011466,-0.00017286,0.00050052,-0.00002490,0
 .00005487,0.00024012,0.00007345,-0.00043278,-0.00103190,-0.00168938,-0
 .00244127,0.00247422,0.00001865,-0.00002689,0.00018177,0.00064171,0.00
 057858,0.00081296,-0.00588239,0.01643048,-0.01198988,0.00006647,0.0001
 3643,-0.00003374,0.00680882,-0.00023041,0.00071847,-0.00042622,-0.0021
 5876,-0.00308118,0.00308381,0.00004321,-0.00007225,0.00034012,0.000582
 53,0.00023788,0.00053971,0.00411703,-0.00920781,-0.01720439,0.00012114
 ,0.00006252,-0.00000769,-0.00154898,0.01087563,-0.00168487,-0.00109980
 ,-0.00110145,0.00145777,0.00202437,-0.00222056,-0.00004459,0.00011059,
 -0.00054015,0.00076766,0.00050551,0.00068858,0.02820318,0.02313480,-0.
 00101804,0.00001492,0.00004195,-0.00014254,-0.01193806,-0.00154176,-0.
 02271916,-0.00022766,0.00014998,0.00064393,0.00301429,0.00048141,-0.00
 058444,-0.00016208,0.00000617,0.00009174,-0.00006260,-0.00019793,-0.00
 018214,-0.00169820,-0.00064774,0.00045158,0.00005138,-0.00007396,-0.00
 000588,0.00004870,-0.00025335,0.00053502,-0.00064252,0.00048456,-0.000
 24014,0.00049248,0.00012151,0.00275471,0.00033134,0.00006010,-0.000141
 88,0.00002661,-0.00025306,-0.00003145,-0.00011053,-0.00034940,-0.00163
 159,0.00023027,-0.00007415,0.00004055,0.00004018,0.00003497,-0.0000381
 3,0.00070320,0.00063654,-0.00094017,-0.00045824,-0.00061285,-0.0000755
 6,0.00054560,0.00146278,-0.00028178,-0.00009196,-0.00015956,0.00001502
 ,0.00001241,0.00008481,-0.00004320,-0.00048863,-0.00070216,-0.00047821
 ,-0.00000521,0.00004094,-0.00002573,-0.00040798,-0.00024258,-0.0004124
 7,0.00072393,0.00027257,-0.00003298,0.00094445,0.00092471,-0.00059575,
 -0.00371560,-0.01358959,0.00613136,0.00053774,0.00061429,0.00052912,-0
 .00048464,-0.00029651,0.00049686,0.54000378,-0.15501141,0.33220662,0.0
 0001947,0.00026545,-0.00007022,-0.00008603,-0.00067241,-0.01731104,-0.
 00032133,-0.00066107,0.00017007,-0.53689782,0.00037590,0.00083165,-0.0
 0082056,-0.00617561,0.00114082,0.00227950,0.00062288,0.00011140,0.0009
 0195,-0.00012710,-0.00065757,0.00061940,-0.15059196,0.06971004,1.22452
 996,0.00030100,0.00008408,-0.00002235,-0.01273055,0.00050487,-0.023878
 87,-0.00010111,0.00022812,-0.00014394,0.16842655,-0.07195339,0.0011698
 3,0.00096484,0.00086484,-0.01816297,-0.02197180,0.02079636,0.00050625,
 0.00088316,-0.00145198,-0.00000808,0.00010152,-0.00073124,0.31798524,1
 .21015626,-2.33333826,-0.00019212,-0.00014176,-0.00038979,0.02193262,0
 .01545899,0.02746579,-0.00167374,-0.00198613,0.00133491,-0.32155703,-1
 .20346508,2.28544936,-0.54614178,0.33161101,0.10218248,-0.62151680,-1.
 50886072,2.22723241,0.00066093,0.00598567,-0.00549603,-0.00720962,-0.0
 0084869,-0.00170171,-0.00923917,-0.00290740,-0.00768124,0.01698447,0.0
 1320341,0.00880240,-0.00152359,0.00347783,-0.02059117,0.54271782,-0.34
 422272,0.61742665,0.00115380,0.00138896,-0.01845335,-0.54496179,-0.345
 34729,-0.10578466,1.50990203,-0.00652121,0.00508895,-0.02045779,0.3470
 6674,0.09630466,0.62111890,1.51358425,-2.23362564,0.00749995,0.0055017
 9,0.01194560,-0.60902859,-1.49825760,2.21534084,0.00765383,0.01100861,
 0.01088272,0.00027560,0.00005963,0.00056611,-0.00101399,0.00091118,-0.
 01792449,-0.00869141,0.01859225,0.00875471,0.01038583,0.00073336,0.000
 14844,0.00196375,-0.00768618,0.00178856,-0.01952531,-0.00928372,-0.012
 85928,-0.01405705,-0.01454371,-0.00507999,-0.00155883,-0.00017112,-0.0
 0454168,0.01033834,0.00873334,0.00879226,0.00724381,0.00653406,0.00074
 744,0.00084845,-0.00196491,-0.00300090,0.00311174,0.00113156,0.0024974
 3,-0.00094710,0.00228431,-0.00140459,-0.00154466,-0.00063731,0.0013718
 5,-0.00474716,-0.00217024,0.00188997,-0.00108596,0.00120683,0.00183327
 ,0.00151998,0.00100063,-0.00099689,-0.00254534,-0.00031374,-0.00191556
 ,0.00080763,-0.00083777,-0.00275672,-0.00232595,-0.00036292,-0.0027195
 9,0.00234301,0.00134027,0.00475404,0.00276096,0.00162069,0.00096414,0.
 00037716,-0.00019381,0.00055561,-0.00266382,-0.00337303,-0.00167956,-0
 .00221046,-0.00330840,-0.00017840,-0.00045050,0.00029041,-0.00029211,0
 .00122604,0.00269820,-0.00022852,0.00233801,-0.00078971,-0.00290826,0.
 00052423,-0.00013919,-0.00019087,-0.00113889,-0.00282460,-0.00135737,-
 0.00103957,0.00000901,-0.00053353,-0.00034128,0.00314712,0.00165601,0.
 00028400,-0.00143552,0.00303314,-0.00150772,-0.00021523,0.00049188,0.0
 0005070,0.00085020,-0.00304839,-0.00174614,-0.00261027,0.00398629,0.00
 062438,0.00057992,-0.00048801,-0.00170730,-0.00119486,-0.00308476,-0.0
 0080227,0.00060046,-0.00060012,0.00005824,0.00029949,-0.00007492,0.003
 66899,0.00261609,0.00035610,-0.00055401,0.00040978,0.00020287,-0.00091
 047,-0.00058409,0.00024865,0.00031702,-0.00036548,0.00045506,0.0005098
 8,0.00031456,-0.00012632,0.00183887,0.00110842,0.00007116,-0.00000892,
 0.00002821,-0.00005824,-0.00106685,0.00030873,-0.00060792,-0.00035299,
 -0.00006900,-0.00050857,0.00015507,-0.00010916,0.00018906,0.00080039,0
 .00027015,0.00052365,-0.00005099,0.00040491,0.00106582,0.00044092,-0.0
 0000714,-0.00000544,-0.00007271,-0.00047601,-0.00060282,0.00054582,-0.
 00003155,0.00087350,-0.00152734,-0.00166385,-0.00031512,-0.00038348,-0
 .00004050,-0.00060255,-0.00001561,0.00007146,-0.00004041,0.00217583,0.
 00264071,0.00004263,0.00005618,0.00004263,0.00003137,-0.00079928,-0.00
 084893,-0.00071973,-0.00322866,0.00122233,0.00136871,0.00383246,0.0013
 5426,0.00062849,0.00111625,-0.00144049,-0.00110102,0.00049248,-0.00112
 058,-0.00024291,0.00015949,-0.00025667,-0.00076499,-0.00017608,0.00033
 934,-0.00002308,-0.00005413,-0.00015226,0.00007983,-0.00197562,0.00150
 884,-0.00343981,0.00025734,0.00131026,0.00328184,0.00112061,-0.0013155
 2,0.00175381,-0.00057075,-0.00121796,0.00041636,0.00016569,-0.00062525
 ,0.00018488,-0.00060324,0.00031721,-0.00014989,-0.00013750,-0.00006429
 ,-0.00003611,0.00015491,-0.00005001,-0.00181828,0.00042829,-0.00068725
 ,-0.00121443,0.00071832,0.00121165,0.00069184,-0.00151904,-0.00099148,
 0.00114944,0.00008982,0.00049928,0.00034596,0.00047946,0.00064830,0.00
 010007,0.00004991,-0.00006453,-0.00013403,-0.00020536,-0.00013309,-0.0
 0017168,-0.00008294,-0.00041889,-0.00081499,0.00025393,-0.00074132,0.0
 0031118,-0.00046398,0.00011530,-0.00065608,0.00039196,0.00071403,0.000
 61330,-0.00001972,-0.00012270,-0.00006064,0.00075614,0.00040175,0.0003
 9333,-0.00010342,0.00010147,-0.00001458,-0.00007138,-0.00017023,-0.000
 13195,-0.00016618,0.00013671,0.00004154,-0.00057735,-0.00083000,0.0000
 6432,0.00003322,0.00025243,0.00007254,-0.00064156,0.00073011,0.0000005
 1,0.00072857,0.00000136,0.00010998,0.00003282,0.00045972,0.00020335,0.
 00108041,0.00008841,-0.00008641,-0.00008061,-0.00037110,-0.00001766,-0
 .00032487,0.00010407,-0.00019279,-0.00006399,-0.00043500,-0.00015384,0
 .00056858,0.00030888,0.00174501,-0.00107997,-0.00103742,-0.00025783,0.
 00056582,0.00068618,-0.00087934,-0.00041725,-0.00033570,-0.00017905,0.
 00048647,0.00108819,-0.00194242,0.00002308,-0.00004032,0.00000808,0.00
 021145,0.00006232,0.00090202,0.00013791,0.00003183,0.00004782,-0.00049
 610,-0.00076399,0.00055571,-0.00027605,-0.00320279,-0.00467194,0.00474
 913,0.00976296,-0.01500470,0.00032726,-0.00435260,0.01479740,-0.589093
 12,0.00279513,-0.00132191,0.01405908,0.32320214,0.05405561,-0.00865127
 ,-0.00942350,0.00273636,-0.59348080,-1.51956975,2.31114641,0.00064640,
 0.00174499,-0.00070959,-0.00159121,0.00099580,0.00157232,-0.00042755,0
 .00126589,0.00075244,-0.00124983,0.00112829,-0.00226483,0.00107302,-0.
 00028010,-0.00047718,0.00086203,0.00031382,0.00093291,0.00110486,0.000
 61501,-0.00145173,0.00002808,0.00014078,-0.00053801,0.00058419,0.00213
 498,0.00012481,0.00003790,-0.00102821,-0.00315371,0.00039199,-0.000364
 06,-0.00012987,-0.00078513,0.00238029,0.00116339,-0.00123011,-0.001347
 03,0.00126855,-0.00203230,-0.00035354,0.00040773,0.00010826,-0.0015217
 7,-0.00108606,-0.00070383,-0.00205405,0.00282711,-0.00201785,-0.000908
 09,-0.00164637,-0.00014888,0.00009185,0.00000114,0.00021297,0.00084712
 ,-0.00137932,0.00060889,0.00086509,0.00150557,0.00736544,0.00117765,0.
 00751762,-0.00021901,-0.00024812,-0.00011170,-0.00064333,-0.00030377,-
 0.00003218,-0.00752978,0.00082181,-0.00010224,0.00071038,0.00686775,0.
 00750363,0.01026929,-0.00041389,-0.00027570,-0.00014968,-0.00025000,-0
 .00057939,-0.00010533,-0.00529363,-0.00848950,0.00163429,0.00088441,0.
 00175588,-0.01105694,-0.00831957,-0.00485898,0.00038467,0.00034794,0.0
 0020457,-0.00014175,-0.00022005,-0.00006722,-0.00016742,0.00384603,-0.
 01628527,0.00016880,-0.00011225,0.00033354,-0.00000094,-0.00049366,-0.
 00082446,-0.00006985,-0.00001418,-0.00006851,0.00006919,0.00014140,-0.
 00001185,-0.00014125,0.00004024,0.00009307,-0.00011414,0.00003894,0.00
 017056,0.00014854,-0.00070786,0.00014539,-0.00034236,-0.00003116,-0.00
 004589,-0.00006884,0.00014544,0.00008584,-0.00004210,0.00011210,-0.000
 09214,-0.00001393,-0.00004583,-0.00012803,-0.00014199,-0.00033055,0.00
 079032,-0.00012864,0.00035799,-0.00083609,-0.00001615,-0.00001682,-0.0
 0003172,-0.00004013,-0.00006775,0.00001642,-0.00014374,-0.00025087,0.0
 0013903,-0.00000171,0.00006131,-0.00026796,-0.00027317,0.00035349,-0.0
 0042503,-0.00318225,-0.00393576,-0.00048579,0.00017100,0.00002526,0.00
 005733,0.00030129,0.00019381,0.00021403,0.00151502,0.00199212,0.001345
 46,0.00010237,0.00000928,0.00002093,0.00000074,0.00035594,-0.00013926,
 -0.00000309,-0.00353628,-0.00232406,-0.00099547,0.00006525,0.00016389,
 0.00009083,0.00014351,0.00015700,0.00011017,0.00154788,0.00092943,-0.0
 0060000,0.00000231,0.00007276,0.00004906,-0.00027509,0.00019494,-0.000
 42176,-0.00001907,-0.00181748,-0.00188213,-0.00243786,0.00236389,-0.00
 007052,-0.00003964,0.00000805,0.00034461,0.00025180,0.00035895,0.00259
 794,0.00074743,0.00606025,0.00004253,0.00007157,-0.00000302,-0.0010259
 8,0.00026203,-0.00418248,-0.00179787,0.00268152,-0.01991517,0.58668172
 ,-0.32391183,0.59737931,0.00126788,-0.00142367,-0.00181002,-0.00011849
 ,0.00077220,0.00243548,-0.00325282,-0.00413857,0.00650292,-0.00002571,
 0.00048549,0.00043545,0.00173978,0.00193129,0.00066903,-0.58401641,-0.
 00428309,0.00395924,-0.02188960,-0.32235230,-0.05628825,1.52070481,-0.
 00171652,0.00185640,-0.00106813,0.00066913,-0.00155889,0.00194651,0.00
 128220,-0.00055176,0.00231489,0.00048049,-0.00022280,0.00019408,0.0019
 5792,0.00109172,0.00156658,0.32495311,0.05192015,0.00296907,0.00098977
 ,0.00808882,0.59219058,1.51551505,-2.30522700,-0.00085615,-0.00011892,
 0.00080537,0.00278751,0.00229840,-0.00002538,-0.01125486,-0.01542447,0
 .01264320,0.00045214,0.00021046,0.00014723,0.00058242,0.00147522,-0.00
 334258,-0.58605100,-1.50368880,2.28470584,0.00001160,-0.00011239,-0.00
 046065,-0.00054487,0.00119869,0.00012675,-0.00016965,-0.00008931,0.000
 06780,0.00016239,0.00003840,0.00005210,0.00229687,0.00037419,0.0014057
 1,0.00001152,-0.00000640,0.00001599,-0.00037476,-0.00023480,-0.0002537
 3,-0.00047806,-0.00099094,-0.00081973,-0.00091504,-0.00017207,0.000189
 79,-0.00030832,0.00109782,-0.00077422,0.00031626,-0.00001084,-0.000116
 86,0.00001797,0.00007097,0.00014182,0.00011392,0.00086062,0.00165768,0
 .00176027,0.00000148,0.00001432,0.00000356,-0.00032102,-0.00014640,-0.
 00040283,-0.00134953,-0.00020582,-0.00125672,-0.00017742,-0.00076031,-
 0.00029573,-0.00012383,-0.00030923,0.00047355,0.00068820,-0.00222656,-
 0.00018380,-0.00022839,0.00006941,-0.00000445,0.00004463,-0.00008533,0
 .00008879,0.00035723,0.00040859,-0.00001476,-0.00002466,0.00004579,-0.
 00028337,-0.00038876,0.00055445,0.00035401,-0.00008033,0.00220450,-0.0
 0013425,-0.00024410,-0.00066160,-0.01183553,-0.01283418,-0.01156887,-0
 .00120648,0.00042216,-0.00399593,0.00196332,0.00191918,-0.00180633,-0.
 00406494,0.00001086,0.00138116,-0.00260448,-0.00204983,-0.00330542,0.0
 0450318,0.00366803,0.00337240,-0.00139461,-0.00068868,-0.00423060,0.00
 107131,-0.00040874,0.00123108,-0.00018701,-0.00035194,-0.00027970,-0.0
 0229749,-0.00080186,-0.00021028,0.00165731,-0.00021034,0.00004325,-0.0
 0001331,-0.00244997,-0.00170107,0.00251659,0.00293522,-0.00025446,-0.0
 0077604,-0.00049804,-0.00065727,-0.00065106,-0.00130035,0.00247288,0.0
 2362794,0.02448910,0.01562936,0.00017737,0.00294405,-0.00405396,-0.001
 66651,-0.00169601,-0.00112778,-0.26823591,0.03481803,0.02216652,0.0230
 4663,0.00174194,0.00166217,-0.00488651,-0.00282874,-0.00199990,-0.0014
 9574,0.29536756,-1.35414321,-0.01832894,-0.01089959,-0.03004610,-0.000
 00976,-0.00085500,0.00121553,0.00260678,0.00224143,0.00157017,2.861583
 89,0.70511833,5.64802997,0.00081394,0.00031132,0.00040513,0.00217393,0
 .00046517,-0.00029550,-0.00019841,0.00032448,-0.00001197,-0.00323492,-
 0.00036513,-0.00135466,-0.00268238,0.00068359,0.00075053,0.00103825,-0
 .00000176,0.00173191,-0.00021981,0.00035230,-0.00004895,-0.00028595,-0
 .00102420,-0.00298588,-0.00172855,-0.00118909,-0.00166223,-0.00082531,
 -0.00014442,-0.00185505,0.00133172,0.00138048,0.00187559,-0.00015333,-
 0.00042519,0.00039784,0.00087944,0.00049796,-0.00119909,-0.00121463,-0
 .00162952,-0.00067270,-0.01470107,-0.01325902,-0.01367787,0.00105807,-
 0.00063783,0.00055766,0.00304023,0.00500891,-0.00014476,0.24728672,-0.
 32948409,-2.84456928,0.00154977,0.00004013,-0.00054239,-0.23727270,-0.
 02175597,-0.01215261,-0.02258745,-0.00142980,-0.00034931,0.00148290,0.
 00589537,0.00385583,0.00036556,-0.32067931,1.33355568,-0.69428340,-0.0
 0047108,0.00133413,-0.00042235,0.33875880,-1.32540493,0.01425974,0.005
 34104,0.03201527,0.00315136,0.00408138,-0.00151492,-0.00306013,-0.0025
 5020,-0.00360008,-2.87351403,-0.72321896,-5.61972299,0.00113461,0.0012
 5321,0.00127814,2.85844222,0.71543528,5.59230173,-0.00073217,-0.000421
 31,-0.00065316,-0.00069434,-0.00051166,0.00085009,0.00009838,-0.000041
 18,0.00009048,0.00180143,0.00094784,0.00050407,0.00115151,0.00114195,0
 .00057983,-0.00075832,-0.00017219,-0.00032682,-0.00073698,-0.00052711,
 -0.00041753,-0.00072348,-0.00006377,-0.00071698,0.00072917,-0.00004604
 ,0.00001970,0.00014448,0.00085681,0.00141712,0.00046827,0.00083660,0.0
 0060516,0.00049691,-0.00022031,-0.00061979,-0.00028622,-0.00083376,-0.
 00021958,-0.00029488,-0.00038571,0.00018848,-0.00070473,-0.00086875,-0
 .00026411,0.00011066,0.00016174,-0.00007586,0.00077217,0.00074754,0.00
 079059,0.00137436,0.00138630,0.00065694,-0.00017294,-0.00013131,-0.000
 61557,-0.00101747,-0.00080830,-0.00081751,-0.00013410,0.00025270,0.000
 01349,0.00000245,0.00031686,0.00018665,0.00012337,-0.00014347,0.000109
 22,-0.00030994,-0.00022421,-0.00061690,0.00006100,-0.00022043,-0.00006
 909,0.00005608,-0.00023609,0.00004682,0.00000226,0.00006821,0.00002815
 ,0.00021357,0.00040303,0.00006265,-0.00016804,0.00024691,-0.00010453,0
 .00001566,-0.00013277,0.00007155,0.00010462,-0.00034613,-0.00014319,-0
 .00034105,-0.00021714,0.00004693,0.00005185,-0.00021464,0.00003340,0.0
 0009784,0.00007897,0.00001065,-0.00001413,0.00013145,0.00004252,-0.000
 48232,-0.00066839,0.00021097,0.00036392,0.00019418,0.00021039,0.000067
 55,0.00006043,0.00024620,-0.00020373,0.00007328,-0.00080401,-0.0000460
 5,0.00008174,-0.00011105,-0.00002325,0.00002763,0.00010943,-0.00000372
 ,-0.00004861,0.00006545,0.00030126,0.00027659,0.00005315,-0.00007361,-
 0.00004900,0.00006478,-0.00042891,-0.00018574,-0.00007383,0.00001612,0
 .00000945,-0.00000470,0.00055382,0.00002680,0.00018480,0.00036557,0.00
 021750,0.00001378,-0.00025878,0.00009026,-0.00013377,-0.00013181,-0.00
 007066,-0.00009533,-0.00001470,0.00005031,0.00002633,-0.00002769,0.000
 00363,-0.00001156,-0.00008088,-0.00015258,-0.00034230,-0.00008745,-0.0
 0002949,-0.00003014,0.00003019,0.00008812,0.00047069,0.00027955,0.0003
 0489,0.00022842,0.00019431,0.00000805,-0.00025240,-0.00015336,-0.00018
 866,-0.00007877,-0.00008739,0.00005496,-0.00001998,0.00000314,-0.00008
 891,0.00003605,-0.00014152,-0.00026828,0.00036441,-0.00015559,-0.00014
 113,-0.00000698,0.00012816,0.00016816,-0.00009942,0.00003463,0.0001174
 6,0.00016593,0.00000866,0.00010430,-0.00037062,0.00013062,0.00011315,-
 0.00025100,-0.00002330,0.00002779,0.00007160,0.00000040,-0.00002334,0.
 00001948,0.00001795,-0.00009811,0.00010659\\@
 The archive entry for this job was punched.


 KNIGHT- SIRE, I'VE JUST RETURNED FROM THE FRONT
 KING-   HOW GOES THE BATTLE                    
 KNIGHT- THE SITUATION IS QUITE FLUID           
 KING-   WHAT DOES *THAT* MEAN                  
 KNIGHT- WE'RE UP THE CREEK                     
                THE WIZARD OF ID                
 Job cpu time:       1 days 20 hours 27 minutes  0.3 seconds.
 Elapsed time:       0 days  1 hours  7 minutes 57.9 seconds.
 File lengths (MBytes):  RWF=   2665 Int=      0 D2E=      0 Chk=     43 Scr=      1
 Normal termination of Gaussian 16 at Sat Mar 22 17:28:38 2025.
