 Entering Gaussian System, Link 0=g16
 Input=enolonetc2_mp2_avdz_opt_anharm.gjf
 Output=enolonetc2_mp2_avdz_opt_anharm.log
 Initial command:
 /sw/contrib/chem-src/g16/c01/g16/l1.exe "/scr/Gau-98791.inp" -scrdir="/scr/"
 Entering Link 1 = /sw/contrib/chem-src/g16/c01/g16/l1.exe PID=     98792.
  
 Copyright (c) 1988-2019, Gaussian, Inc.  All Rights Reserved.
  
 This is part of the Gaussian(R) 16 program.  It is based on
 the Gaussian(R) 09 system (copyright 2009, Gaussian, Inc.),
 the Gaussian(R) 03 system (copyright 2003, Gaussian, Inc.),
 the Gaussian(R) 98 system (copyright 1998, Gaussian, Inc.),
 the Gaussian(R) 94 system (copyright 1995, Gaussian, Inc.),
 the Gaussian 92(TM) system (copyright 1992, Gaussian, Inc.),
 the Gaussian 90(TM) system (copyright 1990, Gaussian, Inc.),
 the Gaussian 88(TM) system (copyright 1988, Gaussian, Inc.),
 the Gaussian 86(TM) system (copyright 1986, Carnegie Mellon
 University), and the Gaussian 82(TM) system (copyright 1983,
 Carnegie Mellon University). Gaussian is a federally registered
 trademark of Gaussian, Inc.
  
 This software contains proprietary and confidential information,
 including trade secrets, belonging to Gaussian, Inc.
  
 This software is provided under written license and may be
 used, copied, transmitted, or stored only in accord with that
 written license.
  
 The following legend is applicable only to US Government
 contracts under FAR:
  
                    RESTRICTED RIGHTS LEGEND
  
 Use, reproduction and disclosure by the US Government is
 subject to restrictions as set forth in subparagraphs (a)
 and (c) of the Commercial Computer Software - Restricted
 Rights clause in FAR 52.227-19.
  
 Gaussian, Inc.
 340 Quinnipiac St., Bldg. 40, Wallingford CT 06492
  
  
 ---------------------------------------------------------------
 Warning -- This program may not be used in any manner that
 competes with the business of Gaussian, Inc. or will provide
 assistance to any competitor of Gaussian, Inc.  The licensee
 of this program is prohibited from giving any competitor of
 Gaussian, Inc. access to this program.  By using this program,
 the user acknowledges that Gaussian, Inc. is engaged in the
 business of creating and licensing software in the field of
 computational chemistry and represents and warrants to the
 licensee that it is not a competitor of Gaussian, Inc. and that
 it will not use this program in any manner prohibited above.
 ---------------------------------------------------------------
  

 Cite this work as:
 Gaussian 16, Revision C.01,
 M. J. Frisch, G. W. Trucks, H. B. Schlegel, G. E. Scuseria, 
 M. A. Robb, J. R. Cheeseman, G. Scalmani, V. Barone, 
 G. A. Petersson, H. Nakatsuji, X. Li, M. Caricato, A. V. Marenich, 
 J. Bloino, B. G. Janesko, R. Gomperts, B. Mennucci, H. P. Hratchian, 
 J. V. Ortiz, A. F. Izmaylov, J. L. Sonnenberg, D. Williams-Young, 
 F. Ding, F. Lipparini, F. Egidi, J. Goings, B. Peng, A. Petrone, 
 T. Henderson, D. Ranasinghe, V. G. Zakrzewski, J. Gao, N. Rega, 
 G. Zheng, W. Liang, M. Hada, M. Ehara, K. Toyota, R. Fukuda, 
 J. Hasegawa, M. Ishida, T. Nakajima, Y. Honda, O. Kitao, H. Nakai, 
 T. Vreven, K. Throssell, J. A. Montgomery, Jr., J. E. Peralta, 
 F. Ogliaro, M. J. Bearpark, J. J. Heyd, E. N. Brothers, K. N. Kudin, 
 V. N. Staroverov, T. A. Keith, R. Kobayashi, J. Normand, 
 K. Raghavachari, A. P. Rendell, J. C. Burant, S. S. Iyengar, 
 J. Tomasi, M. Cossi, J. M. Millam, M. Klene, C. Adamo, R. Cammi, 
 J. W. Ochterski, R. L. Martin, K. Morokuma, O. Farkas, 
 J. B. Foresman, and D. J. Fox, Gaussian, Inc., Wallingford CT, 2019.
 
 ******************************************
 Gaussian 16:  EM64L-G16RevC.01  3-Jul-2019
                22-Mar-2025 
 ******************************************
 %nprocshared=40
 Will use up to   40 processors via shared memory.
 %mem=50gb
 ----------------------------------------------
 # MP2/aug-cc-pVDZ opt freq=(vibrot,anharmonic)
 ----------------------------------------------
 1/18=20,19=15,38=1,80=1/1,3;
 2/9=110,12=2,17=6,18=5,40=1/2;
 3/5=16,7=10,11=9,25=1,30=1,71=1/1,2,3;
 4//1;
 5/5=2,38=5/2;
 8/6=4,10=1/1;
 9/15=2,16=-3/6;
 10/5=1/2;
 6/7=2,8=2,9=2,10=2/1;
 7/12=2/1,2,3,16;
 1/18=20,19=15,80=1/3(2);
 2/9=110/2;
 99//99;
 2/9=110/2;
 3/5=16,7=10,11=9,25=1,30=1,71=1/1,2,3;
 4/5=5,16=3,69=1/1;
 5/5=2,38=5/2;
 8/6=4,10=1/1;
 9/15=2,16=-3/6;
 10/5=1/2;
 7/12=2/1,2,3,16;
 1/18=20,19=15,80=1/3(-8);
 2/9=110/2;
 6/7=2,8=2,9=2,10=2/1;
 99/9=10/99;
 ----
 blah
 ----
 Symbolic Z-matrix:
 Charge =  0 Multiplicity = 1
 C                    -0.77072   0.82395  -0.3718 
 C                    -1.47838   0.3757   -1.41107 
 H                    -0.91294   0.51488   0.65789 
 O                     0.24035   1.74235  -0.45901 
 C                    -2.54585  -0.61694  -1.18887 
 H                     0.35675   2.01057  -1.38807 
 O                    -3.21294  -1.04786  -2.12102 
 H                    -1.32135   0.69648  -2.4322 
 H                    -2.70647  -0.94442  -0.14817 
 

 GradGradGradGradGradGradGradGradGradGradGradGradGradGradGradGradGradGrad
 Berny optimization.
 Initialization pass.
                           ----------------------------
                           !    Initial Parameters    !
                           ! (Angstroms and Degrees)  !
 --------------------------                            --------------------------
 ! Name  Definition              Value          Derivative Info.                !
 --------------------------------------------------------------------------------
 ! R1    R(1,2)                  1.3348         estimate D2E/DX2                !
 ! R2    R(1,3)                  1.0844         estimate D2E/DX2                !
 ! R3    R(1,4)                  1.3687         estimate D2E/DX2                !
 ! R4    R(2,5)                  1.4745         estimate D2E/DX2                !
 ! R5    R(2,8)                  1.0818         estimate D2E/DX2                !
 ! R6    R(4,6)                  0.974          estimate D2E/DX2                !
 ! R7    R(5,7)                  1.2246         estimate D2E/DX2                !
 ! R8    R(5,9)                  1.1028         estimate D2E/DX2                !
 ! A1    A(2,1,3)              125.0317         estimate D2E/DX2                !
 ! A2    A(2,1,4)              124.5652         estimate D2E/DX2                !
 ! A3    A(3,1,4)              110.403          estimate D2E/DX2                !
 ! A4    A(1,2,5)              119.5077         estimate D2E/DX2                !
 ! A5    A(1,2,8)              123.9439         estimate D2E/DX2                !
 ! A6    A(5,2,8)              116.5484         estimate D2E/DX2                !
 ! A7    A(1,4,6)              109.5027         estimate D2E/DX2                !
 ! A8    A(2,5,7)              121.1014         estimate D2E/DX2                !
 ! A9    A(2,5,9)              116.5876         estimate D2E/DX2                !
 ! A10   A(7,5,9)              122.311          estimate D2E/DX2                !
 ! D1    D(3,1,2,5)             -0.0001         estimate D2E/DX2                !
 ! D2    D(3,1,2,8)            179.9998         estimate D2E/DX2                !
 ! D3    D(4,1,2,5)           -180.0            estimate D2E/DX2                !
 ! D4    D(4,1,2,8)             -0.0001         estimate D2E/DX2                !
 ! D5    D(2,1,4,6)              0.0            estimate D2E/DX2                !
 ! D6    D(3,1,4,6)           -179.9999         estimate D2E/DX2                !
 ! D7    D(1,2,5,7)            179.9985         estimate D2E/DX2                !
 ! D8    D(1,2,5,9)             -0.0014         estimate D2E/DX2                !
 ! D9    D(8,2,5,7)             -0.0014         estimate D2E/DX2                !
 ! D10   D(8,2,5,9)            179.9987         estimate D2E/DX2                !
 --------------------------------------------------------------------------------
 Trust Radius=3.00D-01 FncErr=1.00D-07 GrdErr=1.00D-07 EigMax=2.50D+02 EigMin=1.00D-04
 Number of steps in this run=     38 maximum allowed number of steps=    100.
 GradGradGradGradGradGradGradGradGradGradGradGradGradGradGradGradGradGrad

                          Input orientation:                          
 ---------------------------------------------------------------------
 Center     Atomic      Atomic             Coordinates (Angstroms)
 Number     Number       Type             X           Y           Z
 ---------------------------------------------------------------------
      1          6           0       -0.770722    0.823950   -0.371801
      2          6           0       -1.478379    0.375697   -1.411069
      3          1           0       -0.912945    0.514879    0.657894
      4          8           0        0.240350    1.742346   -0.459015
      5          6           0       -2.545852   -0.616936   -1.188872
      6          1           0        0.356753    2.010566   -1.388073
      7          8           0       -3.212938   -1.047858   -2.121022
      8          1           0       -1.321346    0.696484   -2.432202
      9          1           0       -2.706470   -0.944416   -0.148171
 ---------------------------------------------------------------------
                    Distance matrix (angstroms):
                    1          2          3          4          5
     1  C    0.000000
     2  C    1.334836   0.000000
     3  H    1.084447   2.149348   0.000000
     4  O    1.368694   2.393359   2.020953   0.000000
     5  C    2.427930   1.474514   2.712552   3.723147   0.000000
     6  H    1.926673   2.457852   2.834642   0.973982   3.920277
     7  O    3.539471   2.353558   3.931220   4.740538   1.224582
     8  H    2.136513   1.081794   3.122254   2.725104   2.184115
     9  H    2.631397   2.201322   2.448676   3.999883   1.102770
                    6          7          8          9
     6  H    0.000000
     7  O    4.757506   0.000000
     8  H    2.373402   2.591849   0.000000
     9  H    4.433127   2.039449   3.134952   0.000000
 Stoichiometry    C3H4O2
 Framework group  C1[X(C3H4O2)]
 Deg. of freedom    21
 Full point group                 C1      NOp   1
 Largest Abelian subgroup         C1      NOp   1
 Largest concise Abelian subgroup C1      NOp   1
                         Standard orientation:                         
 ---------------------------------------------------------------------
 Center     Atomic      Atomic             Coordinates (Angstroms)
 Number     Number       Type             X           Y           Z
 ---------------------------------------------------------------------
      1          6           0        1.086112    0.404230   -0.000003
      2          6           0       -0.035085   -0.320134    0.000008
      3          1           0        1.127113    1.487901   -0.000014
      4          8           0        2.349982   -0.121086   -0.000004
      5          6           0       -1.341478    0.363626    0.000007
      6          1           0        2.297869   -1.093673    0.000005
      7          8           0       -2.388152   -0.272044   -0.000010
      8          1           0       -0.055455   -1.401736    0.000016
      9          1           0       -1.321467    1.466214    0.000022
 ---------------------------------------------------------------------
 Rotational constants (GHZ):          36.7748210           2.2595821           2.1287818
 Standard basis: Aug-CC-pVDZ (5D, 7F)
 There are   161 symmetry adapted cartesian basis functions of A   symmetry.
 There are   151 symmetry adapted basis functions of A   symmetry.
   151 basis functions,   259 primitive gaussians,   161 cartesian basis functions
    19 alpha electrons       19 beta electrons
       nuclear repulsion energy       153.4268974837 Hartrees.
 NAtoms=    9 NActive=    9 NUniq=    9 SFac= 1.00D+00 NAtFMM=   60 NAOKFM=F Big=F
 Integral buffers will be    131072 words long.
 Raffenetti 1 integral format.
 Two-electron integral symmetry is turned on.
 One-electron integrals computed using PRISM.
 NBasis=   151 RedAO= T EigKep=  2.79D-05  NBF=   151
 NBsUse=   151 1.00D-06 EigRej= -1.00D+00 NBFU=   151
 ExpMin= 2.97D-02 ExpMax= 1.17D+04 ExpMxC= 4.01D+02 IAcc=3 IRadAn=         5 AccDes= 0.00D+00
 Harris functional with IExCor=  205 and IRadAn=       5 diagonalized for initial guess.
 HarFok:  IExCor=  205 AccDes= 0.00D+00 IRadAn=         5 IDoV= 1 UseB2=F ITyADJ=14
 ICtDFT=  3500011 ScaDFX=  1.000000  1.000000  1.000000  1.000000
 FoFCou: FMM=F IPFlag=           0 FMFlag=      100000 FMFlg1=           0
         NFxFlg=           0 DoJE=T BraDBF=F KetDBF=T FulRan=T
         wScrn=  0.000000 ICntrl=       500 IOpCl=  0 I1Cent=   200000004 NGrid=           0
         NMat0=    1 NMatS0=      1 NMatT0=    0 NMatD0=    1 NMtDS0=    0 NMtDT0=    0
 Petite list used in FoFCou.
 Keep R1 ints in memory in canonical form, NReq=74563414.
 Requested convergence on RMS density matrix=1.00D-08 within 128 cycles.
 Requested convergence on MAX density matrix=1.00D-06.
 Requested convergence on             energy=1.00D-06.
 No special actions if energy rises.
 SCF Done:  E(RHF) =  -265.666129136     A.U. after   14 cycles
            NFock= 14  Conv=0.67D-08     -V/T= 2.0017
 ExpMin= 2.97D-02 ExpMax= 1.17D+04 ExpMxC= 4.01D+02 IAcc=3 IRadAn=         5 AccDes= 0.00D+00
 HarFok:  IExCor=  205 AccDes= 0.00D+00 IRadAn=         5 IDoV=-2 UseB2=F ITyADJ=14
 ICtDFT= 12500011 ScaDFX=  1.000000  1.000000  1.000000  1.000000
 Range of M.O.s used for correlation:     6   151
 NBasis=   151 NAE=    19 NBE=    19 NFC=     5 NFV=     0
 NROrb=    146 NOA=    14 NOB=    14 NVA=   132 NVB=   132

 **** Warning!!: The largest alpha MO coefficient is  0.37978332D+02

 Fully direct method using O(ONN) memory.
 JobTyp=1 Pass  1:  I=   6 to  19 NPSUse= 40 ParTrn=T ParDer=T DoDerP=T.
 Spin components of T(2) and E(2):
     alpha-alpha T2 =       0.3405781536D-01 E2=     -0.1041757103D+00
     alpha-beta  T2 =       0.1892364206D+00 E2=     -0.5889314224D+00
     beta-beta   T2 =       0.3405781536D-01 E2=     -0.1041757103D+00
 ANorm=    0.1121317106D+01
 E2 =    -0.7972828430D+00 EUMP2 =    -0.26646341197918D+03
          IDoAtm=111111111
          Differentiating once with respect to electric field.
                with respect to dipole field.
          Differentiating once with respect to nuclear coordinates.
 Keep R1 ints in memory in canonical form, NReq=74571901.
          There are     1 degrees of freedom in the 1st order CPHF.  IDoFFX=0 NUNeed=     1.
 LinEq1:  Iter=  0 NonCon=     1 RMS=5.55D-03 Max=1.14D-01 NDo=     1
 AX will form     1 AO Fock derivatives at one time.
 LinEq1:  Iter=  1 NonCon=     1 RMS=1.74D-03 Max=1.70D-02 NDo=     1
 LinEq1:  Iter=  2 NonCon=     1 RMS=5.84D-04 Max=7.57D-03 NDo=     1
 LinEq1:  Iter=  3 NonCon=     1 RMS=1.97D-04 Max=2.98D-03 NDo=     1
 LinEq1:  Iter=  4 NonCon=     1 RMS=6.73D-05 Max=7.96D-04 NDo=     1
 LinEq1:  Iter=  5 NonCon=     1 RMS=2.38D-05 Max=2.46D-04 NDo=     1
 LinEq1:  Iter=  6 NonCon=     1 RMS=8.35D-06 Max=2.06D-04 NDo=     1
 LinEq1:  Iter=  7 NonCon=     1 RMS=2.63D-06 Max=4.43D-05 NDo=     1
 LinEq1:  Iter=  8 NonCon=     1 RMS=1.11D-06 Max=2.31D-05 NDo=     1
 LinEq1:  Iter=  9 NonCon=     1 RMS=2.17D-07 Max=2.45D-06 NDo=     1
 LinEq1:  Iter= 10 NonCon=     1 RMS=4.98D-08 Max=5.69D-07 NDo=     1
 LinEq1:  Iter= 11 NonCon=     1 RMS=1.84D-08 Max=3.13D-07 NDo=     1
 LinEq1:  Iter= 12 NonCon=     1 RMS=4.06D-09 Max=6.92D-08 NDo=     1
 LinEq1:  Iter= 13 NonCon=     1 RMS=7.37D-10 Max=6.93D-09 NDo=     1
 LinEq1:  Iter= 14 NonCon=     1 RMS=1.37D-10 Max=1.31D-09 NDo=     1
 LinEq1:  Iter= 15 NonCon=     0 RMS=2.43D-11 Max=1.98D-10 NDo=     1
 Linear equations converged to 1.000D-10 1.000D-09 after    15 iterations.
 End of Minotr F.D. properties file   721 does not exist.
 End of Minotr F.D. properties file   722 does not exist.
 End of Minotr F.D. properties file   788 does not exist.

 **********************************************************************

            Population analysis using the SCF Density.

 **********************************************************************

 Orbital symmetries:
       Occupied  (A) (A) (A) (A) (A) (A) (A) (A) (A) (A) (A) (A)
                 (A) (A) (A) (A) (A) (A) (A)
       Virtual   (A) (A) (A) (A) (A) (A) (A) (A) (A) (A) (A) (A)
                 (A) (A) (A) (A) (A) (A) (A) (A) (A) (A) (A) (A)
                 (A) (A) (A) (A) (A) (A) (A) (A) (A) (A) (A) (A)
                 (A) (A) (A) (A) (A) (A) (A) (A) (A) (A) (A) (A)
                 (A) (A) (A) (A) (A) (A) (A) (A) (A) (A) (A) (A)
                 (A) (A) (A) (A) (A) (A) (A) (A) (A) (A) (A) (A)
                 (A) (A) (A) (A) (A) (A) (A) (A) (A) (A) (A) (A)
                 (A) (A) (A) (A) (A) (A) (A) (A) (A) (A) (A) (A)
                 (A) (A) (A) (A) (A) (A) (A) (A) (A) (A) (A) (A)
                 (A) (A) (A) (A) (A) (A) (A) (A) (A) (A) (A) (A)
                 (A) (A) (A) (A) (A) (A) (A) (A) (A) (A) (A) (A)
 The electronic state is 1-A.
 Alpha  occ. eigenvalues --  -20.63427 -20.56034 -11.35182 -11.34664 -11.25300
 Alpha  occ. eigenvalues --   -1.43551  -1.38378  -1.08442  -0.89260  -0.82110
 Alpha  occ. eigenvalues --   -0.73539  -0.69054  -0.63156  -0.60843  -0.59948
 Alpha  occ. eigenvalues --   -0.57733  -0.53345  -0.42920  -0.37736
 Alpha virt. eigenvalues --    0.02878   0.03627   0.05273   0.06691   0.08926
 Alpha virt. eigenvalues --    0.09199   0.10788   0.11984   0.12321   0.13226
 Alpha virt. eigenvalues --    0.14241   0.14669   0.15520   0.16767   0.17052
 Alpha virt. eigenvalues --    0.20925   0.22427   0.23479   0.25503   0.25562
 Alpha virt. eigenvalues --    0.26781   0.28871   0.30372   0.30849   0.31253
 Alpha virt. eigenvalues --    0.32055   0.35407   0.37408   0.37772   0.39580
 Alpha virt. eigenvalues --    0.39920   0.42191   0.42754   0.44151   0.45900
 Alpha virt. eigenvalues --    0.46011   0.46770   0.50823   0.54236   0.56697
 Alpha virt. eigenvalues --    0.58647   0.59112   0.60228   0.60854   0.62472
 Alpha virt. eigenvalues --    0.63458   0.65051   0.66384   0.67372   0.69168
 Alpha virt. eigenvalues --    0.71007   0.73384   0.76049   0.78267   0.79481
 Alpha virt. eigenvalues --    0.81389   0.83284   0.83889   0.85576   0.88853
 Alpha virt. eigenvalues --    0.93603   0.93775   0.94585   1.00609   1.00860
 Alpha virt. eigenvalues --    1.06825   1.08414   1.13621   1.17234   1.21826
 Alpha virt. eigenvalues --    1.23615   1.25360   1.26093   1.30206   1.31174
 Alpha virt. eigenvalues --    1.34056   1.39903   1.45759   1.47344   1.47567
 Alpha virt. eigenvalues --    1.48230   1.58679   1.60035   1.60896   1.63717
 Alpha virt. eigenvalues --    1.67329   1.68259   1.69398   1.74437   1.79507
 Alpha virt. eigenvalues --    1.86120   1.87417   1.89806   1.93581   1.94939
 Alpha virt. eigenvalues --    1.97471   2.02037   2.04707   2.05164   2.09376
 Alpha virt. eigenvalues --    2.15578   2.15585   2.18245   2.21117   2.26706
 Alpha virt. eigenvalues --    2.30352   2.37478   2.38057   2.41561   2.45447
 Alpha virt. eigenvalues --    2.56122   2.63914   2.68950   2.72138   2.74543
 Alpha virt. eigenvalues --    2.90315   2.91880   3.03823   3.05456   3.33041
 Alpha virt. eigenvalues --    3.44911   3.52617   3.69319   3.71307   3.74107
 Alpha virt. eigenvalues --    3.78046   3.78250   3.83231   3.95014   4.00793
 Alpha virt. eigenvalues --    4.10469   4.28970
          Condensed to atoms (all electrons):
               1          2          3          4          5          6
     1  C    4.897514   0.182691   0.332002  -0.060936  -0.027189  -0.132356
     2  C    0.182691   5.175928  -0.145623  -0.018964   0.082770   0.051574
     3  H    0.332002  -0.145623   1.192398  -0.150086  -0.024776   0.005963
     4  O   -0.060936  -0.018964  -0.150086   8.638105  -0.010559   0.335859
     5  C   -0.027189   0.082770  -0.024776  -0.010559   4.978936   0.010585
     6  H   -0.132356   0.051574   0.005963   0.335859   0.010585   0.538015
     7  O   -0.014277  -0.055551  -0.001648   0.000865   0.281253  -0.001128
     8  H    0.044971   0.094372   0.046202  -0.047992  -0.224763   0.007847
     9  H   -0.076226   0.036454  -0.023545   0.005099   0.295188   0.002616
               7          8          9
     1  C   -0.014277   0.044971  -0.076226
     2  C   -0.055551   0.094372   0.036454
     3  H   -0.001648   0.046202  -0.023545
     4  O    0.000865  -0.047992   0.005099
     5  C    0.281253  -0.224763   0.295188
     6  H   -0.001128   0.007847   0.002616
     7  O    8.543217   0.017479  -0.049832
     8  H    0.017479   1.543403   0.012508
     9  H   -0.049832   0.012508   0.930792
 Mulliken charges:
               1
     1  C    0.853806
     2  C    0.596348
     3  H   -0.230887
     4  O   -0.691392
     5  C    0.638555
     6  H    0.181026
     7  O   -0.720377
     8  H   -0.494026
     9  H   -0.133054
 Sum of Mulliken charges =  -0.00000
 Mulliken charges with hydrogens summed into heavy atoms:
               1
     1  C    0.622919
     2  C    0.102322
     4  O   -0.510366
     5  C    0.505502
     7  O   -0.720377
 Electronic spatial extent (au):  <R**2>=            523.6022
 Charge=             -0.0000 electrons
 Dipole moment (field-independent basis, Debye):
    X=              3.2752    Y=              0.5271    Z=              0.0000  Tot=              3.3173
 Quadrupole moment (field-independent basis, Debye-Ang):
   XX=            -41.7406   YY=            -23.5676   ZZ=            -30.8177
   XY=             -5.3636   XZ=             -0.0001   YZ=             -0.0001
 Traceless Quadrupole moment (field-independent basis, Debye-Ang):
   XX=             -9.6986   YY=              8.4744   ZZ=              1.2243
   XY=             -5.3636   XZ=             -0.0001   YZ=             -0.0001
 Octapole moment (field-independent basis, Debye-Ang**2):
  XXX=             23.8429  YYY=             -1.9309  ZZZ=             -0.0001  XYY=              8.4053
  XXY=             -2.7659  XXZ=              0.0002  XZZ=             -0.3111  YZZ=             -0.3294
  YYZ=              0.0000  XYZ=             -0.0001
 Hexadecapole moment (field-independent basis, Debye-Ang**3):
 XXXX=           -638.3241 YYYY=            -59.0567 ZZZZ=            -31.6513 XXXY=            -32.8303
 XXXZ=             -0.0001 YYYX=             -8.4104 YYYZ=             -0.0001 ZZZX=              0.0000
 ZZZY=             -0.0000 XXYY=            -83.0505 XXZZ=            -94.5872 YYZZ=            -17.7879
 XXYZ=             -0.0001 YYXZ=             -0.0000 ZZXY=             -0.4603
 N-N= 1.534268974837D+02 E-N=-9.315014092414D+02  KE= 2.652078233076D+02
 Calling FoFJK, ICntrl=  10002127 FMM=F ISym2X=0 I1Cent= 0 IOpClX= 0 NMat=1 NMatS=1 NMatT=0.
 ***** Axes restored to original set *****
 -------------------------------------------------------------------
 Center     Atomic                   Forces (Hartrees/Bohr)
 Number     Number              X              Y              Z
 -------------------------------------------------------------------
      1        6           0.023324871    0.019863544    0.005471889
      2        6          -0.021466548   -0.018866784   -0.001726288
      3        1          -0.002960656   -0.003495267    0.004813061
      4        8           0.000116331   -0.000231830    0.001899539
      5        6           0.013278664    0.013426998   -0.008865231
      6        1          -0.001515870   -0.001979119    0.003536777
      7        8          -0.011545614   -0.009446579   -0.004891233
      8        1           0.002804955    0.003869396   -0.007715213
      9        1          -0.002036134   -0.003140359    0.007476697
 -------------------------------------------------------------------
 Cartesian Forces:  Max     0.023324871 RMS     0.009979206

 GradGradGradGradGradGradGradGradGradGradGradGradGradGradGradGradGradGrad
 Berny optimization.
 FormGI is forming the generalized inverse of G from B-inverse, IUseBI=4.
 Internal  Forces:  Max     0.027048386 RMS     0.007342826
 Search for a local minimum.
 Step number   1 out of a maximum of   38
 All quantities printed in internal units (Hartrees-Bohrs-Radians)
 Mixed Optimization -- RFO/linear search
 Second derivative matrix not updated -- first step.
 ITU=  0
     Eigenvalues ---    0.01103   0.01103   0.02096   0.02106   0.02717
     Eigenvalues ---    0.02951   0.16000   0.16000   0.16000   0.16000
     Eigenvalues ---    0.22000   0.22000   0.22000   0.33378   0.35205
     Eigenvalues ---    0.35462   0.35778   0.51228   0.52572   0.58378
     Eigenvalues ---    0.93382
 RFO step:  Lambda=-3.81336687D-03 EMin= 1.10307870D-02
 Linear search not attempted -- first point.
 Iteration  1 RMS(Cart)=  0.03786438 RMS(Int)=  0.00080038
 Iteration  2 RMS(Cart)=  0.00079285 RMS(Int)=  0.00000020
 Iteration  3 RMS(Cart)=  0.00000029 RMS(Int)=  0.00000000
 Variable       Old X    -DE/DX   Delta X   Delta X   Delta X     New X
                                 (Linear)    (Quad)   (Total)
    R1        2.52247   0.02705   0.00000   0.04603   0.04603   2.56851
    R2        2.04931   0.00595   0.00000   0.01661   0.01661   2.06592
    R3        2.58646  -0.00286   0.00000  -0.00555  -0.00555   2.58091
    R4        2.78643  -0.00129   0.00000  -0.00363  -0.00363   2.78280
    R5        2.04429   0.00884   0.00000   0.02444   0.02444   2.06873
    R6        1.84056  -0.00410   0.00000  -0.00774  -0.00774   1.83282
    R7        2.31412   0.01334   0.00000   0.01422   0.01422   2.32835
    R8        2.08393   0.00829   0.00000   0.02454   0.02454   2.10847
    A1        2.18222  -0.00776   0.00000  -0.03960  -0.03960   2.14261
    A2        2.17407   0.00947   0.00000   0.04232   0.04232   2.21640
    A3        1.92690  -0.00172   0.00000  -0.00272  -0.00272   1.92418
    A4        2.08580   0.00173   0.00000   0.00773   0.00773   2.09353
    A5        2.16323  -0.00298   0.00000  -0.01676  -0.01676   2.14647
    A6        2.03415   0.00125   0.00000   0.00903   0.00903   2.04318
    A7        1.91118  -0.00255   0.00000  -0.01555  -0.01555   1.89563
    A8        2.11362   0.01200   0.00000   0.05359   0.05359   2.16721
    A9        2.03484  -0.00482   0.00000  -0.01964  -0.01964   2.01520
   A10        2.13473  -0.00717   0.00000  -0.03396  -0.03396   2.10077
    D1       -0.00000   0.00000   0.00000   0.00000   0.00000   0.00000
    D2        3.14159   0.00000   0.00000   0.00000   0.00000   3.14159
    D3       -3.14159   0.00000   0.00000   0.00000   0.00000  -3.14159
    D4       -0.00000   0.00000   0.00000   0.00000   0.00000   0.00000
    D5       -0.00000   0.00000   0.00000   0.00000   0.00000  -0.00000
    D6       -3.14159   0.00000   0.00000   0.00000   0.00000  -3.14159
    D7        3.14157   0.00000   0.00000   0.00002   0.00002   3.14158
    D8       -0.00002   0.00000   0.00000   0.00001   0.00001  -0.00002
    D9       -0.00002   0.00000   0.00000   0.00002   0.00002  -0.00000
   D10        3.14157   0.00000   0.00000   0.00001   0.00001   3.14158
         Item               Value     Threshold  Converged?
 Maximum Force            0.027048     0.000450     NO 
 RMS     Force            0.007343     0.000300     NO 
 Maximum Displacement     0.085085     0.001800     NO 
 RMS     Displacement     0.037834     0.001200     NO 
 Predicted change in Energy=-1.930213D-03
 GradGradGradGradGradGradGradGradGradGradGradGradGradGradGradGradGradGrad

                          Input orientation:                          
 ---------------------------------------------------------------------
 Center     Atomic      Atomic             Coordinates (Angstroms)
 Number     Number       Type             X           Y           Z
 ---------------------------------------------------------------------
      1          6           0       -0.756975    0.838462   -0.384465
      2          6           0       -1.486235    0.372478   -1.432535
      3          1           0       -0.922530    0.508657    0.644607
      4          8           0        0.257032    1.752220   -0.430605
      5          6           0       -2.551029   -0.618819   -1.204341
      6          1           0        0.383489    2.028036   -1.351806
      7          8           0       -3.257963   -1.092629   -2.095318
      8          1           0       -1.323563    0.700187   -2.464315
      9          1           0       -2.693777   -0.933880   -0.143553
 ---------------------------------------------------------------------
                    Distance matrix (angstroms):
                    1          2          3          4          5
     1  C    0.000000
     2  C    1.359195   0.000000
     3  H    1.093237   2.156577   0.000000
     4  O    1.365758   2.438551   2.023338   0.000000
     5  C    2.452446   1.472592   2.709579   3.755756   0.000000
     6  H    1.910888   2.498651   2.828403   0.969885   3.954615
     7  O    3.593198   2.392664   3.940248   4.818675   1.232109
     8  H    2.160074   1.094726   3.140526   2.782271   2.198632
     9  H    2.636368   2.196862   2.416490   4.000601   1.115756
                    6          7          8          9
     6  H    0.000000
     7  O    4.852992   0.000000
     8  H    2.432054   2.663129   0.000000
     9  H    4.438737   2.037865   3.151761   0.000000
 Stoichiometry    C3H4O2
 Framework group  C1[X(C3H4O2)]
 Deg. of freedom    21
 Full point group                 C1      NOp   1
 Largest Abelian subgroup         C1      NOp   1
 Largest concise Abelian subgroup C1      NOp   1
                         Standard orientation:                         
 ---------------------------------------------------------------------
 Center     Atomic      Atomic             Coordinates (Angstroms)
 Number     Number       Type             X           Y           Z
 ---------------------------------------------------------------------
      1          6           0        1.105397    0.383514    0.000000
      2          6           0       -0.042825   -0.343808    0.000005
      3          1           0        1.113242    1.476724   -0.000003
      4          8           0        2.383338   -0.098317   -0.000002
      5          6           0       -1.346675    0.340665    0.000001
      6          1           0        2.348703   -1.067583   -0.000000
      7          8           0       -2.433246   -0.240243   -0.000004
      8          1           0       -0.054904   -1.438468    0.000008
      9          1           0       -1.303156    1.455573    0.000009
 ---------------------------------------------------------------------
 Rotational constants (GHZ):          38.3262195           2.1925440           2.0739015
 Standard basis: Aug-CC-pVDZ (5D, 7F)
 There are   161 symmetry adapted cartesian basis functions of A   symmetry.
 There are   151 symmetry adapted basis functions of A   symmetry.
   151 basis functions,   259 primitive gaussians,   161 cartesian basis functions
    19 alpha electrons       19 beta electrons
       nuclear repulsion energy       152.1497904818 Hartrees.
 NAtoms=    9 NActive=    9 NUniq=    9 SFac= 1.00D+00 NAtFMM=   60 NAOKFM=F Big=F
 Integral buffers will be    131072 words long.
 Raffenetti 1 integral format.
 Two-electron integral symmetry is turned on.
 One-electron integrals computed using PRISM.
 NBasis=   151 RedAO= T EigKep=  3.10D-05  NBF=   151
 NBsUse=   151 1.00D-06 EigRej= -1.00D+00 NBFU=   151
 Initial guess from the checkpoint file:  "/scr/Gau-98792.chk"
 B after Tr=    -0.000000   -0.000000    0.000000
         Rot=    1.000000   -0.000000   -0.000000    0.000496 Ang=  -0.06 deg.
 ExpMin= 2.97D-02 ExpMax= 1.17D+04 ExpMxC= 4.01D+02 IAcc=3 IRadAn=         5 AccDes= 0.00D+00
 Harris functional with IExCor=  205 and IRadAn=       5 diagonalized for initial guess.
 HarFok:  IExCor=  205 AccDes= 0.00D+00 IRadAn=         5 IDoV= 1 UseB2=F ITyADJ=14
 ICtDFT=  3500011 ScaDFX=  1.000000  1.000000  1.000000  1.000000
 FoFCou: FMM=F IPFlag=           0 FMFlag=      100000 FMFlg1=           0
         NFxFlg=           0 DoJE=T BraDBF=F KetDBF=T FulRan=T
         wScrn=  0.000000 ICntrl=       500 IOpCl=  0 I1Cent=   200000004 NGrid=           0
         NMat0=    1 NMatS0=      1 NMatT0=    0 NMatD0=    1 NMtDS0=    0 NMtDT0=    0
 Petite list used in FoFCou.
 Keep R1 ints in memory in canonical form, NReq=74562634.
 Requested convergence on RMS density matrix=1.00D-08 within 128 cycles.
 Requested convergence on MAX density matrix=1.00D-06.
 Requested convergence on             energy=1.00D-06.
 No special actions if energy rises.
 SCF Done:  E(RHF) =  -265.664987575     A.U. after   12 cycles
            NFock= 12  Conv=0.66D-08     -V/T= 2.0023
 ExpMin= 2.97D-02 ExpMax= 1.17D+04 ExpMxC= 4.01D+02 IAcc=3 IRadAn=         5 AccDes= 0.00D+00
 HarFok:  IExCor=  205 AccDes= 0.00D+00 IRadAn=         5 IDoV=-2 UseB2=F ITyADJ=14
 ICtDFT= 12500011 ScaDFX=  1.000000  1.000000  1.000000  1.000000
 Range of M.O.s used for correlation:     6   151
 NBasis=   151 NAE=    19 NBE=    19 NFC=     5 NFV=     0
 NROrb=    146 NOA=    14 NOB=    14 NVA=   132 NVB=   132

 **** Warning!!: The largest alpha MO coefficient is  0.35742121D+02

 Fully direct method using O(ONN) memory.
 JobTyp=1 Pass  1:  I=   6 to  19 NPSUse= 40 ParTrn=T ParDer=T DoDerP=T.
 Spin components of T(2) and E(2):
     alpha-alpha T2 =       0.3445719589D-01 E2=     -0.1045530309D+00
     alpha-beta  T2 =       0.1915579478D+00 E2=     -0.5911827382D+00
     beta-beta   T2 =       0.3445719589D-01 E2=     -0.1045530309D+00
 ANorm=    0.1122707593D+01
 E2 =    -0.8002888001D+00 EUMP2 =    -0.26646527637485D+03
          IDoAtm=111111111
          Differentiating once with respect to electric field.
                with respect to dipole field.
          Differentiating once with respect to nuclear coordinates.
 Keep R1 ints in memory in canonical form, NReq=74570846.
          There are     1 degrees of freedom in the 1st order CPHF.  IDoFFX=0 NUNeed=     1.
 LinEq1:  Iter=  0 NonCon=     1 RMS=5.66D-03 Max=1.17D-01 NDo=     1
 AX will form     1 AO Fock derivatives at one time.
 LinEq1:  Iter=  1 NonCon=     1 RMS=1.80D-03 Max=2.16D-02 NDo=     1
 LinEq1:  Iter=  2 NonCon=     1 RMS=6.09D-04 Max=8.08D-03 NDo=     1
 LinEq1:  Iter=  3 NonCon=     1 RMS=2.15D-04 Max=3.37D-03 NDo=     1
 LinEq1:  Iter=  4 NonCon=     1 RMS=7.28D-05 Max=8.79D-04 NDo=     1
 LinEq1:  Iter=  5 NonCon=     1 RMS=2.66D-05 Max=2.76D-04 NDo=     1
 LinEq1:  Iter=  6 NonCon=     1 RMS=9.69D-06 Max=2.55D-04 NDo=     1
 LinEq1:  Iter=  7 NonCon=     1 RMS=2.86D-06 Max=4.62D-05 NDo=     1
 LinEq1:  Iter=  8 NonCon=     1 RMS=1.25D-06 Max=2.56D-05 NDo=     1
 LinEq1:  Iter=  9 NonCon=     1 RMS=2.40D-07 Max=2.68D-06 NDo=     1
 LinEq1:  Iter= 10 NonCon=     1 RMS=5.54D-08 Max=5.77D-07 NDo=     1
 LinEq1:  Iter= 11 NonCon=     1 RMS=2.03D-08 Max=3.44D-07 NDo=     1
 LinEq1:  Iter= 12 NonCon=     1 RMS=4.46D-09 Max=7.16D-08 NDo=     1
 LinEq1:  Iter= 13 NonCon=     1 RMS=8.07D-10 Max=7.30D-09 NDo=     1
 LinEq1:  Iter= 14 NonCon=     1 RMS=1.51D-10 Max=1.48D-09 NDo=     1
 LinEq1:  Iter= 15 NonCon=     0 RMS=2.58D-11 Max=2.15D-10 NDo=     1
 Linear equations converged to 1.000D-10 1.000D-09 after    15 iterations.
 End of Minotr F.D. properties file   721 does not exist.
 End of Minotr F.D. properties file   722 does not exist.
 End of Minotr F.D. properties file   788 does not exist.
 Calling FoFJK, ICntrl=  10002127 FMM=F ISym2X=0 I1Cent= 0 IOpClX= 0 NMat=1 NMatS=1 NMatT=0.
 ***** Axes restored to original set *****
 -------------------------------------------------------------------
 Center     Atomic                   Forces (Hartrees/Bohr)
 Number     Number              X              Y              Z
 -------------------------------------------------------------------
      1        6           0.004144401    0.003615232    0.000487691
      2        6          -0.003502489   -0.003050521   -0.000436363
      3        1          -0.001562509   -0.001345165   -0.000284624
      4        8          -0.004406682   -0.003808151   -0.000721493
      5        6           0.002895606    0.002463661    0.000685697
      6        1           0.000563265    0.000626657   -0.000699094
      7        8           0.000364170    0.000345781   -0.000114699
      8        1           0.001325055    0.001155645    0.000157457
      9        1           0.000179184   -0.000003140    0.000925428
 -------------------------------------------------------------------
 Cartesian Forces:  Max     0.004406682 RMS     0.002031362

 GradGradGradGradGradGradGradGradGradGradGradGradGradGradGradGradGradGrad
 Berny optimization.
 Using GEDIIS/GDIIS optimizer.
 FormGI is forming the generalized inverse of G from B-inverse, IUseBI=4.
 Internal  Forces:  Max     0.004934128 RMS     0.001646969
 Search for a local minimum.
 Step number   2 out of a maximum of   38
 All quantities printed in internal units (Hartrees-Bohrs-Radians)
 Mixed Optimization -- RFO/linear search
 Update second derivatives using D2CorX and points    1    2
 DE= -1.86D-03 DEPred=-1.93D-03 R= 9.66D-01
 TightC=F SS=  1.41D+00  RLast= 1.11D-01 DXNew= 5.0454D-01 3.3329D-01
 Trust test= 9.66D-01 RLast= 1.11D-01 DXMaxT set to 3.33D-01
 ITU=  1  0
 Use linear search instead of GDIIS.
     Eigenvalues ---    0.01103   0.01103   0.02082   0.02106   0.02709
     Eigenvalues ---    0.02951   0.14593   0.16000   0.16000   0.16130
     Eigenvalues ---    0.21108   0.22000   0.24201   0.32632   0.34642
     Eigenvalues ---    0.35558   0.36468   0.50231   0.52721   0.63152
     Eigenvalues ---    0.93721
 RFO step:  Lambda=-2.62970948D-04 EMin= 1.10307869D-02
 Quartic linear search produced a step of -0.00637.
 Iteration  1 RMS(Cart)=  0.01430286 RMS(Int)=  0.00008007
 Iteration  2 RMS(Cart)=  0.00008278 RMS(Int)=  0.00000001
 Iteration  3 RMS(Cart)=  0.00000000 RMS(Int)=  0.00000001
 Variable       Old X    -DE/DX   Delta X   Delta X   Delta X     New X
                                 (Linear)    (Quad)   (Total)
    R1        2.56851  -0.00193  -0.00029   0.00017  -0.00012   2.56838
    R2        2.06592   0.00037  -0.00011   0.00229   0.00219   2.06811
    R3        2.58091  -0.00493   0.00004  -0.00998  -0.00995   2.57096
    R4        2.78280  -0.00414   0.00002  -0.01196  -0.01193   2.77086
    R5        2.06873   0.00039  -0.00016   0.00292   0.00277   2.07150
    R6        1.83282   0.00092   0.00005   0.00115   0.00120   1.83402
    R7        2.32835  -0.00026  -0.00009   0.00079   0.00070   2.32905
    R8        2.10847   0.00086  -0.00016   0.00439   0.00423   2.11271
    A1        2.14261  -0.00181   0.00025  -0.01468  -0.01443   2.12818
    A2        2.21640  -0.00061  -0.00027   0.00040   0.00013   2.21652
    A3        1.92418   0.00242   0.00002   0.01429   0.01430   1.93848
    A4        2.09353  -0.00272  -0.00005  -0.01171  -0.01176   2.08178
    A5        2.14647  -0.00042   0.00011  -0.00614  -0.00603   2.14044
    A6        2.04318   0.00314  -0.00006   0.01785   0.01779   2.06097
    A7        1.89563   0.00110   0.00010   0.00566   0.00576   1.90139
    A8        2.16721  -0.00042  -0.00034   0.00212   0.00178   2.16900
    A9        2.01520  -0.00020   0.00013  -0.00308  -0.00296   2.01224
   A10        2.10077   0.00062   0.00022   0.00096   0.00117   2.10195
    D1        0.00000  -0.00000  -0.00000  -0.00000  -0.00000   0.00000
    D2        3.14159   0.00000  -0.00000   0.00000   0.00000  -3.14159
    D3       -3.14159  -0.00000  -0.00000  -0.00000  -0.00000  -3.14159
    D4        0.00000  -0.00000  -0.00000  -0.00000  -0.00000  -0.00000
    D5       -0.00000   0.00000  -0.00000   0.00000   0.00000   0.00000
    D6       -3.14159  -0.00000  -0.00000  -0.00000  -0.00000   3.14159
    D7        3.14158  -0.00000  -0.00000  -0.00001  -0.00001   3.14157
    D8       -0.00002   0.00000  -0.00000   0.00003   0.00003   0.00002
    D9       -0.00000  -0.00000  -0.00000  -0.00002  -0.00002  -0.00002
   D10        3.14158   0.00000  -0.00000   0.00003   0.00003  -3.14158
         Item               Value     Threshold  Converged?
 Maximum Force            0.004934     0.000450     NO 
 RMS     Force            0.001647     0.000300     NO 
 Maximum Displacement     0.034390     0.001800     NO 
 RMS     Displacement     0.014317     0.001200     NO 
 Predicted change in Energy=-1.318230D-04
 GradGradGradGradGradGradGradGradGradGradGradGradGradGradGradGradGradGrad

                          Input orientation:                          
 ---------------------------------------------------------------------
 Center     Atomic      Atomic             Coordinates (Angstroms)
 Number     Number       Type             X           Y           Z
 ---------------------------------------------------------------------
      1          6           0       -0.760409    0.836162   -0.388811
      2          6           0       -1.486961    0.373142   -1.439986
      3          1           0       -0.940728    0.494095    0.634993
      4          8           0        0.250272    1.746002   -0.429569
      5          6           0       -2.544765   -0.613786   -1.201260
      6          1           0        0.383709    2.027685   -1.348675
      7          8           0       -3.257741   -1.094384   -2.084265
      8          1           0       -1.316200    0.707734   -2.469803
      9          1           0       -2.678726   -0.921939   -0.134954
 ---------------------------------------------------------------------
                    Distance matrix (angstroms):
                    1          2          3          4          5
     1  C    0.000000
     2  C    1.359130   0.000000
     3  H    1.094394   2.149078   0.000000
     4  O    1.360495   2.433858   2.029543   0.000000
     5  C    2.438514   1.466277   2.678089   3.738495   0.000000
     6  H    1.910516   2.499051   2.835661   0.970519   3.946525
     7  O    3.583049   2.388387   3.909754   4.807491   1.232480
     8  H    2.157760   1.096191   3.134706   2.773877   2.205672
     9  H    2.614441   2.191038   2.370360   3.972876   1.117996
                    6          7          8          9
     6  H    0.000000
     7  O    4.852686   0.000000
     8  H    2.426703   2.676910   0.000000
     9  H    4.421754   2.040787   3.156554   0.000000
 Stoichiometry    C3H4O2
 Framework group  C1[X(C3H4O2)]
 Deg. of freedom    21
 Full point group                 C1      NOp   1
 Largest Abelian subgroup         C1      NOp   1
 Largest concise Abelian subgroup C1      NOp   1
                         Standard orientation:                         
 ---------------------------------------------------------------------
 Center     Atomic      Atomic             Coordinates (Angstroms)
 Number     Number       Type             X           Y           Z
 ---------------------------------------------------------------------
      1          6           0        1.100501    0.380837    0.000000
      2          6           0       -0.043855   -0.352432    0.000007
      3          1           0        1.086850    1.475146   -0.000000
      4          8           0        2.376064   -0.092328   -0.000004
      5          6           0       -1.337630    0.337579    0.000010
      6          1           0        2.352179   -1.062553   -0.000003
      7          8           0       -2.429326   -0.234439   -0.000008
      8          1           0       -0.043617   -1.448623    0.000008
      9          1           0       -1.283418    1.454260   -0.000010
 ---------------------------------------------------------------------
 Rotational constants (GHZ):          38.4144756           2.2056823           2.0859133
 Standard basis: Aug-CC-pVDZ (5D, 7F)
 There are   161 symmetry adapted cartesian basis functions of A   symmetry.
 There are   151 symmetry adapted basis functions of A   symmetry.
   151 basis functions,   259 primitive gaussians,   161 cartesian basis functions
    19 alpha electrons       19 beta electrons
       nuclear repulsion energy       152.4467401050 Hartrees.
 NAtoms=    9 NActive=    9 NUniq=    9 SFac= 1.00D+00 NAtFMM=   60 NAOKFM=F Big=F
 Integral buffers will be    131072 words long.
 Raffenetti 1 integral format.
 Two-electron integral symmetry is turned on.
 One-electron integrals computed using PRISM.
 NBasis=   151 RedAO= T EigKep=  3.04D-05  NBF=   151
 NBsUse=   151 1.00D-06 EigRej= -1.00D+00 NBFU=   151
 Initial guess from the checkpoint file:  "/scr/Gau-98792.chk"
 B after Tr=    -0.000000    0.000000   -0.000000
         Rot=    1.000000   -0.000000   -0.000000   -0.000176 Ang=  -0.02 deg.
 ExpMin= 2.97D-02 ExpMax= 1.17D+04 ExpMxC= 4.01D+02 IAcc=3 IRadAn=         5 AccDes= 0.00D+00
 Harris functional with IExCor=  205 and IRadAn=       5 diagonalized for initial guess.
 HarFok:  IExCor=  205 AccDes= 0.00D+00 IRadAn=         5 IDoV= 1 UseB2=F ITyADJ=14
 ICtDFT=  3500011 ScaDFX=  1.000000  1.000000  1.000000  1.000000
 FoFCou: FMM=F IPFlag=           0 FMFlag=      100000 FMFlg1=           0
         NFxFlg=           0 DoJE=T BraDBF=F KetDBF=T FulRan=T
         wScrn=  0.000000 ICntrl=       500 IOpCl=  0 I1Cent=   200000004 NGrid=           0
         NMat0=    1 NMatS0=      1 NMatT0=    0 NMatD0=    1 NMtDS0=    0 NMtDT0=    0
 Petite list used in FoFCou.
 Keep R1 ints in memory in canonical form, NReq=74563165.
 Requested convergence on RMS density matrix=1.00D-08 within 128 cycles.
 Requested convergence on MAX density matrix=1.00D-06.
 Requested convergence on             energy=1.00D-06.
 No special actions if energy rises.
 SCF Done:  E(RHF) =  -265.665307500     A.U. after   11 cycles
            NFock= 11  Conv=0.35D-08     -V/T= 2.0023
 ExpMin= 2.97D-02 ExpMax= 1.17D+04 ExpMxC= 4.01D+02 IAcc=3 IRadAn=         5 AccDes= 0.00D+00
 HarFok:  IExCor=  205 AccDes= 0.00D+00 IRadAn=         5 IDoV=-2 UseB2=F ITyADJ=14
 ICtDFT= 12500011 ScaDFX=  1.000000  1.000000  1.000000  1.000000
 Range of M.O.s used for correlation:     6   151
 NBasis=   151 NAE=    19 NBE=    19 NFC=     5 NFV=     0
 NROrb=    146 NOA=    14 NOB=    14 NVA=   132 NVB=   132

 **** Warning!!: The largest alpha MO coefficient is  0.34880981D+02

 Fully direct method using O(ONN) memory.
 JobTyp=1 Pass  1:  I=   6 to  19 NPSUse= 40 ParTrn=T ParDer=T DoDerP=T.
 Spin components of T(2) and E(2):
     alpha-alpha T2 =       0.3444319362D-01 E2=     -0.1045828334D+00
     alpha-beta  T2 =       0.1913274032D+00 E2=     -0.5909652887D+00
     beta-beta   T2 =       0.3444319362D-01 E2=     -0.1045828334D+00
 ANorm=    0.1122592442D+01
 E2 =    -0.8001309555D+00 EUMP2 =    -0.26646543845597D+03
          IDoAtm=111111111
          Differentiating once with respect to electric field.
                with respect to dipole field.
          Differentiating once with respect to nuclear coordinates.
 Keep R1 ints in memory in canonical form, NReq=74571403.
          There are     1 degrees of freedom in the 1st order CPHF.  IDoFFX=0 NUNeed=     1.
 LinEq1:  Iter=  0 NonCon=     1 RMS=5.66D-03 Max=1.14D-01 NDo=     1
 AX will form     1 AO Fock derivatives at one time.
 LinEq1:  Iter=  1 NonCon=     1 RMS=1.79D-03 Max=2.12D-02 NDo=     1
 LinEq1:  Iter=  2 NonCon=     1 RMS=6.09D-04 Max=7.96D-03 NDo=     1
 LinEq1:  Iter=  3 NonCon=     1 RMS=2.15D-04 Max=3.31D-03 NDo=     1
 LinEq1:  Iter=  4 NonCon=     1 RMS=7.31D-05 Max=8.37D-04 NDo=     1
 LinEq1:  Iter=  5 NonCon=     1 RMS=2.65D-05 Max=2.88D-04 NDo=     1
 LinEq1:  Iter=  6 NonCon=     1 RMS=9.85D-06 Max=2.56D-04 NDo=     1
 LinEq1:  Iter=  7 NonCon=     1 RMS=2.87D-06 Max=4.65D-05 NDo=     1
 LinEq1:  Iter=  8 NonCon=     1 RMS=1.25D-06 Max=2.44D-05 NDo=     1
 LinEq1:  Iter=  9 NonCon=     1 RMS=2.39D-07 Max=2.68D-06 NDo=     1
 LinEq1:  Iter= 10 NonCon=     1 RMS=5.56D-08 Max=5.61D-07 NDo=     1
 LinEq1:  Iter= 11 NonCon=     1 RMS=2.03D-08 Max=3.42D-07 NDo=     1
 LinEq1:  Iter= 12 NonCon=     1 RMS=4.44D-09 Max=7.25D-08 NDo=     1
 LinEq1:  Iter= 13 NonCon=     1 RMS=7.99D-10 Max=7.04D-09 NDo=     1
 LinEq1:  Iter= 14 NonCon=     1 RMS=1.47D-10 Max=1.43D-09 NDo=     1
 LinEq1:  Iter= 15 NonCon=     0 RMS=2.50D-11 Max=2.13D-10 NDo=     1
 Linear equations converged to 1.000D-10 1.000D-09 after    15 iterations.
 End of Minotr F.D. properties file   721 does not exist.
 End of Minotr F.D. properties file   722 does not exist.
 End of Minotr F.D. properties file   788 does not exist.
 Calling FoFJK, ICntrl=  10002127 FMM=F ISym2X=0 I1Cent= 0 IOpClX= 0 NMat=1 NMatS=1 NMatT=0.
 ***** Axes restored to original set *****
 -------------------------------------------------------------------
 Center     Atomic                   Forces (Hartrees/Bohr)
 Number     Number              X              Y              Z
 -------------------------------------------------------------------
      1        6           0.001475163    0.001251268    0.000371716
      2        6          -0.000424010   -0.000182165   -0.001120010
      3        1          -0.000164673   -0.000063761   -0.000471021
      4        8          -0.001625038   -0.001449050   -0.000011195
      5        6           0.000114465    0.000020000    0.000497766
      6        1           0.000106564    0.000108828   -0.000077447
      7        8           0.000099187    0.000045527    0.000231765
      8        1           0.000286872    0.000101228    0.000876411
      9        1           0.000131468    0.000168125   -0.000297985
 -------------------------------------------------------------------
 Cartesian Forces:  Max     0.001625038 RMS     0.000658058

 GradGradGradGradGradGradGradGradGradGradGradGradGradGradGradGradGradGrad
 Berny optimization.
 Using GEDIIS/GDIIS optimizer.
 FormGI is forming the generalized inverse of G from B-inverse, IUseBI=4.
 Internal  Forces:  Max     0.002021667 RMS     0.000510378
 Search for a local minimum.
 Step number   3 out of a maximum of   38
 All quantities printed in internal units (Hartrees-Bohrs-Radians)
 Mixed Optimization -- En-DIIS/RFO-DIIS
 Update second derivatives using D2CorX and points    1    2    3
 DE= -1.62D-04 DEPred=-1.32D-04 R= 1.23D+00
 TightC=F SS=  1.41D+00  RLast= 3.50D-02 DXNew= 5.6053D-01 1.0496D-01
 Trust test= 1.23D+00 RLast= 3.50D-02 DXMaxT set to 3.33D-01
 ITU=  1  1  0
 Use linear search instead of GDIIS.
     Eigenvalues ---    0.01103   0.01103   0.02070   0.02106   0.02704
     Eigenvalues ---    0.02951   0.12022   0.16000   0.16062   0.16131
     Eigenvalues ---    0.20344   0.22000   0.24023   0.33542   0.35442
     Eigenvalues ---    0.35529   0.37189   0.47062   0.52705   0.62080
     Eigenvalues ---    0.93792
 RFO step:  Lambda=-1.37451316D-05 EMin= 1.10307863D-02
 Quartic linear search produced a step of  0.28843.
 Iteration  1 RMS(Cart)=  0.00618812 RMS(Int)=  0.00001523
 Iteration  2 RMS(Cart)=  0.00001716 RMS(Int)=  0.00000001
 Iteration  3 RMS(Cart)=  0.00000000 RMS(Int)=  0.00000001
 Variable       Old X    -DE/DX   Delta X   Delta X   Delta X     New X
                                 (Linear)    (Quad)   (Total)
    R1        2.56838  -0.00031  -0.00004   0.00038   0.00035   2.56873
    R2        2.06811  -0.00039   0.00063  -0.00158  -0.00095   2.06715
    R3        2.57096  -0.00202  -0.00287  -0.00283  -0.00570   2.56527
    R4        2.77086  -0.00034  -0.00344   0.00156  -0.00188   2.76898
    R5        2.07150  -0.00075   0.00080  -0.00281  -0.00201   2.06949
    R6        1.83402   0.00012   0.00035  -0.00017   0.00018   1.83419
    R7        2.32905  -0.00024   0.00020  -0.00018   0.00002   2.32907
    R8        2.11271  -0.00035   0.00122  -0.00180  -0.00058   2.11212
    A1        2.12818  -0.00038  -0.00416  -0.00029  -0.00445   2.12373
    A2        2.21652   0.00011   0.00004   0.00155   0.00158   2.21811
    A3        1.93848   0.00027   0.00413  -0.00126   0.00287   1.94135
    A4        2.08178  -0.00084  -0.00339  -0.00191  -0.00530   2.07647
    A5        2.14044  -0.00015  -0.00174  -0.00101  -0.00275   2.13769
    A6        2.06097   0.00099   0.00513   0.00292   0.00805   2.06902
    A7        1.90139   0.00022   0.00166   0.00005   0.00171   1.90311
    A8        2.16900   0.00022   0.00051   0.00205   0.00257   2.17156
    A9        2.01224  -0.00024  -0.00085  -0.00138  -0.00224   2.01001
   A10        2.10195   0.00002   0.00034  -0.00067  -0.00033   2.10162
    D1        0.00000   0.00000  -0.00000   0.00000   0.00000   0.00000
    D2       -3.14159  -0.00000   0.00000  -0.00000  -0.00000   3.14159
    D3       -3.14159   0.00000  -0.00000   0.00001   0.00001  -3.14158
    D4       -0.00000   0.00000  -0.00000   0.00001   0.00001   0.00001
    D5        0.00000  -0.00000   0.00000  -0.00001  -0.00000  -0.00000
    D6        3.14159   0.00000  -0.00000   0.00000   0.00000  -3.14159
    D7        3.14157   0.00000  -0.00000   0.00018   0.00017  -3.14144
    D8        0.00002  -0.00000   0.00001  -0.00017  -0.00016  -0.00015
    D9       -0.00002   0.00000  -0.00000   0.00018   0.00017   0.00015
   D10       -3.14158  -0.00000   0.00001  -0.00017  -0.00016   3.14145
         Item               Value     Threshold  Converged?
 Maximum Force            0.002022     0.000450     NO 
 RMS     Force            0.000510     0.000300     NO 
 Maximum Displacement     0.012557     0.001800     NO 
 RMS     Displacement     0.006190     0.001200     NO 
 Predicted change in Energy=-1.574236D-05
 GradGradGradGradGradGradGradGradGradGradGradGradGradGradGradGradGradGrad

                          Input orientation:                          
 ---------------------------------------------------------------------
 Center     Atomic      Atomic             Coordinates (Angstroms)
 Number     Number       Type             X           Y           Z
 ---------------------------------------------------------------------
      1          6           0       -0.761637    0.835553   -0.391475
      2          6           0       -1.487082    0.373834   -1.444223
      3          1           0       -0.946814    0.489648    0.629631
      4          8           0        0.247313    1.742998   -0.427727
      5          6           0       -2.543095   -0.612310   -1.200496
      6          1           0        0.384349    2.027641   -1.345491
      7          8           0       -3.259604   -1.097184   -2.078304
      8          1           0       -1.312899    0.711010   -2.471489
      9          1           0       -2.672081   -0.916478   -0.132756
 ---------------------------------------------------------------------
                    Distance matrix (angstroms):
                    1          2          3          4          5
     1  C    0.000000
     2  C    1.359314   0.000000
     3  H    1.093891   2.146200   0.000000
     4  O    1.357480   2.432284   2.028505   0.000000
     5  C    2.434012   1.465279   2.666793   3.732429   0.000000
     6  H    1.909059   2.499417   2.835229   0.970613   3.944654
     7  O    3.580601   2.389097   3.898711   4.805154   1.232491
     8  H    2.155426   1.095127   3.130489   2.770600   2.209067
     9  H    2.605061   2.188395   2.352652   3.960137   1.117687
                    6          7          8          9
     6  H    0.000000
     7  O    4.855918   0.000000
     8  H    2.425292   2.685855   0.000000
     9  H    4.413653   2.040342   3.156860   0.000000
 Stoichiometry    C3H4O2
 Framework group  C1[X(C3H4O2)]
 Deg. of freedom    21
 Full point group                 C1      NOp   1
 Largest Abelian subgroup         C1      NOp   1
 Largest concise Abelian subgroup C1      NOp   1
                         Standard orientation:                         
 ---------------------------------------------------------------------
 Center     Atomic      Atomic             Coordinates (Angstroms)
 Number     Number       Type             X           Y           Z
 ---------------------------------------------------------------------
      1          6           0        1.099048    0.378544   -0.000001
      2          6           0       -0.043664   -0.357624   -0.000036
      3          1           0        1.077857    1.472229    0.000004
      4          8           0        2.373678   -0.088437    0.000024
      5          6           0       -1.334585    0.335605   -0.000070
      6          1           0        2.355363   -1.058877    0.000017
      7          8           0       -2.429375   -0.230494    0.000049
      8          1           0       -0.037735   -1.452735   -0.000043
      9          1           0       -1.274706    1.451687    0.000085
 ---------------------------------------------------------------------
 Rotational constants (GHZ):          38.5471681           2.2089742           2.0892483
 Standard basis: Aug-CC-pVDZ (5D, 7F)
 There are   161 symmetry adapted cartesian basis functions of A   symmetry.
 There are   151 symmetry adapted basis functions of A   symmetry.
   151 basis functions,   259 primitive gaussians,   161 cartesian basis functions
    19 alpha electrons       19 beta electrons
       nuclear repulsion energy       152.5570377792 Hartrees.
 NAtoms=    9 NActive=    9 NUniq=    9 SFac= 1.00D+00 NAtFMM=   60 NAOKFM=F Big=F
 Integral buffers will be    131072 words long.
 Raffenetti 1 integral format.
 Two-electron integral symmetry is turned on.
 One-electron integrals computed using PRISM.
 NBasis=   151 RedAO= T EigKep=  3.03D-05  NBF=   151
 NBsUse=   151 1.00D-06 EigRej= -1.00D+00 NBFU=   151
 Initial guess from the checkpoint file:  "/scr/Gau-98792.chk"
 B after Tr=     0.000000   -0.000000    0.000000
         Rot=    1.000000    0.000000    0.000000   -0.000064 Ang=   0.01 deg.
 Keep R1 ints in memory in canonical form, NReq=74563283.
 Requested convergence on RMS density matrix=1.00D-08 within 128 cycles.
 Requested convergence on MAX density matrix=1.00D-06.
 Requested convergence on             energy=1.00D-06.
 No special actions if energy rises.
 SCF Done:  E(RHF) =  -265.665480821     A.U. after   10 cycles
            NFock= 10  Conv=0.59D-08     -V/T= 2.0022
 ExpMin= 2.97D-02 ExpMax= 1.17D+04 ExpMxC= 4.01D+02 IAcc=3 IRadAn=         5 AccDes= 0.00D+00
 HarFok:  IExCor=  205 AccDes= 0.00D+00 IRadAn=         5 IDoV=-2 UseB2=F ITyADJ=14
 ICtDFT= 12500011 ScaDFX=  1.000000  1.000000  1.000000  1.000000
 Range of M.O.s used for correlation:     6   151
 NBasis=   151 NAE=    19 NBE=    19 NFC=     5 NFV=     0
 NROrb=    146 NOA=    14 NOB=    14 NVA=   132 NVB=   132

 **** Warning!!: The largest alpha MO coefficient is  0.34592739D+02

 Fully direct method using O(ONN) memory.
 JobTyp=1 Pass  1:  I=   6 to  19 NPSUse= 40 ParTrn=T ParDer=T DoDerP=T.
 Spin components of T(2) and E(2):
     alpha-alpha T2 =       0.3442759373D-01 E2=     -0.1045826751D+00
     alpha-beta  T2 =       0.1911653543D+00 E2=     -0.5908084460D+00
     beta-beta   T2 =       0.3442759373D-01 E2=     -0.1045826751D+00
 ANorm=    0.1122506366D+01
 E2 =    -0.7999737962D+00 EUMP2 =    -0.26646545461682D+03
          IDoAtm=111111111
          Differentiating once with respect to electric field.
                with respect to dipole field.
          Differentiating once with respect to nuclear coordinates.
 Keep R1 ints in memory in canonical form, NReq=74571462.
          There are     1 degrees of freedom in the 1st order CPHF.  IDoFFX=0 NUNeed=     1.
 LinEq1:  Iter=  0 NonCon=     1 RMS=5.66D-03 Max=1.13D-01 NDo=     1
 AX will form     1 AO Fock derivatives at one time.
 LinEq1:  Iter=  1 NonCon=     1 RMS=1.79D-03 Max=2.10D-02 NDo=     1
 LinEq1:  Iter=  2 NonCon=     1 RMS=6.09D-04 Max=7.87D-03 NDo=     1
 LinEq1:  Iter=  3 NonCon=     1 RMS=2.15D-04 Max=3.28D-03 NDo=     1
 LinEq1:  Iter=  4 NonCon=     1 RMS=7.31D-05 Max=8.15D-04 NDo=     1
 LinEq1:  Iter=  5 NonCon=     1 RMS=2.65D-05 Max=2.92D-04 NDo=     1
 LinEq1:  Iter=  6 NonCon=     1 RMS=9.89D-06 Max=2.55D-04 NDo=     1
 LinEq1:  Iter=  7 NonCon=     1 RMS=2.88D-06 Max=4.66D-05 NDo=     1
 LinEq1:  Iter=  8 NonCon=     1 RMS=1.24D-06 Max=2.36D-05 NDo=     1
 LinEq1:  Iter=  9 NonCon=     1 RMS=2.39D-07 Max=2.67D-06 NDo=     1
 LinEq1:  Iter= 10 NonCon=     1 RMS=5.56D-08 Max=5.50D-07 NDo=     1
 LinEq1:  Iter= 11 NonCon=     1 RMS=2.02D-08 Max=3.38D-07 NDo=     1
 LinEq1:  Iter= 12 NonCon=     1 RMS=4.41D-09 Max=7.28D-08 NDo=     1
 LinEq1:  Iter= 13 NonCon=     1 RMS=7.93D-10 Max=6.94D-09 NDo=     1
 LinEq1:  Iter= 14 NonCon=     1 RMS=1.45D-10 Max=1.39D-09 NDo=     1
 LinEq1:  Iter= 15 NonCon=     0 RMS=2.46D-11 Max=2.11D-10 NDo=     1
 Linear equations converged to 1.000D-10 1.000D-09 after    15 iterations.
 End of Minotr F.D. properties file   721 does not exist.
 End of Minotr F.D. properties file   722 does not exist.
 End of Minotr F.D. properties file   788 does not exist.
 Calling FoFJK, ICntrl=  10002127 FMM=F ISym2X=0 I1Cent= 0 IOpClX= 0 NMat=1 NMatS=1 NMatT=0.
 ***** Axes restored to original set *****
 -------------------------------------------------------------------
 Center     Atomic                   Forces (Hartrees/Bohr)
 Number     Number              X              Y              Z
 -------------------------------------------------------------------
      1        6          -0.000079888   -0.000085739    0.000096813
      2        6           0.000143924    0.000185354   -0.000250779
      3        1           0.000023370    0.000016598    0.000025802
      4        8          -0.000023609   -0.000011492   -0.000066990
      5        6          -0.000303524   -0.000324072    0.000043918
      6        1           0.000067516    0.000055665    0.000027697
      7        8           0.000114046    0.000094113    0.000134004
      8        1           0.000012666   -0.000001275    0.000072911
      9        1           0.000045500    0.000070847   -0.000083376
 -------------------------------------------------------------------
 Cartesian Forces:  Max     0.000324072 RMS     0.000123914

 GradGradGradGradGradGradGradGradGradGradGradGradGradGradGradGradGradGrad
 Berny optimization.
 Using GEDIIS/GDIIS optimizer.
 FormGI is forming the generalized inverse of G from B-inverse, IUseBI=4.
 Internal  Forces:  Max     0.000226573 RMS     0.000081572
 Search for a local minimum.
 Step number   4 out of a maximum of   38
 All quantities printed in internal units (Hartrees-Bohrs-Radians)
 Mixed Optimization -- En-DIIS/RFO-DIIS
 Swapping is turned off.
 Update second derivatives using D2CorX and points    1    2    3    4
 DE= -1.62D-05 DEPred=-1.57D-05 R= 1.03D+00
 TightC=F SS=  1.41D+00  RLast= 1.37D-02 DXNew= 5.6053D-01 4.1048D-02
 Trust test= 1.03D+00 RLast= 1.37D-02 DXMaxT set to 3.33D-01
 ITU=  1  1  1  0
     Eigenvalues ---    0.01103   0.01103   0.02064   0.02106   0.02702
     Eigenvalues ---    0.02951   0.11564   0.16000   0.16088   0.16172
     Eigenvalues ---    0.19970   0.22001   0.24020   0.33425   0.35502
     Eigenvalues ---    0.36144   0.37181   0.47734   0.52718   0.62717
     Eigenvalues ---    0.93559
 En-DIIS/RFO-DIIS/Sim-DIIS IScMMF=       -3 using points:     4    3
 RFO step:  Lambda=-7.23600188D-07.
 DidBck=F Rises=F RFO-DIIS coefs:    1.06483   -0.06483
 Iteration  1 RMS(Cart)=  0.00089787 RMS(Int)=  0.00000066
 Iteration  2 RMS(Cart)=  0.00000066 RMS(Int)=  0.00000020
 Variable       Old X    -DE/DX   Delta X   Delta X   Delta X     New X
                                 (Linear)    (Quad)   (Total)
    R1        2.56873   0.00005   0.00002   0.00008   0.00010   2.56884
    R2        2.06715   0.00001  -0.00006   0.00011   0.00004   2.06720
    R3        2.56527   0.00006  -0.00037   0.00036  -0.00001   2.56525
    R4        2.76898   0.00023  -0.00012   0.00069   0.00057   2.76955
    R5        2.06949  -0.00007  -0.00013  -0.00007  -0.00020   2.06929
    R6        1.83419  -0.00000   0.00001  -0.00001   0.00001   1.83420
    R7        2.32907  -0.00020   0.00000  -0.00021  -0.00021   2.32886
    R8        2.11212  -0.00010  -0.00004  -0.00026  -0.00030   2.11182
    A1        2.12373   0.00003  -0.00029   0.00032   0.00003   2.12376
    A2        2.21811   0.00002   0.00010   0.00004   0.00015   2.21825
    A3        1.94135  -0.00005   0.00019  -0.00036  -0.00018   1.94117
    A4        2.07647  -0.00015  -0.00034  -0.00047  -0.00082   2.07566
    A5        2.13769   0.00004  -0.00018   0.00023   0.00005   2.13774
    A6        2.06902   0.00011   0.00052   0.00025   0.00077   2.06979
    A7        1.90311   0.00017   0.00011   0.00102   0.00113   1.90424
    A8        2.17156   0.00002   0.00017  -0.00001   0.00015   2.17171
    A9        2.01001  -0.00007  -0.00014  -0.00033  -0.00047   2.00953
   A10        2.10162   0.00005  -0.00002   0.00034   0.00032   2.10194
    D1        0.00000  -0.00000   0.00000  -0.00002  -0.00002  -0.00002
    D2        3.14159  -0.00000  -0.00000   0.00000   0.00000  -3.14159
    D3       -3.14158  -0.00000   0.00000  -0.00005  -0.00005   3.14155
    D4        0.00001  -0.00000   0.00000  -0.00004  -0.00003  -0.00003
    D5       -0.00000   0.00000  -0.00000   0.00003   0.00002   0.00002
    D6       -3.14159  -0.00000   0.00000  -0.00001  -0.00001   3.14159
    D7       -3.14144  -0.00001   0.00001  -0.00105  -0.00104   3.14070
    D8       -0.00015   0.00001  -0.00001   0.00103   0.00102   0.00088
    D9        0.00015  -0.00001   0.00001  -0.00107  -0.00106  -0.00091
   D10        3.14145   0.00001  -0.00001   0.00102   0.00101  -3.14073
         Item               Value     Threshold  Converged?
 Maximum Force            0.000227     0.000450     YES
 RMS     Force            0.000082     0.000300     YES
 Maximum Displacement     0.001647     0.001800     YES
 RMS     Displacement     0.000898     0.001200     YES
 Predicted change in Energy=-3.618108D-07
 Optimization completed.
    -- Stationary point found.
                           ----------------------------
                           !   Optimized Parameters   !
                           ! (Angstroms and Degrees)  !
 --------------------------                            --------------------------
 ! Name  Definition              Value          Derivative Info.                !
 --------------------------------------------------------------------------------
 ! R1    R(1,2)                  1.3593         -DE/DX =    0.0                 !
 ! R2    R(1,3)                  1.0939         -DE/DX =    0.0                 !
 ! R3    R(1,4)                  1.3575         -DE/DX =    0.0001              !
 ! R4    R(2,5)                  1.4653         -DE/DX =    0.0002              !
 ! R5    R(2,8)                  1.0951         -DE/DX =   -0.0001              !
 ! R6    R(4,6)                  0.9706         -DE/DX =    0.0                 !
 ! R7    R(5,7)                  1.2325         -DE/DX =   -0.0002              !
 ! R8    R(5,9)                  1.1177         -DE/DX =   -0.0001              !
 ! A1    A(2,1,3)              121.6808         -DE/DX =    0.0                 !
 ! A2    A(2,1,4)              127.0881         -DE/DX =    0.0                 !
 ! A3    A(3,1,4)              111.2312         -DE/DX =    0.0                 !
 ! A4    A(1,2,5)              118.9732         -DE/DX =   -0.0001              !
 ! A5    A(1,2,8)              122.4807         -DE/DX =    0.0                 !
 ! A6    A(5,2,8)              118.5461         -DE/DX =    0.0001              !
 ! A7    A(1,4,6)              109.0399         -DE/DX =    0.0002              !
 ! A8    A(2,5,7)              124.4213         -DE/DX =    0.0                 !
 ! A9    A(2,5,9)              115.1649         -DE/DX =   -0.0001              !
 ! A10   A(7,5,9)              120.4138         -DE/DX =    0.0                 !
 ! D1    D(3,1,2,5)              0.0002         -DE/DX =    0.0                 !
 ! D2    D(3,1,2,8)           -180.0            -DE/DX =    0.0                 !
 ! D3    D(4,1,2,5)            180.0005         -DE/DX =    0.0                 !
 ! D4    D(4,1,2,8)              0.0003         -DE/DX =    0.0                 !
 ! D5    D(2,1,4,6)             -0.0002         -DE/DX =    0.0                 !
 ! D6    D(3,1,4,6)            180.0001         -DE/DX =    0.0                 !
 ! D7    D(1,2,5,7)            180.0086         -DE/DX =    0.0                 !
 ! D8    D(1,2,5,9)             -0.0085         -DE/DX =    0.0                 !
 ! D9    D(8,2,5,7)              0.0087         -DE/DX =    0.0                 !
 ! D10   D(8,2,5,9)           -180.0083         -DE/DX =    0.0                 !
 --------------------------------------------------------------------------------
 GradGradGradGradGradGradGradGradGradGradGradGradGradGradGradGradGradGrad

                          Input orientation:                          
 ---------------------------------------------------------------------
 Center     Atomic      Atomic             Coordinates (Angstroms)
 Number     Number       Type             X           Y           Z
 ---------------------------------------------------------------------
      1          6           0       -0.761637    0.835553   -0.391475
      2          6           0       -1.487082    0.373834   -1.444223
      3          1           0       -0.946814    0.489648    0.629631
      4          8           0        0.247313    1.742998   -0.427727
      5          6           0       -2.543095   -0.612310   -1.200496
      6          1           0        0.384349    2.027641   -1.345491
      7          8           0       -3.259604   -1.097184   -2.078304
      8          1           0       -1.312899    0.711010   -2.471489
      9          1           0       -2.672081   -0.916478   -0.132756
 ---------------------------------------------------------------------
                    Distance matrix (angstroms):
                    1          2          3          4          5
     1  C    0.000000
     2  C    1.359314   0.000000
     3  H    1.093891   2.146200   0.000000
     4  O    1.357480   2.432284   2.028505   0.000000
     5  C    2.434012   1.465279   2.666793   3.732429   0.000000
     6  H    1.909059   2.499417   2.835229   0.970613   3.944654
     7  O    3.580601   2.389097   3.898711   4.805154   1.232491
     8  H    2.155426   1.095127   3.130489   2.770600   2.209067
     9  H    2.605061   2.188395   2.352652   3.960137   1.117687
                    6          7          8          9
     6  H    0.000000
     7  O    4.855918   0.000000
     8  H    2.425292   2.685855   0.000000
     9  H    4.413653   2.040342   3.156860   0.000000
 Stoichiometry    C3H4O2
 Framework group  C1[X(C3H4O2)]
 Deg. of freedom    21
 Full point group                 C1      NOp   1
 Largest Abelian subgroup         C1      NOp   1
 Largest concise Abelian subgroup C1      NOp   1
                         Standard orientation:                         
 ---------------------------------------------------------------------
 Center     Atomic      Atomic             Coordinates (Angstroms)
 Number     Number       Type             X           Y           Z
 ---------------------------------------------------------------------
      1          6           0        1.099048    0.378544   -0.000001
      2          6           0       -0.043664   -0.357624   -0.000036
      3          1           0        1.077857    1.472229    0.000004
      4          8           0        2.373678   -0.088437    0.000024
      5          6           0       -1.334585    0.335605   -0.000070
      6          1           0        2.355363   -1.058877    0.000017
      7          8           0       -2.429375   -0.230494    0.000049
      8          1           0       -0.037735   -1.452735   -0.000043
      9          1           0       -1.274706    1.451687    0.000085
 ---------------------------------------------------------------------
 Rotational constants (GHZ):          38.5471681           2.2089742           2.0892483

 **********************************************************************

            Population analysis using the SCF Density.

 **********************************************************************

 Orbital symmetries:
       Occupied  (A) (A) (A) (A) (A) (A) (A) (A) (A) (A) (A) (A)
                 (A) (A) (A) (A) (A) (A) (A)
       Virtual   (A) (A) (A) (A) (A) (A) (A) (A) (A) (A) (A) (A)
                 (A) (A) (A) (A) (A) (A) (A) (A) (A) (A) (A) (A)
                 (A) (A) (A) (A) (A) (A) (A) (A) (A) (A) (A) (A)
                 (A) (A) (A) (A) (A) (A) (A) (A) (A) (A) (A) (A)
                 (A) (A) (A) (A) (A) (A) (A) (A) (A) (A) (A) (A)
                 (A) (A) (A) (A) (A) (A) (A) (A) (A) (A) (A) (A)
                 (A) (A) (A) (A) (A) (A) (A) (A) (A) (A) (A) (A)
                 (A) (A) (A) (A) (A) (A) (A) (A) (A) (A) (A) (A)
                 (A) (A) (A) (A) (A) (A) (A) (A) (A) (A) (A) (A)
                 (A) (A) (A) (A) (A) (A) (A) (A) (A) (A) (A) (A)
                 (A) (A) (A) (A) (A) (A) (A) (A) (A) (A) (A) (A)
 The electronic state is 1-A.
 Alpha  occ. eigenvalues --  -20.64364 -20.55861 -11.36071 -11.34793 -11.25881
 Alpha  occ. eigenvalues --   -1.44782  -1.37604  -1.08277  -0.89681  -0.81832
 Alpha  occ. eigenvalues --   -0.73560  -0.69168  -0.62804  -0.61605  -0.60638
 Alpha  occ. eigenvalues --   -0.57087  -0.52993  -0.42733  -0.37515
 Alpha virt. eigenvalues --    0.02704   0.03686   0.05312   0.06654   0.08564
 Alpha virt. eigenvalues --    0.09313   0.10842   0.11913   0.12239   0.13084
 Alpha virt. eigenvalues --    0.14221   0.14668   0.15546   0.16724   0.17293
 Alpha virt. eigenvalues --    0.20649   0.22256   0.23500   0.25488   0.25599
 Alpha virt. eigenvalues --    0.26615   0.29004   0.30727   0.30751   0.31162
 Alpha virt. eigenvalues --    0.31906   0.35373   0.37271   0.37637   0.39350
 Alpha virt. eigenvalues --    0.39485   0.42054   0.42423   0.43846   0.45555
 Alpha virt. eigenvalues --    0.46163   0.46884   0.50800   0.54299   0.56500
 Alpha virt. eigenvalues --    0.58413   0.59024   0.60156   0.60529   0.62171
 Alpha virt. eigenvalues --    0.62773   0.64655   0.66383   0.67148   0.69106
 Alpha virt. eigenvalues --    0.71489   0.73529   0.75912   0.78376   0.79584
 Alpha virt. eigenvalues --    0.81035   0.82934   0.84200   0.85548   0.88280
 Alpha virt. eigenvalues --    0.92527   0.93835   0.94305   1.00424   1.00695
 Alpha virt. eigenvalues --    1.05830   1.08363   1.13057   1.17055   1.21146
 Alpha virt. eigenvalues --    1.23547   1.25720   1.26394   1.31141   1.31503
 Alpha virt. eigenvalues --    1.34264   1.38751   1.46070   1.47098   1.47935
 Alpha virt. eigenvalues --    1.48161   1.57892   1.59816   1.61081   1.64198
 Alpha virt. eigenvalues --    1.67470   1.67855   1.69321   1.74448   1.78669
 Alpha virt. eigenvalues --    1.86565   1.87037   1.89912   1.94576   1.94850
 Alpha virt. eigenvalues --    1.97254   2.02604   2.03230   2.05505   2.08935
 Alpha virt. eigenvalues --    2.13148   2.15456   2.17066   2.21089   2.23564
 Alpha virt. eigenvalues --    2.28989   2.37787   2.38121   2.39172   2.44530
 Alpha virt. eigenvalues --    2.53965   2.62891   2.67751   2.71523   2.72712
 Alpha virt. eigenvalues --    2.87511   2.91128   3.01204   3.02628   3.30880
 Alpha virt. eigenvalues --    3.44139   3.51337   3.68719   3.70719   3.74403
 Alpha virt. eigenvalues --    3.77891   3.78431   3.82013   3.95043   3.98043
 Alpha virt. eigenvalues --    4.10187   4.28359
          Condensed to atoms (all electrons):
               1          2          3          4          5          6
     1  C    4.905127   0.181145   0.362704  -0.024671  -0.000114  -0.120811
     2  C    0.181145   5.136418  -0.138295  -0.043360   0.048009   0.035425
     3  H    0.362704  -0.138295   1.154235  -0.153404  -0.027571   0.008482
     4  O   -0.024671  -0.043360  -0.153404   8.612495  -0.013791   0.334548
     5  C   -0.000114   0.048009  -0.027571  -0.013791   5.000151   0.011907
     6  H   -0.120811   0.035425   0.008482   0.334548   0.011907   0.546558
     7  O   -0.012383  -0.053239  -0.001379   0.000819   0.275333  -0.001103
     8  H    0.005268   0.178012   0.041573  -0.043966  -0.230546   0.007313
     9  H   -0.069230   0.036674  -0.020767   0.004498   0.310132   0.002719
               7          8          9
     1  C   -0.012383   0.005268  -0.069230
     2  C   -0.053239   0.178012   0.036674
     3  H   -0.001379   0.041573  -0.020767
     4  O    0.000819  -0.043966   0.004498
     5  C    0.275333  -0.230546   0.310132
     6  H   -0.001103   0.007313   0.002719
     7  O    8.557948   0.020492  -0.053724
     8  H    0.020492   1.461037   0.011813
     9  H   -0.053724   0.011813   0.889007
 Mulliken charges:
               1
     1  C    0.772964
     2  C    0.619211
     3  H   -0.225577
     4  O   -0.673168
     5  C    0.626490
     6  H    0.174963
     7  O   -0.732764
     8  H   -0.450996
     9  H   -0.111121
 Sum of Mulliken charges =  -0.00000
 Mulliken charges with hydrogens summed into heavy atoms:
               1
     1  C    0.547386
     2  C    0.168215
     4  O   -0.498205
     5  C    0.515368
     7  O   -0.732764
 Electronic spatial extent (au):  <R**2>=            531.9905
 Charge=             -0.0000 electrons
 Dipole moment (field-independent basis, Debye):
    X=              3.7564    Y=              0.3046    Z=             -0.0002  Tot=              3.7688
 Quadrupole moment (field-independent basis, Debye-Ang):
   XX=            -41.7250   YY=            -23.8899   ZZ=            -30.9506
   XY=             -5.3621   XZ=              0.0004   YZ=              0.0001
 Traceless Quadrupole moment (field-independent basis, Debye-Ang):
   XX=             -9.5365   YY=              8.2986   ZZ=              1.2380
   XY=             -5.3621   XZ=              0.0004   YZ=              0.0001
 Octapole moment (field-independent basis, Debye-Ang**2):
  XXX=             28.4485  YYY=             -1.8662  ZZZ=              0.0005  XYY=              8.4424
  XXY=             -4.4086  XXZ=             -0.0008  XZZ=             -0.0374  YZZ=             -0.1980
  YYZ=              0.0004  XYZ=             -0.0002
 Hexadecapole moment (field-independent basis, Debye-Ang**3):
 XXXX=           -647.8351 YYYY=            -58.8268 ZZZZ=            -32.0165 XXXY=            -34.6696
 XXXZ=              0.0008 YYYX=             -8.1637 YYYZ=              0.0006 ZZZX=             -0.0001
 ZZZY=             -0.0001 XXYY=            -85.5562 XXZZ=            -96.3544 YYZZ=            -17.8055
 XXYZ=             -0.0001 YYXZ=             -0.0003 ZZXY=             -0.4827
 N-N= 1.525570377792D+02 E-N=-9.295742709581D+02  KE= 2.650742231725D+02
 Unable to Open any file for archive entry.
 1\1\GINC-N3112\FOpt\RMP2-FC\Aug-CC-pVDZ\C3H4O2\GDS001\22-Mar-2025\0\\#
  MP2/aug-cc-pVDZ opt freq=(vibrot,anharmonic)\\blah\\0,1\C,-0.76163700
 34,0.8355525602,-0.3914745337\C,-1.4870824493,0.3738335446,-1.44422298
 38\H,-0.9468137752,0.4896480808,0.6296307992\O,0.2473131911,1.74299832
 88,-0.4277273981\C,-2.543094737,-0.6123097254,-1.2004958635\H,0.384348
 9328,2.027641441,-1.3454906552\O,-3.2596038249,-1.0971835899,-2.078304
 0953\H,-1.3128993283,0.7110097688,-2.4714890699\H,-2.6720809974,-0.916
 4780513,-0.1327559568\\Version=EM64L-G16RevC.01\State=1-A\HF=-265.6654
 808\MP2=-266.4654546\RMSD=5.871e-09\RMSF=1.239e-04\Dipole=0.9554324,0.
 785254,0.3850641\PG=C01 [X(C3H4O2)]\\@
 The archive entry for this job was punched.


 Boundary, n.  In political geography, an imaginary
 line between two nations, separating the imaginary
 rights of one from the imaginary rights of another.
                               -- Ambrose Bierce
 Job cpu time:       0 days  0 hours 25 minutes 38.1 seconds.
 Elapsed time:       0 days  0 hours  0 minutes 48.6 seconds.
 File lengths (MBytes):  RWF=     16 Int=      0 D2E=      0 Chk=      3 Scr=      1
 Normal termination of Gaussian 16 at Sat Mar 22 18:41:46 2025.
 Link1:  Proceeding to internal job step number  2.
 ----------------------------------------------------------------------
 #N Geom=AllCheck Guess=TCheck SCRF=Check GenChk RMP2(FC)/Aug-CC-pVDZ F
[...]
 12,-0.00005815,0.00012660,0.00008760,0.00336261,-0.00196213,-0.0005787
 2,-0.00031160,0.00408374,0.00241088,-0.01385329,0.00027959,0.00001939,
 0.00075718,0.00036276,0.00000026,0.00022113,-0.00203607,-0.00132766,-0
 .00242733,-0.00009790,-0.00010148,0.00004527,0.00011573,-0.00011271,0.
 00000070,-0.00164952,-0.00080304,-0.00038828,-0.00014663,-0.00000920,-
 0.01090185,-0.01703263,0.03755007,0.00027580,0.00028402,-0.00031715,0.
 00013176,0.00009818,-0.00017296,0.00149381,0.00134443,0.00003683,-0.00
 001490,-0.00002428,0.00005776,0.00015017,0.00005472,0.00022283,0.00925
 831,0.01530345,-0.03642729,0.00073396,-0.00010263,0.00154975,-0.003463
 97,-0.00269519,-0.00179170,0.00025583,0.00030113,-0.00015541,-0.000185
 93,0.00031336,-0.00020594,-0.00370981,-0.00156361,-0.00116744,0.000011
 97,0.00008054,-0.00001226,-0.00223801,-0.00198057,0.00066525,0.0007465
 4,0.00090379,-0.00000482,0.00784943,0.00008355,0.00034205,0.00156593,-
 0.00362866,-0.00301179,-0.00183302,0.00018888,0.00015155,-0.00018381,0
 .00016006,-0.00028302,-0.00039290,-0.00133744,-0.00044103,-0.01454605,
 0.00010531,0.00002041,-0.00001880,-0.00118730,-0.00141837,0.00152198,0
 .00087241,0.00049307,0.00011872,0.00474318,0.00414714,0.00045420,0.000
 59467,-0.00053222,0.00359476,0.00298780,0.00135758,0.00047900,0.000386
 88,0.00020414,0.00069161,0.00040686,0.00067519,-0.00235248,-0.01563969
 ,0.07473696,-0.00014864,-0.00014212,-0.00002784,-0.00400095,-0.0026268
 1,-0.00532763,0.00015995,0.00026447,-0.00094089,0.00112257,0.01376794,
 -0.07014527,-0.00248961,-0.00422379,-0.00184607,0.00115703,0.00009010,
 0.00716419,0.00284197,0.00087125,-0.00286095,-0.00711355,0.00080679,0.
 00349190,-0.00165980,-0.00335190,-0.00831337,-0.00245275,-0.00129377,-
 0.00241274,0.00527867,0.00515439,-0.00735063,0.00021275,0.00102853,0.0
 0021992,-0.00022754,0.00009588,-0.00040482,-0.00076871,0.00101390,-0.0
 0016306,0.00046472,-0.00000916,-0.00016259,-0.00053889,-0.00132651,-0.
 00053820,0.00034993,0.00056617,-0.00241593,0.00009332,-0.00008011,0.00
 069699,0.00025778,0.00009792,0.00139812,0.00129391,0.00260384,0.001371
 20,-0.00008086,-0.00002724,-0.00069406,0.00002176,-0.00004985,-0.00029
 936,-0.00109674,0.00284919,0.00046624,0.00127235,-0.00033705,-0.000125
 96,-0.00066480,-0.00004853,0.00015950,-0.00039787,-0.00277155,-0.00035
 396,-0.00003843,0.00000507,-0.00212271,0.00115304,0.00100014,0.0002735
 6,-0.00029085,-0.00039166,0.00087083,-0.00049285,-0.00024874,0.0009849
 9,-0.00320930,-0.00094725,0.00170098,0.00994132,0.01669532,-0.01265097
 ,0.00009857,-0.00012096,-0.00092068,-0.00005340,-0.00062099,-0.0013424
 2,-0.54447806,-0.00112011,-0.00368747,0.00109024,0.01243007,0.00665139
 ,-0.01060010,-0.00031268,0.00032976,-0.00098768,-0.00076415,0.00043105
 ,-0.00121378,0.08512279,-0.34039853,0.00274311,0.00203560,-0.00019209,
 0.01155999,0.01095662,-0.00980164,0.00010648,-0.00007069,0.00135751,-0
 .00051025,-0.00046699,0.00103187,-0.34518665,-0.87433928,2.62639114,-0
 .00001148,-0.00012130,0.00013475,-0.00049890,0.00022234,-0.00011751,0.
 00024045,-0.00014423,-0.00014501,-0.00027261,0.00038776,0.00006598,0.0
 0034607,0.00015223,0.00039688,0.00026240,-0.00014216,-0.00005703,0.000
 14989,0.00021807,-0.00048844,-0.00022231,-0.00016067,0.00029918,-0.000
 06424,0.00042992,-0.00032633,-0.00006664,0.00023228,0.00022557,0.00041
 489,-0.00027040,0.00034019,0.00022017,0.00022859,-0.00008330,-0.000084
 47,-0.00019513,-0.00003949,-0.00005027,0.00001997,0.00005896,-0.000150
 81,-0.00025917,0.00000793,-0.00004767,0.00001582,-0.00024966,-0.000086
 06,0.00002829,-0.00003160,0.00021014,-0.00035196,-0.00113848,-0.001733
 70,-0.00192442,0.00284433,0.00001018,0.00000252,0.00013731,0.00081534,
 0.00084007,0.00068252,-0.00508004,0.01442844,-0.01459795,-0.00013296,-
 0.00019236,0.00014936,0.00637668,-0.00027115,0.00071117,-0.00069871,-0
 .00176064,-0.00222332,0.00301112,0.00003646,-0.00002576,0.00021596,0.0
 0081377,0.00037834,0.00050403,0.00686389,-0.00944137,-0.01599528,-0.00
 013817,-0.00008921,0.00010771,-0.00271905,0.01027003,-0.00164575,-0.00
 115874,-0.00091475,0.00178305,0.00209812,-0.00302877,-0.00005462,0.000
 04378,-0.00055602,0.00082914,0.00063802,0.00030696,0.02814444,0.022188
 67,-0.00141341,-0.00015366,-0.00016296,0.00020021,-0.01200458,-0.00486
 810,-0.02148362,-0.00001559,0.00025676,0.00039716,0.00215694,0.0002938
 0,-0.00055684,-0.00015234,0.00002899,0.00011263,-0.00002886,-0.0002906
 1,-0.00009385,-0.00170881,-0.00062005,0.00088072,0.00000951,-0.0000331
 2,-0.00001458,0.00007447,-0.00019143,0.00071566,-0.00011183,0.00041090
 ,-0.00007845,0.00033915,0.00016743,0.00212053,-0.00005725,0.00006145,-
 0.00015927,0.00005431,-0.00031710,0.00003357,-0.00002330,-0.00039660,-
 0.00166317,0.00059149,-0.00003515,0.00002028,-0.00001254,0.00000037,0.
 00001616,0.00075104,0.00080930,-0.00051425,-0.00048452,-0.00044488,-0.
 00031161,0.00010172,0.00052197,-0.00051458,-0.00007826,-0.00011761,0.0
 0005799,0.00007227,0.00012498,-0.00002813,-0.00033817,-0.00048802,-0.0
 0011494,-0.00000212,-0.00000129,0.00004800,-0.00036728,-0.00021833,-0.
 00048247,0.00071777,0.00043080,0.00001861,0.00116721,0.00088390,-0.000
 98161,-0.00528565,-0.01281053,0.00875397,0.00056485,0.00060530,0.00041
 407,-0.00059854,-0.00000829,0.00035685,0.54414364,-0.10931651,0.344607
 66,0.00005751,-0.00008156,0.00006433,-0.00054011,-0.00263367,-0.017613
 67,-0.00022348,-0.00070062,0.00037857,-0.53928543,0.00067643,0.0011627
 8,-0.00104795,-0.00822804,-0.00095014,0.00521164,0.00062607,0.00026044
 ,0.00059554,0.00008237,-0.00066247,0.00043487,-0.10682847,0.34755277,0
 .87687364,-0.00005308,0.00007579,0.00006645,-0.01008360,0.00040396,-0.
 01952983,-0.00025365,0.00022459,0.00019238,0.12406198,-0.34806772,0.00
 015112,-0.00002821,0.00128895,-0.01702430,-0.01779615,0.02217726,0.000
 29462,0.00049245,-0.00146847,-0.00012528,0.00000221,-0.00132531,0.3306
 4116,0.86433416,-2.61700878,-0.00009324,-0.00007562,0.00008894,0.02429
 476,0.01794161,0.02737187,-0.00215867,-0.00207371,0.00132714,-0.335980
 17,-0.86279675,2.56754841,-0.00036955,-0.00289173,-0.00164849,0.003748
 81,0.00636796,-0.01513180,-0.00060790,-0.00251646,0.01657204,-0.597667
 78,0.00154199,-0.00225074,0.01470918,0.20830072,-0.33416319,-0.0063403
 9,-0.00575327,-0.00035036,-0.57280069,-1.11613806,2.70169977,0.0014615
 9,0.00117809,-0.00084714,-0.00166654,0.00148346,0.00142163,-0.00068692
 ,0.00089478,0.00125063,-0.00082384,0.00152382,-0.00242061,0.00100296,0
 .00006076,-0.00064266,0.00080183,0.00063454,0.00077283,0.00109831,0.00
 072687,-0.00214697,-0.00011379,-0.00020865,-0.00014182,0.00076290,0.00
 271900,0.00052750,0.00006423,-0.00268197,-0.00504223,0.00020166,-0.000
 35602,-0.00028855,-0.00066915,0.00295076,0.00034038,-0.00029971,-0.003
 18944,0.00185268,-0.00375543,-0.00042110,0.00030571,-0.00016152,-0.001
 58341,-0.00053878,-0.00080333,-0.00149641,0.00201223,-0.00207928,-0.00
 109512,-0.00022552,0.00009513,0.00017985,0.00010942,0.00051468,0.00056
 853,0.00035073,0.00033800,0.00050486,0.00151911,0.00830399,0.00369129,
 0.00697896,-0.00019785,-0.00038102,0.00000447,-0.00101460,0.00005343,-
 0.00035278,-0.00753204,0.00064257,-0.00010927,0.00083111,0.00713574,0.
 00772561,0.00770933,-0.00047228,-0.00017733,0.00000564,-0.00006103,-0.
 00099235,-0.00042769,-0.00491687,-0.00704302,0.00079828,0.00020263,0.0
 0231265,-0.01238147,-0.00963629,-0.00522041,0.00046478,0.00041557,0.00
 022681,0.00032002,0.00017619,-0.00032571,0.00109616,0.00345157,-0.0166
 7621,-0.00005819,0.00009383,-0.00065210,-0.00010349,0.00037497,-0.0004
 6443,-0.00014035,-0.00005463,0.00003348,0.00034550,0.00045455,0.000128
 32,0.00020367,-0.00015505,0.00001934,0.00004628,-0.00009082,-0.0000140
 0,-0.00057938,0.00042627,0.00004173,-0.00051117,-0.00003076,-0.0001218
 3,0.00005170,0.00050160,0.00024027,0.00009432,-0.00013007,0.00022796,0
 .00013593,-0.00047711,0.00034780,0.00036024,0.00032698,-0.00006419,-0.
 00074601,-0.00076479,0.00013410,-0.00009962,-0.00006754,-0.00021177,-0
 .00011672,-0.00012344,-0.00005700,-0.00011469,0.00001422,-0.00030095,-
 0.00063337,-0.00035995,-0.00047618,-0.00007308,0.00034767,-0.00042002,
 -0.00369801,-0.00409794,-0.00000758,0.00018175,0.00003708,0.00002076,0
 .00044933,0.00021738,0.00020398,0.00158194,0.00196079,0.00089991,-0.00
 003926,0.00002910,0.00001724,-0.00016686,0.00029823,-0.00009459,-0.000
 09662,-0.00385908,-0.00247904,-0.00032096,0.00005937,0.00018136,0.0000
 4251,0.00020804,0.00033079,0.00012403,0.00169520,0.00071554,-0.0003155
 8,0.00004860,-0.00003169,0.00000147,-0.00051444,0.00018333,-0.00019082
 ,0.00010122,-0.00189988,-0.00148735,-0.00160917,0.00245083,-0.00010568
 ,-0.00007091,-0.00000794,0.00025252,0.00017050,0.00046462,0.00240019,0
 .00101309,0.00577670,-0.00008985,-0.00009414,0.00000503,-0.00093621,-0
 .00005262,-0.00399913,-0.00139623,0.00047890,-0.01983526,0.59596860,-0
 .20967521,0.57611458,0.00105947,-0.00163288,-0.00164236,-0.00039888,0.
 00155298,0.00219744,-0.00393097,-0.00449015,0.00752751,-0.00023807,-0.
 00016751,0.00124663,0.00215158,0.00228201,0.00039783,-0.59274358,-0.00
 336465,0.00245370,-0.01962017,-0.20885925,0.33262474,1.11752256,-0.001
 81655,0.00179278,-0.00112362,0.00126414,-0.00178578,0.00191862,-0.0011
 5428,-0.00217481,0.00413724,-0.00023275,-0.00066220,0.00088823,0.00227
 313,0.00139711,0.00086899,0.21283564,-0.33350530,0.00189817,-0.0002062
 7,0.01276210,0.57143528,1.11333294,-2.69400015,-0.00061203,-0.00020576
 ,0.00127647,0.00384717,0.00339117,-0.00232553,-0.01128918,-0.01265442,
 0.01419951,0.00161628,0.00121855,0.00097659,0.00044847,0.00091099,-0.0
 0338440,-0.56656673,-1.10478704,2.66801579,-0.00005749,0.00008585,-0.0
 0061293,-0.00059312,0.00106270,0.00014021,-0.00021282,-0.00009190,0.00
 008585,0.00025901,-0.00003515,0.00009584,0.00224785,0.00035628,0.00125
 546,-0.00001609,-0.00006070,0.00008630,-0.00038740,-0.00021793,-0.0002
 4064,-0.00047194,-0.00094545,-0.00077743,-0.00076799,0.00001889,0.0000
 7244,-0.00048852,0.00103768,-0.00093121,0.00024407,-0.00004100,-0.0001
 6804,0.00003253,-0.00001034,0.00024706,0.00013386,0.00063745,0.0018276
 8,0.00143273,-0.00005241,-0.00002804,0.00008480,-0.00025277,-0.0002028
 0,-0.00032696,-0.00118380,-0.00014025,-0.00100018,-0.00015370,-0.00067
 682,-0.00027283,-0.00017741,-0.00041361,0.00038920,0.00047445,-0.00234
 130,-0.00020329,-0.00022169,0.00012297,-0.00001438,0.00003370,-0.00000
 324,-0.00024222,0.00005716,0.00000759,0.00004234,0.00004415,-0.0000056
 3,-0.00022654,-0.00029323,0.00059416,0.00056036,0.00019518,0.00247962,
 -0.00003265,-0.00011233,-0.00044055,-0.58283131,0.21253773,-0.30261169
 ,-0.62521892,-1.15776539,2.69310462,0.00045050,0.00545137,-0.00576889,
 -0.00744768,0.00136309,-0.00206348,-0.00670576,-0.00286055,-0.00677317
 ,0.01739334,0.01398092,0.00449147,-0.00152090,0.00152692,-0.02071462,0
 .57284623,-0.23096518,0.61622579,0.00060833,-0.00065860,-0.01868767,-0
 .56805443,-0.23220887,0.29839887,1.15212991,-0.00554782,0.00339882,-0.
 01867766,0.24200698,-0.30005289,0.62330786,1.15844000,-2.69432152,0.00
 886638,0.00594248,0.01624115,-0.61007670,-1.14303348,2.66521129,0.0144
 2507,0.01386105,0.01491672,-0.00026436,-0.00028594,0.00104116,-0.00690
 496,-0.00469569,-0.01614894,-0.01280966,0.01896052,0.01053876,0.013484
 24,0.00012725,-0.00030102,0.00132852,-0.00942544,-0.00392544,-0.016662
 85,-0.00900966,-0.01066751,-0.01394691,-0.01230069,-0.00493093,-0.0012
 0097,-0.00065845,-0.00247250,0.01061881,0.00724053,0.01422216,-0.00056
 937,-0.00007798,-0.00507994,0.00027402,-0.00198120,-0.00151926,0.00334
 774,0.00068816,0.00207046,-0.00050803,0.00198896,-0.00215094,-0.000714
 68,-0.00085726,0.00066992,-0.00467853,-0.00184173,0.00122741,-0.000505
 65,0.00068184,0.00243190,0.00154432,0.00112361,-0.00085445,-0.00244695
 ,-0.00071805,-0.00064368,0.00059906,-0.00062764,-0.00341973,-0.0022421
 2,-0.00113521,-0.00215975,0.00221402,0.00161263,0.00425980,0.00268381,
 0.00186934,0.00067696,-0.00009049,-0.00007736,0.00015196,-0.00230317,-
 0.00258950,-0.00094973,-0.00236958,0.00034388,0.00080605,0.00054200,0.
 00052649,-0.00043727,0.00070010,-0.00021546,-0.00449722,0.00631034,0.0
 0000193,0.00424570,-0.00028003,0.00015801,0.00020826,-0.00520750,0.000
 60700,-0.00233688,-0.00020688,0.00048757,0.00050350,-0.00015250,-0.001
 13357,0.00142354,-0.00341323,0.00065932,0.00516160,0.00504926,0.000123
 70,-0.00040935,0.00009129,-0.00024461,-0.00482601,-0.00071489,-0.00156
 281,0.00231402,-0.00020865,0.00004963,-0.00128639,0.00069745,0.0012254
 4,-0.00158158,0.00054936,0.00174932,-0.00162766,0.00041087,0.00026986,
 0.00003427,-0.00030295,-0.00147996,0.00194719,-0.00048106,0.00030801,-
 0.00028959,-0.00071340,-0.00038344,0.00044289,0.00017292,-0.00033547,0
 .00068368,0.00039281,0.00035378,-0.00012376,0.00165508,0.00087119,-0.0
 0016070,0.00008627,0.00001222,-0.00005059,-0.00102041,0.00015645,-0.00
 053139,-0.00054282,-0.00008454,-0.00047595,0.00027345,-0.00014436,0.00
 014288,0.00079803,0.00032453,0.00032841,-0.00009011,0.00052671,0.00109
 717,0.00012076,0.00000581,0.00009431,-0.00003515,-0.00046847,-0.000665
 65,0.00051587,0.00016894,0.00089739,-0.00137704,-0.00131698,0.00009260
 ,-0.00039776,-0.00016828,-0.00065637,0.00003654,0.00005653,-0.00012543
 ,0.00178554,0.00184779,-0.00054959,-0.00001049,0.00000063,0.00002766,-
 0.00056677,-0.00054554,-0.00032123,-0.00261856,0.00094183,0.00076059,0
 .00413963,0.00152886,0.00023339,0.00085197,-0.00157029,-0.00059511,-0.
 00031578,-0.00015949,0.00024382,-0.00001189,-0.00017394,-0.00066260,0.
 00019463,-0.00045277,-0.00030653,0.00000139,-0.00008324,0.00007871,-0.
 00215204,0.00102081,-0.00295604,0.00022523,0.00153360,0.00365186,0.000
 69612,-0.00141581,0.00151671,-0.00028324,-0.00021382,-0.00041106,0.000
 18118,-0.00038772,0.00005523,-0.00057771,-0.00050153,0.00034563,-0.000
 17630,-0.00003806,0.00002620,0.00011420,-0.00007892,-0.00210035,0.0003
 0626,-0.00017756,-0.00127206,0.00014892,0.00061177,-0.00033735,-0.0014
 7692,-0.00107239,0.00132877,0.00056762,0.00047031,0.00002007,0.0005862
 0,0.00054619,0.00020593,-0.00003007,0.00007072,0.00021226,-0.00017482,
 -0.00011444,-0.00016600,0.00008361,-0.00029186,-0.00001874,0.00030469,
 -0.00049751,0.00008751,-0.00066276,0.00008195,-0.00053539,0.00028787,0
 .00057765,0.00061100,-0.00011881,0.00000837,0.00006277,0.00091634,0.00
 052671,0.00035297,0.00002377,-0.00005887,-0.00007407,-0.00009358,-0.00
 023286,-0.00006460,-0.00008935,0.00008144,-0.00001081,-0.00056817,-0.0
 0059503,0.00033444,-0.00011289,0.00021130,-0.00037247,-0.00052012,0.00
 061236,-0.00004803,0.00065926,0.00007826,-0.00008008,0.00005722,0.0005
 2628,0.00051550,0.00068575,-0.00007453,0.00004365,-0.00004003,-0.00031
 975,-0.00001597,-0.00015730,0.00004797,-0.00012819,-0.00004275,-0.0004
 8687,-0.00024884,0.00059948,0.00035179,0.00187672,-0.00115283,-0.00106
 222,-0.00027411,0.00041318,0.00048658,-0.00112085,-0.00030259,-0.00027
 073,-0.00015772,0.00045037,0.00073490,-0.00166990,0.00001798,0.0000406
 7,-0.00003976,0.00023967,0.00013582,0.00080097,0.00016411,0.00011237,0
 .00002712,-0.00042937,-0.00052916,0.00055751,-0.01590673,-0.01837293,-
 0.01219149,-0.00048043,0.00270558,-0.01314298,0.00065641,0.00301028,0.
 00032663,-0.00398775,0.00335325,0.00051082,-0.00142731,-0.00430971,-0.
 00304248,-0.00156863,-0.00311819,0.00715208,-0.00031453,0.00050757,-0.
 00400474,0.00385703,-0.00115025,0.00426186,0.00015207,-0.00042838,0.00
 010861,-0.00395271,-0.00034850,0.00324451,0.00419558,-0.00039304,0.000
 22380,0.00022852,-0.00035586,-0.00319545,-0.00022809,0.00017203,0.0021
 7823,-0.00018487,-0.00002019,-0.00018350,-0.00166224,-0.00197362,-0.00
 047330,0.02253649,0.04195457,-0.02622885,-0.00265985,-0.00590600,0.001
 46541,0.00076679,0.00139490,0.00277323,-1.23380519,0.03478843,0.015830
 34,-0.02247860,-0.00521115,-0.00138041,0.00204303,0.00165777,-0.000305
 25,0.00247353,0.30953509,-0.71429557,0.01428666,0.01369471,-0.02455278
 ,-0.00237245,-0.00136854,-0.00055836,0.00130094,0.00115744,-0.00133075
 ,-1.01663457,-2.19702489,5.91210249,0.00043392,0.00072163,-0.00033637,
 0.00039220,0.00007628,0.00024162,0.00018949,0.00006289,-0.00004309,0.0
 0039303,-0.00213090,0.00117877,-0.00061219,0.00067807,0.00030921,-0.00
 011265,0.00000015,0.00016193,0.00014960,0.00006672,0.00021768,-0.00007
 200,-0.00175155,0.00068621,0.00161613,-0.00052150,-0.00004390,-0.00002
 954,0.00017680,-0.00150287,0.00077822,0.00056961,0.00099734,-0.0001211
 0,-0.00014247,0.00032445,-0.00093870,-0.00027183,-0.00060005,-0.000695
 19,-0.00063929,-0.00022250,-0.00964841,-0.02369771,0.02222584,0.003801
 84,0.00634215,-0.00060398,-0.00057365,-0.00085502,-0.00087961,1.211935
 64,-0.34097404,1.00368394,-0.00116976,0.00098310,0.00108866,-1.2055106
 7,-0.01766521,-0.00626660,0.01683823,0.00594731,0.00221005,-0.00043781
 ,-0.00029170,0.00041348,-0.00065287,-0.34714438,0.69895957,2.18355410,
 0.00132601,-0.00137264,0.00036825,0.35830650,-0.69505447,-0.01192970,-
 0.01366152,0.02949894,0.00163936,0.00156265,-0.00373208,-0.00406365,-0
 .00349653,-0.00019509,1.03860734,2.21474320,-5.88544678,-0.00084105,-0
 .00135702,0.00092600,-1.02467199,-2.19917971,5.85898427,-0.00048701,-0
 .00064081,-0.00011492,0.00007326,0.00029890,0.00052215,-0.00000122,-0.
 00001484,0.00001338,0.00008523,0.00081460,-0.00086996,0.00032089,0.000
 43328,0.00013461,0.00050288,-0.00019063,0.00083092,-0.00042844,-0.0006
 3527,-0.00029010,-0.00012981,0.00040351,-0.00004780,0.00035636,-0.0000
 1893,-0.00001149,0.00003972,0.00058544,0.00001168,-0.00080046,0.000374
 44,0.00006032,0.00012025,-0.00003144,0.00038969,0.00075745,-0.00056226
 ,-0.00012234,-0.00019698,-0.00021039,0.00046287,-0.00019593,-0.0002509
 0,0.00003493,0.00003659,0.00005987,-0.00015262,0.00041959,0.00035471,-
 0.00055181,0.00046401,0.00040348,0.00004102,-0.00006400,-0.00004195,0.
 00046677,-0.00041470,-0.00032623,-0.00012511,-0.00150192,-0.00186856,0
 .00046435,0.00153741,0.00079889,0.00009574,-0.00038854,0.00052728,0.00
 012570,0.00105939,0.00137636,-0.00067434,0.00012938,-0.00004554,-0.000
 19785,0.00044252,-0.00010040,0.00050478,-0.00004429,-0.00007245,-0.000
 00966,-0.00126861,-0.00181262,-0.00121941,0.00054159,0.00072698,0.0012
 6804,0.00015869,0.00053261,-0.00051614,-0.00005407,0.00122135,0.000880
 67,-0.00079621,-0.00007513,0.00016651,-0.00016122,0.00008509,0.0004237
 1,0.00060647,-0.00006849,-0.00002384,0.00001610,-0.00066855,-0.0009992
 0,0.00013907,0.00025390,-0.00023404,0.00044649,0.00046306,0.00024798,0
 .00008846,-0.00008875,-0.00005987,0.00021879,0.00000140,0.00074755,0.0
 0000880,0.00003185,0.00010452,-0.00054361,-0.00032975,-0.00042407,-0.0
 0003039,-0.00000460,-0.00009787,-0.00031502,-0.00031981,-0.00025105,0.
 00006023,0.00004378,-0.00011813,0.00003441,-0.00022537,0.00005365,-0.0
 0004928,-0.00001782,0.00008559,-0.00031154,0.00014384,0.00010101,-0.00
 007695,0.00015726,-0.00001914,0.00021960,-0.00018750,-0.00007603,-0.00
 002131,-0.00004302,-0.00003892,0.00003465,0.00005876,-0.00001258,0.000
 11018,0.00001478,0.00007274,-0.00013262,-0.00017432,0.00009604,0.00011
 227,-0.00001196,-0.00007114,0.00008748,0.00011059,-0.00038722,-0.00003
 229,0.00016628,-0.00018529,-0.00002012,-0.00015864,0.00029720,0.000025
 03,-0.00006975,0.00003386,-0.00000471,0.00005297,0.00001965,-0.0000073
 0,0.00007007,0.00012417,0.00000761,-0.00001293,0.00014052,-0.00012290,
 -0.00003594,0.00004641,0.00005052,0.00005995,-0.00010754,0.00031776,0.
 00015943,0.00019050,0.00002251,-0.00002008,-0.00006791,-0.00023525,-0.
 00011849,-0.00007798,-0.00007110,-0.00001267,-0.00007821,0.00000629,0.
 00000846,-0.00003315,0.00002455,-0.00002773,-0.00001264\\@
 The archive entry for this job was punched.


 "ANNA, YOU MUSN'T SPEAK OF OXIDIZED MURIATIC ACID
 ANYMORE, FROM NOW ON YOU MUST SAY CHLORINE."
   -- JENS JACOB BERZELIUS, IN 1820, TO HIS COOK, WHO HAD
 COMPLAINED OF THE SMELL OF THE FLASK SHE WAS CLEANING.
 Job cpu time:       1 days 20 hours 19 minutes 26.1 seconds.
 Elapsed time:       0 days  1 hours  7 minutes 44.5 seconds.
 File lengths (MBytes):  RWF=   2665 Int=      0 D2E=      0 Chk=     43 Scr=      1
 Normal termination of Gaussian 16 at Sat Mar 22 19:49:39 2025.
