 Entering Gaussian System, Link 0=g16
 Input=enol_mp2_avdz_charge.gjf
 Output=enol_mp2_avdz_charge.log
 Initial command:
 /sw/contrib/gaussian/g16/A03/g16/l1.exe "/tmp/Gau-28573.inp" -scrdir="/tmp/"
 Entering Link 1 = /sw/contrib/gaussian/g16/A03/g16/l1.exe PID=     28574.
  
 Copyright (c) 1988,1990,1992,1993,1995,1998,2003,2009,2016,
            Gaussian, Inc.  All Rights Reserved.
  
 This is part of the Gaussian(R) 16 program.  It is based on
 the Gaussian(R) 09 system (copyright 2009, Gaussian, Inc.),
 the Gaussian(R) 03 system (copyright 2003, Gaussian, Inc.),
 the Gaussian(R) 98 system (copyright 1998, Gaussian, Inc.),
 the Gaussian(R) 94 system (copyright 1995, Gaussian, Inc.),
 the Gaussian 92(TM) system (copyright 1992, Gaussian, Inc.),
 the Gaussian 90(TM) system (copyright 1990, Gaussian, Inc.),
 the Gaussian 88(TM) system (copyright 1988, Gaussian, Inc.),
 the Gaussian 86(TM) system (copyright 1986, Carnegie Mellon
 University), and the Gaussian 82(TM) system (copyright 1983,
 Carnegie Mellon University). Gaussian is a federally registered
 trademark of Gaussian, Inc.
  
 This software contains proprietary and confidential information,
 including trade secrets, belonging to Gaussian, Inc.
  
 This software is provided under written license and may be
 used, copied, transmitted, or stored only in accord with that
 written license.
  
 The following legend is applicable only to US Government
 contracts under FAR:
  
                    RESTRICTED RIGHTS LEGEND
  
 Use, reproduction and disclosure by the US Government is
 subject to restrictions as set forth in subparagraphs (a)
 and (c) of the Commercial Computer Software - Restricted
 Rights clause in FAR 52.227-19.
  
 Gaussian, Inc.
 340 Quinnipiac St., Bldg. 40, Wallingford CT 06492
  
  
 ---------------------------------------------------------------
 Warning -- This program may not be used in any manner that
 competes with the business of Gaussian, Inc. or will provide
 assistance to any competitor of Gaussian, Inc.  The licensee
 of this program is prohibited from giving any competitor of
 Gaussian, Inc. access to this program.  By using this program,
 the user acknowledges that Gaussian, Inc. is engaged in the
 business of creating and licensing software in the field of
 computational chemistry and represents and warrants to the
 licensee that it is not a competitor of Gaussian, Inc. and that
 it will not use this program in any manner prohibited above.
 ---------------------------------------------------------------
  

 Cite this work as:
 Gaussian 16, Revision A.03,
 M. J. Frisch, G. W. Trucks, H. B. Schlegel, G. E. Scuseria, 
 M. A. Robb, J. R. Cheeseman, G. Scalmani, V. Barone, 
 G. A. Petersson, H. Nakatsuji, X. Li, M. Caricato, A. V. Marenich, 
 J. Bloino, B. G. Janesko, R. Gomperts, B. Mennucci, H. P. Hratchian, 
 J. V. Ortiz, A. F. Izmaylov, J. L. Sonnenberg, D. Williams-Young, 
 F. Ding, F. Lipparini, F. Egidi, J. Goings, B. Peng, A. Petrone, 
 T. Henderson, D. Ranasinghe, V. G. Zakrzewski, J. Gao, N. Rega, 
 G. Zheng, W. Liang, M. Hada, M. Ehara, K. Toyota, R. Fukuda, 
 J. Hasegawa, M. Ishida, T. Nakajima, Y. Honda, O. Kitao, H. Nakai, 
 T. Vreven, K. Throssell, J. A. Montgomery, Jr., J. E. Peralta, 
 F. Ogliaro, M. J. Bearpark, J. J. Heyd, E. N. Brothers, K. N. Kudin, 
 V. N. Staroverov, T. A. Keith, R. Kobayashi, J. Normand, 
 K. Raghavachari, A. P. Rendell, J. C. Burant, S. S. Iyengar, 
 J. Tomasi, M. Cossi, J. M. Millam, M. Klene, C. Adamo, R. Cammi, 
 J. W. Ochterski, R. L. Martin, K. Morokuma, O. Farkas, 
 J. B. Foresman, and D. J. Fox, Gaussian, Inc., Wallingford CT, 2016.
 
 ******************************************
 Gaussian 16:  ES64L-G16RevA.03 25-Dec-2016
                20-Jun-2022 
 ******************************************
 %nprocshared=28
 Will use up to   28 processors via shared memory.
 %mem=41GB
 -------------------------------------------
 # MP2/aug-cc-pVDZ opt=z-matrix freq pop=NBO
 -------------------------------------------
 1/10=7,18=40,38=1/1,3;
 2/12=2,17=6,18=5,29=3,40=1/2;
 3/5=16,7=10,11=9,25=1,30=1,71=1/1,2,3;
 4//1;
 5/5=2,38=5/2;
 8/6=4,10=1/1;
 9/15=2,16=-3/6;
 10/5=1/2;
 6/7=2,8=2,9=2,10=2,40=1/1,7;
 7/12=2,29=1/1,2,3,16;
 1/10=7,18=40/3(2);
 2/29=3/2;
 99//99;
 2/29=3/2;
 3/5=16,7=10,11=9,25=1,30=1,71=1/1,2,3;
 4/5=5,16=3,69=1/1;
 5/5=2,38=5/2;
 8/6=4,10=1/1;
 9/15=2,16=-3/6;
 10/5=1/2;
 7/12=2/1,2,3,16;
 1/18=40/3(-8);
 2/29=3/2;
 6/7=2,8=2,9=2,10=2,40=1/1,7;
 99//99;
 ----
 blah
 ----
 Symbolic Z-matrix:
 Charge =  0 Multiplicity = 1
 O
 C                    1    R1
 C                    2    R2       1    A1
 H                    1    R3       2    A2       3     0.       0
 H                    2    R4       1    A3       4     180.     0
 H                    3    R5       2    A4       1     0.       0
 H                    3    R6       2    A5       1     180.     0
       Variables:
  R1                    1.3                      
  R2                    1.5                      
  R3                    1.                       
  R4                    1.                       
  R5                    1.                       
  R6                    1.                       
  A1                  120.                       
  A2                  110.                       
  A3                  120.                       
  A4                  120.                       
  A5                  120.                       
 

 GradGradGradGradGradGradGradGradGradGradGradGradGradGradGradGradGradGrad
 Berny optimization.
 Initialization pass.
                       ----------------------------
                       !    Initial Parameters    !
                       ! (Angstroms and Degrees)  !
 ----------------------                            ----------------------
 !      Name          Value   Derivative information (Atomic Units)     !
 ------------------------------------------------------------------------
 !       R1          1.3      estimate D2E/DX2                          !
 !       R2          1.5      estimate D2E/DX2                          !
 !       R3          1.0      estimate D2E/DX2                          !
 !       R4          1.0      estimate D2E/DX2                          !
 !       R5          1.0      estimate D2E/DX2                          !
 !       R6          1.0      estimate D2E/DX2                          !
 !       A1        120.0      estimate D2E/DX2                          !
 !       A2        110.0      estimate D2E/DX2                          !
 !       A3        120.0      estimate D2E/DX2                          !
 !       A4        120.0      estimate D2E/DX2                          !
 !       A5        120.0      estimate D2E/DX2                          !
 ------------------------------------------------------------------------
 Trust Radius=3.00D-01 FncErr=1.00D-07 GrdErr=1.00D-07 EigMax=2.50D+02 EigMin=1.00D-04
 Number of steps in this run=     21 maximum allowed number of steps=    100.
 GradGradGradGradGradGradGradGradGradGradGradGradGradGradGradGradGradGrad

 ---------------------------------------------------------------------------------------------------
                            Z-MATRIX (ANGSTROMS AND DEGREES)
   CD    Cent   Atom    N1       Length/X        N2       Alpha/Y        N3        Beta/Z          J
 ---------------------------------------------------------------------------------------------------
      1      1  O 
      2      2  C        1   1.300000(     1)
      3      3  C        2   1.500000(     2)      1  120.000(     7)
      4      4  H        1   1.000000(     3)      2  110.000(     8)      3    0.000(    12)      0
      5      5  H        2   1.000000(     4)      1  120.000(     9)      4  180.000(    13)      0
      6      6  H        3   1.000000(     5)      2  120.000(    10)      1    0.000(    14)      0
      7      7  H        3   1.000000(     6)      2  120.000(    11)      1  180.000(    15)      0
 ---------------------------------------------------------------------------------------------------
                         Z-Matrix orientation:                         
 ---------------------------------------------------------------------
 Center     Atomic      Atomic             Coordinates (Angstroms)
 Number     Number       Type             X           Y           Z
 ---------------------------------------------------------------------
      1          8           0        0.000000    0.000000    0.000000
      2          6           0        0.000000    0.000000    1.300000
      3          6           0        1.299038    0.000000    2.050000
      4          1           0        0.939693    0.000000   -0.342020
      5          1           0       -0.866025    0.000000    1.800000
      6          1           0        2.165064    0.000000    1.550000
      7          1           0        1.299038    0.000000    3.050000
 ---------------------------------------------------------------------
                    Distance matrix (angstroms):
                    1          2          3          4          5
     1  O    0.000000
     2  C    1.300000   0.000000
     3  C    2.426932   1.500000   0.000000
     4  H    1.000000   1.891891   2.418861   0.000000
     5  H    1.997498   1.000000   2.179449   2.801583   0.000000
     6  H    2.662705   2.179449   1.000000   2.254168   3.041381
     7  H    3.315117   2.179449   1.000000   3.411001   2.500000
                    6          7
     6  H    0.000000
     7  H    1.732051   0.000000
 Stoichiometry    C2H4O
 Framework group  CS[SG(C2H4O)]
 Deg. of freedom    11
 Full point group                 CS      NOp   2
 Largest Abelian subgroup         CS      NOp   2
 Largest concise Abelian subgroup C1      NOp   1
                         Standard orientation:                         
 ---------------------------------------------------------------------
 Center     Atomic      Atomic             Coordinates (Angstroms)
 Number     Number       Type             X           Y           Z
 ---------------------------------------------------------------------
      1          8           0       -1.187738   -0.011674    0.000000
      2          6           0        0.000000    0.516795   -0.000000
      3          6           0        1.213310   -0.365179   -0.000000
      4          1           0       -1.118225   -1.009255    0.000000
      5          1           0        0.104771    1.511291   -0.000000
      6          1           0        1.108540   -1.359676   -0.000000
      7          1           0        2.126955    0.041335   -0.000000
 ---------------------------------------------------------------------
 Rotational constants (GHZ):          54.4833007          10.5509106           8.8391697
 Standard basis: Aug-CC-pVDZ (5D, 7F)
 There are    82 symmetry adapted cartesian basis functions of A'  symmetry.
 There are    29 symmetry adapted cartesian basis functions of A"  symmetry.
 There are    76 symmetry adapted basis functions of A'  symmetry.
 There are    29 symmetry adapted basis functions of A"  symmetry.
   105 basis functions,   173 primitive gaussians,   111 cartesian basis functions
    12 alpha electrons       12 beta electrons
       nuclear repulsion energy        70.0813595206 Hartrees.
 NAtoms=    7 NActive=    7 NUniq=    7 SFac= 1.00D+00 NAtFMM=   60 NAOKFM=F Big=F
 Integral buffers will be    131072 words long.
 Raffenetti 1 integral format.
 Two-electron integral symmetry is turned on.
 One-electron integrals computed using PRISM.
 NBasis=   105 RedAO= T EigKep=  1.26D-04  NBF=    76    29
 NBsUse=   105 1.00D-06 EigRej= -1.00D+00 NBFU=    76    29
 ExpMin= 2.97D-02 ExpMax= 1.17D+04 ExpMxC= 4.01D+02 IAcc=3 IRadAn=         5 AccDes= 0.00D+00
 Harris functional with IExCor=  205 and IRadAn=       5 diagonalized for initial guess.
 HarFok:  IExCor=  205 AccDes= 0.00D+00 IRadAn=         5 IDoV= 1 UseB2=F ITyADJ=14
 ICtDFT=  3500011 ScaDFX=  1.000000  1.000000  1.000000  1.000000
 FoFCou: FMM=F IPFlag=           0 FMFlag=      100000 FMFlg1=           0
         NFxFlg=           0 DoJE=T BraDBF=F KetDBF=T FulRan=T
         wScrn=  0.000000 ICntrl=       500 IOpCl=  0 I1Cent=   200000004 NGrid=           0
         NMat0=    1 NMatS0=      1 NMatT0=    0 NMatD0=    1 NMtDS0=    0 NMtDT0=    0
 Petite list used in FoFCou.
 Initial guess orbital symmetries:
       Occupied  (A') (A') (A') (A') (A') (A') (A') (A') (A') (A")
                 (A') (A")
       Virtual   (A") (A') (A') (A') (A') (A') (A") (A') (A') (A")
                 (A') (A') (A') (A') (A") (A') (A') (A') (A') (A')
                 (A") (A') (A") (A') (A") (A') (A') (A') (A") (A')
                 (A') (A') (A") (A') (A") (A') (A') (A') (A') (A")
                 (A') (A") (A') (A') (A") (A') (A') (A") (A') (A')
                 (A') (A") (A') (A") (A') (A') (A") (A') (A") (A')
                 (A') (A') (A') (A") (A") (A') (A') (A") (A') (A')
                 (A') (A") (A') (A") (A') (A") (A') (A') (A") (A')
                 (A') (A') (A') (A') (A') (A') (A') (A') (A") (A")
                 (A') (A') (A')
 The electronic state of the initial guess is 1-A'.
 Keep R1 ints in memory in symmetry-blocked form, NReq=23580671.
 Requested convergence on RMS density matrix=1.00D-08 within 128 cycles.
 Requested convergence on MAX density matrix=1.00D-06.
 Requested convergence on             energy=1.00D-06.
 No special actions if energy rises.
 SCF Done:  E(RHF) =  -152.869705583     A.U. after   13 cycles
            NFock= 13  Conv=0.20D-08     -V/T= 2.0006
 ExpMin= 2.97D-02 ExpMax= 1.17D+04 ExpMxC= 4.01D+02 IAcc=3 IRadAn=         5 AccDes= 0.00D+00
 HarFok:  IExCor=  205 AccDes= 0.00D+00 IRadAn=         5 IDoV=-2 UseB2=F ITyADJ=14
 ICtDFT= 12500011 ScaDFX=  1.000000  1.000000  1.000000  1.000000
 Range of M.O.s used for correlation:     4   105
 NBasis=   105 NAE=    12 NBE=    12 NFC=     3 NFV=     0
 NROrb=    102 NOA=     9 NOB=     9 NVA=    93 NVB=    93

 **** Warning!!: The largest alpha MO coefficient is  0.26248511D+02

 Fully direct method using O(ONN) memory.
 JobTyp=1 Pass  1:  I=   4 to  12 NPSUse= 28 ParTrn=T ParDer=T DoDerP=T.
 Spin components of T(2) and E(2):
     alpha-alpha T2 =       0.2056391433D-01 E2=     -0.6080834705D-01
     alpha-beta  T2 =       0.1223020901D+00 E2=     -0.3646486226D+00
     beta-beta   T2 =       0.2056391433D-01 E2=     -0.6080834705D-01
 ANorm=    0.1078624086D+01
 E2 =    -0.4862653167D+00 EUMP2 =    -0.15335597089982D+03
          IDoAtm=1111111
          Differentiating once with respect to electric field.
                with respect to dipole field.
          Differentiating once with respect to nuclear coordinates.
 Keep R1 ints in memory in symmetry-blocked form, NReq=23581726.
          There are     1 degrees of freedom in the 1st order CPHF.  IDoFFX=0 NUNeed=     1.
 LinEq1:  Iter=  0 NonCon=     1 RMS=5.89D-03 Max=7.60D-02 NDo=     1
 AX will form     1 AO Fock derivatives at one time.
 LinEq1:  Iter=  1 NonCon=     1 RMS=1.44D-03 Max=9.52D-03 NDo=     1
 LinEq1:  Iter=  2 NonCon=     1 RMS=5.78D-04 Max=7.67D-03 NDo=     1
 LinEq1:  Iter=  3 NonCon=     1 RMS=1.82D-04 Max=2.41D-03 NDo=     1
 LinEq1:  Iter=  4 NonCon=     1 RMS=6.95D-05 Max=4.95D-04 NDo=     1
 LinEq1:  Iter=  5 NonCon=     1 RMS=3.17D-05 Max=5.00D-04 NDo=     1
 LinEq1:  Iter=  6 NonCon=     1 RMS=9.77D-06 Max=5.42D-05 NDo=     1
 LinEq1:  Iter=  7 NonCon=     1 RMS=2.10D-06 Max=2.03D-05 NDo=     1
 LinEq1:  Iter=  8 NonCon=     1 RMS=3.60D-07 Max=2.76D-06 NDo=     1
 LinEq1:  Iter=  9 NonCon=     1 RMS=6.68D-08 Max=5.04D-07 NDo=     1
 LinEq1:  Iter= 10 NonCon=     1 RMS=1.27D-08 Max=1.25D-07 NDo=     1
 LinEq1:  Iter= 11 NonCon=     1 RMS=1.66D-09 Max=1.29D-08 NDo=     1
 LinEq1:  Iter= 12 NonCon=     1 RMS=2.35D-10 Max=1.56D-09 NDo=     1
 LinEq1:  Iter= 13 NonCon=     0 RMS=4.61D-11 Max=4.20D-10 NDo=     1
 Linear equations converged to 1.000D-10 1.000D-09 after    13 iterations.
 End of Minotr F.D. properties file   721 does not exist.
 End of Minotr F.D. properties file   722 does not exist.
 End of Minotr F.D. properties file   788 does not exist.

 **********************************************************************

            Population analysis using the SCF density.

 **********************************************************************

 Orbital symmetries:
       Occupied  (A') (A') (A') (A') (A') (A') (A') (A') (A") (A')
                 (A') (A")
       Virtual   (A') (A') (A') (A') (A") (A') (A") (A') (A') (A')
                 (A') (A") (A') (A') (A") (A') (A') (A') (A') (A")
                 (A') (A") (A') (A") (A') (A') (A') (A") (A') (A')
                 (A') (A') (A') (A") (A') (A') (A') (A") (A') (A")
                 (A') (A') (A") (A') (A") (A') (A') (A') (A") (A')
                 (A') (A") (A") (A') (A') (A') (A') (A") (A') (A")
                 (A') (A') (A') (A") (A") (A') (A') (A') (A") (A')
                 (A") (A') (A') (A") (A') (A") (A') (A') (A") (A')
                 (A') (A') (A') (A') (A') (A') (A') (A') (A") (A")
                 (A') (A') (A')
 The electronic state is 1-A'.
 Alpha  occ. eigenvalues --  -20.62117 -11.32910 -11.21641  -1.44231  -0.99012
 Alpha  occ. eigenvalues --   -0.86967  -0.70741  -0.69114  -0.60084  -0.58516
 Alpha  occ. eigenvalues --   -0.52498  -0.30997
 Alpha virt. eigenvalues --    0.03600   0.04464   0.05264   0.07221   0.10482
 Alpha virt. eigenvalues --    0.11717   0.11941   0.14336   0.14907   0.17052
 Alpha virt. eigenvalues --    0.17811   0.18565   0.21367   0.21998   0.24451
 Alpha virt. eigenvalues --    0.25069   0.31216   0.32313   0.34750   0.35920
 Alpha virt. eigenvalues --    0.36588   0.41980   0.42330   0.43206   0.43871
 Alpha virt. eigenvalues --    0.44088   0.48274   0.52074   0.53441   0.54284
 Alpha virt. eigenvalues --    0.57106   0.60989   0.61996   0.62607   0.63521
 Alpha virt. eigenvalues --    0.66051   0.66267   0.66575   0.69751   0.71768
 Alpha virt. eigenvalues --    0.74091   0.78542   0.81693   0.85625   0.89362
 Alpha virt. eigenvalues --    0.96500   0.97563   1.00640   1.05205   1.11929
 Alpha virt. eigenvalues --    1.17170   1.18547   1.23309   1.25003   1.31795
 Alpha virt. eigenvalues --    1.43168   1.51615   1.52963   1.54130   1.56614
 Alpha virt. eigenvalues --    1.62586   1.65427   1.71655   1.77982   1.78571
 Alpha virt. eigenvalues --    1.86822   1.91405   1.98341   1.98956   2.05163
 Alpha virt. eigenvalues --    2.07127   2.12921   2.14017   2.21804   2.23264
 Alpha virt. eigenvalues --    2.32172   2.34514   2.39453   2.46856   2.58286
 Alpha virt. eigenvalues --    2.70095   2.80979   2.84302   2.96684   3.03069
 Alpha virt. eigenvalues --    3.20014   3.34357   3.54447   3.69503   3.71571
 Alpha virt. eigenvalues --    3.89105   3.97256   4.24143
          Condensed to atoms (all electrons):
               1          2          3          4          5          6
     1  O    8.558682   0.005809  -0.030263   0.306913  -0.147850  -0.058874
     2  C    0.005809   4.494853   0.626285  -0.109690   0.090324  -0.014284
     3  C   -0.030263   0.626285   4.347713  -0.000521  -0.048961   0.107052
     4  H    0.306913  -0.109690  -0.000521   0.548809   0.019965  -0.010144
     5  H   -0.147850   0.090324  -0.048961   0.019965   1.504554   0.080187
     6  H   -0.058874  -0.014284   0.107052  -0.010144   0.080187   1.889235
     7  H   -0.000889   0.025256   0.148462   0.012947  -0.132388  -0.478626
               7
     1  O   -0.000889
     2  C    0.025256
     3  C    0.148462
     4  H    0.012947
     5  H   -0.132388
     6  H   -0.478626
     7  H    1.874736
 Mulliken charges:
               1
     1  O   -0.633528
     2  C    0.881447
     3  C    0.850234
     4  H    0.231721
     5  H   -0.365832
     6  H   -0.514545
     7  H   -0.449498
 Sum of Mulliken charges =  -0.00000
 Mulliken charges with hydrogens summed into heavy atoms:
               1
     1  O   -0.401806
     2  C    0.515615
     3  C   -0.113809
 Electronic spatial extent (au):  <R**2>=            166.3494
 Charge=             -0.0000 electrons
 Dipole moment (field-independent basis, Debye):
    X=             -0.1958    Y=             -0.6434    Z=              0.0000  Tot=              0.6725
 Quadrupole moment (field-independent basis, Debye-Ang):
   XX=            -20.5688   YY=            -14.5072   ZZ=            -22.0493
   XY=              2.0158   XZ=              0.0000   YZ=              0.0000
 Traceless Quadrupole moment (field-independent basis, Debye-Ang):
   XX=             -1.5270   YY=              4.5345   ZZ=             -3.0075
   XY=              2.0158   XZ=              0.0000   YZ=              0.0000
 Octapole moment (field-independent basis, Debye-Ang**2):
  XXX=             -2.1517  YYY=             -1.0303  ZZZ=              0.0000  XYY=             -4.6044
  XXY=             -2.6599  XXZ=              0.0000  XZZ=             -5.0601  YZZ=              0.2090
  YYZ=              0.0000  XYZ=              0.0000
 Hexadecapole moment (field-independent basis, Debye-Ang**3):
 XXXX=           -142.3073 YYYY=            -40.8698 ZZZZ=            -29.0121 XXXY=             12.8879
 XXXZ=              0.0000 YYYX=             10.2401 YYYZ=              0.0000 ZZZX=              0.0000
 ZZZY=              0.0000 XXYY=            -28.8954 XXZZ=            -32.7104 YYZZ=            -13.6323
 XXYZ=              0.0000 YYXZ=              0.0000 ZZXY=              3.0221
 N-N= 7.008135952064D+01 E-N=-4.988964953873D+02  KE= 1.527709127649D+02
 Symmetry A'   KE= 1.464773781720D+02
 Symmetry A"   KE= 6.293534592917D+00
 ******************************Gaussian NBO Version 3.1******************************
             N A T U R A L   A T O M I C   O R B I T A L   A N D
          N A T U R A L   B O N D   O R B I T A L   A N A L Y S I S
 ******************************Gaussian NBO Version 3.1******************************
       /RESON  / : Allow strongly delocalized NBO set

 Analyzing the SCF density

 Job title: blah                                                            

 Storage needed:     33579 in NPA,     44487 in NBO (5502926547 available)
 GSVD:  LWork=        6425 too small for GESVD, short by        2361 words or        2361 for optimal perf.


 NATURAL POPULATIONS:  Natural atomic orbital occupancies 
                                                          
   NAO  Atom  No  lang   Type(AO)    Occupancy      Energy
 ----------------------------------------------------------
     1    O    1  S      Cor( 1S)     1.99975     -20.40483
     2    O    1  S      Val( 2S)     1.65238      -1.17726
     3    O    1  S      Ryd( 3S)     0.00138       1.00446
     4    O    1  S      Ryd( 4S)     0.00005       1.70702
     5    O    1  px     Val( 2p)     1.67823      -0.49137
     6    O    1  px     Ryd( 4p)     0.00241       0.94430
     7    O    1  px     Ryd( 3p)     0.00019       0.91054
     8    O    1  py     Val( 2p)     1.53267      -0.41447
     9    O    1  py     Ryd( 4p)     0.00287       1.25489
    10    O    1  py     Ryd( 3p)     0.00004       0.89319
    11    O    1  pz     Val( 2p)     1.87101      -0.50948
    12    O    1  pz     Ryd( 4p)     0.00302       0.89032
    13    O    1  pz     Ryd( 3p)     0.00005       0.77594
    14    O    1  dxy    Ryd( 3d)     0.00543       1.96236
    15    O    1  dxy    Ryd( 4d)     0.00004       3.18163
    16    O    1  dxz    Ryd( 3d)     0.00408       1.74002
    17    O    1  dxz    Ryd( 4d)     0.00000       3.12823
    18    O    1  dyz    Ryd( 3d)     0.00044       1.50959
    19    O    1  dyz    Ryd( 4d)     0.00008       3.18802
    20    O    1  dx2y2  Ryd( 3d)     0.00627       2.38230
    21    O    1  dx2y2  Ryd( 4d)     0.00025       3.13424
    22    O    1  dz2    Ryd( 3d)     0.00441       1.85388
    23    O    1  dz2    Ryd( 4d)     0.00010       3.25240

    24    C    2  S      Cor( 1S)     1.99944     -11.20659
    25    C    2  S      Val( 2S)     0.95522      -0.21564
    26    C    2  S      Ryd( 4S)     0.00287       1.29735
    27    C    2  S      Ryd( 3S)     0.00009       1.05527
    28    C    2  px     Val( 2p)     0.76313       0.04952
    29    C    2  px     Ryd( 4p)     0.00909       0.89777
    30    C    2  px     Ryd( 3p)     0.00018       0.48513
    31    C    2  py     Val( 2p)     1.06888       0.00048
    32    C    2  py     Ryd( 4p)     0.00190       0.97814
    33    C    2  py     Ryd( 3p)     0.00037       0.41256
    34    C    2  pz     Val( 2p)     0.84562      -0.05200
    35    C    2  pz     Ryd( 4p)     0.00684       0.75348
    36    C    2  pz     Ryd( 3p)     0.00016       0.30595
    37    C    2  dxy    Ryd( 4d)     0.00329       2.12336
    38    C    2  dxy    Ryd( 3d)     0.00021       1.49545
    39    C    2  dxz    Ryd( 4d)     0.00436       1.49340
    40    C    2  dxz    Ryd( 3d)     0.00039       1.23641
    41    C    2  dyz    Ryd( 4d)     0.00044       1.44009
    42    C    2  dyz    Ryd( 3d)     0.00013       1.23170
    43    C    2  dx2y2  Ryd( 4d)     0.00269       2.37030
    44    C    2  dx2y2  Ryd( 3d)     0.00023       1.52294
    45    C    2  dz2    Ryd( 3d)     0.00077       1.40318
    46    C    2  dz2    Ryd( 4d)     0.00047       1.48549

    47    C    3  S      Cor( 1S)     1.99947     -11.08393
    48    C    3  S      Val( 2S)     1.07268      -0.23891
    49    C    3  S      Ryd( 4S)     0.00025       1.23829
    50    C    3  S      Ryd( 3S)     0.00007       0.53258
    51    C    3  px     Val( 2p)     1.10457      -0.01377
    52    C    3  px     Ryd( 4p)     0.00431       1.02513
    53    C    3  px     Ryd( 3p)     0.00015       0.46299
    54    C    3  py     Val( 2p)     1.12678       0.00830
    55    C    3  py     Ryd( 4p)     0.00388       1.01852
    56    C    3  py     Ryd( 3p)     0.00014       0.42839
    57    C    3  pz     Val( 2p)     1.24745      -0.11722
    58    C    3  pz     Ryd( 4p)     0.01020       0.80023
    59    C    3  pz     Ryd( 3p)     0.00003       0.34184
    60    C    3  dxy    Ryd( 4d)     0.00233       2.09883
    61    C    3  dxy    Ryd( 3d)     0.00013       1.35195
    62    C    3  dxz    Ryd( 4d)     0.00103       1.54772
    63    C    3  dxz    Ryd( 3d)     0.00009       1.01174
    64    C    3  dyz    Ryd( 4d)     0.00075       1.52161
    65    C    3  dyz    Ryd( 3d)     0.00001       1.08572
    66    C    3  dx2y2  Ryd( 4d)     0.00123       2.34327
    67    C    3  dx2y2  Ryd( 3d)     0.00013       1.43966
    68    C    3  dz2    Ryd( 4d)     0.00128       1.76760
    69    C    3  dz2    Ryd( 3d)     0.00005       1.31135

    70    H    4  S      Val( 1S)     0.48110       0.20606
    71    H    4  S      Ryd( 3S)     0.00137       0.73357
    72    H    4  S      Ryd( 2S)     0.00009       0.54055
    73    H    4  px     Ryd( 3p)     0.00017       2.24148
    74    H    4  px     Ryd( 2p)     0.00017       0.94651
    75    H    4  py     Ryd( 3p)     0.00267       2.93141
    76    H    4  py     Ryd( 2p)     0.00022       0.93837
    77    H    4  pz     Ryd( 3p)     0.00039       2.06621
    78    H    4  pz     Ryd( 2p)     0.00061       0.74347

    79    H    5  S      Val( 1S)     0.83902       0.14212
    80    H    5  S      Ryd( 2S)     0.00066       0.39890
    81    H    5  S      Ryd( 3S)     0.00009       0.97011
    82    H    5  px     Ryd( 2p)     0.00179       0.82622
    83    H    5  px     Ryd( 3p)     0.00035       1.97832
    84    H    5  py     Ryd( 2p)     0.00177       0.95327
    85    H    5  py     Ryd( 3p)     0.00051       2.33493
    86    H    5  pz     Ryd( 2p)     0.00087       0.72988
    87    H    5  pz     Ryd( 3p)     0.00001       1.78564

    88    H    6  S      Val( 1S)     0.83309       0.16473
    89    H    6  S      Ryd( 2S)     0.00056       0.54641
    90    H    6  S      Ryd( 3S)     0.00003       0.68211
    91    H    6  px     Ryd( 2p)     0.00181       0.94913
    92    H    6  px     Ryd( 3p)     0.00027       1.96009
    93    H    6  py     Ryd( 2p)     0.00228       1.18264
    94    H    6  py     Ryd( 3p)     0.00032       2.07562
    95    H    6  pz     Ryd( 2p)     0.00060       0.76019
    96    H    6  pz     Ryd( 3p)     0.00001       1.80159

    97    H    7  S      Val( 1S)     0.81440       0.18884
    98    H    7  S      Ryd( 2S)     0.00023       0.48032
    99    H    7  S      Ryd( 3S)     0.00004       0.79030
   100    H    7  px     Ryd( 2p)     0.00188       0.92478
   101    H    7  px     Ryd( 3p)     0.00038       2.29937
   102    H    7  py     Ryd( 2p)     0.00161       0.85158
   103    H    7  py     Ryd( 3p)     0.00038       2.12375
   104    H    7  pz     Ryd( 2p)     0.00131       0.68062
   105    H    7  pz     Ryd( 3p)     0.00001       1.91633

 WARNING:  Population inversion found on atom  O    1
           Population inversion found on atom  C    2
           Population inversion found on atom  C    3
           Population inversion found on atom  H    4


 Summary of Natural Population Analysis:                  
                                                          
                                       Natural Population 
                Natural  -----------------------------------------------
    Atom  No    Charge         Core      Valence    Rydberg      Total
 -----------------------------------------------------------------------
      O    1   -0.76515      1.99975     6.73429    0.03111     8.76515
      C    2    0.33322      1.99944     3.63286    0.03449     5.66678
      C    3   -0.57701      1.99947     4.55148    0.02606     6.57701
      H    4    0.51322      0.00000     0.48110    0.00569     0.48678
      H    5    0.15493      0.00000     0.83902    0.00605     0.84507
      H    6    0.16104      0.00000     0.83309    0.00587     0.83896
      H    7    0.17975      0.00000     0.81440    0.00585     0.82025
 =======================================================================
   * Total *    0.00000      5.99866    17.88624    0.11511    24.00000

                                 Natural Population      
 --------------------------------------------------------
   Core                       5.99866 ( 99.9776% of   6)
   Valence                   17.88624 ( 99.3680% of  18)
   Natural Minimal Basis     23.88489 ( 99.5204% of  24)
   Natural Rydberg Basis      0.11511 (  0.4796% of  24)
 --------------------------------------------------------

    Atom  No          Natural Electron Configuration
 ----------------------------------------------------------------------------
      O    1      [core]2S( 1.65)2p( 5.08)3d( 0.02)4p( 0.01)
      C    2      [core]2S( 0.96)2p( 2.68)4p( 0.02)4d( 0.01)
      C    3      [core]2S( 1.07)2p( 3.48)4p( 0.02)4d( 0.01)
      H    4            1S( 0.48)
      H    5            1S( 0.84)
      H    6            1S( 0.83)
      H    7            1S( 0.81)


 NATURAL BOND ORBITAL ANALYSIS:

                       Occupancies       Lewis Structure    Low   High
           Occ.    -------------------  -----------------   occ   occ
  Cycle   Thresh.   Lewis   Non-Lewis     CR  BD  3C  LP    (L)   (NL)   Dev
 =============================================================================
   1(1)    1.90    23.79514   0.20486      3   7   0   2     1      1    0.11
   2(2)    1.90    23.18279   0.81721      3   7   0   2     1      1    0.84
   3(3)    1.90    23.79514   0.20486      3   7   0   2     1      1    0.11
   4(1)    1.80    23.79514   0.20486      3   7   0   2     0      1    0.11
   5(2)    1.80    23.79514   0.20486      3   7   0   2     0      1    0.11
   6(1)    1.70    23.79514   0.20486      3   7   0   2     0      1    0.11
   7(2)    1.70    23.79514   0.20486      3   7   0   2     0      1    0.11
   8(1)    1.60    23.79514   0.20486      3   7   0   2     0      1    0.11
   9(2)    1.60    23.79514   0.20486      3   7   0   2     0      1    0.11
  10(1)    1.50    23.32128   0.67872      3   6   0   3     0      2    0.71
  11(2)    1.50    23.32128   0.67872      3   6   0   3     0      2    0.71
  12(1)    1.80    23.79514   0.20486      3   7   0   2     0      1    0.11
 -----------------------------------------------------------------------------

 Structure accepted: RESONANCE keyword permits strongly delocalized structure

 --------------------------------------------------------
   Core                      5.99865 ( 99.978% of   6)
   Valence Lewis            17.79649 ( 98.869% of  18)
  ==================       ============================
   Total Lewis              23.79514 ( 99.146% of  24)
  -----------------------------------------------------
   Valence non-Lewis         0.16572 (  0.691% of  24)
   Rydberg non-Lewis         0.03914 (  0.163% of  24)
  ==================       ============================
   Total non-Lewis           0.20486 (  0.854% of  24)
 --------------------------------------------------------


       (Occupancy)   Bond orbital/ Coefficients/ Hybrids
 ---------------------------------------------------------------------------------
     1. (1.99803) BD ( 1) O   1 - C   2  
                ( 69.42%)   0.8332* O   1 s( 39.70%)p 1.51( 59.80%)d 0.01(  0.50%)
                                            0.0000  0.6298 -0.0199 -0.0009  0.7015
                                           -0.0009 -0.0085  0.3251 -0.0128 -0.0026
                                            0.0000  0.0000  0.0000  0.0330  0.0022
                                            0.0000  0.0000  0.0000  0.0000  0.0476
                                           -0.0013 -0.0399  0.0026
                ( 30.58%)   0.5530* C   2 s( 27.16%)p 2.67( 72.39%)d 0.02(  0.45%)
                                           -0.0001  0.5186 -0.0511  0.0014 -0.7728
                                           -0.0772 -0.0005 -0.3472 -0.0116  0.0099
                                            0.0000  0.0000  0.0000  0.0444  0.0057
                                            0.0000  0.0000  0.0000  0.0000  0.0389
                                            0.0083 -0.0162 -0.0258
     2. (1.98617) BD ( 1) O   1 - H   4  
                ( 76.02%)   0.8719* O   1 s( 20.02%)p 3.98( 79.58%)d 0.02(  0.40%)
                                           -0.0002  0.4474 -0.0056 -0.0002  0.0145
                                            0.0235 -0.0039 -0.8914  0.0209 -0.0008
                                            0.0000  0.0000  0.0000 -0.0445  0.0019
                                            0.0000  0.0000  0.0000  0.0000 -0.0342
                                           -0.0123 -0.0262 -0.0063
                ( 23.98%)   0.4897* H   4 s( 99.41%)p 0.01(  0.59%)
                                            0.9970 -0.0057 -0.0006 -0.0049 -0.0098
                                            0.0742 -0.0171  0.0000  0.0000
     3. (1.99453) BD ( 1) C   2 - C   3  
                ( 39.18%)   0.6259* C   2 s(  0.00%)p 1.00( 99.51%)d 0.00(  0.49%)
                                            0.0000  0.0000  0.0000  0.0000  0.0000
                                            0.0000  0.0000  0.0000  0.0000  0.0000
                                            0.9934 -0.0901  0.0143  0.0000  0.0000
                                            0.0639 -0.0182 -0.0218  0.0042  0.0000
                                            0.0000  0.0000  0.0000
                ( 60.82%)   0.7799* C   3 s(  0.00%)p 1.00( 99.85%)d 0.00(  0.15%)
                                            0.0000  0.0000  0.0000  0.0000  0.0000
                                            0.0000  0.0000  0.0000  0.0000  0.0000
                                            0.9955  0.0863 -0.0045  0.0000  0.0000
                                           -0.0290  0.0077  0.0246 -0.0030  0.0000
                                            0.0000  0.0000  0.0000
     4. (1.99146) BD ( 2) C   2 - C   3  
                ( 51.20%)   0.7155* C   2 s( 37.52%)p 1.66( 62.27%)d 0.01(  0.21%)
                                            0.0002  0.6124  0.0124  0.0010  0.6235
                                            0.0220 -0.0025 -0.4832  0.0032  0.0056
                                            0.0000  0.0000  0.0000 -0.0402  0.0048
                                            0.0000  0.0000  0.0000  0.0000  0.0071
                                           -0.0052 -0.0192  0.0014
                ( 48.80%)   0.6986* C   3 s( 32.36%)p 2.08( 67.39%)d 0.01(  0.25%)
                                            0.0001  0.5688 -0.0033  0.0050 -0.6638
                                            0.0318 -0.0019  0.4814 -0.0219  0.0019
                                            0.0000  0.0000  0.0000 -0.0406  0.0041
                                            0.0000  0.0000  0.0000  0.0000  0.0159
                                           -0.0031 -0.0236 -0.0011
     5. (1.98539) BD ( 1) C   2 - H   5  
                ( 58.07%)   0.7621* C   2 s( 35.43%)p 1.82( 64.43%)d 0.00(  0.14%)
                                           -0.0003  0.5951  0.0141 -0.0015  0.0369
                                           -0.0061 -0.0038  0.8017  0.0123 -0.0074
                                            0.0000  0.0000  0.0000 -0.0009  0.0037
                                            0.0000  0.0000  0.0000  0.0000 -0.0358
                                           -0.0055 -0.0048 -0.0044
                ( 41.93%)   0.6475* H   5 s( 99.77%)p 0.00(  0.23%)
                                            0.9988 -0.0019  0.0005 -0.0030 -0.0040
                                           -0.0434 -0.0208  0.0000  0.0000
     6. (1.99200) BD ( 1) C   3 - H   6  
                ( 58.15%)   0.7626* C   3 s( 33.36%)p 1.99( 66.52%)d 0.00(  0.11%)
                                            0.0001 -0.5776 -0.0027  0.0021  0.0941
                                            0.0140  0.0087  0.8088 -0.0443  0.0024
                                            0.0000  0.0000  0.0000 -0.0104 -0.0048
                                            0.0000  0.0000  0.0000  0.0000  0.0238
                                            0.0069  0.0192  0.0011
                ( 41.85%)   0.6469* H   6 s( 99.73%)p 0.00(  0.27%)
                                           -0.9987  0.0007  0.0001  0.0063 -0.0018
                                           -0.0487 -0.0159  0.0000  0.0000
     7. (1.99189) BD ( 1) C   3 - H   7  
                ( 59.09%)   0.7687* C   3 s( 34.11%)p 1.93( 65.79%)d 0.00(  0.10%)
                                           -0.0002  0.5840  0.0004 -0.0019  0.7389
                                           -0.0418 -0.0022  0.3317 -0.0058  0.0060
                                            0.0000  0.0000  0.0000  0.0203  0.0082
                                            0.0000  0.0000  0.0000  0.0000  0.0162
                                            0.0019 -0.0160 -0.0040
                ( 40.91%)   0.6396* H   7 s( 99.76%)p 0.00(  0.24%)
                                            0.9988 -0.0003 -0.0001 -0.0409 -0.0191
                                           -0.0164 -0.0071  0.0000  0.0000
     8. (1.99975) CR ( 1) O   1           s(100.00%)p 0.00(  0.00%)
                                            1.0000  0.0002  0.0000  0.0000 -0.0001
                                            0.0000 -0.0000 -0.0001  0.0000 -0.0000
                                            0.0000  0.0000  0.0000 -0.0000 -0.0000
                                            0.0000  0.0000  0.0000  0.0000 -0.0000
                                           -0.0000 -0.0000 -0.0000
     9. (1.99944) CR ( 1) C   2           s(100.00%)p 0.00(  0.00%)
                                            1.0000  0.0001 -0.0000 -0.0000 -0.0002
                                           -0.0000 -0.0000  0.0003  0.0000 -0.0000
                                            0.0000  0.0000  0.0000  0.0000  0.0000
                                            0.0000  0.0000  0.0000  0.0000 -0.0000
                                           -0.0000  0.0000 -0.0000
    10. (1.99946) CR ( 1) C   3           s(100.00%)p 0.00(  0.00%)
                                            1.0000  0.0001  0.0000 -0.0000  0.0002
                                           -0.0000 -0.0000 -0.0001  0.0000  0.0000
                                            0.0000  0.0000  0.0000  0.0000  0.0000
                                            0.0000  0.0000  0.0000  0.0000 -0.0000
                                           -0.0000 -0.0000 -0.0000
    11. (1.98131) LP ( 1) O   1           s( 40.26%)p 1.48( 59.57%)d 0.00(  0.17%)
                                           -0.0001  0.6343  0.0170  0.0007 -0.7085
                                           -0.0043  0.0000  0.3060  0.0073 -0.0017
                                           -0.0000 -0.0000 -0.0000  0.0207 -0.0027
                                           -0.0000 -0.0000 -0.0000 -0.0000 -0.0260
                                            0.0016  0.0238 -0.0039
    12. (1.87571) LP ( 2) O   1           s(  0.00%)p 1.00( 99.77%)d 0.00(  0.23%)
                                            0.0000  0.0000  0.0000  0.0000  0.0000
                                            0.0000  0.0000  0.0000  0.0000  0.0000
                                            0.9987  0.0134  0.0051  0.0000  0.0000
                                            0.0450 -0.0003 -0.0153  0.0062  0.0000
                                            0.0000  0.0000  0.0000
    13. (0.00336) RY*( 1) O   1           s(  1.31%)p74.77( 98.03%)d 0.51(  0.66%)
                                            0.0000  0.0019  0.0954  0.0633  0.0134
                                           -0.6765  0.0579 -0.0009  0.7194  0.0383
                                            0.0000  0.0000  0.0000 -0.0199 -0.0278
                                            0.0000  0.0000  0.0000  0.0000  0.0188
                                            0.0673 -0.0191  0.0146
    14. (0.00297) RY*( 2) O   1           s(  0.00%)p 1.00( 90.46%)d 0.11(  9.54%)
                                            0.0000  0.0000  0.0000  0.0000  0.0000
                                            0.0000  0.0000  0.0000  0.0000  0.0000
                                            0.0005  0.9511 -0.0086  0.0000  0.0000
                                           -0.3059  0.0168 -0.0282  0.0274  0.0000
                                            0.0000  0.0000  0.0000
    15. (0.00037) RY*( 3) O   1           s( 42.83%)p 0.83( 35.37%)d 0.51( 21.80%)
                                           -0.0000 -0.0064  0.6110 -0.2344  0.0010
                                           -0.3402 -0.3001 -0.0294 -0.3430 -0.1714
                                           -0.0000 -0.0000 -0.0000  0.3570 -0.1425
                                           -0.0000 -0.0000 -0.0000 -0.0000 -0.0852
                                           -0.0345 -0.2453 -0.0397
    16. (0.00011) RY*( 4) O   1           s( 36.41%)p 0.92( 33.49%)d 0.83( 30.10%)
                                            0.0000  0.0067  0.5211 -0.3042  0.0529
                                            0.3854  0.1759  0.0327  0.3337 -0.2004
                                            0.0000  0.0000  0.0000 -0.1877  0.0922
                                            0.0000  0.0000  0.0000  0.0000 -0.3522
                                            0.0161  0.3277 -0.1600
    17. (0.00004) RY*( 5) O   1           s(  4.35%)p19.08( 83.03%)d 2.90( 12.62%)
    18. (0.00003) RY*( 6) O   1           s(  7.45%)p 2.82( 21.04%)d 9.60( 71.51%)
    19. (0.00000) RY*( 7) O   1           s( 93.32%)p 0.03(  3.19%)d 0.04(  3.50%)
    20. (0.00000) RY*( 8) O   1           s(  0.00%)p 1.00(100.00%)d 0.00(  0.00%)
    21. (0.00001) RY*( 9) O   1           s(  3.57%)p 3.41( 12.18%)d23.59( 84.24%)
    22. (0.00000) RY*(10) O   1           s(  0.41%)p20.98(  8.64%)d99.99( 90.95%)
    23. (0.00000) RY*(11) O   1           s(  0.00%)p 1.00(  9.58%)d 9.44( 90.42%)
    24. (0.00000) RY*(12) O   1           s(  0.00%)p 1.00(  0.03%)d99.99( 99.97%)
    25. (0.00000) RY*(13) O   1           s(  0.00%)p 1.00(  0.10%)d99.99( 99.90%)
    26. (0.00000) RY*(14) O   1           s(  0.00%)p 1.00(  0.07%)d99.99( 99.93%)
    27. (0.00000) RY*(15) O   1           s(  2.66%)p 4.51( 12.01%)d32.04( 85.33%)
    28. (0.00000) RY*(16) O   1           s(  0.14%)p 3.76(  0.54%)d99.99( 99.32%)
    29. (0.00000) RY*(17) O   1           s(  5.87%)p15.72( 92.25%)d 0.32(  1.88%)
    30. (0.00000) RY*(18) O   1           s(  1.69%)p 0.77(  1.29%)d57.54( 97.02%)
    31. (0.00630) RY*( 1) C   2           s( 10.16%)p 7.87( 79.94%)d 0.97(  9.90%)
                                            0.0000  0.0330  0.3155 -0.0312 -0.0988
                                            0.8778  0.1052 -0.0218  0.0543 -0.0673
                                            0.0000  0.0000  0.0000 -0.2619  0.0881
                                            0.0000  0.0000  0.0000  0.0000 -0.0438
                                           -0.0294  0.1404  0.0142
    32. (0.00504) RY*( 2) C   2           s(  0.00%)p 1.00( 44.12%)d 1.27( 55.88%)
                                            0.0000  0.0000  0.0000  0.0000  0.0000
                                            0.0000  0.0000  0.0000  0.0000  0.0000
                                           -0.1046 -0.6554  0.0254  0.0000  0.0000
                                            0.7218  0.0915  0.0329  0.1683  0.0000
                                            0.0000  0.0000  0.0000
    33. (0.00205) RY*( 3) C   2           s(  0.81%)p99.99( 81.31%)d22.15( 17.88%)
                                            0.0000 -0.0034 -0.0526  0.0727  0.0052
                                            0.0526 -0.0040  0.0116  0.8474  0.3033
                                            0.0000  0.0000  0.0000  0.0672 -0.1567
                                            0.0000  0.0000  0.0000  0.0000  0.3856
                                            0.0225 -0.0169 -0.0165
    34. (0.00074) RY*( 4) C   2           s( 47.89%)p 0.41( 19.81%)d 0.67( 32.30%)
                                            0.0000  0.0016  0.6384  0.2670 -0.0282
                                           -0.2977 -0.2915 -0.0060 -0.0290  0.1511
                                            0.0000  0.0000  0.0000 -0.3827 -0.0501
                                            0.0000  0.0000  0.0000  0.0000  0.0568
                                            0.3636  0.1685  0.1016
    35. (0.00032) RY*( 5) C   2           s(  8.61%)p 3.15( 27.14%)d 7.47( 64.26%)
                                           -0.0000 -0.0036  0.2848  0.0705 -0.0007
                                           -0.2332  0.2071 -0.0345  0.3691 -0.1915
                                            0.0000  0.0000  0.0000  0.1341  0.3560
                                            0.0000  0.0000  0.0000  0.0000 -0.4662
                                           -0.2468  0.3044 -0.3563
    36. (0.00004) RY*( 6) C   2           s( 36.82%)p 0.07(  2.55%)d 1.65( 60.63%)
    37. (0.00000) RY*( 7) C   2           s(  0.00%)p 1.00( 54.58%)d 0.83( 45.42%)
    38. (0.00000) RY*( 8) C   2           s(  0.00%)p 1.00( 99.96%)d 0.00(  0.04%)
    39. (0.00000) RY*( 9) C   2           s( 46.15%)p 0.27( 12.54%)d 0.90( 41.31%)
    40. (0.00001) RY*(10) C   2           s(  3.30%)p23.96( 79.17%)d 5.30( 17.53%)
    41. (0.00000) RY*(11) C   2           s(  8.72%)p 8.72( 76.03%)d 1.75( 15.25%)
    42. (0.00000) RY*(12) C   2           s(  0.00%)p 1.00(  0.45%)d99.99( 99.55%)
    43. (0.00000) RY*(13) C   2           s(  0.00%)p 1.00(  0.11%)d99.99( 99.89%)
    44. (0.00000) RY*(14) C   2           s(  0.00%)p 1.00(  1.28%)d77.11( 98.72%)
    45. (0.00000) RY*(15) C   2           s( 21.82%)p 0.59( 12.95%)d 2.99( 65.23%)
    46. (0.00000) RY*(16) C   2           s(  6.45%)p 0.60(  3.84%)d13.91( 89.71%)
    47. (0.00001) RY*(17) C   2           s(  7.39%)p 0.57(  4.23%)d11.95( 88.37%)
    48. (0.00000) RY*(18) C   2           s(  1.78%)p 0.79(  1.40%)d54.49( 96.82%)
    49. (0.00211) RY*( 1) C   3           s(  7.38%)p12.08( 89.17%)d 0.47(  3.45%)
                                           -0.0000 -0.0035  0.2707 -0.0222 -0.0347
                                           -0.6674 -0.1489 -0.0167 -0.6267 -0.1727
                                           -0.0000 -0.0000 -0.0000  0.1039  0.0127
                                           -0.0000 -0.0000 -0.0000 -0.0000 -0.0239
                                            0.1432 -0.0236  0.0442
    50. (0.00039) RY*( 2) C   3           s( 19.91%)p 3.70( 73.61%)d 0.33(  6.48%)
                                           -0.0000 -0.0132  0.4227  0.1422 -0.0309
                                           -0.5026 -0.1235  0.0411  0.6645  0.1549
                                            0.0000  0.0000  0.0000 -0.0117  0.1105
                                            0.0000  0.0000  0.0000  0.0000 -0.0420
                                           -0.0927  0.1197 -0.1667
    51. (0.00038) RY*( 3) C   3           s(  0.00%)p 1.00( 64.79%)d 0.54( 35.21%)
                                            0.0000  0.0000  0.0000  0.0000  0.0000
                                            0.0000  0.0000  0.0000  0.0000  0.0000
                                           -0.0503  0.8022  0.0428  0.0000  0.0000
                                            0.4786 -0.3262 -0.0899  0.0922  0.0000
                                            0.0000  0.0000  0.0000
    52. (0.00009) RY*( 4) C   3           s( 22.94%)p 1.05( 23.98%)d 2.31( 53.08%)
    53. (0.00004) RY*( 5) C   3           s(  6.62%)p 3.26( 21.54%)d10.86( 71.84%)
    54. (0.00003) RY*( 6) C   3           s( 21.07%)p 1.21( 25.49%)d 2.54( 53.44%)
    55. (0.00001) RY*( 7) C   3           s(  4.72%)p16.31( 77.01%)d 3.87( 18.27%)
    56. (0.00000) RY*( 8) C   3           s(  0.00%)p 1.00( 99.94%)d 0.00(  0.06%)
    57. (0.00000) RY*( 9) C   3           s(  3.74%)p11.49( 42.94%)d14.27( 53.32%)
    58. (0.00000) RY*(10) C   3           s( 10.29%)p 1.33( 13.71%)d 7.38( 76.00%)
    59. (0.00000) RY*(11) C   3           s(  0.00%)p 1.00( 26.24%)d 2.81( 73.76%)
    60. (0.00000) RY*(12) C   3           s(  0.00%)p 1.00(  8.01%)d11.48( 91.99%)
    61. (0.00000) RY*(13) C   3           s(  0.00%)p 1.00(  0.61%)d99.99( 99.39%)
    62. (0.00000) RY*(14) C   3           s(  0.00%)p 1.00(  0.56%)d99.99( 99.44%)
    63. (0.00000) RY*(15) C   3           s(  0.12%)p22.86(  2.64%)d99.99( 97.24%)
    64. (0.00000) RY*(16) C   3           s(  3.81%)p 3.20( 12.17%)d22.06( 84.02%)
    65. (0.00000) RY*(17) C   3           s( 53.21%)p 0.09(  4.96%)d 0.79( 41.83%)
    66. (0.00000) RY*(18) C   3           s( 46.37%)p 0.28( 13.07%)d 0.87( 40.56%)
    67. (0.00149) RY*( 1) H   4           s( 92.57%)p 0.08(  7.43%)
                                            0.0199  0.9619 -0.0003  0.0639  0.1220
                                           -0.2008 -0.1227  0.0000  0.0000
    68. (0.00096) RY*( 2) H   4           s(  0.00%)p 1.00(100.00%)
                                            0.0000  0.0000  0.0000  0.0000  0.0000
                                            0.0000  0.0000  0.6151  0.7884
    69. (0.00030) RY*( 3) H   4           s( 17.62%)p 4.68( 82.38%)
                                            0.0172  0.0557  0.4157 -0.6343 -0.5590
                                           -0.3210  0.0772 -0.0000 -0.0000
    70. (0.00008) RY*( 4) H   4           s( 35.63%)p 1.81( 64.37%)
    71. (0.00004) RY*( 5) H   4           s(  0.00%)p 1.00(100.00%)
    72. (0.00004) RY*( 6) H   4           s( 13.06%)p 6.66( 86.94%)
    73. (0.00002) RY*( 7) H   4           s( 24.31%)p 3.11( 75.69%)
    74. (0.00001) RY*( 8) H   4           s( 17.40%)p 4.75( 82.60%)
    75. (0.00239) RY*( 1) H   5           s( 13.46%)p 6.43( 86.54%)
                                           -0.0028  0.3665  0.0155  0.8552 -0.3395
                                           -0.1294  0.0445  0.0000  0.0000
    76. (0.00087) RY*( 2) H   5           s(  0.00%)p 1.00(100.00%)
                                            0.0000  0.0000  0.0000  0.0000  0.0000
                                            0.0000  0.0000  0.9999  0.0108
    77. (0.00043) RY*( 3) H   5           s( 77.81%)p 0.29( 22.19%)
                                            0.0172  0.8817  0.0204 -0.2582  0.2263
                                            0.2635  0.1859  0.0000  0.0000
    78. (0.00022) RY*( 4) H   5           s(  3.73%)p25.82( 96.27%)
                                            0.0194 -0.0284  0.1900  0.0682 -0.2136
                                            0.7483 -0.5938 -0.0000 -0.0000
    79. (0.00014) RY*( 5) H   5           s( 59.32%)p 0.69( 40.68%)
                                            0.0204 -0.2011  0.7432  0.2182  0.3367
                                            0.2285  0.4400  0.0000  0.0000
    80. (0.00001) RY*( 6) H   5           s(  0.96%)p99.99( 99.04%)
    81. (0.00000) RY*( 7) H   5           s( 44.95%)p 1.22( 55.05%)
    82. (0.00001) RY*( 8) H   5           s(  0.00%)p 1.00(100.00%)
    83. (0.00215) RY*( 1) H   6           s(  9.80%)p 9.21( 90.20%)
                                           -0.0052  0.3129 -0.0065 -0.9036  0.2913
                                           -0.0085 -0.0244 -0.0000 -0.0000
    84. (0.00059) RY*( 2) H   6           s( 49.21%)p 1.03( 50.79%)
                                            0.0336  0.6978  0.0632  0.1684 -0.2436
                                           -0.6483  0.0057  0.0000  0.0000
    85. (0.00060) RY*( 3) H   6           s(  0.00%)p 1.00(100.00%)
                                            0.0000  0.0000  0.0000  0.0000  0.0000
                                            0.0000  0.0000  0.9966  0.0821
    86. (0.00030) RY*( 4) H   6           s( 22.55%)p 3.43( 77.45%)
                                           -0.0192  0.4452 -0.1640  0.0573 -0.3332
                                            0.5976 -0.5505  0.0000  0.0000
    87. (0.00002) RY*( 5) H   6           s( 86.53%)p 0.16( 13.47%)
    88. (0.00003) RY*( 6) H   6           s( 21.33%)p 3.69( 78.67%)
    89. (0.00000) RY*( 7) H   6           s( 10.86%)p 8.21( 89.14%)
    90. (0.00000) RY*( 8) H   6           s(  0.00%)p 1.00(100.00%)
    91. (0.00190) RY*( 1) H   7           s(  0.16%)p99.99( 99.84%)
                                           -0.0023  0.0395  0.0051 -0.3726  0.0909
                                            0.8456 -0.3692  0.0000  0.0000
    92. (0.00132) RY*( 2) H   7           s(  0.00%)p 1.00(100.00%)
                                            0.0000  0.0000  0.0000  0.0000  0.0000
                                            0.0000  0.0000  0.9989  0.0468
    93. (0.00043) RY*( 3) H   7           s(  3.35%)p28.89( 96.65%)
                                            0.0295 -0.0093  0.1803  0.8280 -0.3219
                                            0.2515 -0.3377  0.0000  0.0000
    94. (0.00026) RY*( 4) H   7           s( 86.81%)p 0.15( 13.19%)
                                            0.0130  0.9312  0.0272  0.1410  0.1639
                                            0.1175  0.2671  0.0000  0.0000
    95. (0.00004) RY*( 5) H   7           s( 70.87%)p 0.41( 29.13%)
    96. (0.00000) RY*( 6) H   7           s(  3.52%)p27.40( 96.48%)
    97. (0.00000) RY*( 7) H   7           s( 35.53%)p 1.81( 64.47%)
    98. (0.00001) RY*( 8) H   7           s(  0.00%)p 1.00(100.00%)
    99. (0.00670) BD*( 1) O   1 - C   2  
                ( 30.58%)   0.5530* O   1 s( 39.70%)p 1.51( 59.80%)d 0.01(  0.50%)
                                           -0.0000 -0.6298  0.0199  0.0009 -0.7015
                                            0.0009  0.0085 -0.3251  0.0128  0.0026
                                           -0.0000 -0.0000 -0.0000 -0.0330 -0.0022
                                           -0.0000 -0.0000 -0.0000 -0.0000 -0.0476
                                            0.0013  0.0399 -0.0026
                ( 69.42%)  -0.8332* C   2 s( 27.16%)p 2.67( 72.39%)d 0.02(  0.45%)
                                            0.0001 -0.5186  0.0511 -0.0014  0.7728
                                            0.0772  0.0005  0.3472  0.0116 -0.0099
                                           -0.0000 -0.0000 -0.0000 -0.0444 -0.0057
                                           -0.0000 -0.0000 -0.0000 -0.0000 -0.0389
                                           -0.0083  0.0162  0.0258
   100. (0.01002) BD*( 1) O   1 - H   4  
                ( 23.98%)   0.4897* O   1 s( 20.02%)p 3.98( 79.58%)d 0.02(  0.40%)
                                            0.0002 -0.4474  0.0056  0.0002 -0.0145
                                           -0.0235  0.0039  0.8914 -0.0209  0.0008
                                           -0.0000 -0.0000 -0.0000  0.0445 -0.0019
                                           -0.0000 -0.0000 -0.0000 -0.0000  0.0342
                                            0.0123  0.0262  0.0063
                ( 76.02%)  -0.8719* H   4 s( 99.41%)p 0.01(  0.59%)
                                           -0.9970  0.0057  0.0006  0.0049  0.0098
                                           -0.0742  0.0171 -0.0000 -0.0000
   101. (0.11756) BD*( 1) C   2 - C   3  
                ( 60.82%)   0.7799* C   2 s(  0.00%)p 1.00( 99.51%)d 0.00(  0.49%)
                                            0.0000  0.0000  0.0000  0.0000  0.0000
                                            0.0000  0.0000  0.0000  0.0000  0.0000
                                            0.9934 -0.0901  0.0143  0.0000  0.0000
                                            0.0639 -0.0182 -0.0218  0.0042  0.0000
                                            0.0000  0.0000  0.0000
                ( 39.18%)  -0.6259* C   3 s(  0.00%)p 1.00( 99.85%)d 0.00(  0.15%)
                                            0.0000  0.0000  0.0000  0.0000  0.0000
                                            0.0000  0.0000  0.0000  0.0000  0.0000
                                            0.9955  0.0863 -0.0045  0.0000  0.0000
                                           -0.0290  0.0077  0.0246 -0.0030  0.0000
                                            0.0000  0.0000  0.0000
   102. (0.01136) BD*( 2) C   2 - C   3  
                ( 48.80%)   0.6986* C   2 s( 37.52%)p 1.66( 62.27%)d 0.01(  0.21%)
                                           -0.0002 -0.6124 -0.0124 -0.0010 -0.6235
                                           -0.0220  0.0025  0.4832 -0.0032 -0.0056
                                           -0.0000 -0.0000 -0.0000  0.0402 -0.0048
                                           -0.0000 -0.0000 -0.0000 -0.0000 -0.0071
                                            0.0052  0.0192 -0.0014
                ( 51.20%)  -0.7155* C   3 s( 32.36%)p 2.08( 67.39%)d 0.01(  0.25%)
                                           -0.0001 -0.5688  0.0033 -0.0050  0.6638
                                           -0.0318  0.0019 -0.4814  0.0219 -0.0019
                                           -0.0000 -0.0000 -0.0000  0.0406 -0.0041
                                           -0.0000 -0.0000 -0.0000 -0.0000 -0.0159
                                            0.0031  0.0236  0.0011
   103. (0.01482) BD*( 1) C   2 - H   5  
                ( 41.93%)   0.6475* C   2 s( 35.43%)p 1.82( 64.43%)d 0.00(  0.14%)
                                            0.0003 -0.5951 -0.0141  0.0015 -0.0369
                                            0.0061  0.0038 -0.8017 -0.0123  0.0074
                                           -0.0000 -0.0000 -0.0000  0.0009 -0.0037
                                           -0.0000 -0.0000 -0.0000 -0.0000  0.0358
                                            0.0055  0.0048  0.0044
                ( 58.07%)  -0.7621* H   5 s( 99.77%)p 0.00(  0.23%)
                                           -0.9988  0.0019 -0.0005  0.0030  0.0040
                                            0.0434  0.0208 -0.0000 -0.0000
   104. (0.00276) BD*( 1) C   3 - H   6  
                ( 41.85%)   0.6469* C   3 s( 33.36%)p 1.99( 66.52%)d 0.00(  0.11%)
                                           -0.0001  0.5776  0.0027 -0.0021 -0.0941
                                           -0.0140 -0.0087 -0.8088  0.0443 -0.0024
                                           -0.0000 -0.0000 -0.0000  0.0104  0.0048
                                           -0.0000 -0.0000 -0.0000 -0.0000 -0.0238
                                           -0.0069 -0.0192 -0.0011
                ( 58.15%)  -0.7626* H   6 s( 99.73%)p 0.00(  0.27%)
                                            0.9987 -0.0007 -0.0001 -0.0063  0.0018
                                            0.0487  0.0159 -0.0000 -0.0000
   105. (0.00251) BD*( 1) C   3 - H   7  
                ( 40.91%)   0.6396* C   3 s( 34.11%)p 1.93( 65.79%)d 0.00(  0.10%)
                                            0.0002 -0.5840 -0.0004  0.0019 -0.7389
                                            0.0418  0.0022 -0.3317  0.0058 -0.0060
                                           -0.0000 -0.0000 -0.0000 -0.0203 -0.0082
                                           -0.0000 -0.0000 -0.0000 -0.0000 -0.0162
                                           -0.0019  0.0160  0.0040
                ( 59.09%)  -0.7687* H   7 s( 99.76%)p 0.00(  0.24%)
                                           -0.9988  0.0003  0.0001  0.0409  0.0191
                                            0.0164  0.0071 -0.0000 -0.0000


 NHO Directionality and "Bond Bending" (deviations from line of nuclear centers)

         [Thresholds for printing:  angular deviation  >  1.0 degree]
                                    hybrid p-character > 25.0%
                                    orbital occupancy  >  0.10e

                                Line of Centers        Hybrid 1              Hybrid 2
                                ---------------  -------------------   ------------------
                NBO               Theta   Phi    Theta   Phi    Dev    Theta   Phi    Dev
 ========================================================================================
     1. BD (   1) O   1 - C   2    90.0   24.0     --     --    --      90.0  202.3   1.7
     2. BD (   1) O   1 - H   4    90.0  274.0    90.0  272.2   1.7      --     --    --
     3. BD (   1) C   2 - C   3    90.0  324.0     0.0    0.0  90.0      0.0    0.0  90.0
     5. BD (   1) C   2 - H   5    90.0   84.0    90.0   88.1   4.1      --     --    --
     6. BD (   1) C   3 - H   6    90.0  264.0    90.0  261.3   2.6      --     --    --
     7. BD (   1) C   3 - H   7    90.0   24.0    90.0   25.5   1.5      --     --    --
    11. LP (   1) O   1             --     --     90.0  156.4   --       --     --    --
    12. LP (   2) O   1             --     --      0.0    0.0   --       --     --    --
   101. BD*(   1) C   2 - C   3    90.0  324.0     0.0    0.0  90.0      0.0    0.0  90.0


 Second Order Perturbation Theory Analysis of Fock Matrix in NBO Basis

     Threshold for printing:   0.50 kcal/mol
                                                                              E(2)  E(j)-E(i) F(i,j)
         Donor NBO (i)                     Acceptor NBO (j)                 kcal/mol   a.u.    a.u. 
 ===================================================================================================

 within unit  1
   1. BD (   1) O   1 - C   2        / 31. RY*(   1) C   2                    0.69    2.19    0.035
   1. BD (   1) O   1 - C   2        /105. BD*(   1) C   3 - H   7            0.63    2.17    0.033
   2. BD (   1) O   1 - H   4        / 31. RY*(   1) C   2                    4.39    1.84    0.080
   2. BD (   1) O   1 - H   4        /102. BD*(   2) C   2 - C   3            1.04    1.63    0.037
   2. BD (   1) O   1 - H   4        /103. BD*(   1) C   2 - H   5            7.29    1.81    0.102
   3. BD (   1) C   2 - C   3        / 14. RY*(   2) O   1                    2.24    1.18    0.046
   3. BD (   1) C   2 - C   3        / 85. RY*(   3) H   6                    0.58    1.21    0.024
   3. BD (   1) C   2 - C   3        / 92. RY*(   2) H   7                    0.65    1.08    0.024
   3. BD (   1) C   2 - C   3        /101. BD*(   1) C   2 - C   3            1.14    0.50    0.022
   4. BD (   2) C   2 - C   3        / 13. RY*(   1) O   1                    1.89    1.87    0.053
   4. BD (   2) C   2 - C   3        / 75. RY*(   1) H   5                    0.69    1.34    0.027
   4. BD (   2) C   2 - C   3        / 83. RY*(   1) H   6                    0.83    1.50    0.032
   4. BD (   2) C   2 - C   3        / 91. RY*(   1) H   7                    0.86    1.42    0.031
   4. BD (   2) C   2 - C   3        /103. BD*(   1) C   2 - H   5            0.54    1.71    0.027
   4. BD (   2) C   2 - C   3        /105. BD*(   1) C   3 - H   7            0.61    1.73    0.029
   5. BD (   1) C   2 - H   5        / 13. RY*(   1) O   1                    0.77    1.81    0.033
   5. BD (   1) C   2 - H   5        / 49. RY*(   1) C   3                    0.74    1.96    0.034
   5. BD (   1) C   2 - H   5        /100. BD*(   1) O   1 - H   4            5.23    1.42    0.077
   5. BD (   1) C   2 - H   5        /104. BD*(   1) C   3 - H   6            2.15    1.67    0.054
   6. BD (   1) C   3 - H   6        / 31. RY*(   1) C   2                    0.68    1.65    0.030
   6. BD (   1) C   3 - H   6        / 34. RY*(   4) C   2                    0.54    2.14    0.030
   6. BD (   1) C   3 - H   6        / 99. BD*(   1) O   1 - C   2            0.60    1.48    0.026
   6. BD (   1) C   3 - H   6        /103. BD*(   1) C   2 - H   5            2.98    1.61    0.062
   7. BD (   1) C   3 - H   7        / 33. RY*(   3) C   2                    0.84    1.91    0.036
   7. BD (   1) C   3 - H   7        / 99. BD*(   1) O   1 - C   2            4.48    1.47    0.072
   8. CR (   1) O   1                / 31. RY*(   1) C   2                    3.68   21.30    0.250
   9. CR (   1) C   2                / 50. RY*(   2) C   3                    1.03   12.15    0.100
   9. CR (   1) C   2                / 77. RY*(   3) H   5                    0.58   11.78    0.074
   9. CR (   1) C   2                / 99. BD*(   1) O   1 - C   2            0.63   11.93    0.078
  10. CR (   1) C   3                / 31. RY*(   1) C   2                    0.72   11.98    0.083
  10. CR (   1) C   3                / 94. RY*(   4) H   7                    0.74   11.77    0.083
  11. LP (   1) O   1                / 31. RY*(   1) C   2                    5.07    1.74    0.084
  11. LP (   1) O   1                /102. BD*(   2) C   2 - C   3            7.60    1.53    0.096
  11. LP (   1) O   1                /103. BD*(   1) C   2 - H   5            1.95    1.70    0.052
  12. LP (   2) O   1                / 32. RY*(   2) C   2                    5.46    1.78    0.091
  12. LP (   2) O   1                / 68. RY*(   2) H   4                    0.85    1.54    0.033
  12. LP (   2) O   1                /101. BD*(   1) C   2 - C   3           58.55    0.66    0.176
 101. BD*(   1) C   2 - C   3        / 37. RY*(   7) C   2                    0.99    0.90    0.110
 101. BD*(   1) C   2 - C   3        / 51. RY*(   3) C   3                    0.97    0.69    0.095


 Natural Bond Orbitals (Summary):

                                                            Principal Delocalizations
           NBO                        Occupancy    Energy   (geminal,vicinal,remote)
 ====================================================================================
 Molecular unit  1  (C2H4O)
     1. BD (   1) O   1 - C   2          1.99803    -1.28751  31(g),105(v)
     2. BD (   1) O   1 - H   4          1.98617    -0.94462  103(v),31(v),102(v)
     3. BD (   1) C   2 - C   3          1.99453    -0.34489  14(v),101(g),92(v),85(v)
     4. BD (   2) C   2 - C   3          1.99146    -0.85171  13(v),91(v),83(v),75(v)
                                                    105(g),103(g)
     5. BD (   1) C   2 - H   5          1.98539    -0.79656  100(v),104(v),13(v),49(v)
     6. BD (   1) C   3 - H   6          1.99200    -0.75142  103(v),31(v),99(v),34(v)
     7. BD (   1) C   3 - H   7          1.99189    -0.74429  99(v),33(v)
     8. CR (   1) O   1                  1.99975   -20.40541  31(v)
     9. CR (   1) C   2                  1.99944   -11.20669  50(v),99(g),77(v)
    10. CR (   1) C   3                  1.99946   -11.08409  94(v),31(v)
    11. LP (   1) O   1                  1.98131    -0.84266  102(v),31(v),103(v)
    12. LP (   2) O   1                  1.87571    -0.51321  101(v),32(v),68(v)
    13. RY*(   1) O   1                  0.00336     1.01621   
    14. RY*(   2) O   1                  0.00297     0.83149   
    15. RY*(   3) O   1                  0.00037     1.16157   
    16. RY*(   4) O   1                  0.00011     1.28493   
    17. RY*(   5) O   1                  0.00004     1.24233   
    18. RY*(   6) O   1                  0.00003     1.94149   
    19. RY*(   7) O   1                  0.00000     1.29272   
    20. RY*(   8) O   1                  0.00000     0.76756   
    21. RY*(   9) O   1                  0.00001     1.66483   
    22. RY*(  10) O   1                  0.00000     3.07107   
    23. RY*(  11) O   1                  0.00000     1.79604   
    24. RY*(  12) O   1                  0.00000     3.13892   
    25. RY*(  13) O   1                  0.00000     1.51411   
    26. RY*(  14) O   1                  0.00000     3.18772   
    27. RY*(  15) O   1                  0.00000     2.23547   
    28. RY*(  16) O   1                  0.00000     3.21898   
    29. RY*(  17) O   1                  0.00000     0.96231   
    30. RY*(  18) O   1                  0.00000     3.38475   
    31. RY*(   1) C   2                  0.00630     0.89823   
    32. RY*(   2) C   2                  0.00504     1.26849   
    33. RY*(   3) C   2                  0.00205     1.16899   
    34. RY*(   4) C   2                  0.00074     1.38924   
    35. RY*(   5) C   2                  0.00032     1.38547   
    36. RY*(   6) C   2                  0.00004     1.31383   
    37. RY*(   7) C   2                  0.00000     1.04882   
    38. RY*(   8) C   2                  0.00000     0.31295   
    39. RY*(   9) C   2                  0.00000     1.43907   
    40. RY*(  10) C   2                  0.00001     0.66029   
    41. RY*(  11) C   2                  0.00000     0.65007   
    42. RY*(  12) C   2                  0.00000     1.16919   
    43. RY*(  13) C   2                  0.00000     1.43806   
    44. RY*(  14) C   2                  0.00000     1.23598   
    45. RY*(  15) C   2                  0.00000     1.64872   
    46. RY*(  16) C   2                  0.00000     1.64185   
    47. RY*(  17) C   2                  0.00001     1.92785   
    48. RY*(  18) C   2                  0.00000     1.33940   
    49. RY*(   1) C   3                  0.00211     1.15874   
    50. RY*(   2) C   3                  0.00039     0.93909   
    51. RY*(   3) C   3                  0.00038     0.84322   
    52. RY*(   4) C   3                  0.00009     1.22086   
    53. RY*(   5) C   3                  0.00004     1.13631   
    54. RY*(   6) C   3                  0.00003     1.06966   
    55. RY*(   7) C   3                  0.00001     0.61765   
    56. RY*(   8) C   3                  0.00000     0.32924   
    57. RY*(   9) C   3                  0.00000     1.39200   
    58. RY*(  10) C   3                  0.00000     1.22723   
    59. RY*(  11) C   3                  0.00000     1.37842   
    60. RY*(  12) C   3                  0.00000     1.15556   
    61. RY*(  13) C   3                  0.00000     1.51522   
    62. RY*(  14) C   3                  0.00000     1.09925   
    63. RY*(  15) C   3                  0.00000     2.17342   
    64. RY*(  16) C   3                  0.00000     1.29672   
    65. RY*(  17) C   3                  0.00000     1.31220   
    66. RY*(  18) C   3                  0.00000     1.43962   
    67. RY*(   1) H   4                  0.00149     0.86474   
    68. RY*(   2) H   4                  0.00096     1.02441   
    69. RY*(   3) H   4                  0.00030     1.38373   
    70. RY*(   4) H   4                  0.00008     1.19148   
    71. RY*(   5) H   4                  0.00004     1.78527   
    72. RY*(   6) H   4                  0.00004     1.20817   
    73. RY*(   7) H   4                  0.00002     1.08052   
    74. RY*(   8) H   4                  0.00001     2.55534   
    75. RY*(   1) H   5                  0.00239     0.48973   
    76. RY*(   2) H   5                  0.00087     0.74308   
    77. RY*(   3) H   5                  0.00043     0.57580   
    78. RY*(   4) H   5                  0.00022     0.50681   
    79. RY*(   5) H   5                  0.00014     1.51955   
    80. RY*(   6) H   5                  0.00001     2.39092   
    81. RY*(   7) H   5                  0.00000     1.95389   
    82. RY*(   8) H   5                  0.00001     1.77244   
    83. RY*(   1) H   6                  0.00215     0.65299   
    84. RY*(   2) H   6                  0.00059     0.63570   
    85. RY*(   3) H   6                  0.00060     0.86980   
    86. RY*(   4) H   6                  0.00030     0.62515   
    87. RY*(   5) H   6                  0.00002     0.99885   
    88. RY*(   6) H   6                  0.00003     2.25396   
    89. RY*(   7) H   6                  0.00000     2.20550   
    90. RY*(   8) H   6                  0.00000     1.69198   
    91. RY*(   1) H   7                  0.00190     0.56621   
    92. RY*(   2) H   7                  0.00132     0.73425   
    93. RY*(   3) H   7                  0.00043     0.45463   
    94. RY*(   4) H   7                  0.00026     0.68689   
    95. RY*(   5) H   7                  0.00004     1.17120   
    96. RY*(   6) H   7                  0.00000     2.61471   
    97. RY*(   7) H   7                  0.00000     1.95261   
    98. RY*(   8) H   7                  0.00001     1.86270   
    99. BD*(   1) O   1 - C   2          0.00670     0.72362   
   100. BD*(   1) O   1 - H   4          0.01002     0.62781   
   101. BD*(   1) C   2 - C   3          0.11756     0.15117  37(g),51(g)
   102. BD*(   2) C   2 - C   3          0.01136     0.68802   
   103. BD*(   1) C   2 - H   5          0.01482     0.86103   
   104. BD*(   1) C   3 - H   6          0.00276     0.86960   
   105. BD*(   1) C   3 - H   7          0.00251     0.88240   
       -------------------------------
              Total Lewis   23.79514  ( 99.1464%)
        Valence non-Lewis    0.16572  (  0.6905%)
        Rydberg non-Lewis    0.03914  (  0.1631%)
       -------------------------------
            Total unit  1   24.00000  (100.0000%)
           Charge unit  1    0.00000
 Calling FoFJK, ICntrl=  10002127 FMM=F ISym2X=1 I1Cent= 0 IOpClX= 0 NMat=1 NMatS=1 NMatT=0.
 ***** Axes restored to original set *****
 -------------------------------------------------------------------
 Center     Atomic                   Forces (Hartrees/Bohr)
 Number     Number              X              Y              Z
 -------------------------------------------------------------------
      1        8           0.007545591    0.000000000   -0.071175544
      2        6           0.190548008    0.000000000    0.069349188
      3        6          -0.163421229   -0.000000000   -0.081041775
      4        1          -0.026931749   -0.000000000    0.010994550
      5        1          -0.077076804   -0.000000000    0.033976699
      6        1           0.072690391    0.000000000   -0.045320083
      7        1          -0.003354210   -0.000000000    0.083216966
 -------------------------------------------------------------------
 Cartesian Forces:  Max     0.190548008 RMS     0.069601102
 -----------------------------------------------------------------------------------------------
                       Internal Coordinate Forces (Hartree/Bohr or radian)
  Cent   Atom   N1       Length/X         N2         Alpha/Y        N3         Beta/Z          J
 -----------------------------------------------------------------------------------------------
      1  O 
      2  C        1   0.060181(     1)
      3  C        2  -0.103052(     2)      1   0.028285(     7)
      4  H        1  -0.029068(     3)      2  -0.002117(     8)      3  -0.000000(    12)     0
      5  H        2   0.083739(     4)      1  -0.017222(     9)      4   0.000000(    13)     0
      6  H        3   0.085612(     5)      2  -0.005486(    10)      1   0.000000(    14)     0
      7  H        3   0.083217(     6)      2  -0.006339(    11)      1   0.000000(    15)     0
 -----------------------------------------------------------------------------------------------
 Internal  Forces:  Max     0.103052487 RMS     0.050016379

 GradGradGradGradGradGradGradGradGradGradGradGradGradGradGradGradGradGrad
 Berny optimization.
 Search for a local minimum.
 Step number   1 out of a maximum of   21
 All quantities printed in internal units (Hartrees-Bohrs-Radians)
 Second derivative matrix not updated -- first step.
 The second derivative matrix:
                          R1        R2        R3        R4        R5
           R1           0.67193
           R2           0.00000   0.32377
           R3          -0.00000  -0.00000   0.47688
           R4           0.00000  -0.00000  -0.00000   0.47688
           R5           0.00000  -0.00000   0.00000  -0.00000   0.47688
           R6           0.00000   0.00000  -0.00000  -0.00000  -0.00000
           A1           0.00000   0.00000   0.00000   0.00000   0.00000
           A2          -0.00000  -0.00000  -0.00000  -0.00000  -0.00000
           A3           0.00000  -0.00000   0.00000  -0.00000   0.00000
           A4          -0.00000   0.00000  -0.00000   0.00000   0.00000
           A5           0.00000   0.00000   0.00000   0.00000  -0.00000
                          R6        A1        A2        A3        A4
           R6           0.47688
           A1           0.00000   0.41000
           A2           0.00000   0.00000   0.16000
           A3          -0.00000   0.16000   0.00000   0.32000
           A4           0.00000   0.00000   0.00000  -0.00000   0.32000
           A5           0.00000  -0.00000   0.00000   0.00000   0.16000
                          A5
           A5           0.32000
 ITU=  0
     Eigenvalues ---    0.16000   0.16000   0.19879   0.32377   0.47688
     Eigenvalues ---    0.47688   0.47688   0.47688   0.48000   0.53121
     Eigenvalues ---    0.67193
 RFO step:  Lambda=-7.53470911D-02 EMin= 1.60000000D-01
 Linear search not attempted -- first point.
 Maximum step size (   0.300) exceeded in Quadratic search.
    -- Step size scaled by   0.752
 Variable       Old X    -DE/DX   Delta X   Delta X   Delta X     New X
                                 (Linear)    (Quad)   (Total)
    R1        2.45664   0.06018   0.00000   0.06059   0.06059   2.51723
    R2        2.83459  -0.10305   0.00000  -0.19425  -0.19425   2.64033
    R3        1.88973  -0.02907   0.00000  -0.03960  -0.03960   1.85012
    R4        1.88973   0.08374   0.00000   0.11408   0.11408   2.00381
    R5        1.88973   0.08561   0.00000   0.11664   0.11664   2.00636
    R6        1.88973   0.08322   0.00000   0.11337   0.11337   2.00310
    A1        2.09440   0.02829   0.00000   0.06306   0.06306   2.15746
    A2        1.91986  -0.00212   0.00000  -0.00677  -0.00677   1.91309
    A3        2.09440  -0.01722   0.00000  -0.05830  -0.05830   2.03610
    A4        2.09440  -0.00549   0.00000  -0.00665  -0.00665   2.08775
    A5        2.09440  -0.00634   0.00000  -0.00937  -0.00937   2.08502
         Item               Value     Threshold  Converged?
 Maximum Force            0.103052     0.000450     NO 
 RMS     Force            0.058407     0.000300     NO 
[...]
     5   1    -0.00  -0.00  -0.07    -0.21  -0.01  -0.00    -0.00  -0.00   0.86
     6   1    -0.00  -0.00   0.71    -0.49  -0.00  -0.00    -0.00  -0.00   0.43
     7   1    -0.00  -0.00   0.67     0.59  -0.49   0.00     0.00  -0.00  -0.22
                      7                      8                      9
                     A'                     A'                     A'
 Frequencies --   1109.4988              1315.0962              1347.9288
 Red. masses --      2.1115                 1.4585                 1.2660
 Frc consts  --      1.5314                 1.4862                 1.3552
 IR Inten    --    175.0919                 2.7507                 5.7807
  Atom  AN      X      Y      Z        X      Y      Z        X      Y      Z
     1   8     0.18   0.08   0.00    -0.02   0.04   0.00    -0.01  -0.07   0.00
     2   6    -0.06  -0.17   0.00    -0.05  -0.16   0.00     0.10   0.05   0.00
     3   6    -0.05   0.09   0.00    -0.01   0.10  -0.00    -0.05   0.03  -0.00
     4   1    -0.69  -0.06   0.00     0.60   0.13   0.00    -0.54  -0.16   0.00
     5   1    -0.39  -0.22  -0.00     0.65  -0.07  -0.00     0.66   0.12  -0.00
     6   1    -0.47   0.04  -0.00    -0.36   0.05  -0.00    -0.31   0.01  -0.00
     7   1     0.04  -0.07   0.00     0.11  -0.07   0.00    -0.22   0.25   0.00
                     10                     11                     12
                     A'                     A'                     A'
 Frequencies --   1440.3681              1690.1667              3191.4684
 Red. masses --      1.1595                 4.2906                 1.0612
 Frc consts  --      1.4173                 7.2215                 6.3686
 IR Inten    --     16.0911               151.4529                 3.8081
  Atom  AN      X      Y      Z        X      Y      Z        X      Y      Z
     1   8     0.04  -0.02  -0.00    -0.07   0.00   0.00     0.00  -0.00  -0.00
     2   6    -0.08   0.02  -0.00     0.40  -0.11   0.00    -0.01  -0.00  -0.00
     3   6    -0.06   0.04  -0.00    -0.32   0.14   0.00     0.05  -0.04  -0.00
     4   1    -0.27  -0.06  -0.00     0.24   0.04   0.00     0.00   0.00  -0.00
     5   1     0.39   0.08   0.00    -0.43  -0.29  -0.00    -0.01   0.08   0.00
     6   1     0.58   0.11   0.00     0.35   0.28  -0.00    -0.10   0.81   0.00
     7   1     0.36  -0.53  -0.00     0.02  -0.41   0.00    -0.45  -0.34  -0.00
                     13                     14                     15
                     A'                     A'                     A'
 Frequencies --   3250.1232              3308.4536              3790.3050
 Red. masses --      1.0950                 1.1158                 1.0657
 Frc consts  --      6.8152                 7.1957                 9.0204
 IR Inten    --      3.9117                 5.5863                43.6243
  Atom  AN      X      Y      Z        X      Y      Z        X      Y      Z
     1   8    -0.00   0.00  -0.00     0.00   0.00  -0.00     0.01  -0.06  -0.00
     2   6     0.02  -0.08  -0.00     0.00  -0.02  -0.00     0.00  -0.00  -0.00
     3   6    -0.00   0.02  -0.00    -0.05  -0.08   0.00     0.00   0.00  -0.00
     4   1     0.01  -0.02   0.00     0.01  -0.00  -0.00    -0.16   0.99  -0.00
     5   1    -0.14   0.97   0.00    -0.02   0.17   0.00    -0.00   0.02   0.00
     6   1     0.02  -0.15   0.00    -0.08   0.53   0.00    -0.00  -0.01   0.00
     7   1    -0.08  -0.06   0.00     0.67   0.48  -0.00     0.00  -0.00  -0.00

 -------------------
 - Thermochemistry -
 -------------------
 Temperature   298.150 Kelvin.  Pressure   1.00000 Atm.
 Atom     1 has atomic number  8 and mass  15.99491
 Atom     2 has atomic number  6 and mass  12.00000
 Atom     3 has atomic number  6 and mass  12.00000
 Atom     4 has atomic number  1 and mass   1.00783
 Atom     5 has atomic number  1 and mass   1.00783
 Atom     6 has atomic number  1 and mass   1.00783
 Atom     7 has atomic number  1 and mass   1.00783
 Molecular mass:    44.02621 amu.
 Principal axes and moments of inertia in atomic units:
                           1         2         3
     Eigenvalues --    30.46744 174.41953 204.88697
           X            0.99751  -0.07055   0.00000
           Y            0.07055   0.99751   0.00000
           Z            0.00000  -0.00000   1.00000
 This molecule is an asymmetric top.
 Rotational symmetry number  1.
 Rotational temperatures (Kelvin)      2.84284     0.49658     0.42274
 Rotational constants (GHZ):          59.23507    10.34713     8.80847
 Zero-point vibrational energy     148464.6 (Joules/Mol)
                                   35.48389 (Kcal/Mol)
 Warning -- explicit consideration of   2 degrees of freedom as
           vibrations may cause significant error
 Vibrational temperatures:    634.63   693.67  1016.51  1180.22  1363.44
          (Kelvin)           1410.41  1596.32  1892.13  1939.37  2072.37
                             2431.77  4591.81  4676.20  4760.13  5453.40
 
 Zero-point correction=                           0.056547 (Hartree/Particle)
 Thermal correction to Energy=                    0.060209
 Thermal correction to Enthalpy=                  0.061153
 Thermal correction to Gibbs Free Energy=         0.032051
 Sum of electronic and zero-point Energies=           -153.344180
 Sum of electronic and thermal Energies=              -153.340518
 Sum of electronic and thermal Enthalpies=            -153.339574
 Sum of electronic and thermal Free Energies=         -153.368676
 
                     E (Thermal)             CV                S
                      KCal/Mol        Cal/Mol-Kelvin    Cal/Mol-Kelvin
 Total                   37.782             11.573             61.250
 Electronic               0.000              0.000              0.000
 Translational            0.889              2.981             37.273
 Rotational               0.889              2.981             21.615
 Vibrational             36.004              5.612              2.363
 Vibration     1          0.801              1.381              0.823
 Vibration     2          0.838              1.290              0.704
                       Q            Log10(Q)             Ln(Q)
 Total Bot       0.180906D-14        -14.742547        -33.945970
 Total V=0       0.185065D+12         11.267325         25.943974
 Vib (Bot)       0.133387D-25        -25.874887        -59.579128
 Vib (Bot)    1  0.391577D+00         -0.407183         -0.937573
 Vib (Bot)    2  0.346264D+00         -0.460593         -1.060554
 Vib (V=0)       0.136454D+01          0.134985          0.310815
 Vib (V=0)    1  0.113508D+01          0.055028          0.126707
 Vib (V=0)    2  0.110819D+01          0.044615          0.102731
 Electronic      0.100000D+01          0.000000          0.000000
 Translational   0.114821D+08          7.060021         16.256299
 Rotational      0.118119D+05          4.072318          9.376860
 ***** Axes restored to original set *****
 -------------------------------------------------------------------
 Center     Atomic                   Forces (Hartrees/Bohr)
 Number     Number              X              Y              Z
 -------------------------------------------------------------------
      1        8           0.000015568    0.000000000   -0.000119511
      2        6          -0.000062397    0.000000000    0.000162555
      3        6           0.000047885   -0.000000000    0.000080479
      4        1          -0.000026181    0.000000000    0.000014197
      5        1           0.000059845   -0.000000000   -0.000065327
      6        1          -0.000055436    0.000000000    0.000001544
      7        1           0.000020716   -0.000000000   -0.000073937
 -------------------------------------------------------------------
 Cartesian Forces:  Max     0.000162555 RMS     0.000058277
 -----------------------------------------------------------------------------------------------
                       Internal Coordinate Forces (Hartree/Bohr or radian)
  Cent   Atom   N1       Length/X         N2         Alpha/Y        N3         Beta/Z          J
 -----------------------------------------------------------------------------------------------
      1  O 
      2  C        1   0.000105(     1)
      3  C        2   0.000015(     2)      1  -0.000064(     7)
      4  H        1  -0.000029(     3)      2  -0.000009(     8)      3  -0.000000(    12)     0
      5  H        2  -0.000079(     4)      1  -0.000082(     9)      4   0.000000(    13)     0
      6  H        3  -0.000052(     5)      2  -0.000038(    10)      1   0.000000(    14)     0
      7  H        3  -0.000076(     6)      2   0.000022(    11)      1  -0.000000(    15)     0
 -----------------------------------------------------------------------------------------------
 Internal  Forces:  Max     0.000105314 RMS     0.000051614

 GradGradGradGradGradGradGradGradGradGradGradGradGradGradGradGradGradGrad
 Berny optimization.
 Search for a local minimum.
 Step number   1 out of a maximum of    2
 All quantities printed in internal units (Hartrees-Bohrs-Radians)
 Second derivative matrix not updated -- analytic derivatives used.
 The second derivative matrix:
                          R1        R2        R3        R4        R5
           R1           0.40179
           R2           0.03075   0.60027
           R3           0.00156  -0.00204   0.51635
           R4           0.00897   0.00272  -0.00188   0.37212
           R5           0.00246   0.00241  -0.00052  -0.00057   0.36720
           R6          -0.00191   0.00030  -0.00075   0.00052  -0.00028
           A1           0.05930   0.00740  -0.01088  -0.01542  -0.00769
           A2           0.04657  -0.00022   0.02049   0.00366   0.00336
           A3           0.05710  -0.02972   0.00605   0.00198  -0.00575
           A4          -0.00535   0.02915   0.00201   0.00443   0.00266
           A5           0.00919   0.03283  -0.00196  -0.00135  -0.01797
                          R6        A1        A2        A3        A4
           R6           0.37702
           A1           0.00806   0.35767
           A2          -0.00131  -0.00855   0.18294
           A3           0.00132   0.11125   0.02244   0.27399
           A4          -0.01592  -0.02315   0.00221  -0.01636   0.21254
           A5           0.00154   0.02955   0.00157   0.00230   0.10040
                          A5
           A5           0.21155
 ITU=  0
     Eigenvalues ---    0.10483   0.16073   0.20315   0.30302   0.33136
     Eigenvalues ---    0.37079   0.37731   0.38254   0.50785   0.51846
     Eigenvalues ---    0.61341
 Angle between quadratic step and forces=  25.86 degrees.
 Linear search not attempted -- first point.
 Variable       Old X    -DE/DX   Delta X   Delta X   Delta X     New X
                                 (Linear)    (Quad)   (Total)
    R1        2.59651   0.00011   0.00000   0.00034   0.00034   2.59685
    R2        2.54985   0.00002   0.00000  -0.00000  -0.00000   2.54985
    R3        1.83184  -0.00003   0.00000  -0.00005  -0.00005   1.83179
    R4        2.06404  -0.00008   0.00000  -0.00022  -0.00022   2.06382
    R5        2.06648  -0.00005   0.00000  -0.00014  -0.00014   2.06635
    R6        2.05935  -0.00008   0.00000  -0.00021  -0.00021   2.05914
    A1        2.21107  -0.00006   0.00000  -0.00020  -0.00020   2.21087
    A2        1.89346  -0.00001   0.00000  -0.00010  -0.00010   1.89337
    A3        1.93207  -0.00008   0.00000  -0.00031  -0.00031   1.93177
    A4        2.13163  -0.00004   0.00000  -0.00036  -0.00036   2.13127
    A5        2.08019   0.00002   0.00000   0.00028   0.00028   2.08047
         Item               Value     Threshold  Converged?
 Maximum Force            0.000105     0.000450     YES
 RMS     Force            0.000060     0.000300     YES
 Maximum Displacement     0.000358     0.001800     YES
 RMS     Displacement     0.000230     0.001200     YES
 Predicted change in Energy=-6.854665D-08
 Optimization completed.
    -- Stationary point found.
                       ----------------------------
                       !   Optimized Parameters   !
                       ! (Angstroms and Degrees)  !
 ----------------------                            ----------------------
 !      Name          Value   Derivative information (Atomic Units)     !
 ------------------------------------------------------------------------
 !       R1          1.374    -DE/DX =    0.0001                        !
 !       R2          1.3493   -DE/DX =    0.0                           !
 !       R3          0.9694   -DE/DX =    0.0                           !
 !       R4          1.0922   -DE/DX =   -0.0001                        !
 !       R5          1.0935   -DE/DX =   -0.0001                        !
 !       R6          1.0898   -DE/DX =   -0.0001                        !
 !       A1        126.6851   -DE/DX =   -0.0001                        !
 !       A2        108.4874   -DE/DX =    0.0                           !
 !       A3        110.6996   -DE/DX =   -0.0001                        !
 !       A4        122.1336   -DE/DX =    0.0                           !
 !       A5        119.1862   -DE/DX =    0.0                           !
 ------------------------------------------------------------------------
 GradGradGradGradGradGradGradGradGradGradGradGradGradGradGradGradGradGrad


 ----------------------------------------------------------------------

 Electric dipole moment (input orientation):
 (Debye = 10**-18 statcoulomb cm , SI units = C m)
                  (au)            (Debye)         (10**-30 SI)
   Tot        0.401665D+00      0.102093D+01      0.340546D+01
   x          0.394740D+00      0.100333D+01      0.334675D+01
   y          0.000000D+00      0.000000D+00      0.000000D+00
   z          0.742637D-01      0.188760D+00      0.629634D+00

 Dipole polarizability, Alpha (input orientation).
 (esu units = cm**3 , SI units = C**2 m**2 J**-1)
 Alpha(0;0):
               (au)            (10**-24 esu)      (10**-40 SI)
   iso        0.327934D+02      0.485947D+01      0.540689D+01
   aniso      0.142625D+02      0.211349D+01      0.235157D+01
   xx         0.351071D+02      0.520233D+01      0.578838D+01
   yx         0.000000D+00      0.000000D+00      0.000000D+00
   yy         0.255584D+02      0.378736D+01      0.421400D+01
   zx         0.518149D+01      0.767818D+00      0.854313D+00
   zy         0.000000D+00      0.000000D+00      0.000000D+00
   zz         0.377146D+02      0.558873D+01      0.621830D+01

 ----------------------------------------------------------------------

 Dipole orientation:
     8         -0.00000000          0.00000000          0.00000000
     6         -2.55173991          0.00000000          0.48006701
     6         -3.67073960          0.00000000          2.77126620
     1          0.89206649          0.00000000          1.59995775
     1         -3.62571811          0.00000000         -1.28255259
     1         -2.58069042          0.00000000          4.52687136
     1         -5.72696454          0.00000000          2.88463407

 Electric dipole moment (dipole orientation):
 (Debye = 10**-18 statcoulomb cm , SI units = C m)
                  (au)            (Debye)         (10**-30 SI)
   Tot        0.401665D+00      0.102093D+01      0.340546D+01
   x          0.000000D+00      0.000000D+00      0.000000D+00
   y          0.000000D+00      0.000000D+00      0.000000D+00
   z          0.401665D+00      0.102093D+01      0.340546D+01

 Dipole polarizability, Alpha (dipole orientation).
 (esu units = cm**3 , SI units = C**2 m**2 J**-1)
 Alpha(0;0):
               (au)            (10**-24 esu)      (10**-40 SI)
   iso        0.327934D+02      0.485947D+01      0.540689D+01
   aniso      0.142625D+02      0.211349D+01      0.235157D+01
   xx         0.357425D+02      0.529649D+01      0.589315D+01
   yx         0.000000D+00      0.000000D+00      0.000000D+00
   yy         0.255584D+02      0.378736D+01      0.421400D+01
   zx        -0.530104D+01     -0.785533D+00     -0.874023D+00
   zy         0.000000D+00      0.000000D+00      0.000000D+00
   zz         0.370792D+02      0.549457D+01      0.611353D+01

 ----------------------------------------------------------------------
 1\1\GINC-N2113\Freq\RMP2-FC\Aug-CC-pVDZ\C2H4O1\GDS001\20-Jun-2022\1\\#
 N Geom=AllCheck Guess=TCheck SCRF=Check GenChk RMP2(FC)/Aug-CC-pVDZ Fr
 eq\\blah\\0,1\O\C,1,R1\C,2,R2,1,A1\H,1,R3,2,A2,3,0.,0\H,2,R4,1,A3,4,18
 0.,0\H,3,R5,2,A4,1,0.,0\H,3,R6,2,A5,1,180.,0\\R1=1.37401155\R2=1.34932
 448\R3=0.96936937\R4=1.0922424\R5=1.09353631\R6=1.08975991\A1=126.6851
 3828\A2=108.48742762\A3=110.69958589\A4=122.13355773\A5=119.18618866\\
 Version=ES64L-G16RevA.03\State=1-A'\HF=-152.9178688\MP2=-153.4007268\R
 MSD=1.596e-09\RMSF=5.828e-05\ZeroPoint=0.0565472\Thermal=0.0602088\Dip
 ole=0.3947401,0.,0.0742637\DipoleDeriv=-0.2238028,0.,0.1232893,0.,-0.3
 157343,0.,-0.3025717,0.,-1.3683224,0.3113034,0.,0.1210648,0.,-0.101095
 8,0.,0.3585183,0.,1.33807,-0.1766903,0.,-0.3381912,0.,-0.3897453,0.,-0
 .1339642,0.,-0.2606023,0.1156949,0.,-0.0393308,0.,0.3103387,0.,-0.0376
 438,0.,0.3122977,-0.0282862,0.,0.0464806,0.,0.1624605,0.,0.0236611,0.,
 0.0174821,-0.0364345,0.,0.046233,0.,0.1700722,0.,0.0815266,0.,-0.00379
 68,0.0382156,0.,0.0404543,0.,0.1637039,0.,0.0104738,0.,-0.0351283\Pola
 r=35.1070852,0.,25.5583606,5.1814924,0.,37.7146314\PG=CS [SG(C2H4O1)]\
 NImag=0\\0.56134876,0.,0.03251704,-0.12426179,0.,0.46028091,-0.1128087
 1,0.,-0.02410613,0.85606723,0.,-0.04209290,0.,0.,0.12692391,0.02708125
 ,0.,-0.30970373,0.08807220,0.,0.66758137,0.01334806,0.,-0.00171023,-0.
 40564415,0.,-0.20001136,0.77268214,0.,0.01101985,0.,0.,-0.04482131,0.,
 0.,0.07991642,-0.03528033,0.,-0.04897426,-0.19361192,0.,-0.24603563,0.
 07960675,0.,0.73374326,-0.46378227,0.,0.15440418,-0.00339829,0.,-0.001
 51107,0.00310478,0.,-0.00551978,0.46319157,0.,-0.00843232,0.,0.,-0.000
 20509,0.,0.,-0.00130599,0.,0.,0.00644959,0.10059360,0.,-0.08309487,0.0
 4993737,0.,-0.02143821,0.00038006,0.,0.00276876,-0.14781996,0.,0.10769
 644,0.00204548,0.,-0.00028677,-0.32169404,0.,0.09518444,-0.01518091,0.
 ,0.01180093,0.00258110,0.,-0.00110173,0.33304900,0.,0.00129094,0.,0.,-
 0.04067050,0.,0.,0.00546876,0.,0.,0.00405242,0.,0.,0.02506265,0.035202
 05,0.,-0.02245729,0.08935025,0.,-0.08305892,-0.01860024,0.,0.00949601,
 -0.00001343,0.,-0.00659384,-0.10246826,0.,0.10342414,0.00324586,0.,0.0
 0042219,-0.01849467,0.,0.01635792,-0.30978908,0.,0.09759460,-0.0007353
 0,0.,-0.00177857,-0.00163186,0.,-0.00363989,0.32662464,0.,-0.00707120,
 0.,0.,0.00546769,0.,0.,-0.02793628,0.,0.,0.00014041,0.,0.,0.00983344,0
 .,0.,0.01875186,-0.00024957,0.,0.00353810,-0.01960541,0.,0.00696059,0.
 10188441,0.,-0.09527330,0.00107458,0.,-0.00023392,-0.00297378,0.,-0.00
 162431,-0.10599182,0.,0.09037134,-0.00339718,0.,-0.00446145,0.00597263
 ,0.,-0.02517338,-0.05852084,0.,0.04540973,-0.00096160,0.,-0.00021077,0
 .00083124,0.,0.00016951,0.00078041,0.,0.02586159,0.05529533,0.,0.01276
 859,0.,0.,-0.00460178,0.,0.,-0.02234145,0.,0.,-0.00069903,0.,0.,-0.005
 03770,0.,0.,0.00081407,0.,0.,0.01909729,-0.00308523,0.,0.00041113,0.00
 996364,0.,-0.01430547,0.03845060,0.,-0.35572485,-0.00061452,0.,0.00089
 563,-0.00015484,0.,0.00081420,-0.00296443,0.,-0.00373851,-0.04159523,0
 .,0.37164787\\-0.00001557,0.,0.00011951,0.00006240,0.,-0.00016256,-0.0
 0004789,0.,-0.00008048,0.00002618,0.,-0.00001420,-0.00005985,0.,0.0000
 6533,0.00005544,0.,-0.00000154,-0.00002072,0.,0.00007394\\\@


 I WANT TO KNOW HOW GOD CREATED THE WORLD.  I AM NOT INTERESTED IN
 THIS OR THAT PHENOMENON, IN THE SPECTRUM OF THIS OR THAT ELEMENT.
 I WANT TO KNOW HIS THOUGHTS, THE REST ARE DETAILS.
     -- ALBERT EINSTEIN
 Job cpu time:       0 days  0 hours 13 minutes  2.8 seconds.
 Elapsed time:       0 days  0 hours  0 minutes 29.1 seconds.
 File lengths (MBytes):  RWF=    623 Int=      0 D2E=      0 Chk=      2 Scr=      1
 Normal termination of Gaussian 16 at Mon Jun 20 14:47:44 2022.
