 Entering Gaussian System, Link 0=g16
 Input=enoloneto_mp2_avdz_opt_anharm.gjf
 Output=enoloneto_mp2_avdz_opt_anharm.log
 Initial command:
 /sw/contrib/chem-src/g16/c01/g16/l1.exe "/scr/Gau-82139.inp" -scrdir="/scr/"
 Entering Link 1 = /sw/contrib/chem-src/g16/c01/g16/l1.exe PID=     82142.
  
 Copyright (c) 1988-2019, Gaussian, Inc.  All Rights Reserved.
  
 This is part of the Gaussian(R) 16 program.  It is based on
 the Gaussian(R) 09 system (copyright 2009, Gaussian, Inc.),
 the Gaussian(R) 03 system (copyright 2003, Gaussian, Inc.),
 the Gaussian(R) 98 system (copyright 1998, Gaussian, Inc.),
 the Gaussian(R) 94 system (copyright 1995, Gaussian, Inc.),
 the Gaussian 92(TM) system (copyright 1992, Gaussian, Inc.),
 the Gaussian 90(TM) system (copyright 1990, Gaussian, Inc.),
 the Gaussian 88(TM) system (copyright 1988, Gaussian, Inc.),
 the Gaussian 86(TM) system (copyright 1986, Carnegie Mellon
 University), and the Gaussian 82(TM) system (copyright 1983,
 Carnegie Mellon University). Gaussian is a federally registered
 trademark of Gaussian, Inc.
  
 This software contains proprietary and confidential information,
 including trade secrets, belonging to Gaussian, Inc.
  
 This software is provided under written license and may be
 used, copied, transmitted, or stored only in accord with that
 written license.
  
 The following legend is applicable only to US Government
 contracts under FAR:
  
                    RESTRICTED RIGHTS LEGEND
  
 Use, reproduction and disclosure by the US Government is
 subject to restrictions as set forth in subparagraphs (a)
 and (c) of the Commercial Computer Software - Restricted
 Rights clause in FAR 52.227-19.
  
 Gaussian, Inc.
 340 Quinnipiac St., Bldg. 40, Wallingford CT 06492
  
  
 ---------------------------------------------------------------
 Warning -- This program may not be used in any manner that
 competes with the business of Gaussian, Inc. or will provide
 assistance to any competitor of Gaussian, Inc.  The licensee
 of this program is prohibited from giving any competitor of
 Gaussian, Inc. access to this program.  By using this program,
 the user acknowledges that Gaussian, Inc. is engaged in the
 business of creating and licensing software in the field of
 computational chemistry and represents and warrants to the
 licensee that it is not a competitor of Gaussian, Inc. and that
 it will not use this program in any manner prohibited above.
 ---------------------------------------------------------------
  

 Cite this work as:
 Gaussian 16, Revision C.01,
 M. J. Frisch, G. W. Trucks, H. B. Schlegel, G. E. Scuseria, 
 M. A. Robb, J. R. Cheeseman, G. Scalmani, V. Barone, 
 G. A. Petersson, H. Nakatsuji, X. Li, M. Caricato, A. V. Marenich, 
 J. Bloino, B. G. Janesko, R. Gomperts, B. Mennucci, H. P. Hratchian, 
 J. V. Ortiz, A. F. Izmaylov, J. L. Sonnenberg, D. Williams-Young, 
 F. Ding, F. Lipparini, F. Egidi, J. Goings, B. Peng, A. Petrone, 
 T. Henderson, D. Ranasinghe, V. G. Zakrzewski, J. Gao, N. Rega, 
 G. Zheng, W. Liang, M. Hada, M. Ehara, K. Toyota, R. Fukuda, 
 J. Hasegawa, M. Ishida, T. Nakajima, Y. Honda, O. Kitao, H. Nakai, 
 T. Vreven, K. Throssell, J. A. Montgomery, Jr., J. E. Peralta, 
 F. Ogliaro, M. J. Bearpark, J. J. Heyd, E. N. Brothers, K. N. Kudin, 
 V. N. Staroverov, T. A. Keith, R. Kobayashi, J. Normand, 
 K. Raghavachari, A. P. Rendell, J. C. Burant, S. S. Iyengar, 
 J. Tomasi, M. Cossi, J. M. Millam, M. Klene, C. Adamo, R. Cammi, 
 J. W. Ochterski, R. L. Martin, K. Morokuma, O. Farkas, 
 J. B. Foresman, and D. J. Fox, Gaussian, Inc., Wallingford CT, 2019.
 
 ******************************************
 Gaussian 16:  EM64L-G16RevC.01  3-Jul-2019
                22-Mar-2025 
 ******************************************
 %nprocshared=40
 Will use up to   40 processors via shared memory.
 %mem=50gb
 ----------------------------------------------
 # MP2/aug-cc-pVDZ opt freq=(vibrot,anharmonic)
 ----------------------------------------------
 1/18=20,19=15,38=1,80=1/1,3;
 2/9=110,12=2,17=6,18=5,40=1/2;
 3/5=16,7=10,11=9,25=1,30=1,71=1/1,2,3;
 4//1;
 5/5=2,38=5/2;
 8/6=4,10=1/1;
 9/15=2,16=-3/6;
 10/5=1/2;
 6/7=2,8=2,9=2,10=2/1;
 7/12=2/1,2,3,16;
 1/18=20,19=15,80=1/3(2);
 2/9=110/2;
 99//99;
 2/9=110/2;
 3/5=16,7=10,11=9,25=1,30=1,71=1/1,2,3;
 4/5=5,16=3,69=1/1;
 5/5=2,38=5/2;
 8/6=4,10=1/1;
 9/15=2,16=-3/6;
 10/5=1/2;
 7/12=2/1,2,3,16;
 1/18=20,19=15,80=1/3(-8);
 2/9=110/2;
 6/7=2,8=2,9=2,10=2/1;
 99/9=10/99;
 ----
 blah
 ----
 Symbolic Z-matrix:
 Charge =  0 Multiplicity = 1
 C                    -0.56751   0.87015  -0.01416 
 C                    -1.29379   0.53087  -1.0798 
 H                    -0.58762   0.33542   0.92898 
 O                     0.27929   1.94447  -0.02832 
 C                    -2.19595  -0.63726  -1.02104 
 H                     0.70281   2.00483   0.84766 
 O                    -2.32987  -1.34195  -0.02882 
 H                    -1.24911   1.08749  -2.00614 
 H                    -2.75102  -0.83279  -1.9534 
 

 GradGradGradGradGradGradGradGradGradGradGradGradGradGradGradGradGradGrad
 Berny optimization.
 Initialization pass.
                           ----------------------------
                           !    Initial Parameters    !
                           ! (Angstroms and Degrees)  !
 --------------------------                            --------------------------
 ! Name  Definition              Value          Derivative Info.                !
 --------------------------------------------------------------------------------
 ! R1    R(1,2)                  1.3335         estimate D2E/DX2                !
 ! R2    R(1,3)                  1.0844         estimate D2E/DX2                !
 ! R3    R(1,4)                  1.368          estimate D2E/DX2                !
 ! R4    R(2,5)                  1.4771         estimate D2E/DX2                !
 ! R5    R(2,8)                  1.0816         estimate D2E/DX2                !
 ! R6    R(4,6)                  0.9749         estimate D2E/DX2                !
 ! R7    R(5,7)                  1.2243         estimate D2E/DX2                !
 ! R8    R(5,9)                  1.1026         estimate D2E/DX2                !
 ! A1    A(2,1,3)              124.021          estimate D2E/DX2                !
 ! A2    A(2,1,4)              121.9164         estimate D2E/DX2                !
 ! A3    A(3,1,4)              114.0626         estimate D2E/DX2                !
 ! A4    A(1,2,5)              120.1368         estimate D2E/DX2                !
 ! A5    A(1,2,8)              122.0714         estimate D2E/DX2                !
 ! A6    A(5,2,8)              117.7918         estimate D2E/DX2                !
 ! A7    A(1,4,6)              107.9538         estimate D2E/DX2                !
 ! A8    A(2,5,7)              123.6566         estimate D2E/DX2                !
 ! A9    A(2,5,9)              114.4612         estimate D2E/DX2                !
 ! A10   A(7,5,9)              121.8822         estimate D2E/DX2                !
 ! D1    D(3,1,2,5)              0.0001         estimate D2E/DX2                !
 ! D2    D(3,1,2,8)            179.9998         estimate D2E/DX2                !
 ! D3    D(4,1,2,5)           -179.9998         estimate D2E/DX2                !
 ! D4    D(4,1,2,8)              0.0            estimate D2E/DX2                !
 ! D5    D(2,1,4,6)            179.9998         estimate D2E/DX2                !
 ! D6    D(3,1,4,6)             -0.0001         estimate D2E/DX2                !
 ! D7    D(1,2,5,7)             -0.0026         estimate D2E/DX2                !
 ! D8    D(1,2,5,9)            179.9972         estimate D2E/DX2                !
 ! D9    D(8,2,5,7)            179.9976         estimate D2E/DX2                !
 ! D10   D(8,2,5,9)             -0.0025         estimate D2E/DX2                !
 --------------------------------------------------------------------------------
 Trust Radius=3.00D-01 FncErr=1.00D-07 GrdErr=1.00D-07 EigMax=2.50D+02 EigMin=1.00D-04
 Number of steps in this run=     38 maximum allowed number of steps=    100.
 GradGradGradGradGradGradGradGradGradGradGradGradGradGradGradGradGradGrad

                          Input orientation:                          
 ---------------------------------------------------------------------
 Center     Atomic      Atomic             Coordinates (Angstroms)
 Number     Number       Type             X           Y           Z
 ---------------------------------------------------------------------
      1          6           0       -0.567513    0.870154   -0.014165
      2          6           0       -1.293786    0.530875   -1.079797
      3          1           0       -0.587615    0.335422    0.928982
      4          8           0        0.279289    1.944472   -0.028318
      5          6           0       -2.195947   -0.637263   -1.021036
      6          1           0        0.702809    2.004832    0.847658
      7          8           0       -2.329873   -1.341951   -0.028821
      8          1           0       -1.249107    1.087494   -2.006143
      9          1           0       -2.751020   -0.832786   -1.953405
 ---------------------------------------------------------------------
                    Distance matrix (angstroms):
                    1          2          3          4          5
     1  C    0.000000
     2  C    1.333475   0.000000
     3  H    1.084374   2.138240   0.000000
     4  O    1.368003   2.361870   2.063247   0.000000
     5  C    2.436780   1.477124   2.708397   3.711824   0.000000
     6  H    1.908913   3.142296   2.111573   0.974857   4.344591
     7  O    2.828345   2.384429   2.601235   4.196224   1.224341
     8  H    2.116551   1.081637   3.101313   2.642384   2.200393
     9  H    3.380586   2.178599   3.788559   4.538931   1.102564
                    6          7          8          9
     6  H    0.000000
     7  O    4.600688   0.000000
     8  H    3.577103   3.313618   0.000000
     9  H    5.275127   2.034856   2.438442   0.000000
 Stoichiometry    C3H4O2
 Framework group  C1[X(C3H4O2)]
 Deg. of freedom    21
 Full point group                 C1      NOp   1
 Largest Abelian subgroup         C1      NOp   1
 Largest concise Abelian subgroup C1      NOp   1
                         Standard orientation:                         
 ---------------------------------------------------------------------
 Center     Atomic      Atomic             Coordinates (Angstroms)
 Number     Number       Type             X           Y           Z
 ---------------------------------------------------------------------
      1          6           0        0.868531   -0.270299    0.000007
      2          6           0       -0.025287    0.719269   -0.000007
      3          1           0        0.608229   -1.322967    0.000029
      4          8           0        2.215027   -0.028676   -0.000004
      5          6           0       -1.470384    0.413346    0.000009
      6          1           0        2.674601   -0.888407    0.000013
      7          8           0       -1.923155   -0.724199   -0.000010
      8          1           0        0.269928    1.759840   -0.000027
      9          1           0       -2.124885    1.300632    0.000044
 ---------------------------------------------------------------------
 Rotational constants (GHZ):          20.4354679           2.7317936           2.4096711
 Standard basis: Aug-CC-pVDZ (5D, 7F)
 There are   161 symmetry adapted cartesian basis functions of A   symmetry.
 There are   151 symmetry adapted basis functions of A   symmetry.
   151 basis functions,   259 primitive gaussians,   161 cartesian basis functions
    19 alpha electrons       19 beta electrons
       nuclear repulsion energy       155.6223107530 Hartrees.
 NAtoms=    9 NActive=    9 NUniq=    9 SFac= 1.00D+00 NAtFMM=   60 NAOKFM=F Big=F
 Integral buffers will be    131072 words long.
 Raffenetti 1 integral format.
 Two-electron integral symmetry is turned on.
 One-electron integrals computed using PRISM.
 NBasis=   151 RedAO= T EigKep=  3.15D-05  NBF=   151
 NBsUse=   151 1.00D-06 EigRej= -1.00D+00 NBFU=   151
 ExpMin= 2.97D-02 ExpMax= 1.17D+04 ExpMxC= 4.01D+02 IAcc=3 IRadAn=         5 AccDes= 0.00D+00
 Harris functional with IExCor=  205 and IRadAn=       5 diagonalized for initial guess.
 HarFok:  IExCor=  205 AccDes= 0.00D+00 IRadAn=         5 IDoV= 1 UseB2=F ITyADJ=14
 ICtDFT=  3500011 ScaDFX=  1.000000  1.000000  1.000000  1.000000
 FoFCou: FMM=F IPFlag=           0 FMFlag=      100000 FMFlg1=           0
         NFxFlg=           0 DoJE=T BraDBF=F KetDBF=T FulRan=T
         wScrn=  0.000000 ICntrl=       500 IOpCl=  0 I1Cent=   200000004 NGrid=           0
         NMat0=    1 NMatS0=      1 NMatT0=    0 NMatD0=    1 NMtDS0=    0 NMtDT0=    0
 Petite list used in FoFCou.
 Keep R1 ints in memory in canonical form, NReq=74565098.
 Requested convergence on RMS density matrix=1.00D-08 within 128 cycles.
 Requested convergence on MAX density matrix=1.00D-06.
 Requested convergence on             energy=1.00D-06.
 No special actions if energy rises.
 SCF Done:  E(RHF) =  -265.662235629     A.U. after   14 cycles
            NFock= 14  Conv=0.73D-08     -V/T= 2.0017
 ExpMin= 2.97D-02 ExpMax= 1.17D+04 ExpMxC= 4.01D+02 IAcc=3 IRadAn=         5 AccDes= 0.00D+00
 HarFok:  IExCor=  205 AccDes= 0.00D+00 IRadAn=         5 IDoV=-2 UseB2=F ITyADJ=14
 ICtDFT= 12500011 ScaDFX=  1.000000  1.000000  1.000000  1.000000
 Range of M.O.s used for correlation:     6   151
 NBasis=   151 NAE=    19 NBE=    19 NFC=     5 NFV=     0
 NROrb=    146 NOA=    14 NOB=    14 NVA=   132 NVB=   132

 **** Warning!!: The largest alpha MO coefficient is  0.41678511D+02

 Fully direct method using O(ONN) memory.
 JobTyp=1 Pass  1:  I=   6 to  19 NPSUse= 40 ParTrn=T ParDer=T DoDerP=T.
 Spin components of T(2) and E(2):
     alpha-alpha T2 =       0.3400106389D-01 E2=     -0.1041542252D+00
     alpha-beta  T2 =       0.1890866855D+00 E2=     -0.5890708658D+00
     beta-beta   T2 =       0.3400106389D-01 E2=     -0.1041542252D+00
 ANorm=    0.1121199721D+01
 E2 =    -0.7973793163D+00 EUMP2 =    -0.26645961494576D+03
          IDoAtm=111111111
          Differentiating once with respect to electric field.
                with respect to dipole field.
          Differentiating once with respect to nuclear coordinates.
 Keep R1 ints in memory in canonical form, NReq=74572255.
          There are     1 degrees of freedom in the 1st order CPHF.  IDoFFX=0 NUNeed=     1.
 LinEq1:  Iter=  0 NonCon=     1 RMS=5.55D-03 Max=1.14D-01 NDo=     1
 AX will form     1 AO Fock derivatives at one time.
 LinEq1:  Iter=  1 NonCon=     1 RMS=1.71D-03 Max=2.28D-02 NDo=     1
 LinEq1:  Iter=  2 NonCon=     1 RMS=6.20D-04 Max=1.06D-02 NDo=     1
 LinEq1:  Iter=  3 NonCon=     1 RMS=2.18D-04 Max=2.69D-03 NDo=     1
 LinEq1:  Iter=  4 NonCon=     1 RMS=7.95D-05 Max=1.03D-03 NDo=     1
 LinEq1:  Iter=  5 NonCon=     1 RMS=2.92D-05 Max=4.46D-04 NDo=     1
 LinEq1:  Iter=  6 NonCon=     1 RMS=1.13D-05 Max=2.97D-04 NDo=     1
 LinEq1:  Iter=  7 NonCon=     1 RMS=3.40D-06 Max=4.48D-05 NDo=     1
 LinEq1:  Iter=  8 NonCon=     1 RMS=1.29D-06 Max=2.68D-05 NDo=     1
 LinEq1:  Iter=  9 NonCon=     1 RMS=3.28D-07 Max=2.76D-06 NDo=     1
 LinEq1:  Iter= 10 NonCon=     1 RMS=6.28D-08 Max=5.01D-07 NDo=     1
 LinEq1:  Iter= 11 NonCon=     1 RMS=1.63D-08 Max=3.16D-07 NDo=     1
 LinEq1:  Iter= 12 NonCon=     1 RMS=4.32D-09 Max=4.55D-08 NDo=     1
 LinEq1:  Iter= 13 NonCon=     1 RMS=1.28D-09 Max=1.12D-08 NDo=     1
 LinEq1:  Iter= 14 NonCon=     1 RMS=2.75D-10 Max=2.25D-09 NDo=     1
 LinEq1:  Iter= 15 NonCon=     0 RMS=4.80D-11 Max=4.20D-10 NDo=     1
 Linear equations converged to 1.000D-10 1.000D-09 after    15 iterations.
 End of Minotr F.D. properties file   721 does not exist.
 End of Minotr F.D. properties file   722 does not exist.
 End of Minotr F.D. properties file   788 does not exist.

 **********************************************************************

            Population analysis using the SCF Density.

 **********************************************************************

 Orbital symmetries:
       Occupied  (A) (A) (A) (A) (A) (A) (A) (A) (A) (A) (A) (A)
                 (A) (A) (A) (A) (A) (A) (A)
       Virtual   (A) (A) (A) (A) (A) (A) (A) (A) (A) (A) (A) (A)
                 (A) (A) (A) (A) (A) (A) (A) (A) (A) (A) (A) (A)
                 (A) (A) (A) (A) (A) (A) (A) (A) (A) (A) (A) (A)
                 (A) (A) (A) (A) (A) (A) (A) (A) (A) (A) (A) (A)
                 (A) (A) (A) (A) (A) (A) (A) (A) (A) (A) (A) (A)
                 (A) (A) (A) (A) (A) (A) (A) (A) (A) (A) (A) (A)
                 (A) (A) (A) (A) (A) (A) (A) (A) (A) (A) (A) (A)
                 (A) (A) (A) (A) (A) (A) (A) (A) (A) (A) (A) (A)
                 (A) (A) (A) (A) (A) (A) (A) (A) (A) (A) (A) (A)
                 (A) (A) (A) (A) (A) (A) (A) (A) (A) (A) (A) (A)
                 (A) (A) (A) (A) (A) (A) (A) (A) (A) (A) (A) (A)
 The electronic state is 1-A.
 Alpha  occ. eigenvalues --  -20.63110 -20.55546 -11.34244 -11.34237 -11.23908
 Alpha  occ. eigenvalues --   -1.43185  -1.38035  -1.07133  -0.89432  -0.77780
 Alpha  occ. eigenvalues --   -0.76234  -0.66889  -0.64103  -0.60715  -0.60267
 Alpha  occ. eigenvalues --   -0.54825  -0.53025  -0.42467  -0.36629
 Alpha virt. eigenvalues --    0.02672   0.03886   0.05608   0.06465   0.07013
 Alpha virt. eigenvalues --    0.10112   0.11147   0.12006   0.12895   0.13950
 Alpha virt. eigenvalues --    0.14994   0.15354   0.15883   0.17020   0.18158
 Alpha virt. eigenvalues --    0.20565   0.23768   0.23869   0.24640   0.25079
 Alpha virt. eigenvalues --    0.26815   0.29312   0.29853   0.30544   0.33888
 Alpha virt. eigenvalues --    0.34717   0.35353   0.37218   0.37539   0.38547
 Alpha virt. eigenvalues --    0.39690   0.41729   0.42982   0.45043   0.46347
 Alpha virt. eigenvalues --    0.47681   0.48190   0.51633   0.53050   0.56747
 Alpha virt. eigenvalues --    0.58527   0.58933   0.59814   0.62677   0.63373
 Alpha virt. eigenvalues --    0.65214   0.65574   0.67127   0.67783   0.68394
 Alpha virt. eigenvalues --    0.71905   0.72703   0.73768   0.78593   0.79036
 Alpha virt. eigenvalues --    0.81235   0.84115   0.86793   0.88848   0.89425
 Alpha virt. eigenvalues --    0.92476   0.95260   0.97526   1.01237   1.02221
 Alpha virt. eigenvalues --    1.07689   1.09673   1.14327   1.19348   1.21133
 Alpha virt. eigenvalues --    1.21439   1.23542   1.25503   1.30090   1.31373
 Alpha virt. eigenvalues --    1.34638   1.41169   1.45896   1.47105   1.49931
 Alpha virt. eigenvalues --    1.53339   1.56467   1.59076   1.59771   1.66779
 Alpha virt. eigenvalues --    1.67923   1.70889   1.73517   1.76325   1.78037
 Alpha virt. eigenvalues --    1.78064   1.85160   1.90175   1.94100   1.98160
 Alpha virt. eigenvalues --    2.01280   2.03079   2.05697   2.08556   2.10858
 Alpha virt. eigenvalues --    2.12663   2.18915   2.19244   2.19827   2.21159
 Alpha virt. eigenvalues --    2.34753   2.37203   2.40021   2.43921   2.46516
 Alpha virt. eigenvalues --    2.47323   2.61503   2.69236   2.73759   2.79042
 Alpha virt. eigenvalues --    2.89450   2.97202   3.07098   3.18854   3.28511
 Alpha virt. eigenvalues --    3.43976   3.51912   3.67481   3.72420   3.74721
 Alpha virt. eigenvalues --    3.77468   3.77926   3.81401   3.91889   4.04127
 Alpha virt. eigenvalues --    4.13499   4.31298
          Condensed to atoms (all electrons):
               1          2          3          4          5          6
     1  C    4.942401   0.286226   0.015670  -0.111243  -0.063737   0.015382
     2  C    0.286226   5.139009  -0.018861   0.023028   0.107819  -0.037276
     3  H    0.015670  -0.018861   1.471407   0.004210  -0.099882  -0.102779
     4  O   -0.111243   0.023028   0.004210   8.506214   0.010621   0.338329
     5  C   -0.063737   0.107819  -0.099882   0.010621   4.910025   0.007937
     6  H    0.015382  -0.037276  -0.102779   0.338329   0.007937   0.556392
     7  O   -0.047300  -0.024523   0.008721  -0.005665   0.315393   0.000030
     8  H   -0.110608   0.113408   0.068662   0.015694  -0.072932  -0.014426
     9  H   -0.001003   0.068685  -0.006074  -0.000499   0.182101   0.000035
               7          8          9
     1  C   -0.047300  -0.110608  -0.001003
     2  C   -0.024523   0.113408   0.068685
     3  H    0.008721   0.068662  -0.006074
     4  O   -0.005665   0.015694  -0.000499
     5  C    0.315393  -0.072932   0.182101
     6  H    0.000030  -0.014426   0.000035
     7  O    8.553796  -0.001810  -0.059212
     8  H   -0.001810   1.466084  -0.067255
     9  H   -0.059212  -0.067255   0.980938
 Mulliken charges:
               1
     1  C    1.074212
     2  C    0.342484
     3  H   -0.341074
     4  O   -0.780690
     5  C    0.702655
     6  H    0.236376
     7  O   -0.739431
     8  H   -0.396817
     9  H   -0.097715
 Sum of Mulliken charges =  -0.00000
 Mulliken charges with hydrogens summed into heavy atoms:
               1
     1  C    0.733138
     2  C   -0.054333
     4  O   -0.544314
     5  C    0.604939
     7  O   -0.739431
 Electronic spatial extent (au):  <R**2>=            474.7200
 Charge=             -0.0000 electrons
 Dipole moment (field-independent basis, Debye):
    X=              2.6294    Y=              0.4153    Z=              0.0001  Tot=              2.6620
 Quadrupole moment (field-independent basis, Debye-Ang):
   XX=            -31.4393   YY=            -26.0895   ZZ=            -30.7761
   XY=            -10.5828   XZ=              0.0000   YZ=             -0.0001
 Traceless Quadrupole moment (field-independent basis, Debye-Ang):
   XX=             -2.0043   YY=              3.3454   ZZ=             -1.3411
   XY=            -10.5828   XZ=              0.0000   YZ=             -0.0001
 Octapole moment (field-independent basis, Debye-Ang**2):
  XXX=             24.2172  YYY=             -2.3574  ZZZ=             -0.0000  XYY=              8.1846
  XXY=             -3.9195  XXZ=              0.0004  XZZ=              0.1600  YZZ=             -1.8690
  YYZ=              0.0000  XYZ=             -0.0001
 Hexadecapole moment (field-independent basis, Debye-Ang**3):
 XXXX=           -437.7372 YYYY=            -88.9397 ZZZZ=            -31.5950 XXXY=            -59.2837
 XXXZ=              0.0004 YYYX=             -8.7750 YYYZ=             -0.0003 ZZZX=              0.0001
 ZZZY=             -0.0000 XXYY=            -80.1724 XXZZ=            -81.4624 YYZZ=            -22.6523
 XXYZ=             -0.0002 YYXZ=             -0.0000 ZZXY=             -0.5735
 N-N= 1.556223107530D+02 E-N=-9.361558308333D+02  KE= 2.652219801809D+02
 Calling FoFJK, ICntrl=  10002127 FMM=F ISym2X=0 I1Cent= 0 IOpClX= 0 NMat=1 NMatS=1 NMatT=0.
 ***** Axes restored to original set *****
 -------------------------------------------------------------------
 Center     Atomic                   Forces (Hartrees/Bohr)
 Number     Number              X              Y              Z
 -------------------------------------------------------------------
      1        6           0.018982526    0.015234344    0.016064882
      2        6          -0.016082705   -0.012172933   -0.014970300
      3        1          -0.005229612   -0.008393503    0.003343753
      4        8           0.002930863    0.000834059    0.005290854
      5        6           0.010113352    0.012712402    0.000049736
      6        1          -0.002631295    0.000838376   -0.007688889
      7        8          -0.005329782   -0.011434002    0.008738856
      8        1           0.002474210    0.006238723   -0.005779456
      9        1          -0.005227558   -0.003857468   -0.005049435
 -------------------------------------------------------------------
 Cartesian Forces:  Max     0.018982526 RMS     0.009309490

 GradGradGradGradGradGradGradGradGradGradGradGradGradGradGradGradGradGrad
 Berny optimization.
 FormGI is forming the generalized inverse of G from B-inverse, IUseBI=4.
 Internal  Forces:  Max     0.023413535 RMS     0.006660990
 Search for a local minimum.
 Step number   1 out of a maximum of   38
 All quantities printed in internal units (Hartrees-Bohrs-Radians)
 Mixed Optimization -- RFO/linear search
 Second derivative matrix not updated -- first step.
 ITU=  0
     Eigenvalues ---    0.01069   0.01069   0.02060   0.02115   0.02720
     Eigenvalues ---    0.02969   0.16000   0.16000   0.16000   0.16000
     Eigenvalues ---    0.22000   0.22000   0.22000   0.33400   0.34901
     Eigenvalues ---    0.35471   0.35797   0.51362   0.52397   0.58692
     Eigenvalues ---    0.93485
 RFO step:  Lambda=-3.16216805D-03 EMin= 1.06855764D-02
 Linear search not attempted -- first point.
 Iteration  1 RMS(Cart)=  0.02590222 RMS(Int)=  0.00043435
 Iteration  2 RMS(Cart)=  0.00043293 RMS(Int)=  0.00000012
 Iteration  3 RMS(Cart)=  0.00000014 RMS(Int)=  0.00000001
 Variable       Old X    -DE/DX   Delta X   Delta X   Delta X     New X
                                 (Linear)    (Quad)   (Total)
    R1        2.51990   0.02341   0.00000   0.03968   0.03968   2.55958
    R2        2.04917   0.00714   0.00000   0.01996   0.01996   2.06913
    R3        2.58515   0.00152   0.00000   0.00295   0.00295   2.58810
    R4        2.79136   0.00246   0.00000   0.00698   0.00698   2.79834
    R5        2.04400   0.00826   0.00000   0.02288   0.02288   2.06688
    R6        1.84221  -0.00800   0.00000  -0.01518  -0.01518   1.82704
    R7        2.31367   0.01425   0.00000   0.01519   0.01519   2.32886
    R8        2.08354   0.00759   0.00000   0.02250   0.02250   2.10604
    A1        2.16457  -0.00722   0.00000  -0.04519  -0.04519   2.11939
    A2        2.12784  -0.00117   0.00000  -0.00522  -0.00522   2.12262
    A3        1.99077   0.00838   0.00000   0.05041   0.05041   2.04118
    A4        2.09678  -0.00061   0.00000  -0.00272  -0.00272   2.09406
    A5        2.13055  -0.00296   0.00000  -0.01862  -0.01862   2.11192
    A6        2.05585   0.00356   0.00000   0.02134   0.02134   2.07720
    A7        1.88415   0.00305   0.00000   0.01870   0.01870   1.90285
    A8        2.15822   0.00659   0.00000   0.02952   0.02952   2.18774
    A9        1.99773   0.00003   0.00000   0.00559   0.00559   2.00332
   A10        2.12725  -0.00661   0.00000  -0.03511  -0.03511   2.09213
    D1        0.00000   0.00000   0.00000   0.00000   0.00000   0.00000
    D2        3.14159  -0.00000   0.00000  -0.00000  -0.00000   3.14159
    D3       -3.14159  -0.00000   0.00000  -0.00000  -0.00000  -3.14159
    D4       -0.00000  -0.00000   0.00000  -0.00000  -0.00000  -0.00000
    D5        3.14159   0.00000   0.00000   0.00000   0.00000   3.14159
    D6       -0.00000  -0.00000   0.00000  -0.00000  -0.00000  -0.00000
    D7       -0.00005   0.00000   0.00000   0.00001   0.00001  -0.00004
    D8        3.14154   0.00000   0.00000   0.00001   0.00001   3.14156
    D9        3.14155   0.00000   0.00000   0.00001   0.00001   3.14156
   D10       -0.00004   0.00000   0.00000   0.00002   0.00002  -0.00003
         Item               Value     Threshold  Converged?
 Maximum Force            0.023414     0.000450     NO 
 RMS     Force            0.006661     0.000300     NO 
 Maximum Displacement     0.058164     0.001800     NO 
 RMS     Displacement     0.025848     0.001200     NO 
 Predicted change in Energy=-1.599147D-03
 GradGradGradGradGradGradGradGradGradGradGradGradGradGradGradGradGradGrad

                          Input orientation:                          
 ---------------------------------------------------------------------
 Center     Atomic      Atomic             Coordinates (Angstroms)
 Number     Number       Type             X           Y           Z
 ---------------------------------------------------------------------
      1          6           0       -0.555448    0.878304   -0.001116
      2          6           0       -1.294160    0.531713   -1.082214
      3          1           0       -0.607454    0.308548    0.932459
      4          8           0        0.289801    1.955667   -0.024530
      5          6           0       -2.196686   -0.640463   -1.016831
      6          1           0        0.722420    2.035611    0.836400
      7          8           0       -2.351735   -1.366948   -0.033502
      8          1           0       -1.236760    1.105878   -2.011362
      9          1           0       -2.762742   -0.847061   -1.954350
 ---------------------------------------------------------------------
                    Distance matrix (angstroms):
                    1          2          3          4          5
     1  C    0.000000
     2  C    1.354472   0.000000
     3  H    1.094938   2.140157   0.000000
     4  O    1.369563   2.378081   2.105683   0.000000
     5  C    2.456012   1.480819   2.688124   3.729232   0.000000
     6  H    1.916700   3.163761   2.181866   0.966826   4.372301
     7  O    2.875562   2.413126   2.604397   4.244710   1.232378
     8  H    2.134728   1.093744   3.114136   2.645756   2.227164
     9  H    3.415282   2.195079   3.783432   4.571378   1.114470
                    6          7          8          9
     6  H    0.000000
     7  O    4.667394   0.000000
     8  H    3.579460   3.357077   0.000000
     9  H    5.314549   2.031960   2.479081   0.000000
 Stoichiometry    C3H4O2
 Framework group  C1[X(C3H4O2)]
 Deg. of freedom    21
 Full point group                 C1      NOp   1
 Largest Abelian subgroup         C1      NOp   1
 Largest concise Abelian subgroup C1      NOp   1
                         Standard orientation:                         
 ---------------------------------------------------------------------
 Center     Atomic      Atomic             Coordinates (Angstroms)
 Number     Number       Type             X           Y           Z
 ---------------------------------------------------------------------
      1          6           0        0.885295   -0.281535    0.000006
      2          6           0       -0.022095    0.724067   -0.000006
      3          1           0        0.574188   -1.331346    0.000022
      4          8           0        2.232169   -0.033271   -0.000003
      5          6           0       -1.470124    0.414163    0.000007
      6          1           0        2.707800   -0.875012    0.000010
      7          8           0       -1.956952   -0.717983   -0.000008
      8          1           0        0.296490    1.770384   -0.000018
      9          1           0       -2.138677    1.305835    0.000031
 ---------------------------------------------------------------------
 Rotational constants (GHZ):          20.3656945           2.6759101           2.3651463
 Standard basis: Aug-CC-pVDZ (5D, 7F)
 There are   161 symmetry adapted cartesian basis functions of A   symmetry.
 There are   151 symmetry adapted basis functions of A   symmetry.
   151 basis functions,   259 primitive gaussians,   161 cartesian basis functions
    19 alpha electrons       19 beta electrons
       nuclear repulsion energy       154.4709399245 Hartrees.
 NAtoms=    9 NActive=    9 NUniq=    9 SFac= 1.00D+00 NAtFMM=   60 NAOKFM=F Big=F
 Integral buffers will be    131072 words long.
 Raffenetti 1 integral format.
 Two-electron integral symmetry is turned on.
 One-electron integrals computed using PRISM.
 NBasis=   151 RedAO= T EigKep=  3.43D-05  NBF=   151
 NBsUse=   151 1.00D-06 EigRej= -1.00D+00 NBFU=   151
 Initial guess from the checkpoint file:  "/scr/Gau-82142.chk"
 B after Tr=    -0.000000   -0.000000   -0.000000
         Rot=    0.999998   -0.000000   -0.000000    0.001923 Ang=  -0.22 deg.
 ExpMin= 2.97D-02 ExpMax= 1.17D+04 ExpMxC= 4.01D+02 IAcc=3 IRadAn=         5 AccDes= 0.00D+00
 Harris functional with IExCor=  205 and IRadAn=       5 diagonalized for initial guess.
 HarFok:  IExCor=  205 AccDes= 0.00D+00 IRadAn=         5 IDoV= 1 UseB2=F ITyADJ=14
 ICtDFT=  3500011 ScaDFX=  1.000000  1.000000  1.000000  1.000000
 FoFCou: FMM=F IPFlag=           0 FMFlag=      100000 FMFlg1=           0
         NFxFlg=           0 DoJE=T BraDBF=F KetDBF=T FulRan=T
         wScrn=  0.000000 ICntrl=       500 IOpCl=  0 I1Cent=   200000004 NGrid=           0
         NMat0=    1 NMatS0=      1 NMatT0=    0 NMatD0=    1 NMtDS0=    0 NMtDT0=    0
 Petite list used in FoFCou.
 Keep R1 ints in memory in canonical form, NReq=74564449.
 Requested convergence on RMS density matrix=1.00D-08 within 128 cycles.
 Requested convergence on MAX density matrix=1.00D-06.
 Requested convergence on             energy=1.00D-06.
 No special actions if energy rises.
 SCF Done:  E(RHF) =  -265.661380689     A.U. after   12 cycles
            NFock= 12  Conv=0.46D-08     -V/T= 2.0023
 ExpMin= 2.97D-02 ExpMax= 1.17D+04 ExpMxC= 4.01D+02 IAcc=3 IRadAn=         5 AccDes= 0.00D+00
 HarFok:  IExCor=  205 AccDes= 0.00D+00 IRadAn=         5 IDoV=-2 UseB2=F ITyADJ=14
 ICtDFT= 12500011 ScaDFX=  1.000000  1.000000  1.000000  1.000000
 Range of M.O.s used for correlation:     6   151
 NBasis=   151 NAE=    19 NBE=    19 NFC=     5 NFV=     0
 NROrb=    146 NOA=    14 NOB=    14 NVA=   132 NVB=   132

 **** Warning!!: The largest alpha MO coefficient is  0.34117963D+02

 Fully direct method using O(ONN) memory.
 JobTyp=1 Pass  1:  I=   6 to  19 NPSUse= 40 ParTrn=T ParDer=T DoDerP=T.
 Spin components of T(2) and E(2):
     alpha-alpha T2 =       0.3434156565D-01 E2=     -0.1044349636D+00
     alpha-beta  T2 =       0.1912172842D+00 E2=     -0.5909803966D+00
     beta-beta   T2 =       0.3434156565D-01 E2=     -0.1044349636D+00
 ANorm=    0.1122452857D+01
 E2 =    -0.7998503238D+00 EUMP2 =    -0.26646123101323D+03
          IDoAtm=111111111
          Differentiating once with respect to electric field.
                with respect to dipole field.
          Differentiating once with respect to nuclear coordinates.
 Keep R1 ints in memory in canonical form, NReq=74571665.
          There are     1 degrees of freedom in the 1st order CPHF.  IDoFFX=0 NUNeed=     1.
 LinEq1:  Iter=  0 NonCon=     1 RMS=5.64D-03 Max=1.15D-01 NDo=     1
 AX will form     1 AO Fock derivatives at one time.
 LinEq1:  Iter=  1 NonCon=     1 RMS=1.75D-03 Max=2.43D-02 NDo=     1
 LinEq1:  Iter=  2 NonCon=     1 RMS=6.45D-04 Max=1.11D-02 NDo=     1
 LinEq1:  Iter=  3 NonCon=     1 RMS=2.37D-04 Max=2.91D-03 NDo=     1
 LinEq1:  Iter=  4 NonCon=     1 RMS=8.70D-05 Max=1.05D-03 NDo=     1
 LinEq1:  Iter=  5 NonCon=     1 RMS=3.29D-05 Max=6.07D-04 NDo=     1
 LinEq1:  Iter=  6 NonCon=     1 RMS=1.22D-05 Max=2.96D-04 NDo=     1
 LinEq1:  Iter=  7 NonCon=     1 RMS=3.59D-06 Max=4.78D-05 NDo=     1
 LinEq1:  Iter=  8 NonCon=     1 RMS=1.38D-06 Max=2.67D-05 NDo=     1
 LinEq1:  Iter=  9 NonCon=     1 RMS=3.53D-07 Max=3.02D-06 NDo=     1
 LinEq1:  Iter= 10 NonCon=     1 RMS=6.58D-08 Max=5.46D-07 NDo=     1
 LinEq1:  Iter= 11 NonCon=     1 RMS=1.69D-08 Max=3.27D-07 NDo=     1
 LinEq1:  Iter= 12 NonCon=     1 RMS=4.55D-09 Max=4.86D-08 NDo=     1
 LinEq1:  Iter= 13 NonCon=     1 RMS=1.37D-09 Max=1.28D-08 NDo=     1
 LinEq1:  Iter= 14 NonCon=     1 RMS=3.00D-10 Max=2.55D-09 NDo=     1
 LinEq1:  Iter= 15 NonCon=     0 RMS=5.28D-11 Max=4.65D-10 NDo=     1
 Linear equations converged to 1.000D-10 1.000D-09 after    15 iterations.
 End of Minotr F.D. properties file   721 does not exist.
 End of Minotr F.D. properties file   722 does not exist.
 End of Minotr F.D. properties file   788 does not exist.
 Calling FoFJK, ICntrl=  10002127 FMM=F ISym2X=0 I1Cent= 0 IOpClX= 0 NMat=1 NMatS=1 NMatT=0.
 ***** Axes restored to original set *****
 -------------------------------------------------------------------
 Center     Atomic                   Forces (Hartrees/Bohr)
 Number     Number              X              Y              Z
 -------------------------------------------------------------------
      1        6           0.004609852    0.004883267    0.001709359
      2        6          -0.003152776   -0.003311229   -0.001221844
      3        1          -0.000939158   -0.000885345   -0.000551115
      4        8          -0.003224987   -0.003590616   -0.000873369
      5        6           0.002120535    0.003666657   -0.001843893
      6        1          -0.000081206   -0.000208788    0.000197195
      7        8           0.000298027   -0.000645439    0.001890583
      8        1           0.000401826    0.000122252    0.000711146
      9        1          -0.000032113   -0.000030757   -0.000018062
 -------------------------------------------------------------------
 Cartesian Forces:  Max     0.004883267 RMS     0.002131212

 GradGradGradGradGradGradGradGradGradGradGradGradGradGradGradGradGradGrad
 Berny optimization.
 Using GEDIIS/GDIIS optimizer.
 FormGI is forming the generalized inverse of G from B-inverse, IUseBI=4.
 Internal  Forces:  Max     0.005017702 RMS     0.001388692
 Search for a local minimum.
 Step number   2 out of a maximum of   38
 All quantities printed in internal units (Hartrees-Bohrs-Radians)
 Mixed Optimization -- RFO/linear search
 Update second derivatives using D2CorX and points    1    2
 DE= -1.62D-03 DEPred=-1.60D-03 R= 1.01D+00
 TightC=F SS=  1.41D+00  RLast= 1.07D-01 DXNew= 5.0454D-01 3.2068D-01
 Trust test= 1.01D+00 RLast= 1.07D-01 DXMaxT set to 3.21D-01
 ITU=  1  0
 Use linear search instead of GDIIS.
     Eigenvalues ---    0.01069   0.01069   0.02038   0.02115   0.02701
     Eigenvalues ---    0.02969   0.14310   0.16000   0.16000   0.16135
     Eigenvalues ---    0.21838   0.22000   0.22884   0.33037   0.34678
     Eigenvalues ---    0.35602   0.37305   0.50435   0.53151   0.60966
     Eigenvalues ---    0.92267
 RFO step:  Lambda=-1.58309399D-04 EMin= 1.06855764D-02
 Quartic linear search produced a step of  0.03609.
 Iteration  1 RMS(Cart)=  0.00996515 RMS(Int)=  0.00004109
 Iteration  2 RMS(Cart)=  0.00003901 RMS(Int)=  0.00000000
 Iteration  3 RMS(Cart)=  0.00000000 RMS(Int)=  0.00000000
 Variable       Old X    -DE/DX   Delta X   Delta X   Delta X     New X
                                 (Linear)    (Quad)   (Total)
    R1        2.55958   0.00063   0.00143   0.00167   0.00311   2.56269
    R2        2.06913   0.00004   0.00072   0.00039   0.00111   2.07024
    R3        2.58810  -0.00502   0.00011  -0.01008  -0.00997   2.57813
    R4        2.79834  -0.00382   0.00025  -0.01124  -0.01098   2.78736
    R5        2.06688  -0.00052   0.00083  -0.00118  -0.00035   2.06653
    R6        1.82704   0.00012  -0.00055   0.00003  -0.00052   1.82652
    R7        2.32886   0.00185   0.00055   0.00226   0.00281   2.33167
    R8        2.10604   0.00004   0.00081   0.00044   0.00125   2.10729
    A1        2.11939  -0.00141  -0.00163  -0.00986  -0.01149   2.10789
    A2        2.12262  -0.00009  -0.00019  -0.00049  -0.00068   2.12194
    A3        2.04118   0.00150   0.00182   0.01035   0.01217   2.05335
    A4        2.09406  -0.00124  -0.00010  -0.00588  -0.00598   2.08808
    A5        2.11192  -0.00004  -0.00067  -0.00165  -0.00233   2.10960
    A6        2.07720   0.00129   0.00077   0.00754   0.00831   2.08551
    A7        1.90285  -0.00050   0.00067  -0.00294  -0.00226   1.90058
    A8        2.18774  -0.00127   0.00107  -0.00557  -0.00450   2.18323
    A9        2.00332   0.00067   0.00020   0.00330   0.00350   2.00681
   A10        2.09213   0.00061  -0.00127   0.00227   0.00100   2.09314
    D1        0.00000  -0.00000   0.00000  -0.00000  -0.00000   0.00000
    D2        3.14159   0.00000  -0.00000   0.00000   0.00000   3.14159
    D3       -3.14159   0.00000  -0.00000   0.00000  -0.00000  -3.14159
    D4       -0.00000   0.00000  -0.00000   0.00000   0.00000  -0.00000
    D5        3.14159  -0.00000   0.00000  -0.00000  -0.00000   3.14159
    D6       -0.00000  -0.00000  -0.00000  -0.00000  -0.00000  -0.00000
    D7       -0.00004   0.00000   0.00000   0.00002   0.00002  -0.00001
    D8        3.14156   0.00000   0.00000   0.00000   0.00000   3.14156
    D9        3.14156   0.00000   0.00000   0.00002   0.00002   3.14159
   D10       -0.00003   0.00000   0.00000   0.00000   0.00000  -0.00002
         Item               Value     Threshold  Converged?
 Maximum Force            0.005018     0.000450     NO 
 RMS     Force            0.001389     0.000300     NO 
 Maximum Displacement     0.022347     0.001800     NO 
 RMS     Displacement     0.009974     0.001200     NO 
 Predicted change in Energy=-8.073431D-05
 GradGradGradGradGradGradGradGradGradGradGradGradGradGradGradGradGradGrad

                          Input orientation:                          
 ---------------------------------------------------------------------
 Center     Atomic      Atomic             Coordinates (Angstroms)
 Number     Number       Type             X           Y           Z
 ---------------------------------------------------------------------
      1          6           0       -0.555935    0.878605   -0.002816
      2          6           0       -1.294697    0.533263   -1.086337
      3          1           0       -0.617551    0.299721    0.925231
      4          8           0        0.286383    1.951587   -0.024939
      5          6           0       -2.191873   -0.635345   -1.015100
      6          1           0        0.717342    2.029028    0.836745
      7          8           0       -2.339910   -1.356617   -0.025012
      8          1           0       -1.234440    1.109970   -2.013510
      9          1           0       -2.762081   -0.848964   -1.949308
 ---------------------------------------------------------------------
                    Distance matrix (angstroms):
                    1          2          3          4          5
     1  C    0.000000
     2  C    1.356115   0.000000
     3  H    1.095524   2.135292   0.000000
     4  O    1.364287   2.374452   2.109166   0.000000
     5  C    2.448072   1.475007   2.667906   3.716771   0.000000
     6  H    1.910384   3.159724   2.186383   0.966551   4.357951
     7  O    2.859943   2.406351   2.571563   4.223935   1.233865
     8  H    2.134664   1.093559   3.110185   2.641143   2.227022
     9  H    3.411804   2.192826   3.765828   4.565021   1.115130
                    6          7          8          9
     6  H    0.000000
     7  O    4.642413   0.000000
     8  H    3.574642   3.355628   0.000000
     9  H    5.305781   2.034418   2.485001   0.000000
 Stoichiometry    C3H4O2
 Framework group  C1[X(C3H4O2)]
 Deg. of freedom    21
 Full point group                 C1      NOp   1
 Largest Abelian subgroup         C1      NOp   1
 Largest concise Abelian subgroup C1      NOp   1
                         Standard orientation:                         
 ---------------------------------------------------------------------
 Center     Atomic      Atomic             Coordinates (Angstroms)
 Number     Number       Type             X           Y           Z
 ---------------------------------------------------------------------
      1          6           0        0.881671   -0.280039    0.000002
      2          6           0       -0.024314    0.729039   -0.000004
      3          1           0        0.555743   -1.325957    0.000008
      4          8           0        2.223802   -0.035159   -0.000000
      5          6           0       -1.465570    0.415312    0.000001
      6          1           0        2.695867   -0.878590    0.000007
      7          8           0       -1.943907   -0.722061   -0.000003
      8          1           0        0.299249    1.773634   -0.000007
      9          1           0       -2.140743    1.302812    0.000025
 ---------------------------------------------------------------------
 Rotational constants (GHZ):          20.2190527           2.7005184           2.3823275
 Standard basis: Aug-CC-pVDZ (5D, 7F)
 There are   161 symmetry adapted cartesian basis functions of A   symmetry.
 There are   151 symmetry adapted basis functions of A   symmetry.
   151 basis functions,   259 primitive gaussians,   161 cartesian basis functions
    19 alpha electrons       19 beta electrons
       nuclear repulsion energy       154.7801100387 Hartrees.
 NAtoms=    9 NActive=    9 NUniq=    9 SFac= 1.00D+00 NAtFMM=   60 NAOKFM=F Big=F
 Integral buffers will be    131072 words long.
 Raffenetti 1 integral format.
 Two-electron integral symmetry is turned on.
 One-electron integrals computed using PRISM.
 NBasis=   151 RedAO= T EigKep=  3.41D-05  NBF=   151
 NBsUse=   151 1.00D-06 EigRej= -1.00D+00 NBFU=   151
 Initial guess from the checkpoint file:  "/scr/Gau-82142.chk"
 B after Tr=    -0.000000   -0.000000    0.000000
         Rot=    1.000000    0.000000    0.000000   -0.000240 Ang=  -0.03 deg.
 ExpMin= 2.97D-02 ExpMax= 1.17D+04 ExpMxC= 4.01D+02 IAcc=3 IRadAn=         5 AccDes= 0.00D+00
 Harris functional with IExCor=  205 and IRadAn=       5 diagonalized for initial guess.
 HarFok:  IExCor=  205 AccDes= 0.00D+00 IRadAn=         5 IDoV= 1 UseB2=F ITyADJ=14
 ICtDFT=  3500011 ScaDFX=  1.000000  1.000000  1.000000  1.000000
 FoFCou: FMM=F IPFlag=           0 FMFlag=      100000 FMFlg1=           0
         NFxFlg=           0 DoJE=T BraDBF=F KetDBF=T FulRan=T
         wScrn=  0.000000 ICntrl=       500 IOpCl=  0 I1Cent=   200000004 NGrid=           0
         NMat0=    1 NMatS0=      1 NMatT0=    0 NMatD0=    1 NMtDS0=    0 NMtDT0=    0
 Petite list used in FoFCou.
 Keep R1 ints in memory in canonical form, NReq=74564626.
 Requested convergence on RMS density matrix=1.00D-08 within 128 cycles.
 Requested convergence on MAX density matrix=1.00D-06.
 Requested convergence on             energy=1.00D-06.
 No special actions if energy rises.
 SCF Done:  E(RHF) =  -265.661491946     A.U. after   11 cycles
            NFock= 11  Conv=0.57D-08     -V/T= 2.0022
 ExpMin= 2.97D-02 ExpMax= 1.17D+04 ExpMxC= 4.01D+02 IAcc=3 IRadAn=         5 AccDes= 0.00D+00
 HarFok:  IExCor=  205 AccDes= 0.00D+00 IRadAn=         5 IDoV=-2 UseB2=F ITyADJ=14
 ICtDFT= 12500011 ScaDFX=  1.000000  1.000000  1.000000  1.000000
 Range of M.O.s used for correlation:     6   151
 NBasis=   151 NAE=    19 NBE=    19 NFC=     5 NFV=     0
 NROrb=    146 NOA=    14 NOB=    14 NVA=   132 NVB=   132

 **** Warning!!: The largest alpha MO coefficient is  0.34612877D+02

 Fully direct method using O(ONN) memory.
 JobTyp=1 Pass  1:  I=   6 to  19 NPSUse= 40 ParTrn=T ParDer=T DoDerP=T.
 Spin components of T(2) and E(2):
     alpha-alpha T2 =       0.3434678438D-01 E2=     -0.1044882178D+00
     alpha-beta  T2 =       0.1910709620D+00 E2=     -0.5908576582D+00
     beta-beta   T2 =       0.3434678438D-01 E2=     -0.1044882178D+00
 ANorm=    0.1122392325D+01
 E2 =    -0.7998340938D+00 EUMP2 =    -0.26646132603943D+03
          IDoAtm=111111111
          Differentiating once with respect to electric field.
                with respect to dipole field.
          Differentiating once with respect to nuclear coordinates.
 Keep R1 ints in memory in canonical form, NReq=74572255.
          There are     1 degrees of freedom in the 1st order CPHF.  IDoFFX=0 NUNeed=     1.
 LinEq1:  Iter=  0 NonCon=     1 RMS=5.65D-03 Max=1.15D-01 NDo=     1
 AX will form     1 AO Fock derivatives at one time.
 LinEq1:  Iter=  1 NonCon=     1 RMS=1.75D-03 Max=2.42D-02 NDo=     1
 LinEq1:  Iter=  2 NonCon=     1 RMS=6.50D-04 Max=1.13D-02 NDo=     1
 LinEq1:  Iter=  3 NonCon=     1 RMS=2.40D-04 Max=2.91D-03 NDo=     1
 LinEq1:  Iter=  4 NonCon=     1 RMS=8.86D-05 Max=1.04D-03 NDo=     1
 LinEq1:  Iter=  5 NonCon=     1 RMS=3.36D-05 Max=6.33D-04 NDo=     1
 LinEq1:  Iter=  6 NonCon=     1 RMS=1.24D-05 Max=2.93D-04 NDo=     1
 LinEq1:  Iter=  7 NonCon=     1 RMS=3.64D-06 Max=4.84D-05 NDo=     1
 LinEq1:  Iter=  8 NonCon=     1 RMS=1.38D-06 Max=2.63D-05 NDo=     1
 LinEq1:  Iter=  9 NonCon=     1 RMS=3.56D-07 Max=3.10D-06 NDo=     1
 LinEq1:  Iter= 10 NonCon=     1 RMS=6.66D-08 Max=5.75D-07 NDo=     1
 LinEq1:  Iter= 11 NonCon=     1 RMS=1.75D-08 Max=3.38D-07 NDo=     1
 LinEq1:  Iter= 12 NonCon=     1 RMS=4.76D-09 Max=5.01D-08 NDo=     1
 LinEq1:  Iter= 13 NonCon=     1 RMS=1.41D-09 Max=1.26D-08 NDo=     1
 LinEq1:  Iter= 14 NonCon=     1 RMS=3.03D-10 Max=2.57D-09 NDo=     1
 LinEq1:  Iter= 15 NonCon=     0 RMS=5.32D-11 Max=4.68D-10 NDo=     1
 Linear equations converged to 1.000D-10 1.000D-09 after    15 iterations.
 End of Minotr F.D. properties file   721 does not exist.
 End of Minotr F.D. properties file   722 does not exist.
 End of Minotr F.D. properties file   788 does not exist.
 Calling FoFJK, ICntrl=  10002127 FMM=F ISym2X=0 I1Cent= 0 IOpClX= 0 NMat=1 NMatS=1 NMatT=0.
 ***** Axes restored to original set *****
 -------------------------------------------------------------------
 Center     Atomic                   Forces (Hartrees/Bohr)
 Number     Number              X              Y              Z
 -------------------------------------------------------------------
      1        6           0.001054375    0.001542425   -0.000397110
      2        6          -0.000462121   -0.000481827   -0.000186880
      3        1          -0.000085862    0.000051198   -0.000295093
      4        8          -0.001198165   -0.001559087    0.000092315
      5        6           0.000172900    0.000776287   -0.001028240
      6        1           0.000363237    0.000256681    0.000371928
      7        8          -0.000083672   -0.000393966    0.000532379
      8        1           0.000120989   -0.000086265    0.000441821
      9        1           0.000118319   -0.000105446    0.000468880
 -------------------------------------------------------------------
 Cartesian Forces:  Max     0.001559087 RMS     0.000639297

 GradGradGradGradGradGradGradGradGradGradGradGradGradGradGradGradGradGrad
 Berny optimization.
 Using GEDIIS/GDIIS optimizer.
 FormGI is forming the generalized inverse of G from B-inverse, IUseBI=4.
 Internal  Forces:  Max     0.001547331 RMS     0.000411625
 Search for a local minimum.
 Step number   3 out of a maximum of   38
 All quantities printed in internal units (Hartrees-Bohrs-Radians)
 Mixed Optimization -- En-DIIS/RFO-DIIS
 Update second derivatives using D2CorX and points    1    2    3
 DE= -9.50D-05 DEPred=-8.07D-05 R= 1.18D+00
 TightC=F SS=  1.41D+00  RLast= 2.59D-02 DXNew= 5.3932D-01 7.7676D-02
 Trust test= 1.18D+00 RLast= 2.59D-02 DXMaxT set to 3.21D-01
 ITU=  1  1  0
 Use linear search instead of GDIIS.
     Eigenvalues ---    0.01069   0.01069   0.02032   0.02115   0.02696
     Eigenvalues ---    0.02969   0.12237   0.16000   0.16012   0.16842
     Eigenvalues ---    0.21610   0.22354   0.23302   0.33717   0.35522
     Eigenvalues ---    0.35836   0.36540   0.45853   0.52851   0.60642
     Eigenvalues ---    0.91513
 RFO step:  Lambda=-1.20438801D-05 EMin= 1.06855744D-02
 Quartic linear search produced a step of  0.20150.
 Iteration  1 RMS(Cart)=  0.00320638 RMS(Int)=  0.00000543
 Iteration  2 RMS(Cart)=  0.00000622 RMS(Int)=  0.00000000
 Iteration  3 RMS(Cart)=  0.00000000 RMS(Int)=  0.00000000
 Variable       Old X    -DE/DX   Delta X   Delta X   Delta X     New X
                                 (Linear)    (Quad)   (Total)
    R1        2.56269  -0.00004   0.00063   0.00005   0.00068   2.56336
    R2        2.07024  -0.00027   0.00022  -0.00080  -0.00057   2.06967
    R3        2.57813  -0.00155  -0.00201  -0.00228  -0.00429   2.57384
    R4        2.78736  -0.00035  -0.00221   0.00033  -0.00189   2.78547
    R5        2.06653  -0.00041  -0.00007  -0.00103  -0.00110   2.06542
    R6        1.82652   0.00051  -0.00010   0.00104   0.00093   1.82745
    R7        2.33167   0.00067   0.00057   0.00069   0.00126   2.33293
    R8        2.10729  -0.00043   0.00025  -0.00141  -0.00116   2.10613
    A1        2.10789  -0.00044  -0.00232  -0.00183  -0.00414   2.10375
    A2        2.12194   0.00057  -0.00014   0.00314   0.00300   2.12495
    A3        2.05335  -0.00013   0.00245  -0.00132   0.00114   2.05449
    A4        2.08808  -0.00016  -0.00121  -0.00011  -0.00132   2.08676
    A5        2.10960  -0.00014  -0.00047  -0.00117  -0.00164   2.10796
    A6        2.08551   0.00030   0.00167   0.00129   0.00296   2.08847
    A7        1.90058   0.00049  -0.00046   0.00421   0.00375   1.90434
    A8        2.18323  -0.00016  -0.00091   0.00012  -0.00079   2.18245
    A9        2.00681   0.00033   0.00070   0.00194   0.00264   2.00945
   A10        2.09314  -0.00017   0.00020  -0.00206  -0.00185   2.09128
    D1        0.00000  -0.00000  -0.00000  -0.00000  -0.00000   0.00000
    D2        3.14159   0.00000   0.00000   0.00000   0.00000   3.14159
    D3       -3.14159   0.00000  -0.00000   0.00000   0.00000  -3.14159
    D4       -0.00000   0.00000   0.00000   0.00000   0.00000  -0.00000
    D5        3.14159  -0.00000  -0.00000  -0.00000  -0.00000   3.14159
    D6       -0.00000   0.00000  -0.00000   0.00000   0.00000  -0.00000
    D7       -0.00001  -0.00000   0.00000  -0.00007  -0.00006  -0.00007
    D8        3.14156   0.00000   0.00000   0.00008   0.00008  -3.14154
    D9        3.14159  -0.00000   0.00000  -0.00007  -0.00006   3.14152
   D10       -0.00002   0.00000   0.00000   0.00007   0.00008   0.00005
         Item               Value     Threshold  Converged?
 Maximum Force            0.001547     0.000450     NO 
 RMS     Force            0.000412     0.000300     NO 
 Maximum Displacement     0.007428     0.001800     NO 
 RMS     Displacement     0.003206     0.001200     NO 
 Predicted change in Energy=-8.869266D-06
 GradGradGradGradGradGradGradGradGradGradGradGradGradGradGradGradGradGrad

                          Input orientation:                          
 ---------------------------------------------------------------------
 Center     Atomic      Atomic             Coordinates (Angstroms)
 Number     Number       Type             X           Y           Z
 ---------------------------------------------------------------------
      1          6           0       -0.555980    0.879543   -0.004637
      2          6           0       -1.295038    0.533933   -1.088319
      3          1           0       -0.620483    0.298175    0.921300
      4          8           0        0.285949    1.950015   -0.023078
      5          6           0       -2.191001   -0.634219   -1.015037
      6          1           0        0.717578    2.028212    0.838757
      7          8           0       -2.337221   -1.354339   -0.023011
      8          1           0       -1.233736    1.111306   -2.014321
      9          1           0       -2.762832   -0.851378   -1.946700
 ---------------------------------------------------------------------
                    Distance matrix (angstroms):
                    1          2          3          4          5
     1  C    0.000000
     2  C    1.356474   0.000000
     3  H    1.095221   2.132880   0.000000
     4  O    1.362018   2.374773   2.107616   0.000000
     5  C    2.446565   1.474008   2.661820   3.714502   0.000000
     6  H    1.911204   3.161821   2.188664   0.967046   4.357169
     7  O    2.857164   2.405535   2.563145   4.218977   1.234531
     8  H    2.133517   1.092976   3.107271   2.641576   2.227506
     9  H    3.411436   2.193245   3.759861   4.565434   1.114515
                    6          7          8          9
     6  H    0.000000
     7  O    4.638544   0.000000
     8  H    3.576086   3.355949   0.000000
     9  H    5.306982   2.033394   2.488943   0.000000
 Stoichiometry    C3H4O2
 Framework group  C1[X(C3H4O2)]
 Deg. of freedom    21
 Full point group                 C1      NOp   1
 Largest Abelian subgroup         C1      NOp   1
 Largest concise Abelian subgroup C1      NOp   1
                         Standard orientation:                         
 ---------------------------------------------------------------------
 Center     Atomic      Atomic             Coordinates (Angstroms)
 Number     Number       Type             X           Y           Z
 ---------------------------------------------------------------------
      1          6           0        0.881403   -0.277730    0.000011
      2          6           0       -0.025206    0.731270   -0.000000
      3          1           0        0.551634   -1.322126    0.000038
      4          8           0        2.221938   -0.036773   -0.000010
      5          6           0       -1.464951    0.415306    0.000026
      6          1           0        2.695198   -0.880102    0.000006
      7          8           0       -1.940714   -0.723868   -0.000016
      8          1           0        0.299500    1.774899   -0.000026
      9          1           0       -2.143596    1.299380   -0.000033
 ---------------------------------------------------------------------
 Rotational constants (GHZ):          20.1744068           2.7056276           2.3856796
 Standard basis: Aug-CC-pVDZ (5D, 7F)
 There are   161 symmetry adapted cartesian basis functions of A   symmetry.
 There are   151 symmetry adapted basis functions of A   symmetry.
   151 basis functions,   259 primitive gaussians,   161 cartesian basis functions
    19 alpha electrons       19 beta electrons
       nuclear repulsion energy       154.8473011911 Hartrees.
 NAtoms=    9 NActive=    9 NUniq=    9 SFac= 1.00D+00 NAtFMM=   60 NAOKFM=F Big=F
 Integral buffers will be    131072 words long.
 Raffenetti 1 integral format.
 Two-electron integral symmetry is turned on.
 One-electron integrals computed using PRISM.
 NBasis=   151 RedAO= T EigKep=  3.41D-05  NBF=   151
 NBsUse=   151 1.00D-06 EigRej= -1.00D+00 NBFU=   151
 Initial guess from the checkpoint file:  "/scr/Gau-82142.chk"
 B after Tr=     0.000000    0.000000   -0.000000
         Rot=    1.000000    0.000000    0.000000   -0.000148 Ang=   0.02 deg.
 Keep R1 ints in memory in canonical form, NReq=74564685.
 Requested convergence on RMS density matrix=1.00D-08 within 128 cycles.
 Requested convergence on MAX density matrix=1.00D-06.
 Requested convergence on             energy=1.00D-06.
 No special actions if energy rises.
 SCF Done:  E(RHF) =  -265.661551887     A.U. after   10 cycles
            NFock= 10  Conv=0.78D-08     -V/T= 2.0022
 ExpMin= 2.97D-02 ExpMax= 1.17D+04 ExpMxC= 4.01D+02 IAcc=3 IRadAn=         5 AccDes= 0.00D+00
 HarFok:  IExCor=  205 AccDes= 0.00D+00 IRadAn=         5 IDoV=-2 UseB2=F ITyADJ=14
 ICtDFT= 12500011 ScaDFX=  1.000000  1.000000  1.000000  1.000000
 Range of M.O.s used for correlation:     6   151
 NBasis=   151 NAE=    19 NBE=    19 NFC=     5 NFV=     0
 NROrb=    146 NOA=    14 NOB=    14 NVA=   132 NVB=   132

 **** Warning!!: The largest alpha MO coefficient is  0.35437914D+02

 Fully direct method using O(ONN) memory.
 JobTyp=1 Pass  1:  I=   6 to  19 NPSUse= 40 ParTrn=T ParDer=T DoDerP=T.
 Spin components of T(2) and E(2):
     alpha-alpha T2 =       0.3434504142D-01 E2=     -0.1044976154D+00
     alpha-beta  T2 =       0.1909999013D+00 E2=     -0.5907879622D+00
     beta-beta   T2 =       0.3434504142D-01 E2=     -0.1044976154D+00
 ANorm=    0.1122359115D+01
 E2 =    -0.7997831930D+00 EUMP2 =    -0.26646133507953D+03
          IDoAtm=111111111
          Differentiating once with respect to electric field.
                with respect to dipole field.
          Differentiating once with respect to nuclear coordinates.
 Keep R1 ints in memory in canonical form, NReq=74572255.
          There are     1 degrees of freedom in the 1st order CPHF.  IDoFFX=0 NUNeed=     1.
 LinEq1:  Iter=  0 NonCon=     1 RMS=5.65D-03 Max=1.15D-01 NDo=     1
 AX will form     1 AO Fock derivatives at one time.
 LinEq1:  Iter=  1 NonCon=     1 RMS=1.75D-03 Max=2.43D-02 NDo=     1
 LinEq1:  Iter=  2 NonCon=     1 RMS=6.51D-04 Max=1.13D-02 NDo=     1
 LinEq1:  Iter=  3 NonCon=     1 RMS=2.41D-04 Max=2.90D-03 NDo=     1
 LinEq1:  Iter=  4 NonCon=     1 RMS=8.91D-05 Max=1.04D-03 NDo=     1
 LinEq1:  Iter=  5 NonCon=     1 RMS=3.38D-05 Max=6.38D-04 NDo=     1
 LinEq1:  Iter=  6 NonCon=     1 RMS=1.24D-05 Max=2.92D-04 NDo=     1
 LinEq1:  Iter=  7 NonCon=     1 RMS=3.65D-06 Max=4.87D-05 NDo=     1
 LinEq1:  Iter=  8 NonCon=     1 RMS=1.38D-06 Max=2.62D-05 NDo=     1
 LinEq1:  Iter=  9 NonCon=     1 RMS=3.56D-07 Max=3.12D-06 NDo=     1
 LinEq1:  Iter= 10 NonCon=     1 RMS=6.66D-08 Max=5.84D-07 NDo=     1
 LinEq1:  Iter= 11 NonCon=     1 RMS=1.76D-08 Max=3.40D-07 NDo=     1
 LinEq1:  Iter= 12 NonCon=     1 RMS=4.82D-09 Max=5.06D-08 NDo=     1
 LinEq1:  Iter= 13 NonCon=     1 RMS=1.42D-09 Max=1.25D-08 NDo=     1
 LinEq1:  Iter= 14 NonCon=     1 RMS=3.03D-10 Max=2.56D-09 NDo=     1
 LinEq1:  Iter= 15 NonCon=     0 RMS=5.31D-11 Max=4.64D-10 NDo=     1
 Linear equations converged to 1.000D-10 1.000D-09 after    15 iterations.
 End of Minotr F.D. properties file   721 does not exist.
 End of Minotr F.D. properties file   722 does not exist.
 End of Minotr F.D. properties file   788 does not exist.
 Calling FoFJK, ICntrl=  10002127 FMM=F ISym2X=0 I1Cent= 0 IOpClX= 0 NMat=1 NMatS=1 NMatT=0.
 ***** Axes restored to original set *****
 -------------------------------------------------------------------
 Center     Atomic                   Forces (Hartrees/Bohr)
 Number     Number              X              Y              Z
 -------------------------------------------------------------------
      1        6           0.000016501    0.000122442   -0.000186383
      2        6           0.000209105    0.000182285    0.000161282
      3        1           0.000031096    0.000015993    0.000042970
      4        8          -0.000119204   -0.000176046    0.000047225
      5        6          -0.000117940   -0.000086328   -0.000158915
      6        1          -0.000044097   -0.000037837   -0.000033355
      7        8          -0.000006529   -0.000023505    0.000044116
      8        1          -0.000031902   -0.000023627   -0.000029414
      9        1           0.000062969    0.000026623    0.000112473
 -------------------------------------------------------------------
 Cartesian Forces:  Max     0.000209105 RMS     0.000101266

 GradGradGradGradGradGradGradGradGradGradGradGradGradGradGradGradGradGrad
 Berny optimization.
 Using GEDIIS/GDIIS optimizer.
 FormGI is forming the generalized inverse of G from B-inverse, IUseBI=4.
 Internal  Forces:  Max     0.000269233 RMS     0.000075714
 Search for a local minimum.
 Step number   4 out of a maximum of   38
 All quantities printed in internal units (Hartrees-Bohrs-Radians)
 Mixed Optimization -- En-DIIS/RFO-DIIS
 Swapping is turned off.
 Update second derivatives using D2CorX and points    1    2    3    4
 DE= -9.04D-06 DEPred=-8.87D-06 R= 1.02D+00
 TightC=F SS=  1.41D+00  RLast= 9.67D-03 DXNew= 5.3932D-01 2.9020D-02
 Trust test= 1.02D+00 RLast= 9.67D-03 DXMaxT set to 3.21D-01
 ITU=  1  1  1  0
     Eigenvalues ---    0.01069   0.01069   0.02029   0.02115   0.02695
     Eigenvalues ---    0.02969   0.13051   0.16000   0.16068   0.16951
     Eigenvalues ---    0.21142   0.22150   0.23523   0.33155   0.35410
     Eigenvalues ---    0.35767   0.37757   0.42759   0.52960   0.59498
     Eigenvalues ---    0.91313
 En-DIIS/RFO-DIIS/Sim-DIIS IScMMF=       -3 using points:     4    3
 RFO step:  Lambda=-4.21503048D-07.
 DidBck=F Rises=F RFO-DIIS coefs:    0.99617    0.00383
 Iteration  1 RMS(Cart)=  0.00043268 RMS(Int)=  0.00000011
 Iteration  2 RMS(Cart)=  0.00000013 RMS(Int)=  0.00000004
 Variable       Old X    -DE/DX   Delta X   Delta X   Delta X     New X
                                 (Linear)    (Quad)   (Total)
    R1        2.56336  -0.00019  -0.00000  -0.00029  -0.00029   2.56307
    R2        2.06967   0.00003   0.00000   0.00007   0.00007   2.06974
    R3        2.57384  -0.00027   0.00002  -0.00061  -0.00060   2.57324
    R4        2.78547   0.00010   0.00001   0.00028   0.00028   2.78575
    R5        2.06542   0.00001   0.00000   0.00002   0.00002   2.06545
    R6        1.82745  -0.00005  -0.00000  -0.00009  -0.00009   1.82736
    R7        2.33293   0.00005  -0.00000   0.00009   0.00008   2.33301
    R8        2.10613  -0.00013   0.00000  -0.00041  -0.00041   2.10572
    A1        2.10375   0.00003   0.00002   0.00014   0.00015   2.10390
    A2        2.12495   0.00004  -0.00001   0.00023   0.00022   2.12516
    A3        2.05449  -0.00007  -0.00000  -0.00036  -0.00037   2.05412
    A4        2.08676  -0.00003   0.00001  -0.00017  -0.00016   2.08660
    A5        2.10796   0.00007   0.00001   0.00035   0.00035   2.10831
    A6        2.08847  -0.00003  -0.00001  -0.00018  -0.00019   2.08828
    A7        1.90434  -0.00008  -0.00001  -0.00039  -0.00040   1.90393
    A8        2.18245  -0.00001   0.00000  -0.00004  -0.00003   2.18241
    A9        2.00945   0.00001  -0.00001   0.00009   0.00008   2.00954
   A10        2.09128   0.00000   0.00001  -0.00006  -0.00005   2.09123
    D1        0.00000  -0.00000   0.00000  -0.00000  -0.00000   0.00000
    D2        3.14159  -0.00000  -0.00000  -0.00000  -0.00000   3.14159
    D3       -3.14159  -0.00000  -0.00000  -0.00001  -0.00001   3.14158
    D4       -0.00000  -0.00000  -0.00000  -0.00001  -0.00001  -0.00001
    D5        3.14159   0.00000   0.00000   0.00001   0.00001  -3.14158
    D6       -0.00000  -0.00000  -0.00000   0.00000   0.00000  -0.00000
    D7       -0.00007   0.00000   0.00000   0.00046   0.00046   0.00038
    D8       -3.14154  -0.00000  -0.00000  -0.00043  -0.00043   3.14121
    D9        3.14152   0.00000   0.00000   0.00046   0.00046  -3.14121
   D10        0.00005  -0.00000  -0.00000  -0.00043  -0.00043  -0.00038
         Item               Value     Threshold  Converged?
 Maximum Force            0.000269     0.000450     YES
 RMS     Force            0.000076     0.000300     YES
 Maximum Displacement     0.001163     0.001800     YES
 RMS     Displacement     0.000433     0.001200     YES
 Predicted change in Energy=-2.107535D-07
 Optimization completed.
    -- Stationary point found.
                           ----------------------------
                           !   Optimized Parameters   !
                           ! (Angstroms and Degrees)  !
 --------------------------                            --------------------------
 ! Name  Definition              Value          Derivative Info.                !
 --------------------------------------------------------------------------------
 ! R1    R(1,2)                  1.3565         -DE/DX =   -0.0002              !
 ! R2    R(1,3)                  1.0952         -DE/DX =    0.0                 !
 ! R3    R(1,4)                  1.362          -DE/DX =   -0.0003              !
 ! R4    R(2,5)                  1.474          -DE/DX =    0.0001              !
 ! R5    R(2,8)                  1.093          -DE/DX =    0.0                 !
 ! R6    R(4,6)                  0.967          -DE/DX =   -0.0001              !
 ! R7    R(5,7)                  1.2345         -DE/DX =    0.0                 !
 ! R8    R(5,9)                  1.1145         -DE/DX =   -0.0001              !
 ! A1    A(2,1,3)              120.536          -DE/DX =    0.0                 !
 ! A2    A(2,1,4)              121.7505         -DE/DX =    0.0                 !
 ! A3    A(3,1,4)              117.7135         -DE/DX =   -0.0001              !
 ! A4    A(1,2,5)              119.5626         -DE/DX =    0.0                 !
 ! A5    A(1,2,8)              120.777          -DE/DX =    0.0001              !
 ! A6    A(5,2,8)              119.6604         -DE/DX =    0.0                 !
 ! A7    A(1,4,6)              109.1104         -DE/DX =   -0.0001              !
 ! A8    A(2,5,7)              125.0451         -DE/DX =    0.0                 !
 ! A9    A(2,5,9)              115.1332         -DE/DX =    0.0                 !
 ! A10   A(7,5,9)              119.8217         -DE/DX =    0.0                 !
 ! D1    D(3,1,2,5)              0.0001         -DE/DX =    0.0                 !
 ! D2    D(3,1,2,8)            179.9999         -DE/DX =    0.0                 !
 ! D3    D(4,1,2,5)            180.0001         -DE/DX =    0.0                 !
 ! D4    D(4,1,2,8)              0.0            -DE/DX =    0.0                 !
 ! D5    D(2,1,4,6)           -180.0002         -DE/DX =    0.0                 !
 ! D6    D(3,1,4,6)             -0.0002         -DE/DX =    0.0                 !
 ! D7    D(1,2,5,7)             -0.0042         -DE/DX =    0.0                 !
 ! D8    D(1,2,5,9)            180.0028         -DE/DX =    0.0                 !
 ! D9    D(8,2,5,7)           -180.0041         -DE/DX =    0.0                 !
 ! D10   D(8,2,5,9)              0.0029         -DE/DX =    0.0                 !
 --------------------------------------------------------------------------------
 GradGradGradGradGradGradGradGradGradGradGradGradGradGradGradGradGradGrad

                          Input orientation:                          
 ---------------------------------------------------------------------
 Center     Atomic      Atomic             Coordinates (Angstroms)
 Number     Number       Type             X           Y           Z
 ---------------------------------------------------------------------
      1          6           0       -0.555980    0.879543   -0.004637
      2          6           0       -1.295038    0.533933   -1.088319
      3          1           0       -0.620483    0.298175    0.921300
      4          8           0        0.285949    1.950015   -0.023078
      5          6           0       -2.191001   -0.634219   -1.015037
      6          1           0        0.717578    2.028212    0.838757
      7          8           0       -2.337221   -1.354339   -0.023011
      8          1           0       -1.233736    1.111306   -2.014321
      9          1           0       -2.762832   -0.851378   -1.946700
 ---------------------------------------------------------------------
                    Distance matrix (angstroms):
                    1          2          3          4          5
     1  C    0.000000
     2  C    1.356474   0.000000
     3  H    1.095221   2.132880   0.000000
     4  O    1.362018   2.374773   2.107616   0.000000
     5  C    2.446565   1.474008   2.661820   3.714502   0.000000
     6  H    1.911204   3.161821   2.188664   0.967046   4.357169
     7  O    2.857164   2.405535   2.563145   4.218977   1.234531
     8  H    2.133517   1.092976   3.107271   2.641576   2.227506
     9  H    3.411436   2.193245   3.759861   4.565434   1.114515
                    6          7          8          9
     6  H    0.000000
     7  O    4.638544   0.000000
     8  H    3.576086   3.355949   0.000000
     9  H    5.306982   2.033394   2.488943   0.000000
 Stoichiometry    C3H4O2
 Framework group  C1[X(C3H4O2)]
 Deg. of freedom    21
 Full point group                 C1      NOp   1
 Largest Abelian subgroup         C1      NOp   1
 Largest concise Abelian subgroup C1      NOp   1
                         Standard orientation:                         
 ---------------------------------------------------------------------
 Center     Atomic      Atomic             Coordinates (Angstroms)
 Number     Number       Type             X           Y           Z
 ---------------------------------------------------------------------
      1          6           0        0.881403   -0.277730    0.000011
      2          6           0       -0.025206    0.731270   -0.000000
      3          1           0        0.551634   -1.322126    0.000038
      4          8           0        2.221938   -0.036773   -0.000010
      5          6           0       -1.464951    0.415306    0.000026
      6          1           0        2.695198   -0.880102    0.000006
      7          8           0       -1.940714   -0.723868   -0.000016
      8          1           0        0.299500    1.774899   -0.000026
      9          1           0       -2.143596    1.299380   -0.000033
 ---------------------------------------------------------------------
 Rotational constants (GHZ):          20.1744068           2.7056276           2.3856796

 **********************************************************************

            Population analysis using the SCF Density.

 **********************************************************************

 Orbital symmetries:
       Occupied  (A) (A) (A) (A) (A) (A) (A) (A) (A) (A) (A) (A)
                 (A) (A) (A) (A) (A) (A) (A)
       Virtual   (A) (A) (A) (A) (A) (A) (A) (A) (A) (A) (A) (A)
                 (A) (A) (A) (A) (A) (A) (A) (A) (A) (A) (A) (A)
                 (A) (A) (A) (A) (A) (A) (A) (A) (A) (A) (A) (A)
                 (A) (A) (A) (A) (A) (A) (A) (A) (A) (A) (A) (A)
                 (A) (A) (A) (A) (A) (A) (A) (A) (A) (A) (A) (A)
                 (A) (A) (A) (A) (A) (A) (A) (A) (A) (A) (A) (A)
                 (A) (A) (A) (A) (A) (A) (A) (A) (A) (A) (A) (A)
                 (A) (A) (A) (A) (A) (A) (A) (A) (A) (A) (A) (A)
                 (A) (A) (A) (A) (A) (A) (A) (A) (A) (A) (A) (A)
                 (A) (A) (A) (A) (A) (A) (A) (A) (A) (A) (A) (A)
                 (A) (A) (A) (A) (A) (A) (A) (A) (A) (A) (A) (A)
 The electronic state is 1-A.
 Alpha  occ. eigenvalues --  -20.63645 -20.55368 -11.34927 -11.34391 -11.24363
 Alpha  occ. eigenvalues --   -1.43942  -1.37208  -1.06772  -0.89440  -0.77578
 Alpha  occ. eigenvalues --   -0.76575  -0.66497  -0.63887  -0.60705  -0.60533
 Alpha  occ. eigenvalues --   -0.54723  -0.52582  -0.42333  -0.36279
 Alpha virt. eigenvalues --    0.02592   0.03941   0.05619   0.06432   0.06824
 Alpha virt. eigenvalues --    0.10170   0.11169   0.12049   0.12884   0.13920
 Alpha virt. eigenvalues --    0.14881   0.15352   0.15929   0.17065   0.18082
 Alpha virt. eigenvalues --    0.20497   0.23643   0.23677   0.24480   0.24910
 Alpha virt. eigenvalues --    0.26797   0.29261   0.30107   0.30596   0.33642
 Alpha virt. eigenvalues --    0.34721   0.35048   0.37199   0.37774   0.38307
 Alpha virt. eigenvalues --    0.39592   0.41470   0.42947   0.44927   0.45992
 Alpha virt. eigenvalues --    0.47667   0.48069   0.51343   0.53027   0.56791
 Alpha virt. eigenvalues --    0.58248   0.59220   0.59391   0.62571   0.62963
 Alpha virt. eigenvalues --    0.64663   0.64839   0.66887   0.67455   0.68235
 Alpha virt. eigenvalues --    0.72036   0.72445   0.74068   0.78652   0.79037
 Alpha virt. eigenvalues --    0.81136   0.83758   0.86738   0.88501   0.88554
 Alpha virt. eigenvalues --    0.92539   0.95050   0.97535   1.01301   1.01657
 Alpha virt. eigenvalues --    1.08248   1.09695   1.14164   1.18856   1.20346
 Alpha virt. eigenvalues --    1.20920   1.22789   1.25493   1.30544   1.30739
 Alpha virt. eigenvalues --    1.34836   1.42036   1.45573   1.47075   1.49624
 Alpha virt. eigenvalues --    1.53688   1.56062   1.58318   1.59817   1.66500
 Alpha virt. eigenvalues --    1.67957   1.70463   1.73116   1.76500   1.77757
 Alpha virt. eigenvalues --    1.78444   1.84255   1.89931   1.94777   1.98483
 Alpha virt. eigenvalues --    1.99946   2.03575   2.05546   2.08544   2.11184
 Alpha virt. eigenvalues --    2.12529   2.16418   2.18115   2.18448   2.19641
 Alpha virt. eigenvalues --    2.34465   2.36585   2.39091   2.41990   2.43940
 Alpha virt. eigenvalues --    2.48540   2.60208   2.68334   2.72972   2.77589
 Alpha virt. eigenvalues --    2.86597   2.95189   3.05113   3.15705   3.24122
 Alpha virt. eigenvalues --    3.40611   3.53614   3.66807   3.72042   3.74887
 Alpha virt. eigenvalues --    3.76781   3.78210   3.81757   3.91910   4.01725
 Alpha virt. eigenvalues --    4.12241   4.32007
          Condensed to atoms (all electrons):
               1          2          3          4          5          6
     1  C    4.836464   0.341964   0.102245  -0.081432  -0.059686  -0.005334
     2  C    0.341964   5.059224  -0.023689   0.008582   0.121224  -0.029515
     3  H    0.102245  -0.023689   1.338536  -0.005714  -0.108440  -0.084788
     4  O   -0.081432   0.008582  -0.005714   8.484638   0.010530   0.343433
     5  C   -0.059686   0.121224  -0.108440   0.010530   4.910235   0.008102
     6  H   -0.005334  -0.029515  -0.084788   0.343433   0.008102   0.557261
     7  O   -0.047577  -0.025721   0.014793  -0.005046   0.306481  -0.000206
     8  H   -0.117281   0.170532   0.057340   0.012637  -0.081747  -0.012138
     9  H   -0.002083   0.050252  -0.004759   0.000109   0.219756   0.000028
               7          8          9
     1  C   -0.047577  -0.117281  -0.002083
     2  C   -0.025721   0.170532   0.050252
     3  H    0.014793   0.057340  -0.004759
     4  O   -0.005046   0.012637   0.000109
     5  C    0.306481  -0.081747   0.219756
     6  H   -0.000206  -0.012138   0.000028
     7  O    8.573069  -0.001315  -0.064065
     8  H   -0.001315   1.405934  -0.060103
     9  H   -0.064065  -0.060103   0.939902
 Mulliken charges:
               1
     1  C    1.032720
     2  C    0.327148
     3  H   -0.285524
     4  O   -0.767736
     5  C    0.673545
     6  H    0.223157
     7  O   -0.750414
     8  H   -0.373858
     9  H   -0.079037
 Sum of Mulliken charges =  -0.00000
 Mulliken charges with hydrogens summed into heavy atoms:
               1
     1  C    0.747197
     2  C   -0.046711
     4  O   -0.544580
     5  C    0.594508
     7  O   -0.750414
 Electronic spatial extent (au):  <R**2>=            478.9102
 Charge=             -0.0000 electrons
 Dipole moment (field-independent basis, Debye):
    X=              2.9294    Y=              0.3891    Z=              0.0001  Tot=              2.9552
 Quadrupole moment (field-independent basis, Debye-Ang):
   XX=            -31.2858   YY=            -26.2483   ZZ=            -30.9251
   XY=            -10.5105   XZ=              0.0000   YZ=             -0.0002
 Traceless Quadrupole moment (field-independent basis, Debye-Ang):
   XX=             -1.7994   YY=              3.2381   ZZ=             -1.4387
   XY=            -10.5105   XZ=              0.0000   YZ=             -0.0002
 Octapole moment (field-independent basis, Debye-Ang**2):
  XXX=             26.8035  YYY=             -2.4413  ZZZ=             -0.0001  XYY=              8.3539
  XXY=             -3.8071  XXZ=              0.0003  XZZ=              0.3840  YZZ=             -1.9677
  YYZ=             -0.0002  XYZ=              0.0000
 Hexadecapole moment (field-independent basis, Debye-Ang**3):
 XXXX=           -437.9480 YYYY=            -90.5397 ZZZZ=            -32.0145 XXXY=            -60.2875
 XXXZ=              0.0006 YYYX=             -8.1224 YYYZ=             -0.0004 ZZZX=              0.0001
 ZZZY=             -0.0000 XXYY=            -81.2162 XXZZ=            -82.2265 YYZZ=            -23.0558
 XXYZ=             -0.0004 YYXZ=              0.0002 ZZXY=             -0.5824
 N-N= 1.548473011911D+02 E-N=-9.344634489298D+02  KE= 2.650807504674D+02
 Unable to Open any file for archive entry.
 1\1\GINC-N3380\FOpt\RMP2-FC\Aug-CC-pVDZ\C3H4O2\GDS001\22-Mar-2025\0\\#
  MP2/aug-cc-pVDZ opt freq=(vibrot,anharmonic)\\blah\\0,1\C,-0.55597950
 14,0.8795430829,-0.0046368591\C,-1.2950375216,0.5339330183,-1.08831948
 66\H,-0.6204825466,0.2981746238,0.9213003514\O,0.2859489487,1.95001480
 39,-0.0230780715\C,-2.1910012637,-0.6342186483,-1.0150366414\H,0.71757
 79573,2.0282121798,0.8387569112\O,-2.3372205232,-1.3543386121,-0.02301
 09342\H,-1.2337358925,1.1113059019,-2.0143206865\H,-2.762832126,-0.851
 3780483,-1.9466996856\\Version=EM64L-G16RevC.01\State=1-A\HF=-265.6615
 519\MP2=-266.4613351\RMSD=7.819e-09\RMSF=1.013e-04\Dipole=0.6876146,0.
 8084105,0.1069897\PG=C01 [X(C3H4O2)]\\@
 The archive entry for this job was punched.


 BREAD HAS TO MOLD IN ORDER TO GET PENICILLIN.
          -- JERRY BOATZ
 Job cpu time:       0 days  0 hours 25 minutes 59.2 seconds.
 Elapsed time:       0 days  0 hours  0 minutes 49.0 seconds.
 File lengths (MBytes):  RWF=     16 Int=      0 D2E=      0 Chk=      3 Scr=      1
 Normal termination of Gaussian 16 at Sat Mar 22 15:43:10 2025.
 Link1:  Proceeding to internal job step number  2.
 ----------------------------------------------------------------------
 #N Geom=AllCheck Guess=TCheck SCRF=Check GenChk RMP2(FC)/Aug-CC-pVDZ F
 req
 ----------------------------------------------------------------------
 1/10=4,29=7,30=1,38=21,40=1,80=1/1,6,3;
 2/12=2,40=1/2;
[...]
 468,-0.00660033,0.00063408,0.00047949,0.00069768,0.00009187,0.00016219
 ,0.00026306,-0.00031124,0.00075234,-0.00130775,0.00001899,0.00017435,0
 .00009336,-0.00001554,-0.00038800,0.00046118,0.00550361,-0.00126670,-0
 .00056739,0.00074301,0.00239877,0.01404489,-0.02807915,0.00039618,0.00
 010272,0.00065153,0.00013760,-0.00009373,0.00021491,-0.00098744,-0.001
 17405,-0.00075830,0.00019501,0.00010635,-0.00003755,-0.00009084,-0.000
 34554,0.00059166,-0.00061729,-0.01224205,-0.00192968,-0.00154406,-0.00
 020882,-0.00793731,-0.02977042,0.03245794,0.00085121,0.00084450,0.0003
 7586,0.00031175,0.00027648,0.00006494,0.00190339,0.00329226,-0.0019962
 8,0.00005517,-0.00008577,0.00012768,-0.00008143,-0.00009175,0.00007128
 ,0.00689571,0.02683855,-0.03057711,-0.00014436,-0.00021631,-0.00022490
 ,-0.00134931,-0.00251863,0.00035582,-0.00016751,0.00005246,0.00003640,
 -0.00000478,0.00017589,-0.00014126,0.00707069,-0.00062430,0.01572918,-
 0.00015950,0.00000399,-0.00000763,-0.00035007,0.00076733,-0.00220241,0
 .00012723,-0.00016530,-0.00006881,-0.00502239,-0.00017795,-0.00003635,
 -0.00012012,-0.00012598,-0.00010976,0.00080832,-0.00004018,-0.00018925
 ,-0.00016031,0.00013696,0.00019911,-0.00020176,-0.00189671,-0.00271381
 ,0.00206741,-0.00001607,-0.00013587,-0.00007998,-0.00041325,-0.0001823
 1,-0.00061399,0.00000832,0.00016879,0.00024022,0.00252487,0.00299945,-
 0.00030221,-0.00021533,-0.00017808,-0.00405666,-0.00475853,-0.00019096
 ,0.00020767,0.00005585,0.00015614,-0.00006606,-0.00010676,-0.00003986,
 0.01808742,0.00505532,0.03364418,0.00002803,-0.00003418,-0.00003010,-0
 .00003186,0.00210808,-0.00401444,-0.00038995,-0.00016466,-0.00031548,-
 0.01347639,-0.00193979,-0.02903141,-0.00326668,-0.00013631,-0.00273728
 ,0.00042747,-0.00145072,0.00031657,0.00248437,0.00134334,-0.00261649,-
 0.00959036,0.00055673,0.00479593,-0.00287939,-0.00809120,-0.00807379,-
 0.00115014,-0.00103588,0.00179776,-0.00677475,-0.00435768,-0.00800323,
 0.00037606,-0.00066896,0.00064259,-0.00068064,-0.00001079,-0.00063613,
 -0.00003046,-0.00023965,-0.00016391,0.00090232,-0.00054785,-0.00060371
 ,-0.00088596,0.00052636,0.00016703,-0.00014292,-0.00009379,0.00047082,
 0.00033773,0.00034983,-0.00025398,0.00003422,0.00006124,-0.00049842,0.
 00078157,0.00126291,0.00071877,-0.00045574,0.00039231,-0.00086171,0.00
 004293,-0.00014603,0.00009241,-0.00095747,0.00151312,0.00093992,0.0008
 1912,-0.00036548,-0.00043708,-0.00080181,-0.00002522,-0.00002682,0.000
 20814,-0.00203257,-0.00157961,0.00024613,0.00022369,-0.00037037,0.0005
 6280,0.00099076,-0.00092178,-0.00012787,-0.00006782,-0.00005383,-0.000
 28995,-0.00035998,0.00076850,-0.00007250,-0.00243862,0.00066727,0.0007
 5248,0.00879112,0.00669101,-0.00010871,0.00017273,-0.00007916,-0.00022
 396,0.00062225,-0.00050679,0.31416228,-0.00136560,-0.00121518,0.001997
 22,0.01912863,0.01224870,0.00502806,0.00012883,-0.00009560,0.00010437,
 -0.00026045,-0.00046437,-0.00069351,0.32133503,-0.48122355,-0.00132308
 ,-0.00050560,-0.00058261,-0.01246746,-0.01908619,-0.00284070,-0.000008
 97,0.00019013,-0.00058559,0.00113208,0.00137629,-0.00039898,1.50858072
 ,0.55249873,1.90806722,0.00005989,-0.00035486,0.00003843,0.00002180,0.
 00042464,-0.00001563,-0.00003800,0.00006662,-0.00007602,0.00012732,0.0
 0011900,-0.00030994,-0.00012139,-0.00018790,-0.00026053,-0.00008346,-0
 .00031383,-0.00017629,0.00019481,0.00025453,0.00012264,-0.00020004,0.0
 0001467,0.00002521,-0.00011775,0.00011353,0.00039421,-0.00016182,-0.00
 018308,-0.00006494,-0.00004885,-0.00005065,-0.00024468,-0.00003182,0.0
 0010565,0.00005442,0.00029525,0.00019456,0.00002306,0.00001832,0.00000
 059,-0.00001628,-0.00030221,-0.00015238,-0.00025457,-0.00026812,-0.000
 05823,-0.00037730,0.00022655,0.00007440,0.00024658,-0.00065502,-0.0003
 3510,0.00046168,-0.00232115,-0.00194913,-0.00204798,0.00006530,0.00001
 762,-0.00031301,0.00025653,0.00013169,-0.00020816,-0.01215762,-0.00192
 416,0.01699574,-0.00005381,-0.00004632,0.00000217,0.01000410,-0.000182
 68,-0.00082387,0.00001948,-0.00191921,-0.00242662,0.00023295,-0.000096
 32,0.00027800,-0.00039696,0.00078095,0.00112021,0.00018961,0.01603102,
 -0.00268365,0.00913423,-0.00003974,-0.00004407,-0.00004561,0.00136600,
 0.00680013,0.00017745,-0.00033523,0.00045578,-0.00209846,0.00015434,-0
 .00505693,-0.00010315,-0.00012833,0.00019038,-0.00140339,-0.00132172,-
 0.00059768,-0.01625590,-0.03276340,0.00477176,-0.00000985,-0.00005985,
 0.00007094,-0.00580349,0.01174764,-0.02384680,0.00012405,-0.00053425,0
 .00021999,0.00200420,0.00195549,0.00190767,0.00002213,0.00009786,0.000
 00591,0.00008864,0.00003031,0.00006860,-0.00084215,-0.00123651,0.00032
 879,-0.00004064,-0.00001089,-0.00003338,0.00050263,-0.00006627,0.00050
 907,-0.00143853,-0.00005413,0.00014526,0.00044482,0.00193656,0.0001946
 8,0.00348420,0.00004394,0.00003983,-0.00007643,-0.00000756,-0.00001176
 ,0.00006680,-0.00180920,-0.00213401,-0.00025499,-0.00001107,-0.0000168
 9,-0.00002749,0.00046942,0.00061326,0.00057118,-0.00071806,0.00064210,
 -0.00067228,-0.00067794,0.00014403,0.00194625,0.00352588,-0.00235776,0
 .00010505,0.00004804,0.00009798,0.00014191,0.00015934,0.00007055,0.001
 37854,0.00107302,0.00123555,-0.00003297,-0.00002707,-0.00004476,-0.000
 47505,-0.00066850,0.00046287,-0.00153860,-0.00325947,0.00223181,0.0001
 6829,0.00186189,-0.00055972,0.00778500,-0.00206923,0.00288770,0.000351
 40,0.00005236,0.00014085,0.00034020,0.00000689,0.00056518,-0.30138840,
 -0.33561786,-1.51297729,0.00012830,0.00022204,0.00009325,0.00435903,-0
 .01587374,0.02498772,-0.00042032,0.00015010,-0.00085286,0.28867650,0.0
 0022234,-0.00076456,-0.00004768,-0.01173933,-0.00582078,-0.00146383,0.
 00008749,0.00037997,-0.00003867,-0.00010309,0.00006532,-0.00018773,-0.
 34252123,0.47563260,-0.54330372,0.00003398,0.00000481,-0.00009150,0.00
 226999,-0.00283340,0.02213538,0.00048231,0.00052752,-0.00017331,0.3512
 6756,-0.46719149,0.00246924,0.00376988,-0.00228640,0.02081509,0.021107
 81,0.01761359,0.00007595,-0.00012021,0.00064892,0.00077210,0.00007299,
 0.00175817,-1.50020758,-0.52718623,-1.90928938,0.00043997,0.00034618,0
 .00029790,-0.00861188,-0.02021284,0.02354968,-0.00146805,-0.00094862,-
 0.00184029,1.48571518,0.52317106,1.86954779,-0.67008274,0.14351671,0.4
 2273774,-0.20553337,-1.73637630,2.03954753,-0.00153637,0.00755808,-0.0
 0476614,-0.00296459,-0.00345391,-0.00383392,-0.01112580,-0.00166807,-0
 .00598884,0.01563099,0.01456374,0.00401977,-0.00099021,0.00499195,-0.0
 1277677,0.67112458,-0.15400171,0.20168095,0.00154798,0.00273024,-0.016
 01635,-0.67231965,-0.15492729,-0.42768669,1.73930236,-0.00975996,0.006
 31326,-0.02286839,0.15876336,0.41689045,0.20340386,1.74146576,-2.04294
 507,0.00708806,0.00624321,0.01122397,-0.19413664,-1.72557981,2.0269327
 6,0.00287720,0.00633125,0.00896909,0.00047723,0.00039401,0.00063061,-0
 .00051121,0.00341819,-0.01456095,-0.00437364,0.01761807,0.01075176,0.0
 1009241,0.00163184,0.00031090,0.00301136,-0.00937927,0.00232547,-0.020
 59314,-0.00767128,-0.01485616,-0.01193717,-0.01624165,-0.00376431,-0.0
 0164005,0.00014979,-0.00421000,0.00913606,0.00925743,0.00718485,0.0066
 1271,0.00755355,0.00031540,0.00130340,-0.00143005,-0.00233374,0.000630
 94,0.00011628,0.00098437,-0.00089125,0.00236604,0.00022947,-0.00105972
 ,-0.00102387,0.00128629,-0.00135709,-0.00121581,0.00229142,-0.00069982
 ,0.00120079,0.00144506,0.00027831,0.00069107,-0.00088004,-0.00204987,-
 0.00077795,-0.00224491,0.00084539,-0.00058494,-0.00383333,-0.00273435,
 -0.00120009,-0.00072589,-0.00103736,-0.00225143,0.00185874,0.00331996,
 0.00183985,0.00146692,0.00083584,0.00028314,0.00063621,0.00095830,0.00
 348519,-0.00542357,-0.00133584,-0.00346596,0.00003357,-0.00044190,0.00
 030377,-0.00040096,0.00022857,0.00233545,-0.00028409,0.00190185,-0.000
 48809,-0.00295587,0.00035220,0.00004500,-0.00011360,-0.00051011,-0.002
 91304,-0.00148686,-0.00144775,-0.00017599,-0.00043187,-0.00055232,0.00
 308536,0.00203668,0.00064318,-0.00134755,0.00263075,-0.00143169,-0.000
 02641,0.00024084,0.00016828,0.00107511,-0.00293201,-0.00098457,-0.0027
 3088,0.00416062,0.00048328,0.00056445,-0.00042583,-0.00167429,-0.00110
 839,-0.00335585,-0.00136701,0.00056940,-0.00068311,0.00002004,0.000336
 52,-0.00021076,0.00348732,0.00264193,0.00037884,0.00058240,0.00058864,
 0.00037432,-0.00006479,-0.00002880,0.00019983,-0.00021609,-0.00062292,
 -0.00065548,-0.00005618,0.00019174,-0.00015799,0.00008349,0.00068617,-
 0.00092553,0.00000595,-0.00002722,0.00004469,0.00008712,0.00003192,0.0
 0003835,-0.00007446,0.00001916,-0.00020968,0.00021818,-0.00058142,-0.0
 0031334,0.00025929,0.00063316,0.00082638,-0.00031794,0.00088651,0.0023
 6187,-0.00247526,-0.00008120,-0.00005423,-0.00007462,-0.00077248,-0.00
 204920,0.00140382,0.00122527,0.00096738,0.00011542,0.00009720,-0.00002
 058,-0.00073370,0.00016512,-0.00144932,-0.00096887,-0.00134489,0.00007
 706,-0.00131178,-0.00296229,0.00232054,0.00014481,0.00005229,0.0002502
 6,0.00095373,0.00256136,-0.00220199,-0.00272951,0.00115993,0.00142392,
 0.00261395,0.00144304,0.00004361,0.00113353,-0.00173162,-0.00111514,0.
 00052561,-0.00083149,-0.00028427,0.00059870,-0.00017919,-0.00043187,-0
 .00019570,0.00026370,-0.00000140,-0.00026834,-0.00001730,0.00025543,-0
 .00164600,0.00145554,-0.00252686,0.00018348,0.00120624,0.00260530,0.00
 067976,-0.00142806,0.00136269,-0.00032180,-0.00096679,0.00001544,0.000
 13540,-0.00053391,0.00027587,-0.00002631,0.00022835,-0.00003918,-0.000
 14403,0.00009992,-0.00024834,0.00000720,0.00004523,-0.00142222,0.00087
 340,-0.00050870,-0.00127930,0.00048552,0.00122947,0.00030269,-0.001677
 80,-0.00103100,0.00098240,-0.00003073,0.00045500,0.00039304,0.00021472
 ,0.00079360,-0.00003447,0.00006416,-0.00006158,-0.00014116,0.00004586,
 -0.00025662,0.00021455,0.00016331,-0.00051412,-0.00042469,-0.00020311,
 -0.00025688,0.00015138,-0.00026248,0.00016341,-0.00008185,-0.00009645,
 0.00015875,0.00003090,0.00021889,-0.00004764,-0.00005971,0.00033933,0.
 00013488,0.00012861,-0.00000501,0.00006604,-0.00000805,-0.00015356,-0.
 00011834,0.00014114,-0.00003224,-0.00010651,-0.00013845,0.00019463,-0.
 00011220,-0.00028495,0.00014586,-0.00001207,-0.00021020,-0.00032257,0.
 00012041,-0.00004848,-0.00006683,-0.00001304,0.00024041,0.00004969,0.0
 0023038,0.00034325,0.00017665,0.00004758,0.00003588,-0.00005438,-0.000
 11504,-0.00035182,0.00019875,-0.00015230,-0.00002270,-0.00010605,0.000
 00629,0.00029863,-0.00012256,-0.00019709,0.00001929,0.00026143,0.00010
 107,0.00002804,0.00010182,0.00002284,-0.00004067,-0.00012068,-0.000026
 83,0.00005090,-0.00004768,-0.00002701,0.00011227,0.00002467,-0.0000123
 3,0.00002701,0.00012057,0.00016006,-0.00015789,-0.00005360,0.00000042,
 -0.00001306,-0.00016397,-0.00002112,-0.00002588,0.00381409,-0.00193889
 ,-0.00405944,0.00142596,0.01176042,-0.01373015,-0.00031501,-0.00559743
 ,0.01418224,-0.69615807,0.00465475,-0.00460322,0.01576189,0.13786703,0
 .39102710,-0.00478902,-0.00813814,0.00196823,-0.18163523,-1.74972193,2
 .08815503,-0.00081004,0.00200892,-0.00057217,-0.00158715,0.00143714,0.
 00086524,0.00043859,0.00120849,0.00050536,-0.00212699,0.00117951,-0.00
 201582,0.00075838,-0.00056106,0.00003975,0.00091901,-0.00025521,0.0004
 5513,0.00132197,0.00134260,-0.00249637,-0.00009812,0.00033265,0.000079
 37,-0.00047298,0.00168149,0.00062992,-0.00016114,-0.00140960,-0.003081
 95,0.00057640,-0.00032204,-0.00023439,-0.00008308,0.00214379,0.0015453
 4,-0.00169832,-0.00178231,0.00099942,-0.00180891,-0.00040017,0.0003434
 9,0.00015390,-0.00112068,-0.00120458,-0.00023529,-0.00278828,0.0025344
 7,-0.00237072,-0.00091464,-0.00155817,-0.00008636,0.00034182,0.0000978
 8,0.00001625,0.00110743,-0.00121497,0.00092883,0.00038791,0.00204233,0
 .00445420,-0.00136416,0.00370236,0.00029040,-0.00017588,-0.00013650,-0
 .00045162,0.00006863,-0.00001156,-0.00464817,0.00118248,-0.00020322,0.
 00267239,0.00700445,0.00826352,0.00828490,-0.00028694,0.00014960,-0.00
 002286,-0.00000949,-0.00026514,-0.00047735,-0.00652728,-0.01071672,0.0
 0056744,0.00081823,-0.00045752,-0.01180353,-0.01122852,-0.00279523,0.0
 0005833,0.00022001,0.00021646,0.00013797,-0.00028375,0.00035560,0.0030
 2400,0.00336893,0.00014667,0.00013356,-0.00016954,0.00047222,0.0001617
 6,-0.00044515,-0.00100163,-0.00006535,-0.00002075,-0.00007495,-0.00001
 314,0.00011942,-0.00008973,-0.00021626,0.00000945,0.00024915,-0.000068
 38,0.00005570,-0.00000580,0.00026075,-0.00081168,0.00015031,-0.0004177
 3,-0.00005482,-0.00003641,-0.00008883,0.00013306,0.00015224,-0.0001036
 5,0.00016896,-0.00016950,0.00009556,-0.00002046,-0.00008477,0.00006071
 ,-0.00025830,0.00068472,-0.00032691,0.00043517,-0.00062023,-0.00001372
 ,-0.00001215,-0.00002581,-0.00011733,-0.00013868,-0.00008398,-0.000044
 75,-0.00027470,0.00007409,-0.00002630,0.00003298,-0.00016690,0.0000026
 4,0.00002782,-0.00112769,-0.00116061,0.00107453,0.00088605,-0.00050025
 ,0.00006697,0.00019406,0.00023943,-0.00002905,0.00014253,0.00241184,0.
 00205389,0.00176872,0.00004846,-0.00002113,0.00001682,-0.00105458,-0.0
 0047929,0.00067654,-0.00150476,0.00051296,-0.00221724,0.00089191,0.000
 13947,-0.00044134,-0.00003697,0.00009700,0.00009458,0.00041961,0.00461
 284,0.00390359,0.00352175,0.00001445,0.00005672,0.00003486,-0.00251086
 ,-0.00334523,-0.00019030,-0.00032054,0.00062195,0.00192951,0.00219095,
 -0.00193313,0.00005867,-0.00020354,-0.00011546,-0.00008447,0.00012806,
 -0.00024554,-0.00298296,-0.00246435,-0.00241003,-0.00004888,-0.0000470
 4,0.00003220,0.00126563,0.00110026,0.00133409,-0.00279112,0.00327599,-
 0.01701254,0.69516152,-0.13950565,0.18490725,0.00146028,-0.00132387,-0
 .00191516,0.00026242,0.00100483,0.00246766,-0.00214532,-0.00472783,0.0
 0774312,-0.00008066,0.00056677,0.00045845,-0.00016593,-0.00187911,-0.0
 0010273,-0.69193903,-0.00719611,0.00633227,-0.02498198,-0.13598619,-0.
 39008954,1.75039072,-0.00222549,0.00134816,-0.00151393,0.00092630,-0.0
 0165985,0.00228064,0.00198810,-0.00131365,0.00391184,0.00050865,-0.000
 15705,0.00013040,-0.00046219,0.00106955,-0.00053297,0.14104640,0.38316
 301,0.00237220,-0.00056324,0.00848111,0.17839425,1.74217944,-2.0828598
 3,-0.00024658,0.00058754,0.00166988,0.00261634,0.00246810,-0.00006195,
 -0.00470068,-0.01175553,0.00910045,0.00056617,0.00026596,0.00010041,-0
 .00271834,-0.00382831,0.00211344,-0.17577677,-1.72931565,2.06322308,-0
 .00048999,0.00032374,-0.00004030,-0.00039552,-0.00230893,0.00014695,0.
 00019711,-0.00005137,0.00002408,0.00010372,-0.00000445,0.00016722,-0.0
 0062390,0.00130128,-0.00174521,0.00010000,-0.00001642,-0.00000698,0.00
 017900,-0.00050746,0.00015554,0.00023784,0.00140054,-0.00050660,0.0006
 9173,0.00036907,-0.00018784,-0.00014343,-0.00238635,-0.00151454,-0.000
 23920,-0.00005705,0.00010720,0.00008865,0.00002398,-0.00000548,0.00013
 441,0.00084089,0.00035155,-0.00042403,0.00000392,0.00009427,0.00005041
 ,-0.00019999,0.00020284,0.00014918,0.00154247,0.00130711,-0.00003831,-
 0.00013693,-0.00035511,-0.00013066,-0.00025492,-0.00055793,0.00030838,
 -0.00004503,0.00213976,0.00003471,0.00010228,0.00011893,0.00011767,0.0
 0007218,0.00017668,-0.00089226,0.00066858,-0.00423051,-0.00004606,0.00
 000201,0.00000549,-0.00042779,-0.00059836,0.00060250,-0.00076928,-0.00
 036906,-0.00176659,0.00180528,0.00042233,0.00351166,-0.00986896,-0.012
 83080,-0.01599373,-0.00123574,0.00124424,-0.00436272,0.00211077,0.0023
 6086,-0.00129617,-0.00367374,-0.00059798,0.00157122,-0.00283701,-0.002
 00649,-0.00359546,0.00419202,0.00407268,0.00305085,-0.00151125,-0.0006
 2929,-0.00380190,0.00195142,0.00015945,0.00089932,-0.00034830,-0.00031
 455,-0.00035914,-0.00198474,-0.00037216,-0.00003276,0.00184588,-0.0001
 7439,-0.00006744,-0.00016614,-0.00264102,-0.00223206,0.00189278,0.0030
 9056,0.00013024,-0.00063892,-0.00050958,-0.00048583,-0.00034698,-0.001
 54387,0.00230806,0.01649431,0.02266646,0.00963891,-0.00088395,0.003001
 45,-0.00280630,-0.00107608,-0.00170683,-0.00082405,0.18986740,0.038138
 49,0.02901279,0.02480796,0.00128303,0.00236484,-0.00522935,-0.00328771
 ,-0.00266611,-0.00156374,0.27361341,-1.37663141,-0.01901619,-0.0112866
 9,-0.02908618,0.00039661,-0.00119664,0.00107476,0.00210612,0.00212868,
 0.00160252,3.27407838,0.53698243,5.21011392,0.00014356,-0.00041522,-0.
 00014104,0.00178005,0.00009737,0.00024739,-0.00022930,0.00036006,0.000
 03991,-0.00223855,0.00064861,-0.00094838,-0.00119459,0.00047951,0.0007
 0223,0.00081720,0.00032887,0.00194665,0.00005578,0.00032358,0.00003741
 ,-0.00028104,-0.00138015,-0.00283616,-0.00233075,-0.00039465,-0.002504
 63,-0.00180198,-0.00127097,-0.00132635,-0.00019430,-0.00048424,0.00203
 316,0.00009691,-0.00021209,0.00008549,0.00281263,0.00241180,-0.0002431
 3,0.00107413,0.00139869,-0.00132976,-0.01013245,-0.01193316,-0.0079366
 3,0.00165190,-0.00027381,-0.00021283,0.00132913,0.00460217,-0.00021714
 ,-0.20329039,-0.31038483,-3.25641375,0.00135490,0.00035191,-0.00112391
 ,0.20959309,-0.02484035,-0.01490955,-0.02524679,-0.00158194,-0.0008381
 9,0.00149720,0.00586804,0.00486669,0.00054585,-0.29696066,1.34906589,-
 0.52521459,-0.00068909,0.00107615,-0.00071624,0.31816128,-1.33860983,0
 .01596595,0.00486079,0.03097901,0.00220513,0.00454607,-0.00131026,-0.0
 0256259,-0.00240908,-0.00374709,-3.28127046,-0.55652492,-5.18250949,0.
 00080475,0.00171293,0.00026304,3.26513761,0.54860696,5.15593222,-0.000
 11331,-0.00015844,0.00031684,-0.00042031,-0.00028044,-0.00018134,0.000
 07560,0.00016203,0.00003952,0.00056078,0.00013787,0.00057150,0.0000879
 7,0.00027554,-0.00030786,-0.00019653,0.00012576,-0.00060770,0.00012623
 ,-0.00014129,-0.00032040,0.00004160,-0.00064533,-0.00093747,0.00003014
 ,0.00011948,0.00002736,0.00009754,0.00107917,0.00098475,0.00107094,0.0
 0046133,0.00108750,-0.00098602,-0.00054438,-0.00020405,-0.00095906,-0.
 00024728,-0.00045840,0.00028355,0.00000308,0.00054035,0.00049868,0.000
 87209,-0.00055395,0.00011703,0.00019938,-0.00015845,-0.00116458,-0.001
 12153,-0.00044614,-0.00066728,-0.00143944,0.00107002,0.00063306,0.0006
 0464,0.00032211,0.00011549,0.00080708,-0.00092763,-0.00020048,0.000220
 26,0.00005246,-0.00001230,0.00032954,0.00018035,0.00016876,-0.00015208
 ,0.00008052,-0.00033288,-0.00018359,-0.00060646,0.00011958,-0.00019421
 ,-0.00001900,0.00014875,-0.00026006,0.00007019,-0.00003961,0.00007967,
 -0.00002456,0.00017242,0.00045243,0.00030560,-0.00024748,0.00020884,-0
 .00007422,-0.00001962,-0.00015180,0.00001459,0.00009336,-0.00037883,-0
 .00023085,-0.00032343,-0.00014984,0.00003148,0.00012835,-0.00018820,-0
 .00001789,0.00019595,0.00004285,-0.00001021,-0.00006334,0.00013282,-0.
 00001714,-0.00038078,-0.00079192,0.00018328,0.00040732,0.00025932,0.00
 011552,0.00007933,0.00009146,0.00027067,-0.00024202,0.00013594,-0.0007
 4361,-0.00011085,0.00001799,-0.00000230,-0.00006270,0.00002836,0.00012
 601,0.00005095,0.00003196,-0.00003594,0.00024859,0.00025904,0.00005503
 ,-0.00038485,-0.00006938,-0.00029797,-0.00020416,0.00004487,0.00045110
 ,0.00011351,-0.00007779,-0.00002564,0.00089939,0.00003472,-0.00016783,
 0.00017639,0.00020959,-0.00053660,-0.00045841,0.00017702,0.00025712,-0
 .00008081,-0.00016137,0.00020862,-0.00002425,0.00003171,0.00001015,-0.
 00003682,-0.00028786,-0.00033539,-0.00042565,0.00022652,-0.00036995,0.
 00038861,-0.00007549,0.00005232,0.00007093,0.00006599,0.00093629,0.000
 17007,0.00008144,0.00045935,-0.00026925,0.00020901,-0.00042922,-0.0000
 2964,-0.00005789,-0.00016908,0.00013804,0.00002764,-0.00000136,-0.0000
 3216,-0.00018936,-0.00014296,0.00010042,0.00007826,-0.00010846,0.00013
 287,-0.00002076,-0.00012235,-0.00003000,0.00006579,-0.00000562,-0.0002
 2250,0.00010142,0.00023738,-0.00029863,0.00004865,-0.00055019,0.000196
 29,-0.00010539,-0.00005555,0.00000258,-0.00013418,0.00018964,0.0000179
 1,-0.00002283,0.00003134,0.00010106,-0.00001096,0.00038382\\@
 The archive entry for this job was punched.


 ROSE IS A RED
 TY COBB IS BLUE
 'CAUSE PETE JUST HIT
 NO. 4592.
 Job cpu time:       1 days 20 hours 42 minutes 33.7 seconds.
 Elapsed time:       0 days  1 hours  8 minutes 20.6 seconds.
 File lengths (MBytes):  RWF=   2665 Int=      0 D2E=      0 Chk=     43 Scr=      1
 Normal termination of Gaussian 16 at Sat Mar 22 16:51:39 2025.
