 Entering Gaussian System, Link 0=g16
 Input=enoloneco2_mp2_avdz_opt_anharm.gjf
 Output=enoloneco2_mp2_avdz_opt_anharm.log
 Initial command:
 /sw/contrib/chem-src/g16/c01/g16/l1.exe "/scr/Gau-36895.inp" -scrdir="/scr/"
 Entering Link 1 = /sw/contrib/chem-src/g16/c01/g16/l1.exe PID=     36896.
  
 Copyright (c) 1988-2019, Gaussian, Inc.  All Rights Reserved.
  
 This is part of the Gaussian(R) 16 program.  It is based on
 the Gaussian(R) 09 system (copyright 2009, Gaussian, Inc.),
 the Gaussian(R) 03 system (copyright 2003, Gaussian, Inc.),
 the Gaussian(R) 98 system (copyright 1998, Gaussian, Inc.),
 the Gaussian(R) 94 system (copyright 1995, Gaussian, Inc.),
 the Gaussian 92(TM) system (copyright 1992, Gaussian, Inc.),
 the Gaussian 90(TM) system (copyright 1990, Gaussian, Inc.),
 the Gaussian 88(TM) system (copyright 1988, Gaussian, Inc.),
 the Gaussian 86(TM) system (copyright 1986, Carnegie Mellon
 University), and the Gaussian 82(TM) system (copyright 1983,
 Carnegie Mellon University). Gaussian is a federally registered
 trademark of Gaussian, Inc.
  
 This software contains proprietary and confidential information,
 including trade secrets, belonging to Gaussian, Inc.
  
 This software is provided under written license and may be
 used, copied, transmitted, or stored only in accord with that
 written license.
  
 The following legend is applicable only to US Government
 contracts under FAR:
  
                    RESTRICTED RIGHTS LEGEND
  
 Use, reproduction and disclosure by the US Government is
 subject to restrictions as set forth in subparagraphs (a)
 and (c) of the Commercial Computer Software - Restricted
 Rights clause in FAR 52.227-19.
  
 Gaussian, Inc.
 340 Quinnipiac St., Bldg. 40, Wallingford CT 06492
  
  
 ---------------------------------------------------------------
 Warning -- This program may not be used in any manner that
 competes with the business of Gaussian, Inc. or will provide
 assistance to any competitor of Gaussian, Inc.  The licensee
 of this program is prohibited from giving any competitor of
 Gaussian, Inc. access to this program.  By using this program,
 the user acknowledges that Gaussian, Inc. is engaged in the
 business of creating and licensing software in the field of
 computational chemistry and represents and warrants to the
 licensee that it is not a competitor of Gaussian, Inc. and that
 it will not use this program in any manner prohibited above.
 ---------------------------------------------------------------
  

 Cite this work as:
 Gaussian 16, Revision C.01,
 M. J. Frisch, G. W. Trucks, H. B. Schlegel, G. E. Scuseria, 
 M. A. Robb, J. R. Cheeseman, G. Scalmani, V. Barone, 
 G. A. Petersson, H. Nakatsuji, X. Li, M. Caricato, A. V. Marenich, 
 J. Bloino, B. G. Janesko, R. Gomperts, B. Mennucci, H. P. Hratchian, 
 J. V. Ortiz, A. F. Izmaylov, J. L. Sonnenberg, D. Williams-Young, 
 F. Ding, F. Lipparini, F. Egidi, J. Goings, B. Peng, A. Petrone, 
 T. Henderson, D. Ranasinghe, V. G. Zakrzewski, J. Gao, N. Rega, 
 G. Zheng, W. Liang, M. Hada, M. Ehara, K. Toyota, R. Fukuda, 
 J. Hasegawa, M. Ishida, T. Nakajima, Y. Honda, O. Kitao, H. Nakai, 
 T. Vreven, K. Throssell, J. A. Montgomery, Jr., J. E. Peralta, 
 F. Ogliaro, M. J. Bearpark, J. J. Heyd, E. N. Brothers, K. N. Kudin, 
 V. N. Staroverov, T. A. Keith, R. Kobayashi, J. Normand, 
 K. Raghavachari, A. P. Rendell, J. C. Burant, S. S. Iyengar, 
 J. Tomasi, M. Cossi, J. M. Millam, M. Klene, C. Adamo, R. Cammi, 
 J. W. Ochterski, R. L. Martin, K. Morokuma, O. Farkas, 
 J. B. Foresman, and D. J. Fox, Gaussian, Inc., Wallingford CT, 2019.
 
 ******************************************
 Gaussian 16:  EM64L-G16RevC.01  3-Jul-2019
                22-Mar-2025 
 ******************************************
 %nprocshared=40
 Will use up to   40 processors via shared memory.
 %mem=50gb
 ----------------------------------------------
 # MP2/aug-cc-pVDZ opt freq=(vibrot,anharmonic)
 ----------------------------------------------
 1/18=20,19=15,38=1,80=1/1,3;
 2/9=110,12=2,17=6,18=5,40=1/2;
 3/5=16,7=10,11=9,25=1,30=1,71=1/1,2,3;
 4//1;
 5/5=2,38=5/2;
 8/6=4,10=1/1;
 9/15=2,16=-3/6;
 10/5=1/2;
 6/7=2,8=2,9=2,10=2/1;
 7/12=2/1,2,3,16;
 1/18=20,19=15,80=1/3(2);
 2/9=110/2;
 99//99;
 2/9=110/2;
 3/5=16,7=10,11=9,25=1,30=1,71=1/1,2,3;
 4/5=5,16=3,69=1/1;
 5/5=2,38=5/2;
 8/6=4,10=1/1;
 9/15=2,16=-3/6;
 10/5=1/2;
 7/12=2/1,2,3,16;
 1/18=20,19=15,80=1/3(-8);
 2/9=110/2;
 6/7=2,8=2,9=2,10=2/1;
 99/9=10/99;
 ----
 blah
 ----
 Symbolic Z-matrix:
 Charge =  0 Multiplicity = 1
 C                    -0.28777   0.93803   0.09603 
 C                    -1.00315   0.48287  -0.93459 
 H                     0.0188    0.30204   0.91785 
 O                     0.12744   2.2336    0.22243 
 C                    -1.41164   1.36307  -2.04461 
 H                     0.62995   2.31841   1.05397 
 O                    -2.06885   0.92905  -2.98409 
 H                    -1.31681  -0.55123  -1.00472 
 H                    -1.0978    2.4179   -1.98372 
 

 GradGradGradGradGradGradGradGradGradGradGradGradGradGradGradGradGradGrad
 Berny optimization.
 Initialization pass.
                           ----------------------------
                           !    Initial Parameters    !
                           ! (Angstroms and Degrees)  !
 --------------------------                            --------------------------
 ! Name  Definition              Value          Derivative Info.                !
 --------------------------------------------------------------------------------
 ! R1    R(1,2)                  1.3346         estimate D2E/DX2                !
 ! R2    R(1,3)                  1.0834         estimate D2E/DX2                !
 ! R3    R(1,4)                  1.3663         estimate D2E/DX2                !
 ! R4    R(2,5)                  1.4744         estimate D2E/DX2                !
 ! R5    R(2,8)                  1.0829         estimate D2E/DX2                !
 ! R6    R(4,6)                  0.9753         estimate D2E/DX2                !
 ! R7    R(5,7)                  1.2259         estimate D2E/DX2                !
 ! R8    R(5,9)                  1.1022         estimate D2E/DX2                !
 ! A1    A(2,1,3)              122.4954         estimate D2E/DX2                !
 ! A2    A(2,1,4)              123.8987         estimate D2E/DX2                !
 ! A3    A(3,1,4)              113.6059         estimate D2E/DX2                !
 ! A4    A(1,2,5)              121.7561         estimate D2E/DX2                !
 ! A5    A(1,2,8)              122.0706         estimate D2E/DX2                !
 ! A6    A(5,2,8)              116.1734         estimate D2E/DX2                !
 ! A7    A(1,4,6)              108.5368         estimate D2E/DX2                !
 ! A8    A(2,5,7)              120.9394         estimate D2E/DX2                !
 ! A9    A(2,5,9)              116.7984         estimate D2E/DX2                !
 ! A10   A(7,5,9)              122.2622         estimate D2E/DX2                !
 ! D1    D(3,1,2,5)            180.0            estimate D2E/DX2                !
 ! D2    D(3,1,2,8)              0.0002         estimate D2E/DX2                !
 ! D3    D(4,1,2,5)              0.0003         estimate D2E/DX2                !
 ! D4    D(4,1,2,8)           -179.9995         estimate D2E/DX2                !
 ! D5    D(2,1,4,6)            179.9965         estimate D2E/DX2                !
 ! D6    D(3,1,4,6)             -0.0032         estimate D2E/DX2                !
 ! D7    D(1,2,5,7)           -179.9977         estimate D2E/DX2                !
 ! D8    D(1,2,5,9)              0.0024         estimate D2E/DX2                !
 ! D9    D(8,2,5,7)              0.0021         estimate D2E/DX2                !
 ! D10   D(8,2,5,9)           -179.9978         estimate D2E/DX2                !
 --------------------------------------------------------------------------------
 Trust Radius=3.00D-01 FncErr=1.00D-07 GrdErr=1.00D-07 EigMax=2.50D+02 EigMin=1.00D-04
 Number of steps in this run=     38 maximum allowed number of steps=    100.
 GradGradGradGradGradGradGradGradGradGradGradGradGradGradGradGradGradGrad

                          Input orientation:                          
 ---------------------------------------------------------------------
 Center     Atomic      Atomic             Coordinates (Angstroms)
 Number     Number       Type             X           Y           Z
 ---------------------------------------------------------------------
      1          6           0       -0.287774    0.938032    0.096028
      2          6           0       -1.003149    0.482865   -0.934588
      3          1           0        0.018799    0.302038    0.917847
      4          8           0        0.127435    2.233596    0.222433
      5          6           0       -1.411641    1.363069   -2.044611
      6          1           0        0.629954    2.318406    1.053970
      7          8           0       -2.068853    0.929050   -2.984093
      8          1           0       -1.316806   -0.551225   -1.004723
      9          1           0       -1.097796    2.417901   -1.983717
 ---------------------------------------------------------------------
                    Distance matrix (angstroms):
                    1          2          3          4          5
     1  C    0.000000
     2  C    1.334581   0.000000
     3  H    1.083449   2.123345   0.000000
     4  O    1.366332   2.383690   2.055801   0.000000
     5  C    2.454805   1.474373   3.456603   2.875076   0.000000
     6  H    1.914500   3.160791   2.111345   0.975280   3.831707
     7  O    3.558014   2.352717   4.469516   4.099674   1.225939
     8  H    2.118595   1.082887   2.491621   3.368528   2.180570
     9  H    2.677963   2.203178   3.760683   2.530268   1.102215
                    6          7          8          9
     6  H    0.000000
     7  O    5.051714   0.000000
     8  H    4.032725   2.583543   0.000000
     9  H    3.496078   2.039701   3.134024   0.000000
 Stoichiometry    C3H4O2
 Framework group  C1[X(C3H4O2)]
 Deg. of freedom    21
 Full point group                 C1      NOp   1
 Largest Abelian subgroup         C1      NOp   1
 Largest concise Abelian subgroup C1      NOp   1
                         Standard orientation:                         
 ---------------------------------------------------------------------
 Center     Atomic      Atomic             Coordinates (Angstroms)
 Number     Number       Type             X           Y           Z
 ---------------------------------------------------------------------
      1          6           0        1.214429    0.551265    0.000002
      2          6           0       -0.104630    0.754219    0.000009
      3          1           0        1.928691    1.365939   -0.000005
      4          8           0        1.795141   -0.685520   -0.000002
      5          6           0       -1.062220   -0.366850    0.000018
      6          1           0        2.763928   -0.573173   -0.000063
      7          8           0       -2.271120   -0.163166   -0.000019
      8          1           0       -0.533368    1.748617    0.000004
      9          1           0       -0.636897   -1.383697    0.000060
 ---------------------------------------------------------------------
 Rotational constants (GHZ):          18.5613175           2.8488710           2.4697961
 Standard basis: Aug-CC-pVDZ (5D, 7F)
 There are   161 symmetry adapted cartesian basis functions of A   symmetry.
 There are   151 symmetry adapted basis functions of A   symmetry.
   151 basis functions,   259 primitive gaussians,   161 cartesian basis functions
    19 alpha electrons       19 beta electrons
       nuclear repulsion energy       156.0666674722 Hartrees.
 NAtoms=    9 NActive=    9 NUniq=    9 SFac= 1.00D+00 NAtFMM=   60 NAOKFM=F Big=F
 Integral buffers will be    131072 words long.
 Raffenetti 1 integral format.
 Two-electron integral symmetry is turned on.
 One-electron integrals computed using PRISM.
 NBasis=   151 RedAO= T EigKep=  3.31D-05  NBF=   151
 NBsUse=   151 1.00D-06 EigRej= -1.00D+00 NBFU=   151
 ExpMin= 2.97D-02 ExpMax= 1.17D+04 ExpMxC= 4.01D+02 IAcc=3 IRadAn=         5 AccDes= 0.00D+00
 Harris functional with IExCor=  205 and IRadAn=       5 diagonalized for initial guess.
 HarFok:  IExCor=  205 AccDes= 0.00D+00 IRadAn=         5 IDoV= 1 UseB2=F ITyADJ=14
 ICtDFT=  3500011 ScaDFX=  1.000000  1.000000  1.000000  1.000000
 FoFCou: FMM=F IPFlag=           0 FMFlag=      100000 FMFlg1=           0
         NFxFlg=           0 DoJE=T BraDBF=F KetDBF=T FulRan=T
         wScrn=  0.000000 ICntrl=       500 IOpCl=  0 I1Cent=   200000004 NGrid=           0
         NMat0=    1 NMatS0=      1 NMatT0=    0 NMatD0=    1 NMtDS0=    0 NMtDT0=    0
 Petite list used in FoFCou.
 Keep R1 ints in memory in canonical form, NReq=74565642.
 Requested convergence on RMS density matrix=1.00D-08 within 128 cycles.
 Requested convergence on MAX density matrix=1.00D-06.
 Requested convergence on             energy=1.00D-06.
 No special actions if energy rises.
 SCF Done:  E(RHF) =  -265.661523706     A.U. after   14 cycles
            NFock= 14  Conv=0.88D-08     -V/T= 2.0016
 ExpMin= 2.97D-02 ExpMax= 1.17D+04 ExpMxC= 4.01D+02 IAcc=3 IRadAn=         5 AccDes= 0.00D+00
 HarFok:  IExCor=  205 AccDes= 0.00D+00 IRadAn=         5 IDoV=-2 UseB2=F ITyADJ=14
 ICtDFT= 12500011 ScaDFX=  1.000000  1.000000  1.000000  1.000000
 Range of M.O.s used for correlation:     6   151
 NBasis=   151 NAE=    19 NBE=    19 NFC=     5 NFV=     0
 NROrb=    146 NOA=    14 NOB=    14 NVA=   132 NVB=   132

 **** Warning!!: The largest alpha MO coefficient is  0.42451254D+02

 Fully direct method using O(ONN) memory.
 JobTyp=1 Pass  1:  I=   6 to  19 NPSUse= 40 ParTrn=T ParDer=T DoDerP=T.
 Spin components of T(2) and E(2):
     alpha-alpha T2 =       0.3389118047D-01 E2=     -0.1039761725D+00
     alpha-beta  T2 =       0.1894083185D+00 E2=     -0.5891052910D+00
     beta-beta   T2 =       0.3389118047D-01 E2=     -0.1039761725D+00
 ANorm=    0.1121245147D+01
 E2 =    -0.7970576360D+00 EUMP2 =    -0.26645858134171D+03
          IDoAtm=111111111
          Differentiating once with respect to electric field.
                with respect to dipole field.
          Differentiating once with respect to nuclear coordinates.
 Keep R1 ints in memory in canonical form, NReq=74573376.
          There are     1 degrees of freedom in the 1st order CPHF.  IDoFFX=0 NUNeed=     1.
 LinEq1:  Iter=  0 NonCon=     1 RMS=5.43D-03 Max=1.16D-01 NDo=     1
 AX will form     1 AO Fock derivatives at one time.
 LinEq1:  Iter=  1 NonCon=     1 RMS=1.67D-03 Max=1.93D-02 NDo=     1
 LinEq1:  Iter=  2 NonCon=     1 RMS=5.78D-04 Max=8.91D-03 NDo=     1
 LinEq1:  Iter=  3 NonCon=     1 RMS=1.93D-04 Max=2.73D-03 NDo=     1
 LinEq1:  Iter=  4 NonCon=     1 RMS=6.93D-05 Max=9.46D-04 NDo=     1
 LinEq1:  Iter=  5 NonCon=     1 RMS=2.56D-05 Max=2.97D-04 NDo=     1
 LinEq1:  Iter=  6 NonCon=     1 RMS=8.42D-06 Max=1.49D-04 NDo=     1
 LinEq1:  Iter=  7 NonCon=     1 RMS=2.39D-06 Max=3.80D-05 NDo=     1
 LinEq1:  Iter=  8 NonCon=     1 RMS=1.05D-06 Max=2.89D-05 NDo=     1
 LinEq1:  Iter=  9 NonCon=     1 RMS=2.59D-07 Max=2.37D-06 NDo=     1
 LinEq1:  Iter= 10 NonCon=     1 RMS=6.06D-08 Max=7.41D-07 NDo=     1
 LinEq1:  Iter= 11 NonCon=     1 RMS=1.29D-08 Max=1.91D-07 NDo=     1
 LinEq1:  Iter= 12 NonCon=     1 RMS=2.42D-09 Max=2.65D-08 NDo=     1
 LinEq1:  Iter= 13 NonCon=     1 RMS=5.81D-10 Max=5.38D-09 NDo=     1
 LinEq1:  Iter= 14 NonCon=     1 RMS=1.86D-10 Max=2.54D-09 NDo=     1
 LinEq1:  Iter= 15 NonCon=     0 RMS=3.64D-11 Max=3.35D-10 NDo=     1
 Linear equations converged to 1.000D-10 1.000D-09 after    15 iterations.
 End of Minotr F.D. properties file   721 does not exist.
 End of Minotr F.D. properties file   722 does not exist.
 End of Minotr F.D. properties file   788 does not exist.

 **********************************************************************

            Population analysis using the SCF Density.

 **********************************************************************

 Orbital symmetries:
       Occupied  (A) (A) (A) (A) (A) (A) (A) (A) (A) (A) (A) (A)
                 (A) (A) (A) (A) (A) (A) (A)
       Virtual   (A) (A) (A) (A) (A) (A) (A) (A) (A) (A) (A) (A)
                 (A) (A) (A) (A) (A) (A) (A) (A) (A) (A) (A) (A)
                 (A) (A) (A) (A) (A) (A) (A) (A) (A) (A) (A) (A)
                 (A) (A) (A) (A) (A) (A) (A) (A) (A) (A) (A) (A)
                 (A) (A) (A) (A) (A) (A) (A) (A) (A) (A) (A) (A)
                 (A) (A) (A) (A) (A) (A) (A) (A) (A) (A) (A) (A)
                 (A) (A) (A) (A) (A) (A) (A) (A) (A) (A) (A) (A)
                 (A) (A) (A) (A) (A) (A) (A) (A) (A) (A) (A) (A)
                 (A) (A) (A) (A) (A) (A) (A) (A) (A) (A) (A) (A)
                 (A) (A) (A) (A) (A) (A) (A) (A) (A) (A) (A) (A)
                 (A) (A) (A) (A) (A) (A) (A) (A) (A) (A) (A) (A)
 The electronic state is 1-A.
 Alpha  occ. eigenvalues --  -20.63560 -20.55526 -11.34503 -11.33567 -11.24495
 Alpha  occ. eigenvalues --   -1.43836  -1.37622  -1.07708  -0.88596  -0.79760
 Alpha  occ. eigenvalues --   -0.75183  -0.69298  -0.62395  -0.61061  -0.59255
 Alpha  occ. eigenvalues --   -0.56791  -0.52394  -0.42005  -0.37101
 Alpha virt. eigenvalues --    0.01875   0.04101   0.05151   0.06685   0.07951
 Alpha virt. eigenvalues --    0.09609   0.10997   0.11717   0.12977   0.13794
 Alpha virt. eigenvalues --    0.14551   0.15276   0.15911   0.17177   0.18213
 Alpha virt. eigenvalues --    0.20400   0.21715   0.23710   0.24215   0.25330
 Alpha virt. eigenvalues --    0.28153   0.29373   0.30285   0.30795   0.32837
 Alpha virt. eigenvalues --    0.35134   0.35764   0.36677   0.37353   0.38581
 Alpha virt. eigenvalues --    0.40438   0.41699   0.42001   0.46678   0.46891
 Alpha virt. eigenvalues --    0.47817   0.49207   0.52339   0.54012   0.55841
 Alpha virt. eigenvalues --    0.57404   0.58212   0.60300   0.62506   0.63025
 Alpha virt. eigenvalues --    0.63633   0.64760   0.66074   0.67482   0.69538
 Alpha virt. eigenvalues --    0.70221   0.73116   0.77844   0.79321   0.79746
 Alpha virt. eigenvalues --    0.81777   0.84823   0.86398   0.86414   0.89555
 Alpha virt. eigenvalues --    0.90689   0.95599   0.98379   1.02349   1.02634
 Alpha virt. eigenvalues --    1.07753   1.09233   1.14696   1.15568   1.18409
 Alpha virt. eigenvalues --    1.20223   1.26649   1.26965   1.29380   1.31021
 Alpha virt. eigenvalues --    1.36010   1.41739   1.47168   1.47237   1.48784
 Alpha virt. eigenvalues --    1.53854   1.57957   1.58163   1.61667   1.64310
 Alpha virt. eigenvalues --    1.69071   1.69126   1.73691   1.76490   1.79469
 Alpha virt. eigenvalues --    1.83777   1.84916   1.87838   1.92628   1.94963
 Alpha virt. eigenvalues --    1.99646   2.01827   2.05263   2.08517   2.09691
 Alpha virt. eigenvalues --    2.10514   2.15913   2.20102   2.22360   2.28069
 Alpha virt. eigenvalues --    2.33288   2.35064   2.36702   2.46647   2.47110
 Alpha virt. eigenvalues --    2.56079   2.59779   2.66656   2.72861   2.80598
 Alpha virt. eigenvalues --    2.91249   2.97942   3.06313   3.09646   3.21792
 Alpha virt. eigenvalues --    3.39296   3.63864   3.67030   3.71288   3.74839
 Alpha virt. eigenvalues --    3.77772   3.78518   3.82643   3.94494   4.01347
 Alpha virt. eigenvalues --    4.12056   4.31643
          Condensed to atoms (all electrons):
               1          2          3          4          5          6
     1  C    5.070286   0.137423  -0.129701  -0.016819  -0.059746   0.043828
     2  C    0.137423   5.153044   0.143155  -0.005222   0.171022  -0.076546
     3  H   -0.129701   0.143155   1.546877  -0.024827  -0.006953  -0.098203
     4  O   -0.016819  -0.005222  -0.024827   8.446873  -0.023226   0.357086
     5  C   -0.059746   0.171022  -0.006953  -0.023226   4.786852   0.010065
     6  H    0.043828  -0.076546  -0.098203   0.357086   0.010065   0.537550
     7  O   -0.006977  -0.049595   0.000479  -0.000221   0.282160   0.000065
     8  H    0.002097   0.124325  -0.089399   0.019726  -0.157599   0.001237
     9  H   -0.079383   0.036358   0.006043  -0.008126   0.288975  -0.002624
               7          8          9
     1  C   -0.006977   0.002097  -0.079383
     2  C   -0.049595   0.124325   0.036358
     3  H    0.000479  -0.089399   0.006043
     4  O   -0.000221   0.019726  -0.008126
     5  C    0.282160  -0.157599   0.288975
     6  H    0.000065   0.001237  -0.002624
     7  O    8.540029   0.015078  -0.058775
     8  H    0.015078   1.466078   0.022384
     9  H   -0.058775   0.022384   0.917280
 Mulliken charges:
               1
     1  C    1.038992
     2  C    0.366036
     3  H   -0.347470
     4  O   -0.745244
     5  C    0.708449
     6  H    0.227540
     7  O   -0.722244
     8  H   -0.403928
     9  H   -0.122133
 Sum of Mulliken charges =  -0.00000
 Mulliken charges with hydrogens summed into heavy atoms:
               1
     1  C    0.691523
     2  C   -0.037891
     4  O   -0.517703
     5  C    0.586316
     7  O   -0.722244
 Electronic spatial extent (au):  <R**2>=            465.4280
 Charge=             -0.0000 electrons
 Dipole moment (field-independent basis, Debye):
    X=              5.7847    Y=              0.9409    Z=             -0.0000  Tot=              5.8607
 Quadrupole moment (field-independent basis, Debye-Ang):
   XX=            -29.7627   YY=            -27.6478   ZZ=            -30.8347
   XY=              1.1396   XZ=             -0.0005   YZ=              0.0000
 Traceless Quadrupole moment (field-independent basis, Debye-Ang):
   XX=             -0.3476   YY=              1.7673   ZZ=             -1.4197
   XY=              1.1396   XZ=             -0.0005   YZ=              0.0000
 Octapole moment (field-independent basis, Debye-Ang**2):
  XXX=             63.5646  YYY=             -0.7333  ZZZ=             -0.0002  XYY=              0.7653
  XXY=              1.2482  XXZ=             -0.0008  XZZ=             -0.5508  YZZ=             -2.5304
  YYZ=             -0.0000  XYZ=              0.0002
 Hexadecapole moment (field-independent basis, Debye-Ang**3):
 XXXX=           -392.4767 YYYY=            -97.2352 ZZZZ=            -31.8056 XXXY=            -16.9985
 XXXZ=             -0.0039 YYYX=             -2.1325 YYYZ=             -0.0001 ZZZX=             -0.0002
 ZZZY=             -0.0000 XXYY=            -86.0896 XXZZ=            -78.3144 YYZZ=            -24.9846
 XXYZ=              0.0006 YYXZ=             -0.0003 ZZXY=             -1.2377
 N-N= 1.560666674722D+02 E-N=-9.369881974527D+02  KE= 2.652249291739D+02
 Calling FoFJK, ICntrl=  10002127 FMM=F ISym2X=0 I1Cent= 0 IOpClX= 0 NMat=1 NMatS=1 NMatT=0.
 ***** Axes restored to original set *****
 -------------------------------------------------------------------
 Center     Atomic                   Forces (Hartrees/Bohr)
 Number     Number              X              Y              Z
 -------------------------------------------------------------------
      1        6           0.013851574    0.004165363    0.022083235
      2        6          -0.010692101    0.007675460   -0.022027912
      3        1           0.000648595   -0.008714357    0.005109588
      4        8           0.003960036    0.006309832    0.003972466
      5        6           0.003416079   -0.010003052    0.010491886
      6        1          -0.004866879   -0.000301267   -0.008292468
      7        8          -0.007408538    0.001063606   -0.013315871
      8        1           0.000311682   -0.006334628    0.003437169
      9        1           0.000779554    0.006139044   -0.001458093
 -------------------------------------------------------------------
 Cartesian Forces:  Max     0.022083235 RMS     0.008963375

 GradGradGradGradGradGradGradGradGradGradGradGradGradGradGradGradGradGrad
 Berny optimization.
 FormGI is forming the generalized inverse of G from B-inverse, IUseBI=4.
 Internal  Forces:  Max     0.025447507 RMS     0.007193671
 Search for a local minimum.
 Step number   1 out of a maximum of   38
 All quantities printed in internal units (Hartrees-Bohrs-Radians)
 Mixed Optimization -- RFO/linear search
 Second derivative matrix not updated -- first step.
 ITU=  0
     Eigenvalues ---    0.01105   0.01105   0.02083   0.02137   0.02711
     Eigenvalues ---    0.02954   0.16000   0.16000   0.16000   0.16000
     Eigenvalues ---    0.22000   0.22000   0.22000   0.33438   0.35222
     Eigenvalues ---    0.35581   0.35648   0.51688   0.52312   0.58437
     Eigenvalues ---    0.92800
 RFO step:  Lambda=-3.61882629D-03 EMin= 1.10494785D-02
 Linear search not attempted -- first point.
 Iteration  1 RMS(Cart)=  0.02822525 RMS(Int)=  0.00032667
 Iteration  2 RMS(Cart)=  0.00042549 RMS(Int)=  0.00000007
 Iteration  3 RMS(Cart)=  0.00000006 RMS(Int)=  0.00000005
 Variable       Old X    -DE/DX   Delta X   Delta X   Delta X     New X
                                 (Linear)    (Quad)   (Total)
    R1        2.52199   0.02545   0.00000   0.04328   0.04328   2.56527
    R2        2.04742   0.00917   0.00000   0.02553   0.02553   2.07295
    R3        2.58199   0.00502   0.00000   0.00965   0.00965   2.59164
    R4        2.78616   0.00244   0.00000   0.00686   0.00686   2.79302
    R5        2.04636   0.00574   0.00000   0.01593   0.01593   2.06229
    R6        1.84301  -0.00960   0.00000  -0.01823  -0.01823   1.82478
    R7        2.31669   0.01380   0.00000   0.01481   0.01481   2.33150
    R8        2.08288   0.00602   0.00000   0.01780   0.01780   2.10068
    A1        2.13795  -0.00076   0.00000  -0.01057  -0.01057   2.12738
    A2        2.16244  -0.00724   0.00000  -0.03239  -0.03239   2.13005
    A3        1.98280   0.00800   0.00000   0.04295   0.04295   2.02575
    A4        2.12504   0.00599   0.00000   0.02676   0.02676   2.15181
    A5        2.13053  -0.00747   0.00000  -0.04074  -0.04074   2.08980
    A6        2.02761   0.00148   0.00000   0.01397   0.01397   2.04158
    A7        1.89432   0.00101   0.00000   0.00620   0.00620   1.90052
    A8        2.11079   0.00869   0.00000   0.03886   0.03886   2.14965
    A9        2.03852  -0.00220   0.00000  -0.00635  -0.00635   2.03217
   A10        2.13388  -0.00648   0.00000  -0.03251  -0.03251   2.10137
    D1        3.14159   0.00000   0.00000   0.00000   0.00000  -3.14159
    D2        0.00000  -0.00000   0.00000  -0.00000  -0.00000   0.00000
    D3        0.00000  -0.00000   0.00000  -0.00002  -0.00002  -0.00001
    D4       -3.14158  -0.00000   0.00000  -0.00002  -0.00002   3.14158
    D5        3.14153   0.00000   0.00000   0.00003   0.00003   3.14156
    D6       -0.00006   0.00000   0.00000   0.00001   0.00001  -0.00005
    D7       -3.14155  -0.00000   0.00000  -0.00002  -0.00002  -3.14157
    D8        0.00004  -0.00000   0.00000  -0.00002  -0.00002   0.00003
    D9        0.00004  -0.00000   0.00000  -0.00002  -0.00002   0.00002
   D10       -3.14155  -0.00000   0.00000  -0.00001  -0.00001  -3.14157
         Item               Value     Threshold  Converged?
 Maximum Force            0.025448     0.000450     NO 
 RMS     Force            0.007194     0.000300     NO 
 Maximum Displacement     0.071109     0.001800     NO 
 RMS     Displacement     0.028157     0.001200     NO 
 Predicted change in Energy=-1.831140D-03
 GradGradGradGradGradGradGradGradGradGradGradGradGradGradGradGradGradGrad

                          Input orientation:                          
 ---------------------------------------------------------------------
 Center     Atomic      Atomic             Coordinates (Angstroms)
 Number     Number       Type             X           Y           Z
 ---------------------------------------------------------------------
      1          6           0       -0.275881    0.930788    0.119958
      2          6           0       -1.003304    0.487707   -0.937064
      3          1           0        0.021136    0.264409    0.939126
      4          8           0        0.130915    2.236098    0.227308
      5          6           0       -1.420077    1.357773   -2.056789
      6          1           0        0.631571    2.341209    1.046295
      7          8           0       -2.081266    0.952628   -3.016421
      8          1           0       -1.307127   -0.559402   -0.984228
      9          1           0       -1.105798    2.422523   -1.999637
 ---------------------------------------------------------------------
                    Distance matrix (angstroms):
                    1          2          3          4          5
     1  C    0.000000
     2  C    1.357484   0.000000
     3  H    1.096957   2.149285   0.000000
     4  O    1.371438   2.387276   2.099118   0.000000
     5  C    2.495943   1.478005   3.499721   2.897262   0.000000
     6  H    1.915948   3.168911   2.167306   0.965632   3.847796
     7  O    3.618946   2.387861   4.532118   4.130716   1.233778
     8  H    2.122113   1.091316   2.478354   3.369066   2.199706
     9  H    2.721529   2.209769   3.816250   2.554114   1.111634
                    6          7          8          9
     6  H    0.000000
     7  O    5.078711   0.000000
     8  H    4.036721   2.648648   0.000000
     9  H    3.507530   2.036168   3.156496   0.000000
 Stoichiometry    C3H4O2
 Framework group  C1[X(C3H4O2)]
 Deg. of freedom    21
 Full point group                 C1      NOp   1
 Largest Abelian subgroup         C1      NOp   1
 Largest concise Abelian subgroup C1      NOp   1
                         Standard orientation:                         
 ---------------------------------------------------------------------
 Center     Atomic      Atomic             Coordinates (Angstroms)
 Number     Number       Type             X           Y           Z
 ---------------------------------------------------------------------
      1          6           0        1.247969    0.555544   -0.000003
      2          6           0       -0.094849    0.754546    0.000005
      3          1           0        1.957757    1.391914   -0.000002
      4          8           0        1.797316   -0.701063    0.000003
      5          6           0       -1.078434   -0.348657    0.000005
      6          1           0        2.759671   -0.621577   -0.000036
      7          8           0       -2.298489   -0.165154   -0.000008
      8          1           0       -0.491391    1.771269    0.000010
      9          1           0       -0.664779   -1.380462    0.000023
 ---------------------------------------------------------------------
 Rotational constants (GHZ):          18.2511333           2.7923637           2.4218314
 Standard basis: Aug-CC-pVDZ (5D, 7F)
 There are   161 symmetry adapted cartesian basis functions of A   symmetry.
 There are   151 symmetry adapted basis functions of A   symmetry.
   151 basis functions,   259 primitive gaussians,   161 cartesian basis functions
    19 alpha electrons       19 beta electrons
       nuclear repulsion energy       154.8039073283 Hartrees.
 NAtoms=    9 NActive=    9 NUniq=    9 SFac= 1.00D+00 NAtFMM=   60 NAOKFM=F Big=F
 Integral buffers will be    131072 words long.
 Raffenetti 1 integral format.
 Two-electron integral symmetry is turned on.
 One-electron integrals computed using PRISM.
 NBasis=   151 RedAO= T EigKep=  3.61D-05  NBF=   151
 NBsUse=   151 1.00D-06 EigRej= -1.00D+00 NBFU=   151
 Initial guess from the checkpoint file:  "/scr/Gau-36896.chk"
 B after Tr=     0.000000   -0.000000    0.000000
         Rot=    0.999995    0.000000   -0.000000    0.003268 Ang=   0.37 deg.
 ExpMin= 2.97D-02 ExpMax= 1.17D+04 ExpMxC= 4.01D+02 IAcc=3 IRadAn=         5 AccDes= 0.00D+00
 Harris functional with IExCor=  205 and IRadAn=       5 diagonalized for initial guess.
 HarFok:  IExCor=  205 AccDes= 0.00D+00 IRadAn=         5 IDoV= 1 UseB2=F ITyADJ=14
 ICtDFT=  3500011 ScaDFX=  1.000000  1.000000  1.000000  1.000000
 FoFCou: FMM=F IPFlag=           0 FMFlag=      100000 FMFlg1=           0
         NFxFlg=           0 DoJE=T BraDBF=F KetDBF=T FulRan=T
         wScrn=  0.000000 ICntrl=       500 IOpCl=  0 I1Cent=   200000004 NGrid=           0
         NMat0=    1 NMatS0=      1 NMatT0=    0 NMatD0=    1 NMtDS0=    0 NMtDT0=    0
 Petite list used in FoFCou.
 Keep R1 ints in memory in canonical form, NReq=74564862.
 Requested convergence on RMS density matrix=1.00D-08 within 128 cycles.
 Requested convergence on MAX density matrix=1.00D-06.
 Requested convergence on             energy=1.00D-06.
 No special actions if energy rises.
 SCF Done:  E(RHF) =  -265.660312772     A.U. after   12 cycles
            NFock= 12  Conv=0.51D-08     -V/T= 2.0023
 ExpMin= 2.97D-02 ExpMax= 1.17D+04 ExpMxC= 4.01D+02 IAcc=3 IRadAn=         5 AccDes= 0.00D+00
 HarFok:  IExCor=  205 AccDes= 0.00D+00 IRadAn=         5 IDoV=-2 UseB2=F ITyADJ=14
 ICtDFT= 12500011 ScaDFX=  1.000000  1.000000  1.000000  1.000000
 Range of M.O.s used for correlation:     6   151
 NBasis=   151 NAE=    19 NBE=    19 NFC=     5 NFV=     0
 NROrb=    146 NOA=    14 NOB=    14 NVA=   132 NVB=   132

 **** Warning!!: The largest alpha MO coefficient is  0.42891603D+02

 Fully direct method using O(ONN) memory.
 JobTyp=1 Pass  1:  I=   6 to  19 NPSUse= 40 ParTrn=T ParDer=T DoDerP=T.
 Spin components of T(2) and E(2):
     alpha-alpha T2 =       0.3428206415D-01 E2=     -0.1043039314D+00
     alpha-beta  T2 =       0.1919728157D+00 E2=     -0.5914666979D+00
     beta-beta   T2 =       0.3428206415D-01 E2=     -0.1043039314D+00
 ANorm=    0.1122736364D+01
 E2 =    -0.8000745608D+00 EUMP2 =    -0.26646038733297D+03
          IDoAtm=111111111
          Differentiating once with respect to electric field.
                with respect to dipole field.
          Differentiating once with respect to nuclear coordinates.
 Keep R1 ints in memory in canonical form, NReq=74572137.
          There are     1 degrees of freedom in the 1st order CPHF.  IDoFFX=0 NUNeed=     1.
 LinEq1:  Iter=  0 NonCon=     1 RMS=5.53D-03 Max=1.20D-01 NDo=     1
 AX will form     1 AO Fock derivatives at one time.
 LinEq1:  Iter=  1 NonCon=     1 RMS=1.72D-03 Max=2.05D-02 NDo=     1
 LinEq1:  Iter=  2 NonCon=     1 RMS=6.01D-04 Max=9.46D-03 NDo=     1
 LinEq1:  Iter=  3 NonCon=     1 RMS=2.09D-04 Max=3.15D-03 NDo=     1
 LinEq1:  Iter=  4 NonCon=     1 RMS=7.48D-05 Max=1.03D-03 NDo=     1
 LinEq1:  Iter=  5 NonCon=     1 RMS=2.85D-05 Max=3.09D-04 NDo=     1
 LinEq1:  Iter=  6 NonCon=     1 RMS=9.58D-06 Max=1.90D-04 NDo=     1
 LinEq1:  Iter=  7 NonCon=     1 RMS=2.57D-06 Max=3.68D-05 NDo=     1
 LinEq1:  Iter=  8 NonCon=     1 RMS=1.15D-06 Max=3.17D-05 NDo=     1
 LinEq1:  Iter=  9 NonCon=     1 RMS=2.91D-07 Max=2.48D-06 NDo=     1
 LinEq1:  Iter= 10 NonCon=     1 RMS=6.74D-08 Max=8.57D-07 NDo=     1
 LinEq1:  Iter= 11 NonCon=     1 RMS=1.43D-08 Max=2.07D-07 NDo=     1
 LinEq1:  Iter= 12 NonCon=     1 RMS=2.64D-09 Max=2.98D-08 NDo=     1
 LinEq1:  Iter= 13 NonCon=     1 RMS=5.28D-10 Max=3.92D-09 NDo=     1
 LinEq1:  Iter= 14 NonCon=     1 RMS=1.69D-10 Max=2.47D-09 NDo=     1
 LinEq1:  Iter= 15 NonCon=     0 RMS=3.98D-11 Max=3.26D-10 NDo=     1
 Linear equations converged to 1.000D-10 1.000D-09 after    15 iterations.
 End of Minotr F.D. properties file   721 does not exist.
 End of Minotr F.D. properties file   722 does not exist.
 End of Minotr F.D. properties file   788 does not exist.
 Calling FoFJK, ICntrl=  10002127 FMM=F ISym2X=0 I1Cent= 0 IOpClX= 0 NMat=1 NMatS=1 NMatT=0.
 ***** Axes restored to original set *****
 -------------------------------------------------------------------
 Center     Atomic                   Forces (Hartrees/Bohr)
 Number     Number              X              Y              Z
 -------------------------------------------------------------------
      1        6           0.001068457    0.000699723    0.001528201
      2        6          -0.002497553    0.003018934   -0.005705663
      3        1          -0.000714331    0.000103565   -0.001283729
      4        8          -0.000740448   -0.001647859   -0.000527268
      5        6           0.001812218   -0.000858094    0.003529661
      6        1           0.000308709    0.000285590    0.000403517
      7        8          -0.000291569   -0.000864188   -0.000109549
      8        1           0.000883415   -0.000893913    0.001939324
      9        1           0.000171101    0.000156241    0.000225505
 -------------------------------------------------------------------
 Cartesian Forces:  Max     0.005705663 RMS     0.001728745

 GradGradGradGradGradGradGradGradGradGradGradGradGradGradGradGradGradGrad
 Berny optimization.
 Using GEDIIS/GDIIS optimizer.
 FormGI is forming the generalized inverse of G from B-inverse, IUseBI=4.
 Internal  Forces:  Max     0.004160827 RMS     0.001134172
 Search for a local minimum.
 Step number   2 out of a maximum of   38
 All quantities printed in internal units (Hartrees-Bohrs-Radians)
 Mixed Optimization -- RFO/linear search
 Update second derivatives using D2CorX and points    1    2
 DE= -1.81D-03 DEPred=-1.83D-03 R= 9.86D-01
 TightC=F SS=  1.41D+00  RLast= 1.10D-01 DXNew= 5.0454D-01 3.2876D-01
 Trust test= 9.86D-01 RLast= 1.10D-01 DXMaxT set to 3.29D-01
 ITU=  1  0
 Use linear search instead of GDIIS.
     Eigenvalues ---    0.01105   0.01105   0.02054   0.02137   0.02702
     Eigenvalues ---    0.02954   0.14320   0.16000   0.16000   0.16123
     Eigenvalues ---    0.21874   0.22000   0.22972   0.33226   0.34849
     Eigenvalues ---    0.35606   0.37494   0.51787   0.52905   0.59776
     Eigenvalues ---    0.92516
 RFO step:  Lambda=-1.48233195D-04 EMin= 1.10494785D-02
 Quartic linear search produced a step of  0.01141.
 Iteration  1 RMS(Cart)=  0.00619531 RMS(Int)=  0.00004415
 Iteration  2 RMS(Cart)=  0.00004197 RMS(Int)=  0.00000001
 Iteration  3 RMS(Cart)=  0.00000000 RMS(Int)=  0.00000001
 Variable       Old X    -DE/DX   Delta X   Delta X   Delta X     New X
                                 (Linear)    (Quad)   (Total)
    R1        2.56527  -0.00013   0.00049   0.00104   0.00153   2.56680
    R2        2.07295  -0.00121   0.00029  -0.00270  -0.00241   2.07053
    R3        2.59164  -0.00143   0.00011  -0.00252  -0.00241   2.58923
    R4        2.79302  -0.00416   0.00008  -0.01174  -0.01166   2.78136
    R5        2.06229   0.00053   0.00018   0.00196   0.00215   2.06443
    R6        1.82478   0.00053  -0.00021   0.00050   0.00029   1.82507
    R7        2.33150   0.00053   0.00017   0.00100   0.00117   2.33267
    R8        2.10068   0.00021   0.00020   0.00116   0.00136   2.10204
    A1        2.12738  -0.00100  -0.00012  -0.00637  -0.00650   2.12089
    A2        2.13005   0.00027  -0.00037   0.00027  -0.00010   2.12995
    A3        2.02575   0.00073   0.00049   0.00610   0.00660   2.03235
    A4        2.15181   0.00026   0.00031   0.00197   0.00227   2.15408
    A5        2.08980  -0.00245  -0.00046  -0.01644  -0.01691   2.07289
    A6        2.04158   0.00219   0.00016   0.01448   0.01464   2.05622
    A7        1.90052   0.00043   0.00007   0.00289   0.00296   1.90348
    A8        2.14965  -0.00100   0.00044  -0.00345  -0.00300   2.14665
    A9        2.03217   0.00024  -0.00007   0.00048   0.00040   2.03257
   A10        2.10137   0.00076  -0.00037   0.00297   0.00260   2.10397
    D1       -3.14159  -0.00000   0.00000  -0.00001  -0.00000   3.14159
    D2        0.00000  -0.00000  -0.00000  -0.00000  -0.00000  -0.00000
    D3       -0.00001   0.00000  -0.00000   0.00001   0.00001  -0.00001
    D4        3.14158   0.00000  -0.00000   0.00001   0.00001   3.14159
    D5        3.14156   0.00000   0.00000   0.00000   0.00000   3.14156
    D6       -0.00005   0.00000   0.00000   0.00002   0.00002  -0.00003
    D7       -3.14157   0.00000  -0.00000   0.00000   0.00000  -3.14157
    D8        0.00003  -0.00000  -0.00000  -0.00003  -0.00003  -0.00000
    D9        0.00002  -0.00000  -0.00000  -0.00000  -0.00000   0.00002
   D10       -3.14157  -0.00000  -0.00000  -0.00003  -0.00003   3.14159
         Item               Value     Threshold  Converged?
 Maximum Force            0.004161     0.000450     NO 
 RMS     Force            0.001134     0.000300     NO 
 Maximum Displacement     0.018378     0.001800     NO 
 RMS     Displacement     0.006207     0.001200     NO 
 Predicted change in Energy=-7.426067D-05
 GradGradGradGradGradGradGradGradGradGradGradGradGradGradGradGradGradGrad

                          Input orientation:                          
 ---------------------------------------------------------------------
 Center     Atomic      Atomic             Coordinates (Angstroms)
 Number     Number       Type             X           Y           Z
 ---------------------------------------------------------------------
      1          6           0       -0.276723    0.932217    0.117839
      2          6           0       -1.004532    0.491884   -0.941106
      3          1           0        0.015413    0.259202    0.931608
      4          8           0        0.131105    2.235642    0.227845
      5          6           0       -1.419465    1.358478   -2.056067
      6          1           0        0.631930    2.341375    1.046830
      7          8           0       -2.081032    0.949890   -3.014777
      8          1           0       -1.301392   -0.558930   -0.974502
      9          1           0       -1.105135    2.423974   -1.999122
 ---------------------------------------------------------------------
                    Distance matrix (angstroms):
                    1          2          3          4          5
     1  C    0.000000
     2  C    1.358294   0.000000
     3  H    1.095680   2.145108   0.000000
     4  O    1.370161   2.386799   2.101186   0.000000
     5  C    2.492674   1.471833   3.491917   2.896539   0.000000
     6  H    1.916872   3.170254   2.174584   0.965785   3.847373
     7  O    3.615124   2.380910   4.521735   4.130533   1.234398
     8  H    2.113451   1.092452   2.456943   3.362635   2.204580
     9  H    2.719030   2.205105   3.811961   2.554044   1.112353
                    6          7          8          9
     6  H    0.000000
     7  O    5.078685   0.000000
     8  H    4.029303   2.654637   0.000000
     9  H    3.507426   2.038837   3.160076   0.000000
 Stoichiometry    C3H4O2
 Framework group  C1[X(C3H4O2)]
 Deg. of freedom    21
 Full point group                 C1      NOp   1
 Largest Abelian subgroup         C1      NOp   1
 Largest concise Abelian subgroup C1      NOp   1
                         Standard orientation:                         
 ---------------------------------------------------------------------
 Center     Atomic      Atomic             Coordinates (Angstroms)
 Number     Number       Type             X           Y           Z
 ---------------------------------------------------------------------
      1          6           0        1.245805    0.555116   -0.000001
      2          6           0       -0.098470    0.749765    0.000004
      3          1           0        1.946527    1.397436   -0.000008
      4          8           0        1.798690   -0.698543    0.000002
      5          6           0       -1.076786   -0.349866    0.000009
      6          1           0        2.761176   -0.618788   -0.000030
      7          8           0       -2.297095   -0.163896   -0.000008
      8          1           0       -0.481567    1.772842    0.000003
      9          1           0       -0.662191   -1.382067    0.000004
 ---------------------------------------------------------------------
 Rotational constants (GHZ):          18.3327644           2.7950094           2.4252555
 Standard basis: Aug-CC-pVDZ (5D, 7F)
 There are   161 symmetry adapted cartesian basis functions of A   symmetry.
 There are   151 symmetry adapted basis functions of A   symmetry.
   151 basis functions,   259 primitive gaussians,   161 cartesian basis functions
    19 alpha electrons       19 beta electrons
       nuclear repulsion energy       154.9158256003 Hartrees.
 NAtoms=    9 NActive=    9 NUniq=    9 SFac= 1.00D+00 NAtFMM=   60 NAOKFM=F Big=F
 Integral buffers will be    131072 words long.
 Raffenetti 1 integral format.
 Two-electron integral symmetry is turned on.
 One-electron integrals computed using PRISM.
 NBasis=   151 RedAO= T EigKep=  3.58D-05  NBF=   151
 NBsUse=   151 1.00D-06 EigRej= -1.00D+00 NBFU=   151
 Initial guess from the checkpoint file:  "/scr/Gau-36896.chk"
 B after Tr=     0.000000   -0.000000   -0.000000
         Rot=    1.000000   -0.000000   -0.000000   -0.000345 Ang=  -0.04 deg.
 Keep R1 ints in memory in canonical form, NReq=74564921.
 Requested convergence on RMS density matrix=1.00D-08 within 128 cycles.
 Requested convergence on MAX density matrix=1.00D-06.
 Requested convergence on             energy=1.00D-06.
 No special actions if energy rises.
 SCF Done:  E(RHF) =  -265.660364313     A.U. after   11 cycles
            NFock= 11  Conv=0.51D-08     -V/T= 2.0022
 ExpMin= 2.97D-02 ExpMax= 1.17D+04 ExpMxC= 4.01D+02 IAcc=3 IRadAn=         5 AccDes= 0.00D+00
 HarFok:  IExCor=  205 AccDes= 0.00D+00 IRadAn=         5 IDoV=-2 UseB2=F ITyADJ=14
 ICtDFT= 12500011 ScaDFX=  1.000000  1.000000  1.000000  1.000000
 Range of M.O.s used for correlation:     6   151
 NBasis=   151 NAE=    19 NBE=    19 NFC=     5 NFV=     0
 NROrb=    146 NOA=    14 NOB=    14 NVA=   132 NVB=   132

 **** Warning!!: The largest alpha MO coefficient is  0.42992855D+02

 Fully direct method using O(ONN) memory.
 JobTyp=1 Pass  1:  I=   6 to  19 NPSUse= 40 ParTrn=T ParDer=T DoDerP=T.
 Spin components of T(2) and E(2):
     alpha-alpha T2 =       0.3429051191D-01 E2=     -0.1043387212D+00
     alpha-beta  T2 =       0.1919436905D+00 E2=     -0.5914379216D+00
     beta-beta   T2 =       0.3429051191D-01 E2=     -0.1043387212D+00
 ANorm=    0.1122730918D+01
 E2 =    -0.8001153641D+00 EUMP2 =    -0.26646047967761D+03
          IDoAtm=111111111
          Differentiating once with respect to electric field.
                with respect to dipole field.
          Differentiating once with respect to nuclear coordinates.
 Keep R1 ints in memory in canonical form, NReq=74572255.
          There are     1 degrees of freedom in the 1st order CPHF.  IDoFFX=0 NUNeed=     1.
 LinEq1:  Iter=  0 NonCon=     1 RMS=5.54D-03 Max=1.20D-01 NDo=     1
 AX will form     1 AO Fock derivatives at one time.
 LinEq1:  Iter=  1 NonCon=     1 RMS=1.72D-03 Max=2.05D-02 NDo=     1
 LinEq1:  Iter=  2 NonCon=     1 RMS=6.03D-04 Max=9.55D-03 NDo=     1
 LinEq1:  Iter=  3 NonCon=     1 RMS=2.10D-04 Max=3.16D-03 NDo=     1
 LinEq1:  Iter=  4 NonCon=     1 RMS=7.53D-05 Max=1.03D-03 NDo=     1
 LinEq1:  Iter=  5 NonCon=     1 RMS=2.87D-05 Max=3.13D-04 NDo=     1
 LinEq1:  Iter=  6 NonCon=     1 RMS=9.73D-06 Max=1.96D-04 NDo=     1
 LinEq1:  Iter=  7 NonCon=     1 RMS=2.59D-06 Max=3.62D-05 NDo=     1
 LinEq1:  Iter=  8 NonCon=     1 RMS=1.16D-06 Max=3.17D-05 NDo=     1
 LinEq1:  Iter=  9 NonCon=     1 RMS=2.93D-07 Max=2.46D-06 NDo=     1
 LinEq1:  Iter= 10 NonCon=     1 RMS=6.79D-08 Max=8.59D-07 NDo=     1
 LinEq1:  Iter= 11 NonCon=     1 RMS=1.44D-08 Max=2.08D-07 NDo=     1
 LinEq1:  Iter= 12 NonCon=     1 RMS=2.67D-09 Max=2.98D-08 NDo=     1
 LinEq1:  Iter= 13 NonCon=     1 RMS=5.51D-10 Max=4.24D-09 NDo=     1
 LinEq1:  Iter= 14 NonCon=     1 RMS=1.80D-10 Max=2.63D-09 NDo=     1
 LinEq1:  Iter= 15 NonCon=     0 RMS=4.08D-11 Max=3.49D-10 NDo=     1
 Linear equations converged to 1.000D-10 1.000D-09 after    15 iterations.
 End of Minotr F.D. properties file   721 does not exist.
 End of Minotr F.D. properties file   722 does not exist.
 End of Minotr F.D. properties file   788 does not exist.
 Calling FoFJK, ICntrl=  10002127 FMM=F ISym2X=0 I1Cent= 0 IOpClX= 0 NMat=1 NMatS=1 NMatT=0.
 ***** Axes restored to original set *****
 -------------------------------------------------------------------
 Center     Atomic                   Forces (Hartrees/Bohr)
 Number     Number              X              Y              Z
 -------------------------------------------------------------------
      1        6           0.000225396    0.000780997    0.000033192
      2        6          -0.000652737    0.000336297   -0.001285944
      3        1          -0.000106160    0.000187926   -0.000269570
      4        8          -0.000336611   -0.001088725   -0.000084654
      5        6           0.000536310   -0.000172607    0.001013157
      6        1           0.000225403    0.000098344    0.000344915
      7        8          -0.000210222   -0.000023763   -0.000355205
      8        1           0.000392301    0.000132505    0.000618694
      9        1          -0.000073680   -0.000250975   -0.000014585
 -------------------------------------------------------------------
 Cartesian Forces:  Max     0.001285944 RMS     0.000494296

 GradGradGradGradGradGradGradGradGradGradGradGradGradGradGradGradGradGrad
 Berny optimization.
 Using GEDIIS/GDIIS optimizer.
 FormGI is forming the generalized inverse of G from B-inverse, IUseBI=4.
 Internal  Forces:  Max     0.000954347 RMS     0.000374670
 Search for a local minimum.
 Step number   3 out of a maximum of   38
 All quantities printed in internal units (Hartrees-Bohrs-Radians)
 Mixed Optimization -- En-DIIS/RFO-DIIS
 Update second derivatives using D2CorX and points    1    2    3
 DE= -9.23D-05 DEPred=-7.43D-05 R= 1.24D+00
 TightC=F SS=  1.41D+00  RLast= 2.78D-02 DXNew= 5.5291D-01 8.3440D-02
 Trust test= 1.24D+00 RLast= 2.78D-02 DXMaxT set to 3.29D-01
 ITU=  1  1  0
 Use linear search instead of GDIIS.
     Eigenvalues ---    0.01105   0.01105   0.02038   0.02137   0.02699
     Eigenvalues ---    0.02954   0.10883   0.16000   0.16062   0.16169
     Eigenvalues ---    0.21797   0.22671   0.23302   0.33622   0.34602
     Eigenvalues ---    0.36029   0.36222   0.51321   0.52604   0.59699
     Eigenvalues ---    0.92324
 RFO step:  Lambda=-1.03452721D-05 EMin= 1.10494754D-02
 Quartic linear search produced a step of  0.31277.
 Iteration  1 RMS(Cart)=  0.00396304 RMS(Int)=  0.00001290
 Iteration  2 RMS(Cart)=  0.00001339 RMS(Int)=  0.00000000
 Iteration  3 RMS(Cart)=  0.00000000 RMS(Int)=  0.00000000
 Variable       Old X    -DE/DX   Delta X   Delta X   Delta X     New X
                                 (Linear)    (Quad)   (Total)
    R1        2.56680   0.00002   0.00048   0.00031   0.00078   2.56759
    R2        2.07053  -0.00034  -0.00075  -0.00029  -0.00105   2.06949
    R3        2.58923  -0.00095  -0.00075  -0.00168  -0.00244   2.58679
    R4        2.78136  -0.00082  -0.00365  -0.00009  -0.00374   2.77762
    R5        2.06443  -0.00025   0.00067  -0.00122  -0.00055   2.06389
    R6        1.82507   0.00042   0.00009   0.00071   0.00080   1.82587
    R7        2.33267   0.00040   0.00037   0.00049   0.00086   2.33353
    R8        2.10204  -0.00026   0.00042  -0.00109  -0.00067   2.10137
    A1        2.12089  -0.00034  -0.00203  -0.00067  -0.00270   2.11818
    A2        2.12995   0.00062  -0.00003   0.00325   0.00322   2.13317
    A3        2.03235  -0.00028   0.00206  -0.00258  -0.00052   2.03183
    A4        2.15408   0.00021   0.00071   0.00111   0.00182   2.15590
    A5        2.07289  -0.00083  -0.00529  -0.00297  -0.00826   2.06463
    A6        2.05622   0.00062   0.00458   0.00186   0.00644   2.06266
    A7        1.90348   0.00010   0.00093   0.00017   0.00109   1.90457
    A8        2.14665   0.00018  -0.00094   0.00241   0.00147   2.14811
    A9        2.03257  -0.00009   0.00013  -0.00073  -0.00060   2.03197
   A10        2.10397  -0.00009   0.00081  -0.00168  -0.00087   2.10310
    D1        3.14159  -0.00000  -0.00000   0.00000  -0.00000   3.14159
    D2       -0.00000  -0.00000  -0.00000  -0.00000  -0.00000  -0.00000
    D3       -0.00001  -0.00000   0.00000  -0.00001  -0.00001  -0.00001
    D4        3.14159  -0.00000   0.00000  -0.00001  -0.00001   3.14158
    D5        3.14156   0.00000   0.00000   0.00001   0.00001   3.14158
    D6       -0.00003   0.00000   0.00001   0.00001   0.00001  -0.00002
    D7       -3.14157  -0.00000   0.00000  -0.00012  -0.00012   3.14150
    D8       -0.00000   0.00000  -0.00001   0.00010   0.00010   0.00009
    D9        0.00002  -0.00000  -0.00000  -0.00011  -0.00011  -0.00010
   D10        3.14159   0.00000  -0.00001   0.00011   0.00010  -3.14150
         Item               Value     Threshold  Converged?
 Maximum Force            0.000954     0.000450     NO 
 RMS     Force            0.000375     0.000300     NO 
 Maximum Displacement     0.010692     0.001800     NO 
 RMS     Displacement     0.003964     0.001200     NO 
 Predicted change in Energy=-1.087370D-05
 GradGradGradGradGradGradGradGradGradGradGradGradGradGradGradGradGradGrad

                          Input orientation:                          
 ---------------------------------------------------------------------
 Center     Atomic      Atomic             Coordinates (Angstroms)
 Number     Number       Type             X           Y           Z
 ---------------------------------------------------------------------
      1          6           0       -0.277023    0.934167    0.116436
      2          6           0       -1.005062    0.494122   -0.943004
      3          1           0        0.013441    0.258970    0.928249
      4          8           0        0.132579    2.235323    0.230575
      5          6           0       -1.420465    1.357860   -2.057396
      6          1           0        0.633323    2.338791    1.050397
      7          8           0       -2.082188    0.949076   -3.016500
      8          1           0       -1.297818   -0.557755   -0.968844
      9          1           0       -1.106618    2.423179   -2.001366
 ---------------------------------------------------------------------
                    Distance matrix (angstroms):
                    1          2          3          4          5
     1  C    0.000000
     2  C    1.358709   0.000000
     3  H    1.095126   2.143416   0.000000
     4  O    1.368872   2.388158   2.099265   0.000000
     5  C    2.492492   1.469855   3.489659   2.901155   0.000000
     6  H    1.916764   3.171870   2.173667   0.966208   3.852096
     7  O    3.615816   2.380456   4.519840   4.135592   1.234853
     8  H    2.108480   1.092163   2.446509   3.359454   2.206710
     9  H    2.718542   2.202659   3.810640   2.559777   1.112000
                    6          7          8          9
     6  H    0.000000
     7  O    5.083793   0.000000
     8  H    4.024503   2.660577   0.000000
     9  H    3.513940   2.038434   3.160479   0.000000
 Stoichiometry    C3H4O2
 Framework group  C1[X(C3H4O2)]
 Deg. of freedom    21
 Full point group                 C1      NOp   1
 Largest Abelian subgroup         C1      NOp   1
 Largest concise Abelian subgroup C1      NOp   1
                         Standard orientation:                         
 ---------------------------------------------------------------------
 Center     Atomic      Atomic             Coordinates (Angstroms)
 Number     Number       Type             X           Y           Z
 ---------------------------------------------------------------------
      1          6           0        1.245150    0.553468    0.000007
      2          6           0       -0.099636    0.747480   -0.000013
      3          1           0        1.942803    1.397613    0.000031
      4          8           0        1.802193   -0.696938    0.000005
      5          6           0       -1.078070   -0.349398   -0.000051
      6          1           0        2.764887   -0.614602    0.000008
      7          8           0       -2.298859   -0.163558    0.000029
      8          1           0       -0.474700    1.773222   -0.000002
      9          1           0       -0.664332   -1.381563    0.000029
 ---------------------------------------------------------------------
 Rotational constants (GHZ):          18.4059965           2.7896115           2.4224631
 Standard basis: Aug-CC-pVDZ (5D, 7F)
 There are   161 symmetry adapted cartesian basis functions of A   symmetry.
 There are   151 symmetry adapted basis functions of A   symmetry.
   151 basis functions,   259 primitive gaussians,   161 cartesian basis functions
    19 alpha electrons       19 beta electrons
       nuclear repulsion energy       154.9122156226 Hartrees.
 NAtoms=    9 NActive=    9 NUniq=    9 SFac= 1.00D+00 NAtFMM=   60 NAOKFM=F Big=F
 Integral buffers will be    131072 words long.
 Raffenetti 1 integral format.
 Two-electron integral symmetry is turned on.
 One-electron integrals computed using PRISM.
 NBasis=   151 RedAO= T EigKep=  3.57D-05  NBF=   151
 NBsUse=   151 1.00D-06 EigRej= -1.00D+00 NBFU=   151
 Initial guess from the checkpoint file:  "/scr/Gau-36896.chk"
 B after Tr=    -0.000000   -0.000000    0.000000
         Rot=    1.000000    0.000000   -0.000000   -0.000126 Ang=  -0.01 deg.
 Keep R1 ints in memory in canonical form, NReq=74564980.
 Requested convergence on RMS density matrix=1.00D-08 within 128 cycles.
 Requested convergence on MAX density matrix=1.00D-06.
 Requested convergence on             energy=1.00D-06.
 No special actions if energy rises.
 SCF Done:  E(RHF) =  -265.660371974     A.U. after   10 cycles
            NFock= 10  Conv=0.84D-08     -V/T= 2.0022
 ExpMin= 2.97D-02 ExpMax= 1.17D+04 ExpMxC= 4.01D+02 IAcc=3 IRadAn=         5 AccDes= 0.00D+00
 HarFok:  IExCor=  205 AccDes= 0.00D+00 IRadAn=         5 IDoV=-2 UseB2=F ITyADJ=14
 ICtDFT= 12500011 ScaDFX=  1.000000  1.000000  1.000000  1.000000
 Range of M.O.s used for correlation:     6   151
 NBasis=   151 NAE=    19 NBE=    19 NFC=     5 NFV=     0
 NROrb=    146 NOA=    14 NOB=    14 NVA=   132 NVB=   132

 **** Warning!!: The largest alpha MO coefficient is  0.42884461D+02

 Fully direct method using O(ONN) memory.
 JobTyp=1 Pass  1:  I=   6 to  19 NPSUse= 40 ParTrn=T ParDer=T DoDerP=T.
 Spin components of T(2) and E(2):
     alpha-alpha T2 =       0.3429415194D-01 E2=     -0.1043513755D+00
     alpha-beta  T2 =       0.1919204712D+00 E2=     -0.5914162393D+00
     beta-beta   T2 =       0.3429415194D-01 E2=     -0.1043513755D+00
 ANorm=    0.1122723820D+01
 E2 =    -0.8001189904D+00 EUMP2 =    -0.26646049096401D+03
          IDoAtm=111111111
          Differentiating once with respect to electric field.
                with respect to dipole field.
          Differentiating once with respect to nuclear coordinates.
 Keep R1 ints in memory in canonical form, NReq=74572255.
          There are     1 degrees of freedom in the 1st order CPHF.  IDoFFX=0 NUNeed=     1.
 LinEq1:  Iter=  0 NonCon=     1 RMS=5.54D-03 Max=1.20D-01 NDo=     1
 AX will form     1 AO Fock derivatives at one time.
 LinEq1:  Iter=  1 NonCon=     1 RMS=1.72D-03 Max=2.06D-02 NDo=     1
 LinEq1:  Iter=  2 NonCon=     1 RMS=6.04D-04 Max=9.58D-03 NDo=     1
 LinEq1:  Iter=  3 NonCon=     1 RMS=2.10D-04 Max=3.17D-03 NDo=     1
 LinEq1:  Iter=  4 NonCon=     1 RMS=7.56D-05 Max=1.03D-03 NDo=     1
 LinEq1:  Iter=  5 NonCon=     1 RMS=2.89D-05 Max=3.15D-04 NDo=     1
 LinEq1:  Iter=  6 NonCon=     1 RMS=9.82D-06 Max=1.99D-04 NDo=     1
 LinEq1:  Iter=  7 NonCon=     1 RMS=2.60D-06 Max=3.62D-05 NDo=     1
 LinEq1:  Iter=  8 NonCon=     1 RMS=1.16D-06 Max=3.17D-05 NDo=     1
 LinEq1:  Iter=  9 NonCon=     1 RMS=2.94D-07 Max=2.45D-06 NDo=     1
 LinEq1:  Iter= 10 NonCon=     1 RMS=6.81D-08 Max=8.53D-07 NDo=     1
 LinEq1:  Iter= 11 NonCon=     1 RMS=1.44D-08 Max=2.09D-07 NDo=     1
 LinEq1:  Iter= 12 NonCon=     1 RMS=2.70D-09 Max=3.00D-08 NDo=     1
 LinEq1:  Iter= 13 NonCon=     1 RMS=5.83D-10 Max=4.72D-09 NDo=     1
 LinEq1:  Iter= 14 NonCon=     1 RMS=1.93D-10 Max=2.80D-09 NDo=     1
 LinEq1:  Iter= 15 NonCon=     0 RMS=4.17D-11 Max=3.72D-10 NDo=     1
 Linear equations converged to 1.000D-10 1.000D-09 after    15 iterations.
 End of Minotr F.D. properties file   721 does not exist.
 End of Minotr F.D. properties file   722 does not exist.
 End of Minotr F.D. properties file   788 does not exist.
 Calling FoFJK, ICntrl=  10002127 FMM=F ISym2X=0 I1Cent= 0 IOpClX= 0 NMat=1 NMatS=1 NMatT=0.
 ***** Axes restored to original set *****
 -------------------------------------------------------------------
 Center     Atomic                   Forces (Hartrees/Bohr)
 Number     Number              X              Y              Z
 -------------------------------------------------------------------
      1        6          -0.000027859    0.000375380   -0.000219732
      2        6           0.000054266   -0.000145725    0.000173920
      3        1           0.000010910   -0.000063217    0.000046261
      4        8          -0.000037135   -0.000234808    0.000044524
      5        6          -0.000024812    0.000022547   -0.000096442
      6        1          -0.000014756   -0.000011107   -0.000020729
      7        8           0.000014769    0.000039843    0.000022311
      8        1           0.000020267    0.000020245    0.000026179
      9        1           0.000004350   -0.000003158    0.000023708
 -------------------------------------------------------------------
 Cartesian Forces:  Max     0.000375380 RMS     0.000109670

 GradGradGradGradGradGradGradGradGradGradGradGradGradGradGradGradGradGrad
 Berny optimization.
 Using GEDIIS/GDIIS optimizer.
 FormGI is forming the generalized inverse of G from B-inverse, IUseBI=4.
 Internal  Forces:  Max     0.000247296 RMS     0.000069524
 Search for a local minimum.
 Step number   4 out of a maximum of   38
 All quantities printed in internal units (Hartrees-Bohrs-Radians)
 Mixed Optimization -- En-DIIS/RFO-DIIS
 Swapping is turned off.
 Update second derivatives using D2CorX and points    1    2    3    4
 DE= -1.13D-05 DEPred=-1.09D-05 R= 1.04D+00
 TightC=F SS=  1.41D+00  RLast= 1.26D-02 DXNew= 5.5291D-01 3.7856D-02
 Trust test= 1.04D+00 RLast= 1.26D-02 DXMaxT set to 3.29D-01
 ITU=  1  1  1  0
     Eigenvalues ---    0.01105   0.01105   0.02031   0.02137   0.02699
     Eigenvalues ---    0.02954   0.10574   0.16002   0.16039   0.16174
     Eigenvalues ---    0.21926   0.22154   0.23458   0.33549   0.34845
     Eigenvalues ---    0.35812   0.37425   0.50142   0.52647   0.59555
     Eigenvalues ---    0.92579
 En-DIIS/RFO-DIIS/Sim-DIIS IScMMF=       -3 using points:     4    3
 RFO step:  Lambda=-4.26707457D-07.
 DidBck=F Rises=F RFO-DIIS coefs:    1.05456   -0.05456
 Iteration  1 RMS(Cart)=  0.00040838 RMS(Int)=  0.00000019
 Iteration  2 RMS(Cart)=  0.00000019 RMS(Int)=  0.00000008
 Variable       Old X    -DE/DX   Delta X   Delta X   Delta X     New X
                                 (Linear)    (Quad)   (Total)
    R1        2.56759  -0.00013   0.00004  -0.00025  -0.00020   2.56738
    R2        2.06949   0.00008  -0.00006   0.00026   0.00020   2.06969
    R3        2.58679  -0.00025  -0.00013  -0.00041  -0.00054   2.58625
    R4        2.77762   0.00007  -0.00020   0.00031   0.00010   2.77772
    R5        2.06389  -0.00003  -0.00003  -0.00004  -0.00006   2.06382
    R6        1.82587  -0.00003   0.00004  -0.00009  -0.00004   1.82582
    R7        2.33353  -0.00004   0.00005  -0.00007  -0.00002   2.33351
    R8        2.10137  -0.00000  -0.00004   0.00004   0.00000   2.10138
    A1        2.11818  -0.00008  -0.00015  -0.00034  -0.00049   2.11770
    A2        2.13317   0.00011   0.00018   0.00039   0.00056   2.13374
    A3        2.03183  -0.00003  -0.00003  -0.00005  -0.00008   2.03175
    A4        2.15590  -0.00010   0.00010  -0.00050  -0.00041   2.15550
    A5        2.06463   0.00002  -0.00045   0.00026  -0.00019   2.06443
    A6        2.06266   0.00008   0.00035   0.00025   0.00060   2.06325
    A7        1.90457  -0.00002   0.00006  -0.00013  -0.00007   1.90451
    A8        2.14811   0.00006   0.00008   0.00021   0.00029   2.14841
    A9        2.03197  -0.00005  -0.00003  -0.00027  -0.00031   2.03167
   A10        2.10310  -0.00001  -0.00005   0.00006   0.00001   2.10311
    D1        3.14159   0.00000  -0.00000   0.00003   0.00003  -3.14156
    D2       -0.00000   0.00000  -0.00000   0.00002   0.00002   0.00001
    D3       -0.00001   0.00000  -0.00000   0.00003   0.00003   0.00002
    D4        3.14158   0.00000  -0.00000   0.00001   0.00001  -3.14159
    D5        3.14158   0.00000   0.00000   0.00001   0.00001   3.14159
    D6       -0.00002   0.00000   0.00000   0.00000   0.00000  -0.00002
    D7        3.14150   0.00001  -0.00001   0.00066   0.00066  -3.14103
    D8        0.00009  -0.00001   0.00001  -0.00065  -0.00064  -0.00055
    D9       -0.00010   0.00001  -0.00001   0.00068   0.00067   0.00058
   D10       -3.14150  -0.00001   0.00001  -0.00063  -0.00062   3.14106
         Item               Value     Threshold  Converged?
 Maximum Force            0.000247     0.000450     YES
 RMS     Force            0.000070     0.000300     YES
 Maximum Displacement     0.001013     0.001800     YES
 RMS     Displacement     0.000408     0.001200     YES
 Predicted change in Energy=-2.133611D-07
 Optimization completed.
    -- Stationary point found.
                           ----------------------------
                           !   Optimized Parameters   !
                           ! (Angstroms and Degrees)  !
 --------------------------                            --------------------------
 ! Name  Definition              Value          Derivative Info.                !
 --------------------------------------------------------------------------------
 ! R1    R(1,2)                  1.3587         -DE/DX =   -0.0001              !
 ! R2    R(1,3)                  1.0951         -DE/DX =    0.0001              !
 ! R3    R(1,4)                  1.3689         -DE/DX =   -0.0002              !
 ! R4    R(2,5)                  1.4699         -DE/DX =    0.0001              !
 ! R5    R(2,8)                  1.0922         -DE/DX =    0.0                 !
 ! R6    R(4,6)                  0.9662         -DE/DX =    0.0                 !
 ! R7    R(5,7)                  1.2349         -DE/DX =    0.0                 !
 ! R8    R(5,9)                  1.112          -DE/DX =    0.0                 !
 ! A1    A(2,1,3)              121.363          -DE/DX =   -0.0001              !
 ! A2    A(2,1,4)              122.2219         -DE/DX =    0.0001              !
 ! A3    A(3,1,4)              116.4151         -DE/DX =    0.0                 !
 ! A4    A(1,2,5)              123.5241         -DE/DX =   -0.0001              !
 ! A5    A(1,2,8)              118.2944         -DE/DX =    0.0                 !
 ! A6    A(5,2,8)              118.1815         -DE/DX =    0.0001              !
 ! A7    A(1,4,6)              109.1241         -DE/DX =    0.0                 !
 ! A8    A(2,5,7)              123.0778         -DE/DX =    0.0001              !
 ! A9    A(2,5,9)              116.4234         -DE/DX =   -0.0001              !
 ! A10   A(7,5,9)              120.4987         -DE/DX =    0.0                 !
 ! D1    D(3,1,2,5)           -180.0003         -DE/DX =    0.0                 !
 ! D2    D(3,1,2,8)             -0.0002         -DE/DX =    0.0                 !
 ! D3    D(4,1,2,5)             -0.0006         -DE/DX =    0.0                 !
 ! D4    D(4,1,2,8)           -180.0005         -DE/DX =    0.0                 !
 ! D5    D(2,1,4,6)            179.9992         -DE/DX =    0.0                 !
 ! D6    D(3,1,4,6)             -0.0012         -DE/DX =    0.0                 !
 ! D7    D(1,2,5,7)           -180.0054         -DE/DX =    0.0                 !
 ! D8    D(1,2,5,9)              0.0053         -DE/DX =    0.0                 !
 ! D9    D(8,2,5,7)             -0.0055         -DE/DX =    0.0                 !
 ! D10   D(8,2,5,9)            180.0052         -DE/DX =    0.0                 !
 --------------------------------------------------------------------------------
 GradGradGradGradGradGradGradGradGradGradGradGradGradGradGradGradGradGrad

                          Input orientation:                          
 ---------------------------------------------------------------------
 Center     Atomic      Atomic             Coordinates (Angstroms)
 Number     Number       Type             X           Y           Z
 ---------------------------------------------------------------------
      1          6           0       -0.277023    0.934167    0.116436
      2          6           0       -1.005062    0.494122   -0.943004
      3          1           0        0.013441    0.258970    0.928249
      4          8           0        0.132579    2.235323    0.230575
      5          6           0       -1.420465    1.357860   -2.057396
      6          1           0        0.633323    2.338791    1.050397
      7          8           0       -2.082188    0.949076   -3.016500
      8          1           0       -1.297818   -0.557755   -0.968844
      9          1           0       -1.106618    2.423179   -2.001366
 ---------------------------------------------------------------------
                    Distance matrix (angstroms):
                    1          2          3          4          5
     1  C    0.000000
     2  C    1.358709   0.000000
     3  H    1.095126   2.143416   0.000000
     4  O    1.368872   2.388158   2.099265   0.000000
     5  C    2.492492   1.469855   3.489659   2.901155   0.000000
     6  H    1.916764   3.171870   2.173667   0.966208   3.852096
     7  O    3.615816   2.380456   4.519840   4.135592   1.234853
     8  H    2.108480   1.092163   2.446509   3.359454   2.206710
     9  H    2.718542   2.202659   3.810640   2.559777   1.112000
                    6          7          8          9
     6  H    0.000000
     7  O    5.083793   0.000000
     8  H    4.024503   2.660577   0.000000
     9  H    3.513940   2.038434   3.160479   0.000000
 Stoichiometry    C3H4O2
 Framework group  C1[X(C3H4O2)]
 Deg. of freedom    21
 Full point group                 C1      NOp   1
 Largest Abelian subgroup         C1      NOp   1
 Largest concise Abelian subgroup C1      NOp   1
                         Standard orientation:                         
 ---------------------------------------------------------------------
 Center     Atomic      Atomic             Coordinates (Angstroms)
 Number     Number       Type             X           Y           Z
 ---------------------------------------------------------------------
      1          6           0        1.245150    0.553468    0.000007
      2          6           0       -0.099636    0.747480   -0.000013
      3          1           0        1.942803    1.397613    0.000031
      4          8           0        1.802193   -0.696938    0.000005
      5          6           0       -1.078070   -0.349398   -0.000051
      6          1           0        2.764887   -0.614602    0.000008
      7          8           0       -2.298859   -0.163558    0.000029
      8          1           0       -0.474700    1.773222   -0.000002
      9          1           0       -0.664332   -1.381563    0.000029
 ---------------------------------------------------------------------
 Rotational constants (GHZ):          18.4059965           2.7896115           2.4224631

 **********************************************************************

            Population analysis using the SCF Density.

 **********************************************************************

 Orbital symmetries:
       Occupied  (A) (A) (A) (A) (A) (A) (A) (A) (A) (A) (A) (A)
                 (A) (A) (A) (A) (A) (A) (A)
       Virtual   (A) (A) (A) (A) (A) (A) (A) (A) (A) (A) (A) (A)
                 (A) (A) (A) (A) (A) (A) (A) (A) (A) (A) (A) (A)
                 (A) (A) (A) (A) (A) (A) (A) (A) (A) (A) (A) (A)
                 (A) (A) (A) (A) (A) (A) (A) (A) (A) (A) (A) (A)
                 (A) (A) (A) (A) (A) (A) (A) (A) (A) (A) (A) (A)
                 (A) (A) (A) (A) (A) (A) (A) (A) (A) (A) (A) (A)
                 (A) (A) (A) (A) (A) (A) (A) (A) (A) (A) (A) (A)
                 (A) (A) (A) (A) (A) (A) (A) (A) (A) (A) (A) (A)
                 (A) (A) (A) (A) (A) (A) (A) (A) (A) (A) (A) (A)
                 (A) (A) (A) (A) (A) (A) (A) (A) (A) (A) (A) (A)
                 (A) (A) (A) (A) (A) (A) (A) (A) (A) (A) (A) (A)
 The electronic state is 1-A.
 Alpha  occ. eigenvalues --  -20.63798 -20.55550 -11.35336 -11.33850 -11.25043
 Alpha  occ. eigenvalues --   -1.44103  -1.36973  -1.07280  -0.88868  -0.79751
 Alpha  occ. eigenvalues --   -0.75107  -0.68813  -0.62367  -0.61127  -0.58469
 Alpha  occ. eigenvalues --   -0.57253  -0.52046  -0.42067  -0.36781
 Alpha virt. eigenvalues --    0.01836   0.04025   0.05179   0.06670   0.07399
 Alpha virt. eigenvalues --    0.09596   0.10975   0.11716   0.12941   0.13817
 Alpha virt. eigenvalues --    0.14513   0.15200   0.15948   0.17205   0.18212
 Alpha virt. eigenvalues --    0.20216   0.21719   0.23606   0.24267   0.25096
 Alpha virt. eigenvalues --    0.28141   0.29402   0.30351   0.30410   0.32681
 Alpha virt. eigenvalues --    0.35140   0.35615   0.36608   0.36890   0.38637
 Alpha virt. eigenvalues --    0.40258   0.41369   0.41937   0.46543   0.46545
 Alpha virt. eigenvalues --    0.47697   0.48994   0.52154   0.53863   0.55604
 Alpha virt. eigenvalues --    0.56531   0.58411   0.60050   0.62000   0.62694
 Alpha virt. eigenvalues --    0.63249   0.64393   0.65793   0.67160   0.69122
 Alpha virt. eigenvalues --    0.70010   0.73116   0.77434   0.78711   0.80147
 Alpha virt. eigenvalues --    0.81785   0.84749   0.86029   0.86038   0.89218
 Alpha virt. eigenvalues --    0.90407   0.95545   0.98081   1.01498   1.02333
 Alpha virt. eigenvalues --    1.06292   1.09337   1.13964   1.15096   1.17812
 Alpha virt. eigenvalues --    1.20028   1.26553   1.27181   1.30191   1.31030
 Alpha virt. eigenvalues --    1.35040   1.39624   1.47052   1.47237   1.48805
 Alpha virt. eigenvalues --    1.53222   1.57523   1.59225   1.61789   1.63881
 Alpha virt. eigenvalues --    1.68470   1.69372   1.73830   1.75999   1.78927
 Alpha virt. eigenvalues --    1.83148   1.84903   1.88979   1.93627   1.95754
 Alpha virt. eigenvalues --    1.99111   2.01309   2.05154   2.08510   2.08981
 Alpha virt. eigenvalues --    2.10209   2.15942   2.18960   2.19498   2.25305
 Alpha virt. eigenvalues --    2.32314   2.35334   2.35668   2.44202   2.48173
 Alpha virt. eigenvalues --    2.52927   2.58830   2.64965   2.70383   2.79368
 Alpha virt. eigenvalues --    2.90410   2.95733   3.04506   3.09183   3.18464
 Alpha virt. eigenvalues --    3.40594   3.57973   3.66581   3.71060   3.74912
 Alpha virt. eigenvalues --    3.77160   3.78611   3.81779   3.94584   3.98034
 Alpha virt. eigenvalues --    4.11394   4.32335
          Condensed to atoms (all electrons):
               1          2          3          4          5          6
     1  C    4.953569   0.228610  -0.017776  -0.007603  -0.041244   0.029559
     2  C    0.228610   5.049976   0.098547  -0.003301   0.165028  -0.064532
     3  H   -0.017776   0.098547   1.430190  -0.027918  -0.007897  -0.080894
     4  O   -0.007603  -0.003301  -0.027918   8.420088  -0.021091   0.357434
     5  C   -0.041244   0.165028  -0.007897  -0.021091   4.757780   0.009030
     6  H    0.029559  -0.064532  -0.080894   0.357434   0.009030   0.536864
     7  O   -0.003642  -0.043287   0.000074  -0.000115   0.272947   0.000146
     8  H   -0.040819   0.181677  -0.095238   0.019033  -0.155547   0.001663
     9  H   -0.068601   0.025852   0.004716  -0.006439   0.299050  -0.002052
               7          8          9
     1  C   -0.003642  -0.040819  -0.068601
     2  C   -0.043287   0.181677   0.025852
     3  H    0.000074  -0.095238   0.004716
     4  O   -0.000115   0.019033  -0.006439
     5  C    0.272947  -0.155547   0.299050
     6  H    0.000146   0.001663  -0.002052
     7  O    8.546907   0.015200  -0.059437
     8  H    0.015200   1.453868   0.022232
     9  H   -0.059437   0.022232   0.884025
 Mulliken charges:
               1
     1  C    0.967947
     2  C    0.361430
     3  H   -0.303804
     4  O   -0.730089
     5  C    0.721943
     6  H    0.212782
     7  O   -0.728792
     8  H   -0.402070
     9  H   -0.099347
 Sum of Mulliken charges =  -0.00000
 Mulliken charges with hydrogens summed into heavy atoms:
               1
     1  C    0.664143
     2  C   -0.040640
     4  O   -0.517307
     5  C    0.622597
     7  O   -0.728792
 Electronic spatial extent (au):  <R**2>=            473.1800
 Charge=             -0.0000 electrons
 Dipole moment (field-independent basis, Debye):
    X=              6.0054    Y=              0.9576    Z=             -0.0001  Tot=              6.0812
 Quadrupole moment (field-independent basis, Debye-Ang):
   XX=            -29.9008   YY=            -27.5577   ZZ=            -30.9919
   XY=              1.1642   XZ=              0.0003   YZ=              0.0001
 Traceless Quadrupole moment (field-independent basis, Debye-Ang):
   XX=             -0.4173   YY=              1.9258   ZZ=             -1.5084
   XY=              1.1642   XZ=              0.0003   YZ=              0.0001
 Octapole moment (field-independent basis, Debye-Ang**2):
  XXX=             65.0803  YYY=             -0.6064  ZZZ=              0.0002  XYY=              1.5529
  XXY=              0.7479  XXZ=             -0.0001  XZZ=             -0.4975  YZZ=             -2.6330
  YYZ=              0.0003  XYZ=              0.0000
 Hexadecapole moment (field-independent basis, Debye-Ang**3):
 XXXX=           -403.7031 YYYY=            -97.4390 ZZZZ=            -32.2495 XXXY=            -18.2055
 XXXZ=              0.0009 YYYX=             -1.6972 YYYZ=             -0.0000 ZZZX=             -0.0001
 ZZZY=              0.0001 XXYY=            -86.7204 XXZZ=            -79.9469 YYZZ=            -25.3383
 XXYZ=              0.0002 YYXZ=              0.0001 ZZXY=             -1.3677
 N-N= 1.549122156226D+02 E-N=-9.345269865454D+02  KE= 2.650734133543D+02
 Unable to Open any file for archive entry.
 1\1\GINC-N3419\FOpt\RMP2-FC\Aug-CC-pVDZ\C3H4O2\GDS001\22-Mar-2025\0\\#
  MP2/aug-cc-pVDZ opt freq=(vibrot,anharmonic)\\blah\\0,1\C,-0.27702338
 34,0.9341666104,0.1164355452\C,-1.0050615126,0.4941215513,-0.943004045
 4\H,0.0134408392,0.2589698196,0.9282490357\O,0.1325789805,2.2353230255
 ,0.230575175\C,-1.4204653237,1.3578603911,-2.0573956645\H,0.6333229777
 ,2.3387910173,1.0503969376\O,-2.0821882261,0.9490762441,-3.0164995392\
 H,-1.2978183374,-0.5577554825,-0.9688444095\H,-1.1066175967,2.42317901
 1,-2.0013663163\\Version=EM64L-G16RevC.01\State=1-A\HF=-265.660372\MP2
 =-266.460491\RMSD=8.386e-09\RMSF=1.097e-04\Dipole=1.0674968,0.05884,1.
 8217426\PG=C01 [X(C3H4O2)]\\@
 The archive entry for this job was punched.


 SCIENCE AND PEACE WILL TRIUMPH OVER IGNORANCE AND WAR

                          -- PASTEUR
 Job cpu time:       0 days  0 hours 25 minutes 51.5 seconds.
 Elapsed time:       0 days  0 hours  0 minutes 48.6 seconds.
 File lengths (MBytes):  RWF=     16 Int=      0 D2E=      0 Chk=      3 Scr=      1
 Normal termination of Gaussian 16 at Sat Mar 22 10:24:03 2025.
 Link1:  Proceeding to internal job step number  2.
 ----------------------------------------------------------------------
 #N Geom=AllCheck Guess=TCheck SCRF=Check GenChk RMP2(FC)/Aug-CC-pVDZ F
 req
 ----------------------------------------------------------------------
 1/10=4,29=7,30=1,38=21,40=1,80=1/1,6,3;
 2/12=2,40=1/2;
 3/5=16,7=10,11=1,14=-4,25=1,30=1,70=2,71=2,116=1,140=1/1,2,3;
 4/5=101,69=2/1;
 5/5=2,38=6,98=1/2;
 8/6=3,8=1,10=1,19=11,30=-1/1;
 9/15=3,16=-3/6;
 11/6=1,8=1,15=11,17=12,24=-1,27=1,28=-2,29=300,32=6,42=3/1,2,10;
 10/6=2,21=1,60=-2/2;
 8/6=4,8=1,10=1,19=11,30=-1/11,4;
 10/5=1,20=4,60=-2/2;
 11/12=2,14=11,16=1,17=2,28=-2,42=3,76=2/2,10,12;
 6/7=2,8=2,9=2,10=2,22=-1/1;
 7/10=1,12=2,25=1,44=2,70=1,71=2/1,2,3,16;
 1/38=20,80=1/6(3);
 7/8=1,25=202,44=-1,70=1,71=1,92=10/16,17;
 1/10=4,30=1,38=20,80=1/3;
 99//99;
 3/5=16,7=10,11=1,14=-2,25=1,30=1,70=5,71=2,116=1,140=1/1,2,3;
 4/5=5,16=3,69=2/1;
 5/5=2,38=5,98=1/2;
 8/6=3,8=1,10=1,19=11,30=-1/1;
 9/15=3,16=-3/6;
[...]
 -0.00028086,0.00006829,0.00011477,0.00022896,0.00038707,0.00041797,-0.
 00052102,-0.00121107,-0.00104687,0.00005700,0.00005743,-0.00002601,-0.
 00018189,0.00025398,0.00012020,0.00336927,0.00034210,0.00048948,0.0014
 1267,0.01440128,0.05697942,-0.00450397,-0.00028298,-0.00034342,-0.0004
 9949,-0.00040477,-0.00045962,-0.00054488,0.00192491,-0.00101745,0.0039
 9044,-0.00003913,-0.00024617,0.00007045,-0.00023603,-0.00009211,-0.000
 51428,-0.01534535,-0.05515890,-0.00225877,0.00076136,-0.00197799,-0.00
 015718,-0.00111200,-0.00712214,0.00027573,0.00010785,0.00006218,0.0007
 8084,0.00083027,0.00085855,-0.00247953,-0.00145048,-0.00323816,0.00001
 821,0.00023812,-0.00002065,0.00034551,0.00033639,0.00012609,0.00304045
 ,0.00124586,0.01036078,0.00003747,0.00023857,0.00051401,-0.00024279,0.
 00034868,-0.00113696,-0.00024437,0.00017819,0.00019700,0.00016038,-0.0
 0012814,0.00010104,0.00205065,0.01322082,0.00039065,0.00010319,0.00002
 153,0.00007104,-0.00040877,0.00101316,-0.00097236,-0.00008095,-0.00036
 003,0.00043474,-0.00137481,-0.00085800,-0.00188953,-0.00077242,0.00303
 127,0.00047934,0.00520689,0.00046801,0.00026230,0.00050527,0.00006426,
 0.00034472,0.00001378,0.01288903,0.04099176,0.00282133,0.00002617,0.00
 011116,0.00002149,-0.00055688,-0.00125693,-0.00043438,-0.00053109,-0.0
 0015124,-0.00095735,-0.01453278,-0.03889157,0.00101147,0.00111948,0.00
 091887,-0.00235565,0.00054253,-0.00399974,0.00006247,0.00000288,-0.000
 29633,0.00001376,-0.00031420,0.00029947,0.00056242,0.00340867,-0.00230
 750,0.00006793,0.00001306,0.00016941,-0.00027548,0.00228899,-0.0015881
 3,0.00051223,-0.00065679,0.00095134,0.00040083,-0.00640462,0.00585261,
 0.00248588,-0.00165645,-0.00572408,-0.00071527,0.00126462,0.00148166,0
 .00076743,-0.00143383,-0.00116123,-0.00276570,-0.00221530,0.00168182,-
 0.00376674,0.00107220,-0.01555231,-0.00080130,-0.00239906,0.00157639,0
 .00114720,0.00722253,-0.00507495,-0.00099736,0.00005076,0.00040216,-0.
 00011092,-0.00008607,0.00095454,0.00049240,0.00016730,-0.00022331,-0.0
 0018306,0.00044985,-0.00023146,0.00059922,-0.00017381,-0.00010238,0.00
 035481,-0.00038014,-0.00046145,0.00070173,-0.00033838,0.00074503,-0.00
 030368,0.00007486,0.00014787,-0.00087763,0.00258043,0.00142323,-0.0008
 7078,0.00017818,-0.00079851,0.00055503,-0.00019989,-0.00040668,0.00068
 204,0.00264806,0.00459980,0.00139622,-0.00005196,0.00113590,-0.0008302
 7,-0.00011398,0.00020699,0.00009026,-0.00283354,-0.00640718,0.00139198
 ,0.00127245,-0.00055362,-0.00069544,-0.00041962,-0.00146891,-0.0004451
 4,-0.00005802,0.00009839,-0.00070922,-0.00112526,0.00112947,-0.0000342
 0,0.00316982,0.00020935,-0.00402031,-0.01315784,0.01130512,0.00049069,
 -0.00048670,-0.00042004,-0.00032461,-0.00189333,0.00025142,-0.30572271
 ,0.00247109,-0.00089136,0.00424234,0.00398352,-0.00202626,0.00461186,0
 .00053596,0.00046386,0.00111375,-0.00167925,-0.00277904,-0.00161895,0.
 98172481,2.65676377,0.00052647,0.00543580,-0.00257650,0.00349588,-0.02
 502788,0.01038270,-0.00088611,-0.00065846,-0.00037319,0.00014900,-0.00
 199651,0.00120703,0.05722071,0.21050919,-0.59533159,-0.00012216,-0.000
 03072,0.00001636,0.00037660,-0.00008954,-0.00011309,-0.00021101,0.0000
 4132,0.00014144,-0.00008683,-0.00003551,0.00038495,0.00000521,0.000554
 61,0.00013996,0.00016949,0.00000944,-0.00022814,0.00006298,-0.00014405
 ,0.00015731,-0.00010774,0.00005542,0.00005497,-0.00006599,0.00016425,0
 .00098732,-0.00030467,-0.00004796,0.00059465,-0.00045745,-0.00010038,-
 0.00062045,0.00000200,0.00000010,-0.00012245,-0.00009220,-0.00001366,0
 .00031436,0.00013415,-0.00009228,-0.00002872,0.00029280,-0.00065272,0.
 00050843,0.00041670,0.00058395,0.00023258,-0.00017602,0.00024529,-0.00
 012122,-0.00043910,-0.00196793,-0.00050192,-0.00017778,-0.00008071,-0.
 00030532,0.00020146,0.00028911,0.00022315,0.00060084,0.00188689,0.0003
 3786,-0.00777221,-0.00585381,0.01975516,-0.00010806,-0.00003458,-0.000
 28166,0.00049176,-0.00095079,0.00039874,-0.00165865,-0.00096679,-0.006
 61023,0.00134475,-0.00004369,0.00007612,-0.00011305,0.00068449,0.00123
 236,0.00057598,0.02038815,-0.00187190,0.02816202,-0.00018626,-0.000179
 10,-0.00021188,-0.01385317,-0.00757740,-0.00097039,-0.00341114,0.00025
 605,0.00007841,0.00286177,-0.00114700,0.00037355,0.00046241,0.00043131
 ,0.00089017,0.00266346,0.00023044,0.00774528,-0.01728624,0.00368163,-0
 .00021193,0.00005072,-0.00032733,-0.01239568,-0.01539637,-0.00310906,-
 0.00009665,0.00048002,-0.00002862,0.00142655,-0.00129843,0.00001186,0.
 00021204,-0.00011738,-0.00026487,-0.00025517,-0.00003007,0.00002844,-0
 .00102904,0.00052241,-0.00016245,0.00003293,0.00001106,0.00002815,0.00
 002524,0.00020331,-0.00019867,-0.00064842,-0.00026147,-0.00018962,-0.0
 0045996,-0.00066686,-0.00034025,-0.00020091,-0.00003375,0.00005753,0.0
 0009677,0.00011810,0.00029674,-0.00005351,0.00020645,-0.00034864,0.000
 03403,-0.00000610,0.00000004,-0.00000469,-0.00054501,-0.00064583,-0.00
 061099,0.00024108,-0.00022242,0.00030867,0.00082042,-0.00004801,-0.000
 28002,-0.00128261,0.00187969,-0.00030284,-0.00004883,-0.00010674,-0.00
 003863,-0.00030605,-0.00018985,-0.00001626,0.00056993,-0.00137354,0.00
 003602,0.00002549,0.00006440,0.00014491,0.00068703,0.00002295,0.001018
 61,-0.00007743,0.00049816,-0.00068623,-0.00119205,0.00035590,0.0053749
 3,0.01567746,-0.01140048,-0.00063233,0.00003018,-0.00002585,0.00057712
 ,0.00042344,-0.00054486,0.31840717,-0.98225934,-0.08023863,-0.00005618
 ,0.00008680,-0.00032390,0.00717784,-0.00527526,0.00468925,0.00033252,0
 .00094757,-0.00087047,-0.33049484,-0.00021187,0.00057615,-0.00089777,-
 0.00224206,0.02178550,-0.01024037,-0.00019085,-0.00030233,-0.00047809,
 0.00098723,0.00072711,0.00173161,-0.98990343,-2.64990507,-0.21600076,-
 0.00014742,-0.00076661,0.00014590,0.02015920,0.01517726,0.03066638,-0.
 00001199,0.00139246,-0.00038794,0.97156118,2.61131553,-0.00009698,-0.0
 0260297,0.00044788,-0.00319432,0.02076451,-0.00720727,0.00007337,-0.00
 009586,-0.00045249,-0.00080218,0.00076087,-0.00096140,-0.07671228,-0.2
 0272582,0.58415087,-0.00021770,0.00055137,-0.00052005,-0.00697650,-0.0
 1338984,-0.00003899,-0.00043245,0.00127671,-0.00074706,0.08835904,0.19
 546103,-0.57467149,-0.40083104,-0.59365055,0.75054238,0.70659478,-1.66
 955390,1.33511096,-0.00146441,0.01199800,0.01079332,-0.02741867,-0.003
 29463,-0.00380182,-0.00892900,0.05945819,0.16312803,0.01779074,0.01756
 523,0.01195395,-0.01166160,0.01165634,-0.06196024,0.40610844,0.5863522
 6,-0.72004836,0.00391883,0.00145254,-0.00475647,-0.41072757,0.58314085
 ,-0.76556806,1.66505942,-0.01255624,0.00746428,-0.02227635,-0.57554272
 ,0.75716172,-0.71857382,1.67062553,-1.34141321,0.00164376,0.00197180,0
 .00823991,0.72103569,-1.65174112,1.32898269,-0.00419200,0.00076699,0.0
 0393291,0.00021653,-0.00119215,-0.00073778,0.00177058,0.00407092,-0.00
 442051,-0.00002830,0.01629785,0.02440370,0.01401466,0.00128379,-0.0035
 0929,0.00425462,-0.01493942,-0.00170507,-0.02360691,-0.00247254,-0.021
 98683,-0.00317097,-0.01288476,-0.00626454,-0.00187248,-0.00002113,-0.0
 0227508,0.00427557,0.00931255,0.00639253,0.00288794,0.00530594,0.00153
 396,-0.00459943,0.00132965,-0.00040634,0.00411940,0.00022076,0.0024616
 9,0.00266659,-0.00202542,-0.00040500,0.00098200,-0.00119548,-0.0007547
 9,-0.00550705,0.00104279,-0.00217905,0.00065487,-0.00018705,0.00391411
 ,-0.00088398,-0.00050387,-0.00128088,0.00128795,-0.00076986,0.00001323
 ,-0.00054252,0.00177885,-0.00060451,-0.00027822,0.00113533,-0.00572479
 ,0.00267889,-0.00014631,0.00730207,-0.00109910,-0.00134717,0.00214576,
 -0.00095362,-0.00128522,0.00067483,-0.00263263,0.00118322,-0.00948242,
 0.00038299,-0.00354767,0.00119382,-0.00044901,0.00066851,-0.00041898,-
 0.00130444,0.00114571,-0.00092009,0.00215123,0.00004486,-0.00261641,-0
 .00046105,0.00010993,0.00043833,-0.00081840,-0.00190830,-0.00412290,-0
 .00113143,-0.00022253,0.00021019,-0.00065621,0.00192031,0.00421673,0.0
 0090653,-0.00154483,0.00245909,-0.00213063,0.00022735,0.00018775,-0.00
 003285,0.00167124,-0.00311722,0.00044767,-0.00396449,0.00321717,-0.000
 01526,0.00088645,-0.00081354,-0.00127530,-0.00043662,-0.00308410,-0.00
 188991,0.00062067,0.00009590,0.00038584,-0.00023833,0.00003400,0.00264
 882,0.00304318,0.00040388,0.00086845,-0.00061641,0.00046146,-0.0011521
 1,0.00152211,-0.00140870,-0.00045452,-0.00027535,0.00034806,0.00007357
 ,0.00094424,0.00028164,0.00155883,-0.00123193,0.00312301,0.00008436,-0
 .00006861,-0.00014727,-0.00087878,0.00025437,-0.00030160,0.00092853,-0
 .00059023,-0.00061513,-0.00109257,-0.00003191,0.00101148,-0.00078512,0
 .00024629,0.00029899,0.00013186,0.00045440,-0.00081183,0.00124724,-0.0
 0004154,-0.00006555,0.00004347,-0.00027458,0.00062317,0.00006041,-0.00
 056957,0.00113512,-0.00046374,0.00254931,-0.00270519,0.00023482,-0.001
 20844,0.00037692,0.00060284,0.00134514,0.00009057,0.00235517,-0.001663
 23,0.00490351,-0.00015921,-0.00000354,-0.00008750,-0.00275525,-0.00044
 314,-0.00377776,0.00283845,-0.00229806,-0.00245105,0.02305593,-0.05922
 281,-0.00094059,-0.00162379,0.00184686,0.00116931,-0.00092815,-0.00031
 575,0.00066541,0.00078951,0.00061311,-0.00106994,0.00038199,-0.0000104
 5,-0.00014354,-0.00009883,-0.00012245,0.00023678,-0.02434580,-0.001374
 60,0.00115638,-0.00068534,-0.05947172,-0.16676203,-0.00876930,0.001138
 33,-0.00142692,0.00134968,0.00059961,-0.00011619,0.00052769,-0.0000470
 6,0.00089949,0.00008452,-0.00005052,0.00031980,-0.00002027,-0.00023705
 ,-0.00028507,-0.00037518,0.05941206,0.16608121,-0.00287523,-0.00228758
 ,0.00092825,-0.00082940,-0.00832573,0.04162917,0.00149367,0.00257577,-
 0.00137921,0.00024740,-0.00105374,-0.00031790,-0.00076667,0.00121669,-
 0.00065006,-0.00012518,0.00004958,0.00022814,0.00029038,-0.00017442,0.
 00037986,0.00246234,0.00795271,-0.04083536,0.00088855,-0.00033418,-0.0
 0007052,-0.00082646,0.00038746,-0.00032827,-0.00035414,0.00019538,0.00
 012259,-0.00004548,0.00035244,0.00030407,0.00045120,-0.00085197,-0.000
 20674,0.00003233,-0.00006418,-0.00001105,-0.00000097,0.00010565,-0.000
 11184,-0.00006931,0.00003096,0.00010269,-0.00007572,-0.00050779,-0.000
 12902,-0.00035782,0.00028783,-0.00002837,0.00020226,0.00015447,0.00012
 670,-0.00000836,0.00029556,0.00014235,0.00030099,-0.00074306,-0.000138
 30,-0.00083878,-0.00000053,-0.00008789,0.00006592,0.00023757,0.0001455
 3,0.00036865,0.00009750,0.00013331,0.00004672,0.00017845,-0.00016432,0
 .00000466,-0.00006575,0.00105709,-0.00027347,0.00035827,-0.00137099,0.
 00013948,0.00006193,-0.00026130,0.00033074,0.00040483,0.00006971,-0.00
 023729,-0.00101468,0.00079708,-0.00004110,-0.00004463,0.00000607,-0.00
 019335,0.00014414,-0.00031553,0.00007127,-0.00006452,0.00001710,0.0001
 9907,0.00022041,0.00000075,-0.02255450,-0.03734634,0.03580019,0.040227
 39,-0.09748712,0.07829294,0.00061915,0.00822978,-0.00205739,-0.4189086
 3,-0.00655773,0.00071261,-0.01184297,0.95857584,2.75639270,0.00470901,
 0.01377881,0.00153343,0.04150968,0.08077047,-0.66117883,0.02395782,0.0
 3640049,-0.04080815,0.00325006,-0.00155585,-0.00357478,-0.02532282,0.0
 3525735,-0.04806606,0.10037175,-0.00200962,0.00151812,-0.00154860,-0.0
 3522030,0.04730458,-0.04027938,0.10235608,-0.07866471,-0.00337472,-0.0
 0077227,0.00024906,0.04174293,-0.10097695,0.07833933,0.00068474,-0.001
 09565,0.00177389,-0.00315649,-0.00067154,0.00130308,0.00048338,0.00036
 150,-0.00056381,-0.00067825,0.00175759,0.00356557,0.00139323,0.0002059
 2,-0.00230890,-0.00030561,-0.00071963,0.00036468,-0.00108967,-0.000900
 32,-0.00378729,0.00046870,-0.00355378,0.00238561,0.00089917,-0.0018137
 2,-0.00134433,-0.00006848,0.00078294,0.00023679,-0.00034046,0.00007043
 ,-0.00086289,0.00003331,0.00074242,0.00121229,0.00330846,0.00193788,-0
 .00214277,-0.00069230,0.00018065,0.00015875,0.00084638,-0.00002807,-0.
 00005303,-0.00384913,-0.00058436,-0.00066307,-0.00109392,-0.01061956,0
 .00024809,-0.01663440,0.00026792,-0.00049796,0.00031481,0.00027221,0.0
 0016066,0.00080600,-0.00362627,-0.01724563,0.00181647,0.00118808,0.001
 73004,0.00363083,0.00513602,0.00792685,0.00012046,0.00016203,-0.000698
 84,-0.00019483,0.00028051,0.00042398,-0.00454673,0.00134762,-0.0086777
 0,-0.00044331,0.00034352,0.00049615,-0.00052481,-0.00023350,0.00042069
 ,-0.00008298,0.00000063,-0.00010368,-0.00001941,0.00004025,-0.00001885
 ,-0.00009189,0.00004837,0.00009461,0.00032968,-0.00003995,-0.00075752,
 -0.00009916,0.00010225,-0.00134610,0.00047043,0.00007835,0.00034386,-0
 .00003023,0.00010286,0.00017460,0.00008920,0.00011831,0.00019518,0.000
 04211,-0.00013847,-0.00021795,0.00067538,0.00057125,0.00008537,0.00026
 319,-0.00011104,-0.00019730,-0.00014005,-0.00016666,-0.00018919,-0.000
 04821,-0.00002116,-0.00009053,0.00006377,-0.00008127,-0.00001176,-0.00
 003062,0.00003464,0.00031325,-0.00048849,-0.00077137,-0.00022486,-0.00
 048177,0.00242811,-0.00242508,0.00011080,-0.00001252,0.00023540,-0.000
 01226,0.00006307,0.00000418,0.00108024,0.00158594,0.00274409,0.0000737
 8,-0.00005269,-0.00004805,-0.00046494,-0.00028295,-0.00101191,-0.00009
 734,0.00115515,0.00201310,0.00119281,0.00006998,0.00032850,-0.00003996
 ,-0.00014073,-0.00002695,-0.00024868,0.00267323,0.00424218,0.00232054,
 -0.00003293,-0.00010397,0.00004297,-0.00163743,-0.00281575,-0.00045157
 ,-0.00093398,-0.00050329,-0.00186347,0.00338254,-0.00449316,0.00019578
 ,-0.00018356,0.00040102,0.00009939,0.00010846,0.00009118,0.00225044,0.
 00044755,0.00275126,-0.00005670,0.00000859,0.00001249,-0.00100293,-0.0
 0134016,-0.00057007,-0.00158799,-0.00667826,-0.00063000,0.41673020,-0.
 95303017,-0.03991230,-0.00198050,0.00159711,0.00231913,0.00230443,-0.0
 0052422,-0.00110216,-0.00120494,0.01226859,-0.00466177,0.00066629,-0.0
 0011321,-0.00068365,0.00017566,-0.00185854,0.00109464,-0.41558771,0.00
 780479,0.00976165,0.00929976,-0.95477863,-2.75443830,-0.07723522,0.000
 81073,-0.00121625,0.00024883,0.00198440,0.00205107,0.00390556,-0.00163
 406,0.01354407,-0.00980855,-0.00000648,0.00172583,-0.00030224,-0.00178
 652,-0.00311417,-0.00165805,0.94703883,2.72991655,-0.00725641,-0.01578
 509,-0.00480585,-0.03911480,-0.07419069,0.65772159,0.00267932,0.001610
 19,0.00016065,-0.00224913,-0.00043514,-0.00061537,0.00169674,0.0142456
 4,-0.00534228,-0.00073240,-0.00048629,0.00004512,0.00106340,-0.0017783
 4,0.00268990,0.04422756,0.07514024,-0.64905531,-0.00022073,0.00017544,
 0.00001066,-0.00083613,-0.00089306,0.00011251,0.00027653,-0.00015482,-
 0.00013463,-0.00045252,0.00010540,0.00021094,0.00056986,0.00038718,0.0
 0099684,0.00009266,-0.00005747,-0.00005174,0.00000699,0.00005422,-0.00
 026558,0.00048457,0.00056694,-0.00031427,0.00007877,-0.00000840,0.0006
 5853,-0.00044422,-0.00086112,-0.00279128,-0.00048866,-0.00013169,-0.00
 007948,-0.00001064,0.00008727,-0.00019346,-0.00003796,-0.00036413,0.00
 001647,-0.00066841,-0.00002139,-0.00001392,0.00003352,0.00018341,0.000
 48900,0.00016861,0.00129988,0.00176953,0.00167948,-0.00018383,0.000144
 62,0.00009040,-0.00013420,-0.00005360,0.00010754,-0.00055839,-0.000217
 23,-0.00014702,-0.00005115,0.00016590,0.00022008,-0.00000104,-0.000224
 47,0.00136053,0.00064797,0.00189842,-0.00006920,-0.00002929,0.00003254
 ,-0.00034615,-0.00005184,-0.00037934,-0.00065144,0.00040967,-0.0007984
 5,-0.00056473,-0.00023173,-0.00042375,-0.00106933,-0.00684932,-0.02214
 800,-0.00346383,-0.00048863,-0.00307121,-0.00010591,0.00339106,0.00187
 247,-0.00066197,-0.00032796,0.00344587,-0.00308900,-0.00158365,-0.0028
 4251,0.00357614,0.00336495,0.00261843,-0.00246698,-0.00095195,-0.00270
 214,0.00135474,0.00139676,0.00002115,0.00013396,-0.00067436,-0.0004284
 5,0.00012456,0.00027599,-0.00171102,0.00169983,-0.00023520,-0.00006130
 ,-0.00011645,-0.00200646,-0.00308941,0.00053965,0.00364527,0.00023412,
 -0.00063674,-0.00088653,-0.00012337,0.00024410,-0.00182417,0.00176497,
 -0.00396143,0.00715562,-0.00211447,-0.00098525,-0.00032320,-0.00051113
 ,0.00006209,0.00045229,-0.00030621,0.78829774,0.03206829,0.04284485,0.
 03382086,-0.00226199,0.00191791,-0.00508248,-0.00253935,-0.00369350,-0
 .00265660,0.42581819,-1.34425225,-0.01351078,-0.00932789,-0.02376094,0
 .00037392,-0.00171312,0.00082635,0.00106319,0.00252444,0.00080561,3.67
 319685,0.69118667,4.59950220,0.00025022,-0.00021063,0.00008023,-0.0004
 3949,-0.00000185,0.00040035,0.00002149,0.00009292,-0.00007483,-0.00082
 440,-0.00002999,-0.00095734,-0.00031597,-0.00088481,-0.00015235,-0.001
 33448,0.00033469,-0.00136352,0.00091973,0.00010416,-0.00004017,0.00022
 056,-0.00019814,0.00124708,-0.00103011,0.00029002,0.00058682,0.0003861
 6,-0.00018325,0.00100220,0.00027692,0.00037157,-0.00040333,-0.00007822
 ,0.00019975,-0.00018843,-0.00088429,-0.00074456,-0.00144920,-0.0000567
 1,-0.00006837,-0.00035075,0.00345324,-0.00395792,0.00455066,0.00157074
 ,0.00215752,-0.00099158,-0.00158565,0.00148638,-0.00024593,-0.78200072
 ,-0.45415835,-3.66108756,0.00060052,0.00005675,0.00006193,0.77747813,-
 0.02479811,-0.02301099,-0.03156282,0.00022371,-0.00164810,0.00186158,0
 .00366076,0.00873537,0.00150598,-0.43317224,1.30293413,-0.68190727,-0.
 00019681,-0.00050460,0.00014061,0.45473777,-1.28631198,0.01408761,0.00
 453358,0.02419017,-0.00011130,0.00520997,-0.00100005,-0.00124141,-0.00
 226121,-0.00295125,-3.67068802,-0.71825181,-4.57598234,0.00017924,0.00
 057750,0.00059587,3.65769312,0.71040585,4.55435314,-0.00006545,-0.0004
 5455,-0.00016181,0.00001488,0.00027441,0.00027971,0.00007036,-0.000086
 49,0.00018342,0.00051795,0.00029213,0.00047809,0.00028026,0.00034663,0
 .00038171,-0.00047774,-0.00003876,-0.00041978,-0.00013303,0.00027033,0
 .00023055,0.00043087,-0.00009888,0.00037681,-0.00045705,-0.00002837,-0
 .00002775,-0.00004301,0.00010549,-0.00044115,0.00045668,0.00019471,-0.
 00003207,0.00038990,-0.00006927,0.00010461,-0.00027113,-0.00029830,-0.
 00007943,-0.00049656,-0.00081493,-0.00033284,0.00042962,0.00017216,0.0
 0045011,0.00015488,-0.00014457,0.00032154,0.00056535,0.00078425,0.0007
 8499,0.00045486,0.00066354,0.00043468,-0.00040544,-0.00021839,-0.00082
 807,-0.00056769,-0.00039706,-0.00052067,0.00033515,-0.00027907,-0.0009
 8950,0.00035324,0.00009903,0.00015592,-0.00034353,0.00004694,0.0002924
 6,-0.00125152,0.00091039,0.00046359,0.00030889,-0.00015423,-0.00002835
 ,0.00095435,-0.00050641,0.00013431,-0.00004019,0.00000034,-0.00002349,
 -0.00033357,0.00002883,0.00063013,0.00021083,0.00010351,-0.00023699,0.
 00038804,0.00011309,-0.00006616,-0.00001356,-0.00000509,-0.00035667,-0
 .00065225,-0.00008540,-0.00003204,0.00004167,-0.00007949,-0.00023547,0
 .00043189,0.00001959,-0.00003366,0.00003508,-0.00010514,0.00029975,-0.
 00113200,-0.00032579,-0.00083108,0.00015103,0.00039294,0.00033456,0.00
 026254,-0.00012893,-0.00001198,0.00088304,0.00093675,-0.00065842,-0.00
 005857,-0.00008812,0.00029378,-0.00006100,-0.00030686,0.00104531,-0.00
 003103,0.00000390,-0.00008216,0.00001176,-0.00046402,-0.00008125,-0.00
 019124,-0.00019194,0.00020509,0.00011985,0.00038005,-0.00001394,0.0001
 6198,-0.00002637,0.00000409,0.00014554,-0.00009932,-0.00001996,0.00011
 846,0.00010494,-0.00005915,0.00000714,0.00009008,0.00036624,-0.0001670
 4,-0.00007605,-0.00011154,0.00001719,0.00001009,-0.00002579,-0.0002118
 8,0.00021675,-0.00012907,0.00031254,0.00012675,0.00041184,0.00007365,-
 0.00002624,-0.00004608,0.00005205,0.00016709,-0.00020040,0.00046286,-0
 .00005297,0.00029087,-0.00014733,-0.00017338,-0.00006296,-0.00037463,-
 0.00005466,-0.00009790,-0.00008009,-0.00001185,0.00003110,-0.00001986,
 -0.00019149,-0.00019740,0.00001359,-0.00040330,-0.00004890,0.00011109,
 0.00049397,-0.00000051,0.00000223,0.00005130,0.00014879,-0.00014113,0.
 00000692,-0.00006825,0.00003276,0.00013974,0.00006517,0.00048582,0.000
 08134,0.00057722,-0.00014263,-0.00011311,-0.00022760,-0.00001669,0.000
 02233,-0.00000877,-0.00034505,-0.00027918,-0.00043715\\@
 The archive entry for this job was punched.


 WOMEN HOLD UP HALF THE SKY. -- MAO TSE TUNG
 Job cpu time:       1 days 21 hours  0 minutes  4.2 seconds.
 Elapsed time:       0 days  1 hours  8 minutes 49.1 seconds.
 File lengths (MBytes):  RWF=   2665 Int=      0 D2E=      0 Chk=     43 Scr=      1
 Normal termination of Gaussian 16 at Sat Mar 22 11:33:00 2025.
