 Entering Gaussian System, Link 0=g16
 Input=enolt_mp2_avdz_opt_anharm.gjf
 Output=enolt_mp2_avdz_opt_anharm.log
 Initial command:
 /sw/contrib/chem-src/g16/c01/g16/l1.exe "/scr/Gau-28709.inp" -scrdir="/scr/"
 Entering Link 1 = /sw/contrib/chem-src/g16/c01/g16/l1.exe PID=     28710.
  
 Copyright (c) 1988-2019, Gaussian, Inc.  All Rights Reserved.
  
 This is part of the Gaussian(R) 16 program.  It is based on
 the Gaussian(R) 09 system (copyright 2009, Gaussian, Inc.),
 the Gaussian(R) 03 system (copyright 2003, Gaussian, Inc.),
 the Gaussian(R) 98 system (copyright 1998, Gaussian, Inc.),
 the Gaussian(R) 94 system (copyright 1995, Gaussian, Inc.),
 the Gaussian 92(TM) system (copyright 1992, Gaussian, Inc.),
 the Gaussian 90(TM) system (copyright 1990, Gaussian, Inc.),
 the Gaussian 88(TM) system (copyright 1988, Gaussian, Inc.),
 the Gaussian 86(TM) system (copyright 1986, Carnegie Mellon
 University), and the Gaussian 82(TM) system (copyright 1983,
 Carnegie Mellon University). Gaussian is a federally registered
 trademark of Gaussian, Inc.
  
 This software contains proprietary and confidential information,
 including trade secrets, belonging to Gaussian, Inc.
  
 This software is provided under written license and may be
 used, copied, transmitted, or stored only in accord with that
 written license.
  
 The following legend is applicable only to US Government
 contracts under FAR:
  
                    RESTRICTED RIGHTS LEGEND
  
 Use, reproduction and disclosure by the US Government is
 subject to restrictions as set forth in subparagraphs (a)
 and (c) of the Commercial Computer Software - Restricted
 Rights clause in FAR 52.227-19.
  
 Gaussian, Inc.
 340 Quinnipiac St., Bldg. 40, Wallingford CT 06492
  
  
 ---------------------------------------------------------------
 Warning -- This program may not be used in any manner that
 competes with the business of Gaussian, Inc. or will provide
 assistance to any competitor of Gaussian, Inc.  The licensee
 of this program is prohibited from giving any competitor of
 Gaussian, Inc. access to this program.  By using this program,
 the user acknowledges that Gaussian, Inc. is engaged in the
 business of creating and licensing software in the field of
 computational chemistry and represents and warrants to the
 licensee that it is not a competitor of Gaussian, Inc. and that
 it will not use this program in any manner prohibited above.
 ---------------------------------------------------------------
  

 Cite this work as:
 Gaussian 16, Revision C.01,
 M. J. Frisch, G. W. Trucks, H. B. Schlegel, G. E. Scuseria, 
 M. A. Robb, J. R. Cheeseman, G. Scalmani, V. Barone, 
 G. A. Petersson, H. Nakatsuji, X. Li, M. Caricato, A. V. Marenich, 
 J. Bloino, B. G. Janesko, R. Gomperts, B. Mennucci, H. P. Hratchian, 
 J. V. Ortiz, A. F. Izmaylov, J. L. Sonnenberg, D. Williams-Young, 
 F. Ding, F. Lipparini, F. Egidi, J. Goings, B. Peng, A. Petrone, 
 T. Henderson, D. Ranasinghe, V. G. Zakrzewski, J. Gao, N. Rega, 
 G. Zheng, W. Liang, M. Hada, M. Ehara, K. Toyota, R. Fukuda, 
 J. Hasegawa, M. Ishida, T. Nakajima, Y. Honda, O. Kitao, H. Nakai, 
 T. Vreven, K. Throssell, J. A. Montgomery, Jr., J. E. Peralta, 
 F. Ogliaro, M. J. Bearpark, J. J. Heyd, E. N. Brothers, K. N. Kudin, 
 V. N. Staroverov, T. A. Keith, R. Kobayashi, J. Normand, 
 K. Raghavachari, A. P. Rendell, J. C. Burant, S. S. Iyengar, 
 J. Tomasi, M. Cossi, J. M. Millam, M. Klene, C. Adamo, R. Cammi, 
 J. W. Ochterski, R. L. Martin, K. Morokuma, O. Farkas, 
 J. B. Foresman, and D. J. Fox, Gaussian, Inc., Wallingford CT, 2019.
 
 ******************************************
 Gaussian 16:  EM64L-G16RevC.01  3-Jul-2019
                21-Mar-2025 
 ******************************************
 %nprocshared=40
 Will use up to   40 processors via shared memory.
 %mem=50gb
 ----------------------------------------------
 # MP2/aug-cc-pVDZ opt freq=(vibrot,anharmonic)
 ----------------------------------------------
 1/18=20,19=15,38=1,80=1/1,3;
 2/9=110,12=2,17=6,18=5,40=1/2;
 3/5=16,7=10,11=9,25=1,30=1,71=1/1,2,3;
 4//1;
 5/5=2,38=5/2;
 8/6=4,10=1/1;
 9/15=2,16=-3/6;
 10/5=1/2;
 6/7=2,8=2,9=2,10=2/1;
 7/12=2/1,2,3,16;
 1/18=20,19=15,80=1/3(2);
 2/9=110/2;
 99//99;
 2/9=110/2;
 3/5=16,7=10,11=9,25=1,30=1,71=1/1,2,3;
 4/5=5,16=3,69=1/1;
 5/5=2,38=5/2;
 8/6=4,10=1/1;
 9/15=2,16=-3/6;
 10/5=1/2;
 7/12=2/1,2,3,16;
 1/18=20,19=15,80=1/3(-8);
 2/9=110/2;
 6/7=2,8=2,9=2,10=2/1;
 99/9=10/99;
 ----
 blah
 ----
 Symbolic Z-matrix:
 Charge =  0 Multiplicity = 1
 C                    -0.21932   1.27861   0.51616 
 C                    -0.67914   0.02917   0.52269 
 H                     0.27283   1.74303   1.36081 
 O                    -0.33836   2.08145  -0.58098 
 H                    -0.5795   -0.60024   1.39949 
 H                    -1.16534  -0.38664  -0.35369 
 H                     0.06033   2.9444   -0.37149 
 

 GradGradGradGradGradGradGradGradGradGradGradGradGradGradGradGradGradGrad
 Berny optimization.
 Initialization pass.
                           ----------------------------
                           !    Initial Parameters    !
                           ! (Angstroms and Degrees)  !
 --------------------------                            --------------------------
 ! Name  Definition              Value          Derivative Info.                !
 --------------------------------------------------------------------------------
 ! R1    R(1,2)                  1.3314         estimate D2E/DX2                !
 ! R2    R(1,3)                  1.0823         estimate D2E/DX2                !
 ! R3    R(1,4)                  1.3647         estimate D2E/DX2                !
 ! R4    R(2,5)                  1.0839         estimate D2E/DX2                !
 ! R5    R(2,6)                  1.0851         estimate D2E/DX2                !
 ! R6    R(4,7)                  0.9734         estimate D2E/DX2                !
 ! A1    A(2,1,3)              123.7749         estimate D2E/DX2                !
 ! A2    A(2,1,4)              121.7284         estimate D2E/DX2                !
 ! A3    A(3,1,4)              114.4966         estimate D2E/DX2                !
 ! A4    A(1,2,5)              121.1425         estimate D2E/DX2                !
 ! A5    A(1,2,6)              120.6931         estimate D2E/DX2                !
 ! A6    A(5,2,6)              118.1644         estimate D2E/DX2                !
 ! A7    A(1,4,7)              108.2277         estimate D2E/DX2                !
 ! D1    D(3,1,2,5)              0.0001         estimate D2E/DX2                !
 ! D2    D(3,1,2,6)            180.0            estimate D2E/DX2                !
 ! D3    D(4,1,2,5)           -179.9999         estimate D2E/DX2                !
 ! D4    D(4,1,2,6)              0.0            estimate D2E/DX2                !
 ! D5    D(2,1,4,7)            179.9975         estimate D2E/DX2                !
 ! D6    D(3,1,4,7)             -0.0025         estimate D2E/DX2                !
 --------------------------------------------------------------------------------
 Trust Radius=3.00D-01 FncErr=1.00D-07 GrdErr=1.00D-07 EigMax=2.50D+02 EigMin=1.00D-04
 Number of steps in this run=     29 maximum allowed number of steps=    100.
 GradGradGradGradGradGradGradGradGradGradGradGradGradGradGradGradGradGrad

                          Input orientation:                          
 ---------------------------------------------------------------------
 Center     Atomic      Atomic             Coordinates (Angstroms)
 Number     Number       Type             X           Y           Z
 ---------------------------------------------------------------------
      1          6           0       -0.219325    1.278608    0.516163
      2          6           0       -0.679136    0.029174    0.522686
      3          1           0        0.272835    1.743031    1.360812
      4          8           0       -0.338360    2.081447   -0.580978
      5          1           0       -0.579501   -0.600244    1.399485
      6          1           0       -1.165345   -0.386644   -0.353690
      7          1           0        0.060329    2.944403   -0.371493
 ---------------------------------------------------------------------
                    Distance matrix (angstroms):
                    1          2          3          4          5
     1  C    0.000000
     2  C    1.331373   0.000000
     3  H    1.082285   2.132137   0.000000
     4  O    1.364712   2.355000   2.063645   0.000000
     5  H    2.107148   1.083915   2.493774   3.342432   0.000000
     6  H    2.103489   1.085053   3.089238   2.612860   1.860770
     7  H    1.908144   3.137662   2.118805   0.973411   4.013761
                    6          7
     6  H    0.000000
     7  H    3.549432   0.000000
 Stoichiometry    C2H4O
 Framework group  C1[X(C2H4O)]
 Deg. of freedom    15
 Full point group                 C1      NOp   1
 Largest Abelian subgroup         C1      NOp   1
 Largest concise Abelian subgroup C1      NOp   1
                         Standard orientation:                         
 ---------------------------------------------------------------------
 Center     Atomic      Atomic             Coordinates (Angstroms)
 Number     Number       Type             X           Y           Z
 ---------------------------------------------------------------------
      1          6           0        0.032509    0.417654   -0.000003
      2          6           0        1.225039   -0.174313    0.000002
      3          1           0       -0.106422    1.490984   -0.000005
      4          8           0       -1.126445   -0.302945   -0.000004
      5          1           0        2.139632    0.407402    0.000004
      6          1           0        1.306272   -1.256321    0.000004
      7          1           0       -1.873208    0.321454    0.000033
 ---------------------------------------------------------------------
 Rotational constants (GHZ):          63.5475643          10.4838556           8.9991991
 Standard basis: Aug-CC-pVDZ (5D, 7F)
 There are   111 symmetry adapted cartesian basis functions of A   symmetry.
 There are   105 symmetry adapted basis functions of A   symmetry.
   105 basis functions,   173 primitive gaussians,   111 cartesian basis functions
    12 alpha electrons       12 beta electrons
       nuclear repulsion energy        70.1631517336 Hartrees.
 NAtoms=    7 NActive=    7 NUniq=    7 SFac= 1.00D+00 NAtFMM=   60 NAOKFM=F Big=F
 Integral buffers will be    131072 words long.
 Raffenetti 1 integral format.
 Two-electron integral symmetry is turned on.
 One-electron integrals computed using PRISM.
 NBasis=   105 RedAO= T EigKep=  7.05D-05  NBF=   105
 NBsUse=   105 1.00D-06 EigRej= -1.00D+00 NBFU=   105
 ExpMin= 2.97D-02 ExpMax= 1.17D+04 ExpMxC= 4.01D+02 IAcc=3 IRadAn=         5 AccDes= 0.00D+00
 Harris functional with IExCor=  205 and IRadAn=       5 diagonalized for initial guess.
 HarFok:  IExCor=  205 AccDes= 0.00D+00 IRadAn=         5 IDoV= 1 UseB2=F ITyADJ=14
 ICtDFT=  3500011 ScaDFX=  1.000000  1.000000  1.000000  1.000000
 FoFCou: FMM=F IPFlag=           0 FMFlag=      100000 FMFlg1=           0
         NFxFlg=           0 DoJE=T BraDBF=F KetDBF=T FulRan=T
         wScrn=  0.000000 ICntrl=       500 IOpCl=  0 I1Cent=   200000004 NGrid=           0
         NMat0=    1 NMatS0=      1 NMatT0=    0 NMatD0=    1 NMtDS0=    0 NMtDT0=    0
 Petite list used in FoFCou.
 Keep R1 ints in memory in canonical form, NReq=23955928.
 Requested convergence on RMS density matrix=1.00D-08 within 128 cycles.
 Requested convergence on MAX density matrix=1.00D-06.
 Requested convergence on             energy=1.00D-06.
 No special actions if energy rises.
 SCF Done:  E(RHF) =  -152.916345271     A.U. after   13 cycles
            NFock= 13  Conv=0.15D-08     -V/T= 2.0015
 ExpMin= 2.97D-02 ExpMax= 1.17D+04 ExpMxC= 4.01D+02 IAcc=3 IRadAn=         5 AccDes= 0.00D+00
 HarFok:  IExCor=  205 AccDes= 0.00D+00 IRadAn=         5 IDoV=-2 UseB2=F ITyADJ=14
 ICtDFT= 12500011 ScaDFX=  1.000000  1.000000  1.000000  1.000000
 Range of M.O.s used for correlation:     4   105
 NBasis=   105 NAE=    12 NBE=    12 NFC=     3 NFV=     0
 NROrb=    102 NOA=     9 NOB=     9 NVA=    93 NVB=    93

 **** Warning!!: The largest alpha MO coefficient is  0.26692962D+02

 Fully direct method using O(ONN) memory.
 JobTyp=1 Pass  1:  I=   4 to  12 NPSUse= 40 ParTrn=T ParDer=T DoDerP=T.
 Spin components of T(2) and E(2):
     alpha-alpha T2 =       0.1967466400D-01 E2=     -0.5982015403D-01
     alpha-beta  T2 =       0.1176297659D+00 E2=     -0.3616937202D+00
     beta-beta   T2 =       0.1967466400D-01 E2=     -0.5982015403D-01
 ANorm=    0.1075629627D+01
 E2 =    -0.4813340283D+00 EUMP2 =    -0.15339767929919D+03
          IDoAtm=1111111
          Differentiating once with respect to electric field.
                with respect to dipole field.
          Differentiating once with respect to nuclear coordinates.
 Keep R1 ints in memory in canonical form, NReq=23959805.
          There are     1 degrees of freedom in the 1st order CPHF.  IDoFFX=0 NUNeed=     1.
 LinEq1:  Iter=  0 NonCon=     1 RMS=5.24D-03 Max=7.01D-02 NDo=     1
 AX will form     1 AO Fock derivatives at one time.
 LinEq1:  Iter=  1 NonCon=     1 RMS=1.30D-03 Max=7.00D-03 NDo=     1
 LinEq1:  Iter=  2 NonCon=     1 RMS=4.57D-04 Max=4.35D-03 NDo=     1
 LinEq1:  Iter=  3 NonCon=     1 RMS=1.25D-04 Max=1.19D-03 NDo=     1
 LinEq1:  Iter=  4 NonCon=     1 RMS=4.40D-05 Max=4.23D-04 NDo=     1
 LinEq1:  Iter=  5 NonCon=     1 RMS=9.72D-06 Max=8.41D-05 NDo=     1
 LinEq1:  Iter=  6 NonCon=     1 RMS=3.52D-06 Max=5.18D-05 NDo=     1
 LinEq1:  Iter=  7 NonCon=     1 RMS=9.41D-07 Max=6.60D-06 NDo=     1
 LinEq1:  Iter=  8 NonCon=     1 RMS=2.23D-07 Max=2.95D-06 NDo=     1
 LinEq1:  Iter=  9 NonCon=     1 RMS=4.55D-08 Max=2.98D-07 NDo=     1
 LinEq1:  Iter= 10 NonCon=     1 RMS=8.31D-09 Max=4.85D-08 NDo=     1
 LinEq1:  Iter= 11 NonCon=     1 RMS=1.22D-09 Max=7.60D-09 NDo=     1
 LinEq1:  Iter= 12 NonCon=     1 RMS=2.03D-10 Max=1.24D-09 NDo=     1
 LinEq1:  Iter= 13 NonCon=     0 RMS=3.06D-11 Max=2.48D-10 NDo=     1
 Linear equations converged to 1.000D-10 1.000D-09 after    13 iterations.
 End of Minotr F.D. properties file   721 does not exist.
 End of Minotr F.D. properties file   722 does not exist.
 End of Minotr F.D. properties file   788 does not exist.

 **********************************************************************

            Population analysis using the SCF Density.

 **********************************************************************

 Orbital symmetries:
       Occupied  (A) (A) (A) (A) (A) (A) (A) (A) (A) (A) (A) (A)
       Virtual   (A) (A) (A) (A) (A) (A) (A) (A) (A) (A) (A) (A)
                 (A) (A) (A) (A) (A) (A) (A) (A) (A) (A) (A) (A)
                 (A) (A) (A) (A) (A) (A) (A) (A) (A) (A) (A) (A)
                 (A) (A) (A) (A) (A) (A) (A) (A) (A) (A) (A) (A)
                 (A) (A) (A) (A) (A) (A) (A) (A) (A) (A) (A) (A)
                 (A) (A) (A) (A) (A) (A) (A) (A) (A) (A) (A) (A)
                 (A) (A) (A) (A) (A) (A) (A) (A) (A) (A) (A) (A)
                 (A) (A) (A) (A) (A) (A) (A) (A) (A)
 The electronic state is 1-A.
 Alpha  occ. eigenvalues --  -20.60114 -11.30427 -11.21979  -1.40516  -1.02449
 Alpha  occ. eigenvalues --   -0.79780  -0.74160  -0.62328  -0.57700  -0.57145
 Alpha  occ. eigenvalues --   -0.52057  -0.34519
 Alpha virt. eigenvalues --    0.03107   0.04876   0.05388   0.07023   0.11061
 Alpha virt. eigenvalues --    0.11834   0.12596   0.12872   0.15510   0.17792
 Alpha virt. eigenvalues --    0.19786   0.20724   0.21127   0.22574   0.23732
 Alpha virt. eigenvalues --    0.25177   0.30649   0.30799   0.35733   0.36298
 Alpha virt. eigenvalues --    0.37465   0.40349   0.40437   0.42064   0.44709
 Alpha virt. eigenvalues --    0.45313   0.50189   0.51940   0.52584   0.54366
 Alpha virt. eigenvalues --    0.58417   0.60022   0.62750   0.62942   0.64350
 Alpha virt. eigenvalues --    0.65023   0.66494   0.67695   0.69425   0.71262
 Alpha virt. eigenvalues --    0.72496   0.79190   0.84086   0.87489   0.87969
 Alpha virt. eigenvalues --    0.91053   0.95758   1.01956   1.06718   1.18990
 Alpha virt. eigenvalues --    1.20702   1.21420   1.22578   1.23189   1.29107
 Alpha virt. eigenvalues --    1.49636   1.52094   1.52204   1.55642   1.57451
 Alpha virt. eigenvalues --    1.62805   1.68462   1.74063   1.78492   1.79990
 Alpha virt. eigenvalues --    1.88404   1.89153   1.98019   2.02181   2.08807
 Alpha virt. eigenvalues --    2.08828   2.11104   2.13448   2.16569   2.19566
 Alpha virt. eigenvalues --    2.34942   2.37756   2.43796   2.44639   2.55140
 Alpha virt. eigenvalues --    2.67822   2.70574   2.79551   2.83082   2.97784
 Alpha virt. eigenvalues --    3.18350   3.30169   3.51357   3.70034   3.74468
 Alpha virt. eigenvalues --    3.79659   3.94070   4.32805
          Condensed to atoms (all electrons):
               1          2          3          4          5          6
     1  C    4.334850   0.594829   0.114143   0.006218  -0.001900  -0.035411
     2  C    0.594829   4.683436  -0.133224  -0.030245   0.240685   0.312749
     3  H    0.114143  -0.133224   1.519385  -0.012939  -0.109865   0.069950
     4  O    0.006218  -0.030245  -0.012939   8.411432   0.022760  -0.031700
     5  H   -0.001900   0.240685  -0.109865   0.022760   1.344739  -0.261156
     6  H   -0.035411   0.312749   0.069950  -0.031700  -0.261156   1.195316
     7  H   -0.008728   0.000838  -0.095174   0.334825   0.004552  -0.010986
               7
     1  C   -0.008728
     2  C    0.000838
     3  H   -0.095174
     4  O    0.334825
     5  H    0.004552
     6  H   -0.010986
     7  H    0.570405
 Mulliken charges:
               1
     1  C    0.996000
     2  C    0.330934
     3  H   -0.352275
     4  O   -0.700350
     5  H   -0.239815
     6  H   -0.238761
     7  H    0.204268
 Sum of Mulliken charges =  -0.00000
 Mulliken charges with hydrogens summed into heavy atoms:
               1
     1  C    0.643724
     2  C   -0.147642
     4  O   -0.496082
 Electronic spatial extent (au):  <R**2>=            165.1167
 Charge=             -0.0000 electrons
 Dipole moment (field-independent basis, Debye):
    X=             -0.8008    Y=              1.7906    Z=              0.0001  Tot=              1.9615
 Quadrupole moment (field-independent basis, Debye-Ang):
   XX=            -15.1327   YY=            -17.4263   ZZ=            -21.4159
   XY=             -2.8673   XZ=             -0.0001   YZ=              0.0000
 Traceless Quadrupole moment (field-independent basis, Debye-Ang):
   XX=              2.8589   YY=              0.5654   ZZ=             -3.4243
   XY=             -2.8673   XZ=             -0.0001   YZ=              0.0000
 Octapole moment (field-independent basis, Debye-Ang**2):
  XXX=            -12.9332  YYY=              0.4480  ZZZ=              0.0000  XYY=             -1.3775
  XXY=              4.0053  XXZ=              0.0003  XZZ=             -3.9675  YZZ=             -0.3126
  YYZ=              0.0000  XYZ=             -0.0001
 Hexadecapole moment (field-independent basis, Debye-Ang**3):
 XXXX=           -119.4326 YYYY=            -40.4799 ZZZZ=            -25.0411 XXXY=             -3.9181
 XXXZ=             -0.0006 YYYX=             -2.6388 YYYZ=              0.0000 ZZZX=             -0.0001
 ZZZY=              0.0000 XXYY=            -30.5794 XXZZ=            -31.9994 YYZZ=            -12.3459
 XXYZ=              0.0001 YYXZ=             -0.0000 ZZXY=             -0.3936
 N-N= 7.016315173357D+01 E-N=-4.993765272147D+02  KE= 1.526810000340D+02
 Calling FoFJK, ICntrl=  10002127 FMM=F ISym2X=0 I1Cent= 0 IOpClX= 0 NMat=1 NMatS=1 NMatT=0.
 ***** Axes restored to original set *****
 -------------------------------------------------------------------
 Center     Atomic                   Forces (Hartrees/Bohr)
 Number     Number              X              Y              Z
 -------------------------------------------------------------------
      1        6           0.003948400    0.007471808    0.003123359
      2        6          -0.005582950   -0.014943033   -0.000142931
      3        1           0.003810554    0.000451010    0.009607838
      4        8           0.002151526    0.015187711   -0.009143195
      5        1           0.001640482   -0.000111639    0.004433779
      6        1          -0.002172677   -0.001316597   -0.004444245
      7        1          -0.003795335   -0.006739260   -0.003434605
 -------------------------------------------------------------------
 Cartesian Forces:  Max     0.015187711 RMS     0.006479900

 GradGradGradGradGradGradGradGradGradGradGradGradGradGradGradGradGradGrad
 Berny optimization.
 FormGI is forming the generalized inverse of G from B-inverse, IUseBI=4.
 Internal  Forces:  Max     0.017474915 RMS     0.006496325
 Search for a local minimum.
 Step number   1 out of a maximum of   29
 All quantities printed in internal units (Hartrees-Bohrs-Radians)
 Mixed Optimization -- RFO/linear search
 Second derivative matrix not updated -- first step.
 The second derivative matrix:
                          R1        R2        R3        R4        R5
           R1           0.59183
           R2           0.00000   0.35720
           R3           0.00000   0.00000   0.52006
           R4           0.00000   0.00000   0.00000   0.35525
           R5           0.00000   0.00000   0.00000   0.00000   0.35391
           R6           0.00000   0.00000   0.00000   0.00000   0.00000
           A1           0.00000   0.00000   0.00000   0.00000   0.00000
           A2           0.00000   0.00000   0.00000   0.00000   0.00000
           A3           0.00000   0.00000   0.00000   0.00000   0.00000
           A4           0.00000   0.00000   0.00000   0.00000   0.00000
           A5           0.00000   0.00000   0.00000   0.00000   0.00000
           A6           0.00000   0.00000   0.00000   0.00000   0.00000
           A7           0.00000   0.00000   0.00000   0.00000   0.00000
           D1           0.00000   0.00000   0.00000   0.00000   0.00000
           D2           0.00000   0.00000   0.00000   0.00000   0.00000
           D3           0.00000   0.00000   0.00000   0.00000   0.00000
           D4           0.00000   0.00000   0.00000   0.00000   0.00000
           D5           0.00000   0.00000   0.00000   0.00000   0.00000
           D6           0.00000   0.00000   0.00000   0.00000   0.00000
                          R6        A1        A2        A3        A4
           R6           0.52686
           A1           0.00000   0.16000
           A2           0.00000   0.00000   0.25000
           A3           0.00000   0.00000   0.00000   0.16000
           A4           0.00000   0.00000   0.00000   0.00000   0.16000
           A5           0.00000   0.00000   0.00000   0.00000   0.00000
           A6           0.00000   0.00000   0.00000   0.00000   0.00000
           A7           0.00000   0.00000   0.00000   0.00000   0.00000
           D1           0.00000   0.00000   0.00000   0.00000   0.00000
           D2           0.00000   0.00000   0.00000   0.00000   0.00000
           D3           0.00000   0.00000   0.00000   0.00000   0.00000
           D4           0.00000   0.00000   0.00000   0.00000   0.00000
           D5           0.00000   0.00000   0.00000   0.00000   0.00000
           D6           0.00000   0.00000   0.00000   0.00000   0.00000
                          A5        A6        A7        D1        D2
           A5           0.16000
           A6           0.00000   0.16000
           A7           0.00000   0.00000   0.16000
           D1           0.00000   0.00000   0.00000   0.02997
           D2           0.00000   0.00000   0.00000   0.00000   0.02997
           D3           0.00000   0.00000   0.00000   0.00000   0.00000
           D4           0.00000   0.00000   0.00000   0.00000   0.00000
           D5           0.00000   0.00000   0.00000   0.00000   0.00000
           D6           0.00000   0.00000   0.00000   0.00000   0.00000
                          D3        D4        D5        D6
           D3           0.02997
           D4           0.00000   0.02997
           D5           0.00000   0.00000   0.02159
           D6           0.00000   0.00000   0.00000   0.02159
 ITU=  0
     Eigenvalues ---    0.02159   0.02750   0.02997   0.02997   0.16000
     Eigenvalues ---    0.16000   0.16000   0.16000   0.22000   0.35391
     Eigenvalues ---    0.35525   0.35720   0.52006   0.52686   0.59183
 RFO step:  Lambda=-1.86327664D-03 EMin= 2.15857456D-02
 Linear search not attempted -- first point.
 Iteration  1 RMS(Cart)=  0.02413369 RMS(Int)=  0.00026639
 Iteration  2 RMS(Cart)=  0.00028165 RMS(Int)=  0.00000008
 Iteration  3 RMS(Cart)=  0.00000007 RMS(Int)=  0.00000005
 Variable       Old X    -DE/DX   Delta X   Delta X   Delta X     New X
                                 (Linear)    (Quad)   (Total)
    R1        2.51593   0.01747   0.00000   0.02943   0.02943   2.54536
    R2        2.04522   0.00942   0.00000   0.02625   0.02625   2.07147
    R3        2.57893   0.01523   0.00000   0.02917   0.02917   2.60810
    R4        2.04830   0.00380   0.00000   0.01065   0.01065   2.05895
    R5        2.05045   0.00507   0.00000   0.01424   0.01424   2.06470
    R6        1.83948  -0.00827   0.00000  -0.01564  -0.01564   1.82384
    A1        2.16028  -0.00412   0.00000  -0.02587  -0.02587   2.13441
    A2        2.12456  -0.00048   0.00000  -0.00219  -0.00219   2.12238
    A3        1.99834   0.00461   0.00000   0.02805   0.02805   2.02640
    A4        2.11434  -0.00334   0.00000  -0.02066  -0.02066   2.09367
    A5        2.10649   0.00093   0.00000   0.00575   0.00575   2.11224
    A6        2.06236   0.00241   0.00000   0.01492   0.01492   2.07728
    A7        1.88893   0.00332   0.00000   0.02051   0.02051   1.90943
    D1        0.00000  -0.00000   0.00000  -0.00000  -0.00000  -0.00000
    D2        3.14159   0.00000   0.00000   0.00000   0.00000  -3.14159
    D3       -3.14159  -0.00000   0.00000  -0.00001  -0.00001   3.14158
    D4        0.00000  -0.00000   0.00000  -0.00001  -0.00001  -0.00001
    D5        3.14155   0.00000   0.00000   0.00002   0.00002   3.14156
    D6       -0.00004   0.00000   0.00000   0.00000   0.00000  -0.00004
         Item               Value     Threshold  Converged?
 Maximum Force            0.017475     0.000450     NO 
 RMS     Force            0.006496     0.000300     NO 
 Maximum Displacement     0.058987     0.001800     NO 
 RMS     Displacement     0.024127     0.001200     NO 
 Predicted change in Energy=-9.367911D-04
 GradGradGradGradGradGradGradGradGradGradGradGradGradGradGradGradGradGrad

                          Input orientation:                          
 ---------------------------------------------------------------------
 Center     Atomic      Atomic             Coordinates (Angstroms)
 Number     Number       Type             X           Y           Z
 ---------------------------------------------------------------------
      1          6           0       -0.216228    1.283854    0.519231
      2          6           0       -0.683428    0.020527    0.519811
      3          1           0        0.278281    1.725767    1.392026
      4          8           0       -0.334982    2.098379   -0.588585
      5          1           0       -0.575317   -0.599154    1.409431
      6          1           0       -1.173163   -0.399128   -0.362122
      7          1           0        0.056334    2.959530   -0.396808
 ---------------------------------------------------------------------
                    Distance matrix (angstroms):
                    1          2          3          4          5
     1  C    0.000000
     2  C    1.346949   0.000000
     3  H    1.096174   2.143243   0.000000
     4  O    1.380149   2.380636   2.106597   0.000000
     5  H    2.113556   1.089549   2.476730   3.365489   0.000000
     6  H    2.127189   1.092591   3.114306   2.644121   1.880381
     7  H    1.929069   3.166256   2.184344   0.965136   4.040509
                    6          7
     6  H    0.000000
     7  H    3.576793   0.000000
 Stoichiometry    C2H4O
 Framework group  C1[X(C2H4O)]
 Deg. of freedom    15
 Full point group                 C1      NOp   1
 Largest Abelian subgroup         C1      NOp   1
 Largest concise Abelian subgroup C1      NOp   1
                         Standard orientation:                         
 ---------------------------------------------------------------------
 Center     Atomic      Atomic             Coordinates (Angstroms)
 Number     Number       Type             X           Y           Z
 ---------------------------------------------------------------------
      1          6           0        0.034028    0.423375    0.000001
      2          6           0        1.236797   -0.182939    0.000002
      3          1           0       -0.071801    1.514429   -0.000006
      4          8           0       -1.140924   -0.300709   -0.000004
      5          1           0        2.147568    0.415070   -0.000006
      6          1           0        1.318142   -1.272498    0.000005
      7          1           0       -1.891471    0.306058    0.000023
 ---------------------------------------------------------------------
 Rotational constants (GHZ):          62.0865135          10.2718628           8.8136879
 Standard basis: Aug-CC-pVDZ (5D, 7F)
 There are   111 symmetry adapted cartesian basis functions of A   symmetry.
 There are   105 symmetry adapted basis functions of A   symmetry.
   105 basis functions,   173 primitive gaussians,   111 cartesian basis functions
    12 alpha electrons       12 beta electrons
       nuclear repulsion energy        69.4998050689 Hartrees.
 NAtoms=    7 NActive=    7 NUniq=    7 SFac= 1.00D+00 NAtFMM=   60 NAOKFM=F Big=F
 Integral buffers will be    131072 words long.
 Raffenetti 1 integral format.
 Two-electron integral symmetry is turned on.
 One-electron integrals computed using PRISM.
 NBasis=   105 RedAO= T EigKep=  7.72D-05  NBF=   105
 NBsUse=   105 1.00D-06 EigRej= -1.00D+00 NBFU=   105
 Initial guess from the checkpoint file:  "/scr/Gau-28710.chk"
 B after Tr=    -0.000000   -0.000000   -0.000000
         Rot=    0.999999   -0.000000    0.000000    0.001718 Ang=  -0.20 deg.
 ExpMin= 2.97D-02 ExpMax= 1.17D+04 ExpMxC= 4.01D+02 IAcc=3 IRadAn=         5 AccDes= 0.00D+00
 Harris functional with IExCor=  205 and IRadAn=       5 diagonalized for initial guess.
 HarFok:  IExCor=  205 AccDes= 0.00D+00 IRadAn=         5 IDoV= 1 UseB2=F ITyADJ=14
 ICtDFT=  3500011 ScaDFX=  1.000000  1.000000  1.000000  1.000000
 FoFCou: FMM=F IPFlag=           0 FMFlag=      100000 FMFlg1=           0
         NFxFlg=           0 DoJE=T BraDBF=F KetDBF=T FulRan=T
         wScrn=  0.000000 ICntrl=       500 IOpCl=  0 I1Cent=   200000004 NGrid=           0
         NMat0=    1 NMatS0=      1 NMatT0=    0 NMatD0=    1 NMtDS0=    0 NMtDT0=    0
 Petite list used in FoFCou.
 Keep R1 ints in memory in canonical form, NReq=23955751.
 Requested convergence on RMS density matrix=1.00D-08 within 128 cycles.
 Requested convergence on MAX density matrix=1.00D-06.
 Requested convergence on             energy=1.00D-06.
 No special actions if energy rises.
 SCF Done:  E(RHF) =  -152.915665990     A.U. after   11 cycles
            NFock= 11  Conv=0.40D-08     -V/T= 2.0023
 ExpMin= 2.97D-02 ExpMax= 1.17D+04 ExpMxC= 4.01D+02 IAcc=3 IRadAn=         5 AccDes= 0.00D+00
 HarFok:  IExCor=  205 AccDes= 0.00D+00 IRadAn=         5 IDoV=-2 UseB2=F ITyADJ=14
 ICtDFT= 12500011 ScaDFX=  1.000000  1.000000  1.000000  1.000000
 Range of M.O.s used for correlation:     4   105
 NBasis=   105 NAE=    12 NBE=    12 NFC=     3 NFV=     0
 NROrb=    102 NOA=     9 NOB=     9 NVA=    93 NVB=    93

 **** Warning!!: The largest alpha MO coefficient is  0.24646346D+02

 Fully direct method using O(ONN) memory.
 JobTyp=1 Pass  1:  I=   4 to  12 NPSUse= 40 ParTrn=T ParDer=T DoDerP=T.
 Spin components of T(2) and E(2):
     alpha-alpha T2 =       0.1986927831D-01 E2=     -0.5992881484D-01
     alpha-beta  T2 =       0.1191743819D+00 E2=     -0.3630525290D+00
     beta-beta   T2 =       0.1986927831D-01 E2=     -0.5992881484D-01
 ANorm=    0.1076528188D+01
 E2 =    -0.4829101587D+00 EUMP2 =    -0.15339857614820D+03
          IDoAtm=1111111
          Differentiating once with respect to electric field.
                with respect to dipole field.
          Differentiating once with respect to nuclear coordinates.
 Keep R1 ints in memory in canonical form, NReq=23959510.
          There are     1 degrees of freedom in the 1st order CPHF.  IDoFFX=0 NUNeed=     1.
 LinEq1:  Iter=  0 NonCon=     1 RMS=5.30D-03 Max=6.89D-02 NDo=     1
 AX will form     1 AO Fock derivatives at one time.
 LinEq1:  Iter=  1 NonCon=     1 RMS=1.33D-03 Max=7.20D-03 NDo=     1
 LinEq1:  Iter=  2 NonCon=     1 RMS=4.67D-04 Max=4.39D-03 NDo=     1
 LinEq1:  Iter=  3 NonCon=     1 RMS=1.30D-04 Max=1.32D-03 NDo=     1
 LinEq1:  Iter=  4 NonCon=     1 RMS=4.48D-05 Max=4.06D-04 NDo=     1
 LinEq1:  Iter=  5 NonCon=     1 RMS=1.00D-05 Max=9.58D-05 NDo=     1
 LinEq1:  Iter=  6 NonCon=     1 RMS=3.68D-06 Max=5.29D-05 NDo=     1
 LinEq1:  Iter=  7 NonCon=     1 RMS=9.86D-07 Max=6.88D-06 NDo=     1
 LinEq1:  Iter=  8 NonCon=     1 RMS=2.28D-07 Max=3.01D-06 NDo=     1
 LinEq1:  Iter=  9 NonCon=     1 RMS=4.80D-08 Max=3.36D-07 NDo=     1
 LinEq1:  Iter= 10 NonCon=     1 RMS=9.02D-09 Max=5.83D-08 NDo=     1
 LinEq1:  Iter= 11 NonCon=     1 RMS=1.33D-09 Max=8.89D-09 NDo=     1
 LinEq1:  Iter= 12 NonCon=     1 RMS=2.22D-10 Max=1.35D-09 NDo=     1
 LinEq1:  Iter= 13 NonCon=     0 RMS=3.30D-11 Max=2.87D-10 NDo=     1
 Linear equations converged to 1.000D-10 1.000D-09 after    13 iterations.
 End of Minotr F.D. properties file   721 does not exist.
 End of Minotr F.D. properties file   722 does not exist.
 End of Minotr F.D. properties file   788 does not exist.
 Calling FoFJK, ICntrl=  10002127 FMM=F ISym2X=0 I1Cent= 0 IOpClX= 0 NMat=1 NMatS=1 NMatT=0.
 ***** Axes restored to original set *****
 -------------------------------------------------------------------
 Center     Atomic                   Forces (Hartrees/Bohr)
 Number     Number              X              Y              Z
 -------------------------------------------------------------------
      1        6           0.000782337    0.000567418    0.001507520
      2        6          -0.000933759   -0.000649568   -0.001828524
      3        1          -0.000371125   -0.000522446   -0.000468281
      4        8          -0.000714390   -0.000910783   -0.000994167
      5        1           0.000656739    0.001206385    0.000555252
      6        1           0.000327413    0.000597516    0.000280356
      7        1           0.000252784   -0.000288522    0.000947845
 -------------------------------------------------------------------
 Cartesian Forces:  Max     0.001828524 RMS     0.000833397

 GradGradGradGradGradGradGradGradGradGradGradGradGradGradGradGradGradGrad
 Berny optimization.
 Using GEDIIS/GDIIS optimizer.
 FormGI is forming the generalized inverse of G from B-inverse, IUseBI=4.
 Internal  Forces:  Max     0.001863927 RMS     0.000776834
 Search for a local minimum.
 Step number   2 out of a maximum of   29
 All quantities printed in internal units (Hartrees-Bohrs-Radians)
 Mixed Optimization -- En-DIIS/RFO-DIIS
 Update second derivatives using D2CorX and points    1    2
 DE= -8.97D-04 DEPred=-9.37D-04 R= 9.57D-01
 TightC=F SS=  1.41D+00  RLast= 7.44D-02 DXNew= 5.0454D-01 2.2311D-01
 Trust test= 9.57D-01 RLast= 7.44D-02 DXMaxT set to 3.00D-01
 The second derivative matrix:
                          R1        R2        R3        R4        R5
           R1           0.60879
           R2           0.01086   0.36399
           R3           0.01165   0.00775   0.52754
           R4           0.00307   0.00202   0.00200   0.35579
           R5           0.00778   0.00471   0.00582   0.00150   0.35703
           R6          -0.00331  -0.00256  -0.00149  -0.00044  -0.00224
           A1          -0.00117  -0.00101  -0.00032  -0.00012  -0.00097
           A2           0.00556   0.00299   0.00483   0.00121   0.00161
           A3          -0.00254  -0.00099  -0.00290  -0.00069  -0.00011
           A4           0.01536   0.00812   0.01365   0.00339   0.00420
           A5          -0.00375  -0.00197  -0.00335  -0.00083  -0.00101
           A6          -0.01161  -0.00615  -0.01030  -0.00256  -0.00319
           A7           0.01958   0.01102   0.01618   0.00408   0.00647
           D1          -0.00000  -0.00000  -0.00000  -0.00000  -0.00000
           D2           0.00000   0.00000   0.00000   0.00000   0.00000
           D3          -0.00000  -0.00000  -0.00000  -0.00000  -0.00000
           D4          -0.00000  -0.00000  -0.00000  -0.00000  -0.00000
           D5           0.00000   0.00000   0.00000   0.00000   0.00000
           D6          -0.00000  -0.00000  -0.00000  -0.00000  -0.00000
                          R6        A1        A2        A3        A4
           R6           0.52632
           A1          -0.00049   0.15964
           A2          -0.00262  -0.00131   0.24984
           A3           0.00223   0.00123   0.00142   0.15783
           A4          -0.00767  -0.00390  -0.00101   0.00456   0.15547
           A5           0.00190   0.00097   0.00028  -0.00115   0.00121
           A6           0.00578   0.00293   0.00073  -0.00341   0.00332
           A7          -0.00795  -0.00385   0.00108   0.00312   0.00147
           D1           0.00000   0.00000  -0.00000  -0.00000  -0.00000
           D2          -0.00000  -0.00000   0.00000   0.00000  -0.00000
           D3           0.00000   0.00000  -0.00000  -0.00000  -0.00000
           D4           0.00000   0.00000  -0.00000  -0.00000  -0.00000
           D5          -0.00000  -0.00000   0.00000   0.00000   0.00000
           D6           0.00000   0.00000   0.00000  -0.00000   0.00000
                          A5        A6        A7        D1        D2
           A5           0.15968
           A6          -0.00089   0.15757
           A7          -0.00026  -0.00121   0.16826
           D1           0.00000   0.00000  -0.00000   0.02997
           D2           0.00000   0.00000   0.00000  -0.00000   0.02997
           D3           0.00000   0.00000  -0.00000   0.00000  -0.00000
           D4           0.00000   0.00000  -0.00000   0.00000  -0.00000
           D5          -0.00000  -0.00000   0.00000  -0.00000   0.00000
           D6          -0.00000  -0.00000  -0.00000   0.00000  -0.00000
                          D3        D4        D5        D6
           D3           0.02997
           D4           0.00000   0.02997
           D5          -0.00000  -0.00000   0.02159
           D6           0.00000   0.00000  -0.00000   0.02159
 ITU=  1  0
 Use linear search instead of GDIIS.
     Eigenvalues ---    0.02159   0.02739   0.02997   0.02997   0.14474
     Eigenvalues ---    0.16000   0.16000   0.16869   0.21967   0.35441
     Eigenvalues ---    0.35547   0.36675   0.52517   0.52887   0.61400
 RFO step:  Lambda=-5.62404670D-05 EMin= 2.15857456D-02
 Quartic linear search produced a step of -0.02496.
 Iteration  1 RMS(Cart)=  0.00599178 RMS(Int)=  0.00003012
 Iteration  2 RMS(Cart)=  0.00002852 RMS(Int)=  0.00000000
 Iteration  3 RMS(Cart)=  0.00000000 RMS(Int)=  0.00000000
 Variable       Old X    -DE/DX   Delta X   Delta X   Delta X     New X
                                 (Linear)    (Quad)   (Total)
    R1        2.54536  -0.00110  -0.00073  -0.00021  -0.00094   2.54442
    R2        2.07147  -0.00075  -0.00066  -0.00062  -0.00128   2.07019
    R3        2.60810  -0.00063  -0.00073   0.00041  -0.00032   2.60778
    R4        2.05895  -0.00017  -0.00027   0.00012  -0.00015   2.05880
    R5        2.06470  -0.00060  -0.00036  -0.00089  -0.00124   2.06346
    R6        1.82384   0.00003   0.00039  -0.00079  -0.00040   1.82344
    A1        2.13441  -0.00000   0.00065  -0.00183  -0.00119   2.13323
    A2        2.12238  -0.00053   0.00005  -0.00246  -0.00240   2.11997
    A3        2.02640   0.00053  -0.00070   0.00429   0.00359   2.02999
    A4        2.09367  -0.00173   0.00052  -0.01163  -0.01112   2.08255
    A5        2.11224   0.00043  -0.00014   0.00291   0.00276   2.11500
    A6        2.07728   0.00130  -0.00037   0.00873   0.00836   2.08563
    A7        1.90943  -0.00186  -0.00051  -0.01026  -0.01077   1.89866
    D1       -0.00000  -0.00000   0.00000  -0.00000  -0.00000  -0.00000
    D2       -3.14159  -0.00000  -0.00000  -0.00000  -0.00000   3.14159
    D3        3.14158   0.00000   0.00000   0.00001   0.00001   3.14159
    D4       -0.00001   0.00000   0.00000   0.00001   0.00001  -0.00000
    D5        3.14156  -0.00000  -0.00000  -0.00000  -0.00000   3.14156
    D6       -0.00004   0.00000  -0.00000   0.00001   0.00001  -0.00003
         Item               Value     Threshold  Converged?
 Maximum Force            0.001864     0.000450     NO 
 RMS     Force            0.000777     0.000300     NO 
 Maximum Displacement     0.016519     0.001800     NO 
 RMS     Displacement     0.006000     0.001200     NO 
 Predicted change in Energy=-2.878755D-05
 GradGradGradGradGradGradGradGradGradGradGradGradGradGradGradGradGradGrad

                          Input orientation:                          
 ---------------------------------------------------------------------
 Center     Atomic      Atomic             Coordinates (Angstroms)
 Number     Number       Type             X           Y           Z
 ---------------------------------------------------------------------
      1          6           0       -0.216782    1.283741    0.517869
      2          6           0       -0.684340    0.021078    0.516863
      3          1           0        0.277083    1.723099    1.391468
      4          8           0       -0.336259    2.096994   -0.590593
      5          1           0       -0.571328   -0.590412    1.411432
      6          1           0       -1.174004   -0.399749   -0.363735
      7          1           0        0.057127    2.955024   -0.390318
 ---------------------------------------------------------------------
                    Distance matrix (angstroms):
                    1          2          3          4          5
     1  C    0.000000
     2  C    1.346451   0.000000
     3  H    1.095497   2.141529   0.000000
     4  O    1.379979   2.378455   2.108210   0.000000
     5  H    2.106326   1.089471   2.464251   3.359392   0.000000
     6  H    2.127825   1.091933   3.113339   2.643295   1.884354
     7  H    1.921723   3.159239   2.177334   0.964924   4.026336
                    6          7
     6  H    0.000000
     7  H    3.573639   0.000000
 Stoichiometry    C2H4O
 Framework group  C1[X(C2H4O)]
 Deg. of freedom    15
 Full point group                 C1      NOp   1
 Largest Abelian subgroup         C1      NOp   1
 Largest concise Abelian subgroup C1      NOp   1
                         Standard orientation:                         
 ---------------------------------------------------------------------
 Center     Atomic      Atomic             Coordinates (Angstroms)
 Number     Number       Type             X           Y           Z
 ---------------------------------------------------------------------
      1          6           0        0.034037    0.423583   -0.000001
      2          6           0        1.235378   -0.184455    0.000001
      3          1           0       -0.068666    1.514255   -0.000003
      4          8           0       -1.140203   -0.301333   -0.000003
      5          1           0        2.140363    0.422134    0.000001
      6          1           0        1.317918   -1.273264    0.000004
      7          1           0       -1.884488    0.312767    0.000023
 ---------------------------------------------------------------------
 Rotational constants (GHZ):          61.8884345          10.2985632           8.8293179
 Standard basis: Aug-CC-pVDZ (5D, 7F)
 There are   111 symmetry adapted cartesian basis functions of A   symmetry.
 There are   105 symmetry adapted basis functions of A   symmetry.
   105 basis functions,   173 primitive gaussians,   111 cartesian basis functions
    12 alpha electrons       12 beta electrons
       nuclear repulsion energy        69.5393718294 Hartrees.
 NAtoms=    7 NActive=    7 NUniq=    7 SFac= 1.00D+00 NAtFMM=   60 NAOKFM=F Big=F
 Integral buffers will be    131072 words long.
 Raffenetti 1 integral format.
 Two-electron integral symmetry is turned on.
 One-electron integrals computed using PRISM.
 NBasis=   105 RedAO= T EigKep=  7.70D-05  NBF=   105
 NBsUse=   105 1.00D-06 EigRej= -1.00D+00 NBFU=   105
 Initial guess from the checkpoint file:  "/scr/Gau-28710.chk"
 B after Tr=     0.000000   -0.000000    0.000000
         Rot=    1.000000    0.000000   -0.000000    0.000113 Ang=   0.01 deg.
 Keep R1 ints in memory in canonical form, NReq=23955751.
 Requested convergence on RMS density matrix=1.00D-08 within 128 cycles.
 Requested convergence on MAX density matrix=1.00D-06.
 Requested convergence on             energy=1.00D-06.
 No special actions if energy rises.
 SCF Done:  E(RHF) =  -152.915701105     A.U. after    9 cycles
            NFock=  9  Conv=0.80D-08     -V/T= 2.0023
 ExpMin= 2.97D-02 ExpMax= 1.17D+04 ExpMxC= 4.01D+02 IAcc=3 IRadAn=         5 AccDes= 0.00D+00
 HarFok:  IExCor=  205 AccDes= 0.00D+00 IRadAn=         5 IDoV=-2 UseB2=F ITyADJ=14
 ICtDFT= 12500011 ScaDFX=  1.000000  1.000000  1.000000  1.000000
 Range of M.O.s used for correlation:     4   105
 NBasis=   105 NAE=    12 NBE=    12 NFC=     3 NFV=     0
 NROrb=    102 NOA=     9 NOB=     9 NVA=    93 NVB=    93

 **** Warning!!: The largest alpha MO coefficient is  0.24922075D+02

 Fully direct method using O(ONN) memory.
 JobTyp=1 Pass  1:  I=   4 to  12 NPSUse= 40 ParTrn=T ParDer=T DoDerP=T.
 Spin components of T(2) and E(2):
     alpha-alpha T2 =       0.1986650278D-01 E2=     -0.5993560591D-01
     alpha-beta  T2 =       0.1191321289D+00 E2=     -0.3630347770D+00
     beta-beta   T2 =       0.1986650278D-01 E2=     -0.5993560591D-01
 ANorm=    0.1076505984D+01
 E2 =    -0.4829059888D+00 EUMP2 =    -0.15339860709375D+03
          IDoAtm=1111111
          Differentiating once with respect to electric field.
                with respect to dipole field.
          Differentiating once with respect to nuclear coordinates.
 Keep R1 ints in memory in canonical form, NReq=23959569.
          There are     1 degrees of freedom in the 1st order CPHF.  IDoFFX=0 NUNeed=     1.
 LinEq1:  Iter=  0 NonCon=     1 RMS=5.30D-03 Max=6.90D-02 NDo=     1
 AX will form     1 AO Fock derivatives at one time.
 LinEq1:  Iter=  1 NonCon=     1 RMS=1.33D-03 Max=7.21D-03 NDo=     1
 LinEq1:  Iter=  2 NonCon=     1 RMS=4.68D-04 Max=4.41D-03 NDo=     1
 LinEq1:  Iter=  3 NonCon=     1 RMS=1.30D-04 Max=1.31D-03 NDo=     1
 LinEq1:  Iter=  4 NonCon=     1 RMS=4.47D-05 Max=4.05D-04 NDo=     1
 LinEq1:  Iter=  5 NonCon=     1 RMS=9.98D-06 Max=9.32D-05 NDo=     1
 LinEq1:  Iter=  6 NonCon=     1 RMS=3.67D-06 Max=5.35D-05 NDo=     1
 LinEq1:  Iter=  7 NonCon=     1 RMS=9.88D-07 Max=6.81D-06 NDo=     1
 LinEq1:  Iter=  8 NonCon=     1 RMS=2.29D-07 Max=3.03D-06 NDo=     1
 LinEq1:  Iter=  9 NonCon=     1 RMS=4.81D-08 Max=3.33D-07 NDo=     1
 LinEq1:  Iter= 10 NonCon=     1 RMS=9.00D-09 Max=5.71D-08 NDo=     1
 LinEq1:  Iter= 11 NonCon=     1 RMS=1.33D-09 Max=8.95D-09 NDo=     1
 LinEq1:  Iter= 12 NonCon=     1 RMS=2.22D-10 Max=1.36D-09 NDo=     1
 LinEq1:  Iter= 13 NonCon=     0 RMS=3.28D-11 Max=2.85D-10 NDo=     1
 Linear equations converged to 1.000D-10 1.000D-09 after    13 iterations.
 End of Minotr F.D. properties file   721 does not exist.
 End of Minotr F.D. properties file   722 does not exist.
 End of Minotr F.D. properties file   788 does not exist.
 Calling FoFJK, ICntrl=  10002127 FMM=F ISym2X=0 I1Cent= 0 IOpClX= 0 NMat=1 NMatS=1 NMatT=0.
 ***** Axes restored to original set *****
 -------------------------------------------------------------------
 Center     Atomic                   Forces (Hartrees/Bohr)
 Number     Number              X              Y              Z
 -------------------------------------------------------------------
      1        6          -0.000025275   -0.000358485    0.000283839
      2        6          -0.000330623   -0.000548406   -0.000336861
      3        1          -0.000151609   -0.000086391   -0.000315543
      4        8          -0.000000484   -0.000046556    0.000044261
      5        1           0.000183509    0.000317278    0.000174086
      6        1           0.000172654    0.000272201    0.000189663
      7        1           0.000151827    0.000450358   -0.000039443
 -------------------------------------------------------------------
 Cartesian Forces:  Max     0.000548406 RMS     0.000258138

 GradGradGradGradGradGradGradGradGradGradGradGradGradGradGradGradGradGrad
 Berny optimization.
 Using GEDIIS/GDIIS optimizer.
 FormGI is forming the generalized inverse of G from B-inverse, IUseBI=4.
 Internal  Forces:  Max     0.000454178 RMS     0.000250742
 Search for a local minimum.
 Step number   3 out of a maximum of   29
 All quantities printed in internal units (Hartrees-Bohrs-Radians)
 Mixed Optimization -- En-DIIS/RFO-DIIS
 Swapping is turned off.
 Update second derivatives using D2CorX and points    1    2    3
 DE= -3.09D-05 DEPred=-2.88D-05 R= 1.07D+00
 TightC=F SS=  1.41D+00  RLast= 1.85D-02 DXNew= 5.0454D-01 5.5441D-02
 Trust test= 1.07D+00 RLast= 1.85D-02 DXMaxT set to 3.00D-01
 The second derivative matrix:
                          R1        R2        R3        R4        R5
           R1           0.60786
           R2           0.00688   0.36013
           R3           0.01362   0.00685   0.52995
           R4           0.00280   0.00157   0.00207   0.35575
           R5           0.00409   0.00111   0.00503   0.00109   0.35365
           R6           0.00150  -0.00271   0.00309  -0.00011  -0.00238
           A1          -0.00331  -0.00257  -0.00114  -0.00032  -0.00246
           A2           0.00907  -0.00001   0.01025   0.00131  -0.00117
           A3          -0.00619   0.00175  -0.00826  -0.00082   0.00244
           A4           0.01048  -0.00395   0.01795   0.00254  -0.00713
           A5          -0.00315   0.00090  -0.00489  -0.00067   0.00168
           A6          -0.00732   0.00305  -0.01306  -0.00188   0.00545
           A7           0.02184   0.00069   0.02576   0.00378  -0.00318
           D1          -0.00000  -0.00000  -0.00000  -0.00000  -0.00000
           D2           0.00000  -0.00000   0.00000   0.00000  -0.00000
           D3          -0.00000  -0.00000  -0.00001  -0.00000   0.00000
           D4          -0.00000  -0.00000  -0.00000  -0.00000   0.00000
           D5           0.00000   0.00000   0.00000   0.00000   0.00000
           D6          -0.00000  -0.00000  -0.00000  -0.00000   0.00000
                          R6        A1        A2        A3        A4
           R6           0.53381
           A1          -0.00147   0.15907
           A2           0.00725  -0.00373   0.26083
           A3          -0.00740   0.00353  -0.00946   0.16857
           A4           0.00296  -0.01027   0.00450  -0.00136   0.13399
           A5          -0.00149   0.00258  -0.00218   0.00138   0.00502
           A6          -0.00147   0.00769  -0.00232  -0.00002   0.02100
           A7           0.01109  -0.01042   0.01902  -0.01487  -0.00194
           D1           0.00000  -0.00000  -0.00000   0.00000  -0.00000
           D2           0.00000  -0.00000   0.00000  -0.00000   0.00000
           D3          -0.00000   0.00000  -0.00000   0.00000  -0.00000
           D4          -0.00000   0.00000  -0.00000   0.00000  -0.00000
           D5           0.00000  -0.00000   0.00000  -0.00000   0.00001
           D6          -0.00000   0.00000  -0.00000   0.00000   0.00000
                          A5        A6        A7        D1        D2
           A5           0.15918
           A6          -0.00420   0.14320
           A7          -0.00170   0.00365   0.19114
           D1           0.00000   0.00000  -0.00000   0.02997
           D2          -0.00000  -0.00000   0.00000  -0.00000   0.02997
           D3           0.00000   0.00000  -0.00001   0.00000  -0.00000
           D4           0.00000   0.00000  -0.00000   0.00000  -0.00000
           D5          -0.00000  -0.00000   0.00001   0.00000   0.00000
           D6          -0.00000  -0.00000  -0.00000   0.00000  -0.00000
                          D3        D4        D5        D6
           D3           0.02997
           D4           0.00000   0.02997
           D5          -0.00000  -0.00000   0.02159
           D6           0.00000   0.00000  -0.00000   0.02159
 ITU=  1  1  0
     Eigenvalues ---    0.02159   0.02738   0.02997   0.02997   0.11089
     Eigenvalues ---    0.16000   0.16127   0.17946   0.24737   0.35366
     Eigenvalues ---    0.35551   0.36049   0.52830   0.53691   0.61352
 En-DIIS/RFO-DIIS/Sim-DIIS IScMMF=       -3 using points:     3    2
 RFO step:  Lambda=-5.90648985D-06.
 DidBck=F Rises=F RFO-DIIS coefs:    1.18766   -0.18766
 Iteration  1 RMS(Cart)=  0.00222827 RMS(Int)=  0.00000439
 Iteration  2 RMS(Cart)=  0.00000422 RMS(Int)=  0.00000000
 Iteration  3 RMS(Cart)=  0.00000000 RMS(Int)=  0.00000000
 Variable       Old X    -DE/DX   Delta X   Delta X   Delta X     New X
                                 (Linear)    (Quad)   (Total)
    R1        2.54442  -0.00005  -0.00018   0.00015  -0.00003   2.54440
    R2        2.07019  -0.00035  -0.00024  -0.00083  -0.00107   2.06912
    R3        2.60778   0.00022  -0.00006   0.00064   0.00058   2.60836
    R4        2.05880  -0.00002  -0.00003   0.00002  -0.00001   2.05879
    R5        2.06346  -0.00034  -0.00023  -0.00084  -0.00107   2.06238
    R6        1.82344   0.00045  -0.00008   0.00089   0.00081   1.82426
    A1        2.13323  -0.00014  -0.00022  -0.00060  -0.00083   2.13240
    A2        2.11997   0.00042  -0.00045   0.00228   0.00183   2.12180
    A3        2.02999  -0.00028   0.00067  -0.00168  -0.00100   2.02898
    A4        2.08255  -0.00044  -0.00209  -0.00210  -0.00419   2.07837
    A5        2.11500   0.00005   0.00052   0.00012   0.00064   2.11564
    A6        2.08563   0.00039   0.00157   0.00198   0.00355   2.08918
    A7        1.89866   0.00027  -0.00202   0.00286   0.00084   1.89950
    D1       -0.00000   0.00000  -0.00000   0.00000   0.00000  -0.00000
    D2        3.14159   0.00000  -0.00000   0.00000   0.00000  -3.14159
    D3        3.14159  -0.00000   0.00000  -0.00001  -0.00000   3.14159
    D4       -0.00000  -0.00000   0.00000  -0.00000  -0.00000  -0.00000
    D5        3.14156   0.00000  -0.00000   0.00001   0.00001   3.14157
    D6       -0.00003   0.00000   0.00000   0.00000   0.00000  -0.00003
         Item               Value     Threshold  Converged?
 Maximum Force            0.000454     0.000450     NO 
 RMS     Force            0.000251     0.000300     YES
 Maximum Displacement     0.005006     0.001800     NO 
 RMS     Displacement     0.002228     0.001200     NO 
 Predicted change in Energy=-2.953344D-06
 GradGradGradGradGradGradGradGradGradGradGradGradGradGradGradGradGradGrad

                          Input orientation:                          
 ---------------------------------------------------------------------
 Center     Atomic      Atomic             Coordinates (Angstroms)
 Number     Number       Type             X           Y           Z
 ---------------------------------------------------------------------
      1          6           0       -0.217439    1.282856    0.517012
      2          6           0       -0.684960    0.020195    0.516093
      3          1           0        0.276069    1.721277    1.390577
      4          8           0       -0.335822    2.098083   -0.590498
      5          1           0       -0.569828   -0.587763    1.412792
      6          1           0       -1.174472   -0.401081   -0.363670
      7          1           0        0.057949    2.956210   -0.389321
 ---------------------------------------------------------------------
                    Distance matrix (angstroms):
                    1          2          3          4          5
     1  C    0.000000
     2  C    1.346436   0.000000
     3  H    1.094933   2.140556   0.000000
     4  O    1.380285   2.379928   2.107380   0.000000
     5  H    2.103762   1.089466   2.459207   3.358823   0.000000
     6  H    2.127712   1.091365   3.112210   2.645865   1.885804
     7  H    1.922860   3.160992   2.177308   0.965355   4.025103
                    6          7
     6  H    0.000000
     7  H    3.576440   0.000000
 Stoichiometry    C2H4O
 Framework group  C1[X(C2H4O)]
 Deg. of freedom    15
 Full point group                 C1      NOp   1
 Largest Abelian subgroup         C1      NOp   1
 Largest concise Abelian subgroup C1      NOp   1
                         Standard orientation:                         
 ---------------------------------------------------------------------
 Center     Atomic      Atomic             Coordinates (Angstroms)
 Number     Number       Type             X           Y           Z
 ---------------------------------------------------------------------
      1          6           0        0.034449    0.422646    0.000000
      2          6           0        1.236086   -0.184773    0.000001
      3          1           0       -0.067853    1.512790   -0.000004
      4          8           0       -1.141008   -0.300877   -0.000003
      5          1           0        2.138208    0.426056   -0.000003
      6          1           0        1.319832   -1.272920    0.000003
      7          1           0       -1.885331    0.313854    0.000016
 ---------------------------------------------------------------------
 Rotational constants (GHZ):          61.9914519          10.2882399           8.8238192
 Standard basis: Aug-CC-pVDZ (5D, 7F)
 There are   111 symmetry adapted cartesian basis functions of A   symmetry.
 There are   105 symmetry adapted basis functions of A   symmetry.
   105 basis functions,   173 primitive gaussians,   111 cartesian basis functions
    12 alpha electrons       12 beta electrons
       nuclear repulsion energy        69.5306125076 Hartrees.
 NAtoms=    7 NActive=    7 NUniq=    7 SFac= 1.00D+00 NAtFMM=   60 NAOKFM=F Big=F
 Integral buffers will be    131072 words long.
 Raffenetti 1 integral format.
 Two-electron integral symmetry is turned on.
 One-electron integrals computed using PRISM.
 NBasis=   105 RedAO= T EigKep=  7.70D-05  NBF=   105
 NBsUse=   105 1.00D-06 EigRej= -1.00D+00 NBFU=   105
 Initial guess from the checkpoint file:  "/scr/Gau-28710.chk"
 B after Tr=    -0.000000    0.000000   -0.000000
         Rot=    1.000000    0.000000   -0.000000   -0.000005 Ang=  -0.00 deg.
 Keep R1 ints in memory in canonical form, NReq=23955751.
 Requested convergence on RMS density matrix=1.00D-08 within 128 cycles.
 Requested convergence on MAX density matrix=1.00D-06.
 Requested convergence on             energy=1.00D-06.
 No special actions if energy rises.
 SCF Done:  E(RHF) =  -152.915697450     A.U. after    9 cycles
            NFock=  9  Conv=0.32D-08     -V/T= 2.0023
 ExpMin= 2.97D-02 ExpMax= 1.17D+04 ExpMxC= 4.01D+02 IAcc=3 IRadAn=         5 AccDes= 0.00D+00
 HarFok:  IExCor=  205 AccDes= 0.00D+00 IRadAn=         5 IDoV=-2 UseB2=F ITyADJ=14
 ICtDFT= 12500011 ScaDFX=  1.000000  1.000000  1.000000  1.000000
 Range of M.O.s used for correlation:     4   105
 NBasis=   105 NAE=    12 NBE=    12 NFC=     3 NFV=     0
 NROrb=    102 NOA=     9 NOB=     9 NVA=    93 NVB=    93

 **** Warning!!: The largest alpha MO coefficient is  0.24938109D+02

 Fully direct method using O(ONN) memory.
 JobTyp=1 Pass  1:  I=   4 to  12 NPSUse= 40 ParTrn=T ParDer=T DoDerP=T.
 Spin components of T(2) and E(2):
     alpha-alpha T2 =       0.1986787581D-01 E2=     -0.5993742309D-01
     alpha-beta  T2 =       0.1191304331D+00 E2=     -0.3630379744D+00
     beta-beta   T2 =       0.1986787581D-01 E2=     -0.5993742309D-01
 ANorm=    0.1076506472D+01
 E2 =    -0.4829128206D+00 EUMP2 =    -0.15339861027100D+03
          IDoAtm=1111111
          Differentiating once with respect to electric field.
                with respect to dipole field.
          Differentiating once with respect to nuclear coordinates.
 Keep R1 ints in memory in canonical form, NReq=23959510.
          There are     1 degrees of freedom in the 1st order CPHF.  IDoFFX=0 NUNeed=     1.
 LinEq1:  Iter=  0 NonCon=     1 RMS=5.30D-03 Max=6.90D-02 NDo=     1
 AX will form     1 AO Fock derivatives at one time.
 LinEq1:  Iter=  1 NonCon=     1 RMS=1.33D-03 Max=7.22D-03 NDo=     1
 LinEq1:  Iter=  2 NonCon=     1 RMS=4.68D-04 Max=4.41D-03 NDo=     1
 LinEq1:  Iter=  3 NonCon=     1 RMS=1.30D-04 Max=1.31D-03 NDo=     1
 LinEq1:  Iter=  4 NonCon=     1 RMS=4.47D-05 Max=4.05D-04 NDo=     1
 LinEq1:  Iter=  5 NonCon=     1 RMS=9.99D-06 Max=9.37D-05 NDo=     1
 LinEq1:  Iter=  6 NonCon=     1 RMS=3.68D-06 Max=5.34D-05 NDo=     1
 LinEq1:  Iter=  7 NonCon=     1 RMS=9.87D-07 Max=6.79D-06 NDo=     1
 LinEq1:  Iter=  8 NonCon=     1 RMS=2.29D-07 Max=3.02D-06 NDo=     1
 LinEq1:  Iter=  9 NonCon=     1 RMS=4.80D-08 Max=3.34D-07 NDo=     1
 LinEq1:  Iter= 10 NonCon=     1 RMS=9.00D-09 Max=5.71D-08 NDo=     1
 LinEq1:  Iter= 11 NonCon=     1 RMS=1.33D-09 Max=8.96D-09 NDo=     1
 LinEq1:  Iter= 12 NonCon=     1 RMS=2.22D-10 Max=1.36D-09 NDo=     1
 LinEq1:  Iter= 13 NonCon=     0 RMS=3.28D-11 Max=2.84D-10 NDo=     1
 Linear equations converged to 1.000D-10 1.000D-09 after    13 iterations.
 End of Minotr F.D. properties file   721 does not exist.
 End of Minotr F.D. properties file   722 does not exist.
 End of Minotr F.D. properties file   788 does not exist.
 Calling FoFJK, ICntrl=  10002127 FMM=F ISym2X=0 I1Cent= 0 IOpClX= 0 NMat=1 NMatS=1 NMatT=0.
 ***** Axes restored to original set *****
 -------------------------------------------------------------------
 Center     Atomic                   Forces (Hartrees/Bohr)
 Number     Number              X              Y              Z
 -------------------------------------------------------------------
      1        6          -0.000054277   -0.000020486   -0.000123898
      2        6          -0.000024579   -0.000060138   -0.000006277
      3        1           0.000025556    0.000050440    0.000018455
      4        8           0.000046229   -0.000007341    0.000129673
      5        1           0.000016997    0.000034513    0.000011393
      6        1          -0.000003485   -0.000000550   -0.000008671
      7        1          -0.000006441    0.000003562   -0.000020675
 -------------------------------------------------------------------
 Cartesian Forces:  Max     0.000129673 RMS     0.000047659

 GradGradGradGradGradGradGradGradGradGradGradGradGradGradGradGradGradGrad
 Berny optimization.
 Using GEDIIS/GDIIS optimizer.
 FormGI is forming the generalized inverse of G from B-inverse, IUseBI=4.
 Internal  Forces:  Max     0.000093102 RMS     0.000037977
 Search for a local minimum.
 Step number   4 out of a maximum of   29
 All quantities printed in internal units (Hartrees-Bohrs-Radians)
 Mixed Optimization -- En-DIIS/RFO-DIIS
 Swapping is turned off.
 Update second derivatives using D2CorX and points    1    2    3    4
 DE= -3.18D-06 DEPred=-2.95D-06 R= 1.08D+00
 TightC=F SS=  1.41D+00  RLast= 6.29D-03 DXNew= 5.0454D-01 1.8868D-02
 Trust test= 1.08D+00 RLast= 6.29D-03 DXMaxT set to 3.00D-01
 The second derivative matrix:
                          R1        R2        R3        R4        R5
           R1           0.60923
           R2           0.01002   0.36789
           R3           0.01088  -0.00209   0.53859
           R4           0.00279   0.00122   0.00222   0.35572
           R5           0.00633   0.00597  -0.00169   0.00070   0.35612
           R6          -0.00080  -0.00774   0.01058   0.00038  -0.00478
           A1          -0.00159   0.00342  -0.00642  -0.00034   0.00232
           A2           0.00954   0.00476   0.01079   0.00202   0.00488
           A3          -0.00583   0.00279  -0.01060  -0.00105   0.00277
           A4           0.01296  -0.00052   0.01038   0.00185  -0.00699
           A5          -0.00327   0.00139  -0.00453  -0.00055   0.00253
           A6          -0.00969  -0.00087  -0.00586  -0.00130   0.00446
           A7           0.02257   0.00261   0.02583   0.00405  -0.00116
           D1           0.00000   0.00000  -0.00000  -0.00000   0.00000
           D2           0.00000  -0.00000   0.00001   0.00000  -0.00000
           D3          -0.00000   0.00001  -0.00001  -0.00000   0.00001
           D4          -0.00000   0.00000  -0.00001  -0.00000   0.00000
           D5           0.00000  -0.00000   0.00001   0.00000  -0.00000
           D6           0.00000   0.00001  -0.00001  -0.00000   0.00001
                          R6        A1        A2        A3        A4
           R6           0.53601
           A1          -0.00680   0.16210
           A2           0.00002  -0.00550   0.24727
           A3          -0.00754   0.00514  -0.00684   0.16837
           A4           0.00330  -0.00415   0.01721  -0.00190   0.12828
           A5          -0.00252   0.00205  -0.00474   0.00175   0.00717
           A6          -0.00078   0.00210  -0.01247   0.00016   0.02455
           A7           0.00869  -0.01071   0.01557  -0.01404   0.00164
           D1          -0.00000   0.00000  -0.00000   0.00000   0.00000
           D2           0.00001  -0.00000   0.00000  -0.00000  -0.00000
           D3          -0.00001   0.00001  -0.00001   0.00001   0.00001
           D4          -0.00001   0.00000  -0.00000   0.00000   0.00000
           D5           0.00000  -0.00000   0.00000  -0.00000   0.00000
           D6          -0.00001   0.00000  -0.00001   0.00000   0.00001
                          A5        A6        A7        D1        D2
           A5           0.15870
           A6          -0.00587   0.14131
           A7          -0.00236   0.00073   0.19044
           D1          -0.00000  -0.00000  -0.00000   0.02997
           D2          -0.00000   0.00000   0.00000  -0.00000   0.02997
           D3          -0.00000  -0.00001  -0.00001   0.00000  -0.00000
           D4          -0.00000  -0.00000  -0.00000   0.00000  -0.00000
           D5          -0.00000  -0.00000   0.00001  -0.00000   0.00000
           D6          -0.00000  -0.00001  -0.00000   0.00000  -0.00000
                          D3        D4        D5        D6
           D3           0.02997
           D4           0.00000   0.02997
           D5          -0.00000  -0.00000   0.02159
           D6           0.00000   0.00000  -0.00000   0.02159
 ITU=  1  1  1  0
     Eigenvalues ---    0.02159   0.02738   0.02997   0.02997   0.10312
     Eigenvalues ---    0.16001   0.16031   0.17946   0.23955   0.35387
     Eigenvalues ---    0.35567   0.36954   0.52637   0.54990   0.61445
 En-DIIS/RFO-DIIS/Sim-DIIS IScMMF=       -3 using points:     4    3    2
 RFO step:  Lambda=-1.23811607D-07.
 DidBck=F Rises=F RFO-DIIS coefs:    1.12305   -0.13144    0.00838
 Iteration  1 RMS(Cart)=  0.00032074 RMS(Int)=  0.00000008
 Iteration  2 RMS(Cart)=  0.00000008 RMS(Int)=  0.00000000
 Variable       Old X    -DE/DX   Delta X   Delta X   Delta X     New X
                                 (Linear)    (Quad)   (Total)
    R1        2.54440   0.00003   0.00000   0.00005   0.00005   2.54445
    R2        2.06912   0.00005  -0.00012   0.00024   0.00012   2.06925
    R3        2.60836  -0.00009   0.00007  -0.00026  -0.00018   2.60818
    R4        2.05879  -0.00001   0.00000  -0.00002  -0.00002   2.05877
    R5        2.06238   0.00001  -0.00012   0.00013   0.00001   2.06239
    R6        1.82426  -0.00000   0.00010  -0.00011  -0.00001   1.82425
    A1        2.13240   0.00000  -0.00009   0.00015   0.00006   2.13246
    A2        2.12180   0.00007   0.00025   0.00009   0.00034   2.12214
    A3        2.02898  -0.00007  -0.00015  -0.00025  -0.00040   2.02858
    A4        2.07837  -0.00005  -0.00042  -0.00010  -0.00052   2.07785
    A5        2.11564   0.00002   0.00006   0.00013   0.00019   2.11583
    A6        2.08918   0.00003   0.00037  -0.00004   0.00033   2.08951
    A7        1.89950   0.00004   0.00019  -0.00001   0.00018   1.89968
    D1       -0.00000   0.00000   0.00000   0.00000   0.00000  -0.00000
    D2       -3.14159  -0.00000   0.00000  -0.00000  -0.00000   3.14159
    D3        3.14159   0.00000  -0.00000   0.00001   0.00001   3.14159
    D4       -0.00000   0.00000  -0.00000   0.00000   0.00000  -0.00000
    D5        3.14157   0.00000   0.00000  -0.00000   0.00000   3.14157
    D6       -0.00003   0.00000   0.00000   0.00001   0.00001  -0.00002
         Item               Value     Threshold  Converged?
 Maximum Force            0.000093     0.000450     YES
 RMS     Force            0.000038     0.000300     YES
 Maximum Displacement     0.000653     0.001800     YES
 RMS     Displacement     0.000321     0.001200     YES
 Predicted change in Energy=-6.189916D-08
 Optimization completed.
    -- Stationary point found.
                           ----------------------------
                           !   Optimized Parameters   !
                           ! (Angstroms and Degrees)  !
 --------------------------                            --------------------------
 ! Name  Definition              Value          Derivative Info.                !
 --------------------------------------------------------------------------------
 ! R1    R(1,2)                  1.3464         -DE/DX =    0.0                 !
 ! R2    R(1,3)                  1.0949         -DE/DX =    0.0                 !
 ! R3    R(1,4)                  1.3803         -DE/DX =   -0.0001              !
 ! R4    R(2,5)                  1.0895         -DE/DX =    0.0                 !
 ! R5    R(2,6)                  1.0914         -DE/DX =    0.0                 !
 ! R6    R(4,7)                  0.9654         -DE/DX =    0.0                 !
 ! A1    A(2,1,3)              122.1774         -DE/DX =    0.0                 !
 ! A2    A(2,1,4)              121.5704         -DE/DX =    0.0001              !
 ! A3    A(3,1,4)              116.2522         -DE/DX =   -0.0001              !
 ! A4    A(1,2,5)              119.0817         -DE/DX =   -0.0001              !
 ! A5    A(1,2,6)              121.2172         -DE/DX =    0.0                 !
 ! A6    A(5,2,6)              119.7011         -DE/DX =    0.0                 !
 ! A7    A(1,4,7)              108.8336         -DE/DX =    0.0                 !
 ! D1    D(3,1,2,5)             -0.0001         -DE/DX =    0.0                 !
 ! D2    D(3,1,2,6)            180.0001         -DE/DX =    0.0                 !
 ! D3    D(4,1,2,5)            179.9996         -DE/DX =    0.0                 !
 ! D4    D(4,1,2,6)             -0.0003         -DE/DX =    0.0                 !
 ! D5    D(2,1,4,7)            179.9988         -DE/DX =    0.0                 !
 ! D6    D(3,1,4,7)             -0.0015         -DE/DX =    0.0                 !
 --------------------------------------------------------------------------------
 GradGradGradGradGradGradGradGradGradGradGradGradGradGradGradGradGradGrad

                          Input orientation:                          
 ---------------------------------------------------------------------
 Center     Atomic      Atomic             Coordinates (Angstroms)
 Number     Number       Type             X           Y           Z
 ---------------------------------------------------------------------
      1          6           0       -0.217439    1.282856    0.517012
      2          6           0       -0.684960    0.020195    0.516093
      3          1           0        0.276069    1.721277    1.390577
      4          8           0       -0.335822    2.098083   -0.590498
      5          1           0       -0.569828   -0.587763    1.412792
      6          1           0       -1.174472   -0.401081   -0.363670
      7          1           0        0.057949    2.956210   -0.389321
 ---------------------------------------------------------------------
                    Distance matrix (angstroms):
                    1          2          3          4          5
     1  C    0.000000
     2  C    1.346436   0.000000
     3  H    1.094933   2.140556   0.000000
     4  O    1.380285   2.379928   2.107380   0.000000
     5  H    2.103762   1.089466   2.459207   3.358823   0.000000
     6  H    2.127712   1.091365   3.112210   2.645865   1.885804
     7  H    1.922860   3.160992   2.177308   0.965355   4.025103
                    6          7
     6  H    0.000000
     7  H    3.576440   0.000000
 Stoichiometry    C2H4O
 Framework group  C1[X(C2H4O)]
 Deg. of freedom    15
 Full point group                 C1      NOp   1
 Largest Abelian subgroup         C1      NOp   1
 Largest concise Abelian subgroup C1      NOp   1
                         Standard orientation:                         
 ---------------------------------------------------------------------
 Center     Atomic      Atomic             Coordinates (Angstroms)
 Number     Number       Type             X           Y           Z
 ---------------------------------------------------------------------
      1          6           0        0.034449    0.422646    0.000000
      2          6           0        1.236086   -0.184773    0.000001
      3          1           0       -0.067853    1.512790   -0.000004
      4          8           0       -1.141008   -0.300877   -0.000003
      5          1           0        2.138208    0.426056   -0.000003
      6          1           0        1.319832   -1.272920    0.000003
      7          1           0       -1.885331    0.313854    0.000016
 ---------------------------------------------------------------------
 Rotational constants (GHZ):          61.9914519          10.2882399           8.8238192

 **********************************************************************

            Population analysis using the SCF Density.

 **********************************************************************

 Orbital symmetries:
       Occupied  (A) (A) (A) (A) (A) (A) (A) (A) (A) (A) (A) (A)
       Virtual   (A) (A) (A) (A) (A) (A) (A) (A) (A) (A) (A) (A)
                 (A) (A) (A) (A) (A) (A) (A) (A) (A) (A) (A) (A)
                 (A) (A) (A) (A) (A) (A) (A) (A) (A) (A) (A) (A)
                 (A) (A) (A) (A) (A) (A) (A) (A) (A) (A) (A) (A)
                 (A) (A) (A) (A) (A) (A) (A) (A) (A) (A) (A) (A)
                 (A) (A) (A) (A) (A) (A) (A) (A) (A) (A) (A) (A)
                 (A) (A) (A) (A) (A) (A) (A) (A) (A) (A) (A) (A)
                 (A) (A) (A) (A) (A) (A) (A) (A) (A)
 The electronic state is 1-A.
 Alpha  occ. eigenvalues --  -20.60119 -11.30923 -11.22533  -1.40018  -1.02154
 Alpha  occ. eigenvalues --   -0.79544  -0.73785  -0.61818  -0.57324  -0.57148
 Alpha  occ. eigenvalues --   -0.52150  -0.34453
 Alpha virt. eigenvalues --    0.03150   0.04875   0.05365   0.07006   0.11012
 Alpha virt. eigenvalues --    0.11825   0.12614   0.12930   0.15477   0.17781
 Alpha virt. eigenvalues --    0.19751   0.20472   0.21071   0.22560   0.23626
 Alpha virt. eigenvalues --    0.25020   0.30498   0.30744   0.35668   0.35703
 Alpha virt. eigenvalues --    0.37472   0.40346   0.40419   0.42051   0.44521
 Alpha virt. eigenvalues --    0.45128   0.49822   0.51610   0.52461   0.54162
 Alpha virt. eigenvalues --    0.58290   0.59866   0.62782   0.62902   0.63963
 Alpha virt. eigenvalues --    0.64556   0.66126   0.67122   0.68928   0.70799
 Alpha virt. eigenvalues --    0.72308   0.78727   0.83933   0.87532   0.87926
 Alpha virt. eigenvalues --    0.91031   0.96016   1.01919   1.06780   1.18360
 Alpha virt. eigenvalues --    1.19974   1.20925   1.22221   1.23089   1.28365
 Alpha virt. eigenvalues --    1.49601   1.51436   1.51630   1.55233   1.57395
 Alpha virt. eigenvalues --    1.62484   1.68274   1.74410   1.78052   1.79447
 Alpha virt. eigenvalues --    1.87913   1.90222   1.97449   2.01664   2.07521
 Alpha virt. eigenvalues --    2.08842   2.10497   2.13021   2.14428   2.18161
 Alpha virt. eigenvalues --    2.33507   2.37030   2.42098   2.45480   2.54126
 Alpha virt. eigenvalues --    2.65300   2.67384   2.77881   2.83182   2.95650
 Alpha virt. eigenvalues --    3.15685   3.29732   3.46789   3.69914   3.74594
 Alpha virt. eigenvalues --    3.78574   3.93592   4.33266
          Condensed to atoms (all electrons):
               1          2          3          4          5          6
     1  C    4.337944   0.601648   0.164785   0.015688  -0.003662  -0.046831
     2  C    0.601648   4.641830  -0.111836  -0.032395   0.248973   0.338850
     3  H    0.164785  -0.111836   1.405786  -0.021692  -0.108768   0.061934
     4  O    0.015688  -0.032395  -0.021692   8.404705   0.022006  -0.029731
     5  H   -0.003662   0.248973  -0.108768   0.022006   1.302677  -0.246874
     6  H   -0.046831   0.338850   0.061934  -0.029731  -0.246874   1.150117
     7  H   -0.014296  -0.000815  -0.081170   0.341930   0.004433  -0.009763
               7
     1  C   -0.014296
     2  C   -0.000815
     3  H   -0.081170
     4  O    0.341930
     5  H    0.004433
     6  H   -0.009763
     7  H    0.572104
 Mulliken charges:
               1
     1  C    0.944723
     2  C    0.313743
     3  H   -0.309039
     4  O   -0.700513
     5  H   -0.218786
     6  H   -0.217703
     7  H    0.187576
 Sum of Mulliken charges =  -0.00000
 Mulliken charges with hydrogens summed into heavy atoms:
               1
     1  C    0.635684
     2  C   -0.122747
     4  O   -0.512937
 Electronic spatial extent (au):  <R**2>=            167.5152
 Charge=             -0.0000 electrons
 Dipole moment (field-independent basis, Debye):
    X=             -0.7430    Y=              1.7924    Z=              0.0000  Tot=              1.9403
 Quadrupole moment (field-independent basis, Debye-Ang):
   XX=            -15.1957   YY=            -17.3426   ZZ=            -21.5292
   XY=             -2.8012   XZ=             -0.0001   YZ=              0.0000
 Traceless Quadrupole moment (field-independent basis, Debye-Ang):
   XX=              2.8268   YY=              0.6799   ZZ=             -3.5067
   XY=             -2.8012   XZ=             -0.0001   YZ=              0.0000
 Octapole moment (field-independent basis, Debye-Ang**2):
  XXX=            -13.3078  YYY=              0.4923  ZZZ=             -0.0000  XYY=             -1.1875
  XXY=              3.9972  XXZ=              0.0001  XZZ=             -4.0332  YZZ=             -0.3275
  YYZ=             -0.0000  XYZ=             -0.0000
 Hexadecapole moment (field-independent basis, Debye-Ang**3):
 XXXX=           -121.8762 YYYY=            -40.7766 ZZZZ=            -25.3434 XXXY=             -3.6958
 XXXZ=             -0.0004 YYYX=             -2.5275 YYYZ=             -0.0000 ZZZX=             -0.0001
 ZZZY=             -0.0000 XXYY=            -30.9892 XXZZ=            -32.5376 YYZZ=            -12.5638
 XXYZ=              0.0000 YYXZ=             -0.0000 ZZXY=             -0.3705
 N-N= 6.953061250760D+01 E-N=-4.980223376179D+02  KE= 1.525690594509D+02
 Unable to Open any file for archive entry.
 1\1\GINC-N3195\FOpt\RMP2-FC\Aug-CC-pVDZ\C2H4O1\GDS001\21-Mar-2025\0\\#
  MP2/aug-cc-pVDZ opt freq=(vibrot,anharmonic)\\blah\\0,1\C,-0.21743852
 83,1.2828558094,0.5170118393\C,-0.6849598655,0.0201945385,0.5160928005
 \H,0.2760688246,1.7212767773,1.3905771196\O,-0.3358221961,2.0980827099
 ,-0.5904975689\H,-0.5698283678,-0.5877628943,1.4127915077\H,-1.1744720
 899,-0.4010810319,-0.3636696424\H,0.0579488464,2.9562095879,-0.3893207
 557\\Version=EM64L-G16RevC.01\State=1-A\HF=-152.9156975\MP2=-153.39861
[...]
 8070,0.00026667,-0.07880642,-0.25052705,0.11411049,-0.08896065,-0.0610
 9435,0.00741370,-0.16426039,-0.17229036,-0.26909902,0.02114628,-0.0110
 6912,0.01409203,-0.03589528,-0.00606010,-0.02567362,0.02847954,-0.0079
 6040,0.01852210,0.00920530,0.01527201,0.02927066,-0.04450840,-0.054738
 55,-0.08002818,0.05821993,0.06991017,0.15588381,-0.00257494,-0.0057763
 1,-0.00415320,-0.05177647,0.07112450,0.01304320,0.14870667,0.00095529,
 -0.00218255,0.00575751,-0.06289682,-0.00093498,0.15469879,0.14550451,0
 .23919422,-0.01072045,-0.01199222,-0.01543110,-0.14000173,-0.14094556,
 -0.20706278,0.01371237,0.00735892,-0.00142173,-0.00129548,0.00014538,0
 .00035031,-0.00461351,-0.00814246,-0.00095755,-0.01478577,-0.00183218,
 0.01004747,-0.00338579,0.00042875,-0.00013687,-0.00018195,0.00063471,-
 0.00682078,0.00712025,-0.02870004,-0.05714054,0.00754526,0.02084966,0.
 01108314,0.00007380,-0.00092913,-0.00038095,-0.00952060,-0.01602343,-0
 .01070920,-0.00462211,-0.02229145,0.00714386,-0.00241405,-0.00127258,-
 0.00010106,0.00194785,0.00356813,-0.00136021,0.00067301,-0.00227386,0.
 00057186,0.00086916,0.00007425,-0.00009632,-0.00021914,-0.00173595,-0.
 00347400,-0.00304646,0.00147922,0.00795219,-0.00274211,-0.00097751,-0.
 00400676,0.00259723,0.00000891,0.00068465,0.00021235,0.00181351,0.0007
 8421,0.00035099,-0.00182476,0.00080083,0.00067771,0.00276600,0.0002319
 9,-0.00069283,-0.00082095,0.00027151,-0.00003263,0.00038460,0.00041702
 ,0.00116418,0.00271770,-0.00091320,0.00024004,-0.00334614,-0.00307977,
 0.01657119,0.01646092,0.04023903,-0.00161519,-0.00046535,-0.00138279,-
 0.00018841,0.00025285,0.00036208,-0.00069150,-0.00058961,-0.00152469,-
 0.01450531,-0.00185446,-0.00257050,0.00019935,0.01647361,0.00237219,0.
 03646070,-0.00052000,0.00092116,-0.00316602,0.00011856,-0.00043537,0.0
 0032837,-0.00199257,-0.00193988,-0.00325919,-0.01227770,0.00157491,-0.
 00453499,-0.00373393,-0.00566916,0.04022665,0.03642724,0.06575272,-0.0
 0132950,-0.00302189,-0.00147606,0.00049313,0.00068250,0.00021516,-0.00
 015598,0.00044015,-0.00073583,-0.03456037,-0.03084319,-0.05789498,-0.0
 0194390,-0.00048691,-0.00111288,0.00010037,-0.00037762,0.00022716,0.00
 168717,0.00169870,-0.00220813,0.00630162,0.02914166,0.00625789,-0.0001
 6534,0.00000143,0.00005727,0.00018917,0.00005258,-0.00013893,-0.006169
 10,0.00145253,0.00121376,0.00133705,-0.00030735,-0.00085344,0.00017239
 ,-0.00037423,-0.00001929,0.00088183,0.02921074,0.05380142,0.01785363,0
 .00008312,-0.00000041,0.00003661,-0.00003497,0.00007749,0.00004912,-0.
 03002984,-0.05421954,-0.00300494,-0.00377712,-0.00558067,0.00015866,-0
 .00001289,0.00058488,-0.00018595,0.00634765,-0.00478660,0.00619057,0.0
 1767185,-0.00776905,-0.00002247,-0.00017885,-0.00007231,-0.00005350,0.
 00027997,-0.00019185,-0.00308238,-0.02033062,0.01781560,-0.03847720,-0
 .02945894,-0.02794800,-0.04505232,-0.06064790,-0.07011767,0.00848816,0
 .00293839,0.00997650,-0.03597490,0.00694076,0.01749557,0.00476193,-0.0
 1799465,-0.12580884,0.00607178,-0.00579158,0.02527768,-0.11172164,0.08
 802378,-0.36741180,0.01910331,0.02165222,0.05038532,-0.00020960,-0.002
 48973,0.00042838,-0.01696802,0.02262973,0.00286914,0.04905108,0.000605
 78,-0.00195348,0.00403877,-0.02044966,-0.00055427,0.04943155,0.0464733
 9,0.07698643,-0.00259161,-0.00412349,-0.00226154,-0.04627197,-0.045433
 56,-0.06953922,0.01010873,0.00725241,-0.00668883,0.00044797,-0.0016163
 3,-0.00144009,-0.00156654,-0.00200285,0.00043751,-0.01358055,0.0022220
 4,0.00934292,0.00646353,-0.00272586,-0.00292959,-0.00277620,0.00153777
 ,-0.00046531,0.00354160,-0.02046911,-0.03261572,-0.00178106,0.01972820
 ,-0.01398153,-0.00035770,0.00014931,0.00050330,-0.00301683,-0.00579449
 ,-0.00329300,-0.00079949,-0.02772178,0.01923251,0.00052223,0.00346148,
 -0.00586690,-0.01552793,-0.02406045,0.01816390,-0.00000453,-0.00029317
 ,-0.00052447,0.00024817,0.00084964,0.00098860,0.01821629,-0.00151302,-
 0.00064182,-0.00193266,-0.03156101,0.08418227,-0.17853281,-0.00046237,
 -0.00024345,-0.00068621,0.00087237,-0.00032338,0.00218551,0.02898091,-
 0.07116701,-0.00101376,0.01118411,-0.01211787,0.02548134,-0.15875511,0
 .20855539,-0.00035942,-0.00024004,-0.00041066,0.00096636,0.00212548,0.
 00003347,-0.01624361,0.15916807,-0.18446036,-0.00006086,-0.00315576,-0
 .00313120,0.04278923,0.03930682,0.08804626,-0.00056773,-0.00016130,-0.
 00016701,-0.00084318,0.00057869,0.00042274,-0.00328222,0.00369809,-0.0
 0897008,-0.03818772,0.00010010,0.00087894,0.00164463,0.04888663,0.0297
 4066,0.09487113,0.00030712,0.00097433,-0.00057456,0.00004807,-0.001723
 31,0.00062016,-0.00908112,-0.01145468,-0.01398828,-0.04024641,-0.01824
 191,-0.00630761,-0.00694040,-0.00756667,0.07870032,0.06961091,0.134461
 56,-0.00062402,-0.00180976,-0.00032455,0.00094042,0.00201928,-0.000707
 95,0.00349721,0.01970821,-0.01125423,-0.07609852,-0.08289873,-0.114219
 70,0.00031563,-0.00268979,0.00037744,-0.00001294,-0.00008643,0.0004514
 1,0.00021310,-0.00032853,-0.00031401,0.00518540,0.01800683,0.00454374,
 -0.00017201,-0.00001499,0.00013916,0.00015248,-0.00001438,-0.00010780,
 -0.00568167,-0.00092067,-0.00199675,0.00065941,-0.00014928,-0.00072658
 ,0.00016689,-0.00009535,-0.00062697,0.00080284,0.01591544,0.02871439,0
 .01083309,0.00014271,-0.00035194,0.00050576,-0.00002014,-0.00017403,0.
 00031048,-0.01487271,-0.02483813,-0.00134859,-0.00400581,0.00151964,0.
 00051279,0.00033266,0.00087542,-0.00054146,0.00018800,-0.00115746,0.00
 658412,0.01634809,-0.00178679,-0.00001473,0.00008989,-0.00034574,-0.00
 010218,0.00032564,-0.00038847,-0.00508994,-0.01327847,0.00128341,-0.05
 303936,0.20868908,0.48503920,-0.02454281,-0.04092247,-0.14573417,0.014
 88606,-0.23037840,-0.00175315,-0.02445187,-0.22875482,-0.49454453,-0.0
 2237856,0.22914377,0.49082453,-0.00333724,-0.02665988,0.11799839,-0.03
 187198,0.03058776,-0.21102752,0.01549624,0.01052503,0.04472666,0.00124
 762,-0.00212398,0.00050264,-0.01420141,0.01389564,-0.00235735,0.033710
 86,-0.00101520,-0.00457992,0.00358914,-0.01152317,0.00772775,0.0414382
 8,0.02482318,0.07968746,-0.00057914,0.00066539,-0.00033339,-0.04178906
 ,-0.03215760,-0.07290686,0.02062921,0.01906057,-0.01880802,-0.00078411
 ,-0.00231290,0.00025197,-0.00231840,-0.00174004,0.00179803,-0.02574614
 ,0.00899606,0.02172653,0.02272972,-0.00131833,-0.00447545,0.00086671,0
 .00256212,-0.00195834,0.00636746,-0.03158131,-0.04804288,-0.00898879,0
 .04926936,-0.05106039,-0.00071849,-0.00175619,-0.00020498,-0.00239925,
 -0.00497671,-0.00382748,0.00604901,-0.05236424,0.05068102,0.00011386,-
 0.00199803,-0.00138286,-0.00072470,-0.00278664,0.00808104,-0.00000357,
 0.00017063,-0.00018058,0.00010096,0.00063296,-0.00026786,0.00152946,-0
 .00170629,-0.00177414,-0.00142435,-0.00454366,0.01266537,-0.02702811,-
 0.00010285,-0.00007924,-0.00019215,0.00007526,0.00079705,-0.00061006,0
 .00614299,-0.00829758,-0.00166749,-0.00219380,-0.00087907,0.00979517,-
 0.02239513,0.04491819,0.00008620,0.00052894,-0.00028693,0.00027625,0.0
 0086064,-0.00014281,-0.00623797,0.02587575,-0.04007019,0.00147510,-0.0
 0119370,0.00001286,0.00946850,0.00715177,0.02645038,-0.00033268,0.0005
 2464,-0.00027514,-0.00012014,0.00014780,-0.00002244,-0.00118645,0.0001
 7465,-0.00213863,-0.00929614,-0.00075917,-0.00400575,0.00377142,0.0089
 0155,0.00227545,0.01812144,0.00062957,0.00180024,-0.00050840,0.0002191
 5,0.00079045,-0.00035556,-0.00219146,-0.00341192,-0.00287910,-0.006918
 11,0.00225766,-0.00041104,0.00262573,-0.00173359,0.02474331,0.01350755
 ,0.04885704,-0.00037750,-0.00078508,-0.00065193,-0.00009207,-0.0005437
 7,0.00012138,0.00016973,0.00335991,-0.00327036,-0.02415165,-0.01808064
 ,-0.04362137,0.00043890,-0.00470453,0.00174732,0.00035850,-0.00031720,
 -0.00007682,0.00011220,-0.00031251,-0.00041239,0.00823863,0.02056070,0
 .00634782,0.00017045,-0.00004010,-0.00011354,-0.00000819,0.00011847,0.
 00011923,-0.00931049,-0.00036050,-0.00408396,0.00451340,-0.00078974,-0
 .00216544,0.00052293,0.00003328,-0.00055315,0.00100213,0.01627927,0.03
 116264,0.01079340,0.00002957,0.00010046,0.00020270,0.00011295,0.000293
 86,-0.00008372,-0.01530483,-0.02475440,-0.00249092,-0.00694212,0.00172
 137,0.00038429,0.00176917,-0.00020773,-0.00074968,0.00009046,-0.001680
 86,0.01052482,0.02208348,0.00443327,-0.00018150,0.00001901,-0.00026884
 ,0.00012461,-0.00006916,0.00029884,-0.00761162,-0.01695084,-0.00429604
 ,0.03765423,0.27333002,-0.03315555,0.54486724,0.48954481,0.68900112,-0
 .00679237,0.00914929,-0.00576053,-0.15468303,0.00476065,0.01661690,-0.
 01145644,0.12370102,0.06859115,-0.00147900,0.00011561,-0.01200551,0.55
 257915,-0.14074495,1.18434701,-0.03404184,-0.27602085,-0.54716350,0.00
 354318,0.00158308,-0.00056337,0.02901267,-0.27664673,0.02190837,-0.481
 97229,-0.00284647,-0.00086372,-0.00356929,0.27574833,-0.02159407,-0.54
 655272,-0.48032195,-0.69696491,0.00375806,0.00811070,0.00516768,0.5440
 3288,0.47564683,0.69114045,-0.00138955,-0.00391297,0.00395700,-0.00076
 746,-0.00001209,0.00030001,0.00213884,0.00323062,-0.00103450,-0.001618
 58,0.00142155,0.00174671,0.00063684,0.00006443,-0.00175931,0.00103096,
 -0.00183244,-0.00089949,-0.00265091,0.00139958,-0.00037889,-0.00124748
 ,-0.01342908,0.00837002,0.00022533,0.00082913,-0.00109153,0.00390517,0
 .01069953,0.00119431,-0.00195594,0.00269950,-0.00918560,0.00249936,-0.
 00449222,0.00247865,0.18012136,0.06507788,-0.11209638,-0.00125506,0.00
 146799,-0.00012087,0.00000239,-0.00065727,0.00008053,-0.18724346,-0.00
 096531,-0.00251208,0.00304821,0.06713939,-0.12956207,0.49714274,0.0013
 1995,0.00165733,0.00015398,0.00001063,0.00026992,-0.00002555,-0.065780
 79,0.12083946,-0.00096222,-0.00625157,0.00678323,-0.11410754,0.4917068
 4,-0.58203022,0.00002356,0.00054437,-0.00222127,-0.00057107,-0.0017866
 8,0.00045237,0.11591882,-0.49315942,0.57991155,0.00165228,0.00144736,0
 .00082884,-0.02170420,-0.19504150,-0.43838277,0.00107504,-0.00024641,-
 0.00010958,0.00043094,0.00034325,-0.00072823,0.00562985,-0.00158621,-0
 .00025953,0.01360581,-0.00271143,-0.00426369,-0.00220705,-0.19696467,0
 .04697622,-0.35376635,-0.00030922,0.00027274,0.00009685,0.00031851,0.0
 0163466,-0.00018892,0.00458213,0.00941375,0.00905928,0.19489284,-0.054
 04175,0.00488620,0.00875891,0.00514130,-0.43650661,-0.34869534,-0.5940
 9181,-0.00004832,0.00026248,0.00082430,-0.00070411,-0.00012365,-0.0011
 5590,-0.00627731,-0.00720555,-0.00320731,0.43846776,0.34731787,0.59253
 132,0.00041790,0.00049938,0.00079230,0.00028252,-0.00006904,-0.0003576
 3,-0.00047282,-0.00070734,0.00002672,0.00120343,-0.00073911,-0.0002793
 8,0.00024557,-0.00013765,-0.00004202,-0.00068972,0.00019184,0.00018238
 ,-0.00098689,0.00081127,-0.00034067,0.00240593,-0.00024299,0.00000084,
 -0.00020873,-0.00048884,-0.00048115,-0.00103549,-0.00103428,-0.0006136
 1,-0.00058461,-0.00019773,-0.00010632,-0.00011282,0.00019067,0.0000080
 6,-0.00031471,0.00096191,0.00153285,0.00048799,0.00158328,-0.00032525,
 -0.00018787,0.00025004,-0.00029563,-0.00018644,-0.00161162,0.00085944,
 0.00000860,0.00019395,0.00141632,0.00001657,0.00004560,0.00031165,0.00
 018351,-0.00031168,-0.00004190,-0.00032237,-0.00014957,-0.00192464,0.0
 4754260,0.41878559,-0.03461123,0.83656468,0.72372175,1.07513643,-0.000
 11710,0.00192109,0.00380988,-0.05427311,-0.00132941,-0.01262322,0.0065
 9244,0.14541028,0.01904158,0.00698111,0.01516341,0.00134183,0.42541767
 ,0.10200916,0.75281958,-0.04803608,-0.41546299,-0.84879457,0.00265548,
 0.00116845,-0.00059334,0.04233480,-0.41759487,0.05085170,-0.73358194,-
 0.00405372,-0.00314221,-0.00523501,0.41830385,-0.04562256,-0.84671444,
 -0.72796057,-1.09484989,0.00450144,0.00853506,0.00599084,0.84375096,0.
 72562817,1.08447151,-0.00269588,-0.00364600,0.00662745,-0.00000511,-0.
 00274406,-0.00077061,0.00260902,0.00443233,-0.00184125,-0.00111562,0.0
 0322641,0.00298969,0.00182437,-0.00176210,-0.00369939,0.00023348,-0.00
 362478,-0.00159274,-0.00637716,0.00222044,0.00092065,-0.00007743,-0.01
 629645,0.01183516,-0.00172865,-0.00235596,-0.00095735,0.00601948,0.014
 86802,0.00303384,-0.00350414,0.00436336,-0.01410473,0.00438372,-0.0040
 6303,-0.00046142,0.06946184,0.02732847,-0.04849906,-0.00272162,0.00177
 945,0.00049925,-0.00060465,0.00016368,0.00029311,-0.07432950,-0.002598
 63,-0.00284555,0.00183802,0.02975557,-0.04454543,0.19776415,0.00138535
 ,0.00122179,-0.00102128,0.00056896,0.00061472,0.00014312,-0.02822405,0
 .04068122,-0.00189010,-0.00202326,0.00305205,-0.05086690,0.19136427,-0
 .24307631,0.00088373,0.00001787,-0.00125654,-0.00010227,-0.00092556,-0
 .00014306,0.05154271,-0.19550758,0.24320980,-0.00235395,0.00204576,0.0
 0110334,-0.01777243,-0.17001806,-0.38221624,0.00421943,-0.00187327,-0.
 00048899,0.00014513,0.00041884,-0.00046643,0.00370186,-0.00072662,0.00
 044235,0.01250082,-0.00159706,-0.00323716,-0.00449611,-0.17083567,0.04
 543593,-0.30934371,-0.00119854,-0.00095448,0.00274437,0.00041617,0.001
 11130,0.00017615,0.00312042,0.00489690,0.00716073,0.17000372,-0.047375
 52,0.00465721,0.00510927,0.00376643,-0.38141861,-0.30718781,-0.5159565
 0,-0.00114720,0.00096529,0.00113123,-0.00046384,0.00018321,-0.00123478
 ,-0.00331079,-0.00298323,-0.00201660,0.38159848,0.30413303,0.51437901,
 0.00127670,0.00041956,0.00115063,0.00005042,0.00018432,-0.00031954,-0.
 00106104,-0.00099378,0.00029303,0.00166710,-0.00064249,-0.00053594,0.0
 0010835,-0.00016060,-0.00000951,-0.00044086,0.00009096,0.00008474,-0.0
 0160067,0.00110796,-0.00052423,0.00410146,-0.00043546,-0.00046727,-0.0
 0059149,-0.00057136,-0.00076151,-0.00154858,-0.00124784,-0.00034423,-0
 .00089824,-0.00010495,-0.00002366,-0.00008648,0.00014962,0.00012302,-0
 .00021976,0.00110203,0.00199788,0.00047896,0.00228585,-0.00028200,0.00
 028516,0.00104282,-0.00016210,-0.00011906,-0.00266240,0.00147900,0.000
 05466,0.00069830,0.00157093,-0.00006380,-0.00023320,0.00023065,0.00002
 749,-0.00037446,-0.00006880,-0.00066342,-0.00075692,-0.00276768,0.0029
 6726,-0.00304120,-0.01821568,0.00644287,0.01136117,0.00755387,-0.00531
 556,0.01035618,-0.00490609,-0.40060136,0.00904084,0.01814286,-0.000970
 26,0.17469703,0.29836129,-0.00362282,0.00249795,-0.01927663,0.82113085
 ,-0.58812296,1.96229385,-0.00170367,-0.00452435,-0.01074260,0.00073281
 ,-0.00087292,-0.00038241,0.00058771,-0.00558593,0.00119559,-0.01194972
 ,-0.00083664,-0.00011086,-0.00092643,0.00522430,-0.00184268,-0.0097069
 5,-0.00915065,-0.01262373,-0.00041782,-0.00102202,0.00109624,0.0108013
 1,0.01026444,0.01302555,0.00079033,-0.00036686,0.00196584,-0.00155644,
 0.00059999,0.00162808,0.00072420,-0.00013950,-0.00034861,-0.00045738,0
 .00118563,0.00177196,0.00157359,0.00038028,-0.00249414,0.00109864,-0.0
 0029032,0.00023746,-0.00011131,-0.00002166,-0.00175677,0.00045128,-0.0
 0252001,0.00382909,0.00184248,0.00167809,0.00082529,-0.00020147,0.0002
 8632,0.00009739,-0.00054811,0.00142121,-0.00307350,0.00068916,-0.00529
 357,0.00418797,0.43359724,0.13244283,-0.20084174,-0.00124028,0.0013120
 9,0.00001798,0.00118425,-0.00129284,-0.00051196,-0.43002437,-0.0008158
 4,-0.00145782,0.00030467,0.13294618,-0.34606638,1.13769061,0.00084204,
 0.00033645,0.00020179,-0.00002675,0.00139968,0.00037531,-0.12724268,0.
 35486720,-0.00018050,-0.01150214,0.01180507,-0.20133274,1.13636309,-1.
 17874028,0.00047652,0.00144121,-0.00188204,-0.00174714,-0.00296308,0.0
 0014068,0.19578670,-1.12775858,1.15928757,0.00290981,0.00244039,0.0031
 7449,-0.02682211,-0.31563437,-0.61780724,0.00093761,0.00003157,-0.0004
 0680,-0.00049794,0.00012392,-0.00114659,-0.00474670,-0.00549425,0.0069
 1673,0.02844442,-0.00111102,-0.00188019,-0.00031180,-0.31739301,0.0327
 9159,-0.55255499,-0.00036854,0.00024682,-0.00015872,-0.00006161,0.0009
 0875,-0.00115538,0.00027836,-0.00919485,0.00449769,0.31849720,-0.02301
 847,0.00663924,0.00905267,0.00947776,-0.61609162,-0.54791781,-0.765719
 27,-0.00001646,0.00089628,0.00016238,-0.00096553,-0.00066611,-0.002005
 15,0.00128504,-0.01072370,0.00851328,0.60916691,0.54967808,0.74958283,
 -0.00033734,0.00042941,-0.00012247,-0.00003459,-0.00027340,-0.00010473
 ,-0.00003839,-0.00000588,0.00006089,-0.00018703,-0.00008503,0.00011437
 ,0.00054069,-0.00020871,0.00008043,-0.00022510,0.00015862,-0.00001760,
 0.00028176,0.00032751,0.00044328,-0.00000765,-0.00015003,-0.00062437,0
 .00031717,-0.00001021,-0.00006278,-0.00002353,0.00001639,-0.00006695,-
 0.00008554,-0.00020420,0.00011571,-0.00007820,0.00003554,0.00014636,-0
 .00031942,-0.00001501,0.00004875,-0.00002313,0.00026101,-0.00076543,-0
 .00022506,-0.00000813,-0.00047920,0.00006511,-0.00001211,0.00012420,0.
 00001546,-0.00035295,0.00018619,0.00007601,-0.00009010,0.00087571,0.00
 010250,0.00000512,-0.00001184,-0.00001089,0.00019717,0.00007036,0.0006
 0776,-0.00030287,-0.00908598,-0.00211001,0.00954833,-0.01335899,-0.000
 19320,0.00268639,-0.00084723,-0.00093093,0.00007747,0.00340851,-0.0039
 6650,-0.00119685,-0.00414280,0.00169810,0.00291268,0.00077044,-0.00035
 371,0.00054113,-0.00181457,0.00011318,0.00056837,-0.00211501,0.0005580
 2,-0.00047486,0.00008676,0.00113843,-0.00028225,0.00170807,-0.00172270
 ,-0.00026947,-0.00065764,0.00061476,0.00067769,-0.00090917,-0.00128507
 ,0.00052046,-0.00319162,-0.00011361,0.00007331,0.00032979,0.00065678,0
 .00329685,-0.00084574,-0.00979095,-0.01840168,0.00338032,0.00103246,-0
 .00019832,0.00114925,-0.00006455,0.00188260,-0.00101687,-0.04460615,-0
 .00239968,0.00537796,-0.01573417,-0.00157862,-0.00221378,-0.00134867,-
 0.00017728,-0.00018039,-0.00065828,3.05139464,5.13503936,-0.01223167,-
 0.05793108,0.01999891,0.00249605,0.00229037,0.00501629,0.00099295,0.00
 477374,-0.00241431,0.75578265,1.61220623,-1.04002246,0.00055402,-0.000
 93139,-0.00011711,0.00078285,0.00009342,-0.00027546,-0.00050054,0.0001
 8242,0.00020515,-0.00199182,0.00092527,0.00013411,-0.00044168,-0.00068
 882,-0.00107029,0.00014786,0.00013266,0.00090647,0.00029745,0.00023676
 ,-0.00003026,0.00002371,0.00034665,-0.00001237,-0.00140092,0.00011651,
 -0.00031254,-0.00035370,-0.00049126,0.00048964,-0.00031387,0.00019378,
 -0.00016386,0.00015216,-0.00011952,-0.00012802,0.00069872,0.00012450,-
 0.00066406,0.00037164,0.00000169,0.00035250,-0.00012775,-0.00009923,0.
 00055435,-0.00076911,0.00043830,0.00018602,0.00026050,0.00004427,-0.00
 006396,0.00007395,-0.00013617,-0.00028078,0.00032309,-0.00012078,-0.00
 012818,0.00011065,0.00012105,-0.00024028,0.00025974,0.00035110,0.00002
 884,-0.00007971,0.00004348,0.00025536,0.00012734,-0.00048181,-0.000687
 95,-0.00037409,-0.00009063,0.00008259,0.00008667,0.00009181,0.00067749
 ,0.00033942,-0.00032118,0.00090708,0.00027108,0.00015010,-0.00043348,-
 0.00006323,0.00012935,-0.00002454,0.00005649,0.00053757,-0.00014475,-0
 .00015758,0.00000720,-0.00000612,-0.00016460,-0.00028320,-0.00001861,0
 .00883693,0.01648041,0.00125469,-0.00048009,0.00126084,-0.00249097,-0.
 00150504,-0.00223526,0.00161758,0.05534704,-3.04802817,-0.74689330,0.0
 0127409,-0.00002298,-0.00042677,0.00012867,-0.00003500,-0.00028159,-0.
 06360160,0.00347509,-0.00009799,0.01146747,-0.00012522,0.00267042,-0.0
 0293766,-0.00087416,-0.00018598,-0.00338339,-3.03454208,-5.13732284,-1
 .55956426,-0.00029559,0.00043639,0.00020413,-0.00021820,-0.00011606,-0
 .00021984,3.03258017,5.13461606,0.01394294,0.04576205,-0.00561546,-0.0
 0113871,0.00071780,-0.00370461,0.00028959,-0.00697249,0.00627445,-0.76
 005056,-1.59512719,1.01823037,-0.00016075,0.00092301,0.00011992,-0.000
 10286,0.00026326,-0.00027958,0.74722036,1.55443355,-1.01502508\\@
 The archive entry for this job was punched.


 IF YOU BELIEVE CERTAIN WORDS, YOU BELIEVE THEIR HIDDEN ARGUMENTS.
 WHEN YOU BELIEVE SOMETHING IS RIGHT OR WRONG, TRUE OR FALSE, 
 YOU BELIEVE THE ASSUMPTIONS IN THE WORDS WHICH EXPRESS THE ARGUMENTS.
 SUCH ASSUMPTIONS ARE OFTEN FULL OF HOLES, BUT REMAIN MOST PRECIOUS 
 TO THE CONVINCED.

                 -- THE OPEN-ENDED PROOF FROM THE PANOPLIA PROPHETICA
                    CHILDREN OF DUNE BY FRANK HERBERT
 Job cpu time:       0 days  9 hours 10 minutes 18.6 seconds.
 Elapsed time:       0 days  0 hours 14 minutes  9.6 seconds.
 File lengths (MBytes):  RWF=    663 Int=      0 D2E=      0 Chk=     41 Scr=      1
 Normal termination of Gaussian 16 at Fri Mar 21 11:15:06 2025.
