 Entering Gaussian System, Link 0=g16
 Input=enolc_mp2_avtz_opt_anharm.gjf
 Output=enolc_mp2_avtz_opt_anharm.log
 Initial command:
 /sw/contrib/chem-src/g16/c01/g16/l1.exe "/scr/Gau-7387.inp" -scrdir="/scr/"
 Entering Link 1 = /sw/contrib/chem-src/g16/c01/g16/l1.exe PID=      7388.
  
 Copyright (c) 1988-2019, Gaussian, Inc.  All Rights Reserved.
  
 This is part of the Gaussian(R) 16 program.  It is based on
 the Gaussian(R) 09 system (copyright 2009, Gaussian, Inc.),
 the Gaussian(R) 03 system (copyright 2003, Gaussian, Inc.),
 the Gaussian(R) 98 system (copyright 1998, Gaussian, Inc.),
 the Gaussian(R) 94 system (copyright 1995, Gaussian, Inc.),
 the Gaussian 92(TM) system (copyright 1992, Gaussian, Inc.),
 the Gaussian 90(TM) system (copyright 1990, Gaussian, Inc.),
 the Gaussian 88(TM) system (copyright 1988, Gaussian, Inc.),
 the Gaussian 86(TM) system (copyright 1986, Carnegie Mellon
 University), and the Gaussian 82(TM) system (copyright 1983,
 Carnegie Mellon University). Gaussian is a federally registered
 trademark of Gaussian, Inc.
  
 This software contains proprietary and confidential information,
 including trade secrets, belonging to Gaussian, Inc.
  
 This software is provided under written license and may be
 used, copied, transmitted, or stored only in accord with that
 written license.
  
 The following legend is applicable only to US Government
 contracts under FAR:
  
                    RESTRICTED RIGHTS LEGEND
  
 Use, reproduction and disclosure by the US Government is
 subject to restrictions as set forth in subparagraphs (a)
 and (c) of the Commercial Computer Software - Restricted
 Rights clause in FAR 52.227-19.
  
 Gaussian, Inc.
 340 Quinnipiac St., Bldg. 40, Wallingford CT 06492
  
  
 ---------------------------------------------------------------
 Warning -- This program may not be used in any manner that
 competes with the business of Gaussian, Inc. or will provide
 assistance to any competitor of Gaussian, Inc.  The licensee
 of this program is prohibited from giving any competitor of
 Gaussian, Inc. access to this program.  By using this program,
 the user acknowledges that Gaussian, Inc. is engaged in the
 business of creating and licensing software in the field of
 computational chemistry and represents and warrants to the
 licensee that it is not a competitor of Gaussian, Inc. and that
 it will not use this program in any manner prohibited above.
 ---------------------------------------------------------------
  

 Cite this work as:
 Gaussian 16, Revision C.01,
 M. J. Frisch, G. W. Trucks, H. B. Schlegel, G. E. Scuseria, 
 M. A. Robb, J. R. Cheeseman, G. Scalmani, V. Barone, 
 G. A. Petersson, H. Nakatsuji, X. Li, M. Caricato, A. V. Marenich, 
 J. Bloino, B. G. Janesko, R. Gomperts, B. Mennucci, H. P. Hratchian, 
 J. V. Ortiz, A. F. Izmaylov, J. L. Sonnenberg, D. Williams-Young, 
 F. Ding, F. Lipparini, F. Egidi, J. Goings, B. Peng, A. Petrone, 
 T. Henderson, D. Ranasinghe, V. G. Zakrzewski, J. Gao, N. Rega, 
 G. Zheng, W. Liang, M. Hada, M. Ehara, K. Toyota, R. Fukuda, 
 J. Hasegawa, M. Ishida, T. Nakajima, Y. Honda, O. Kitao, H. Nakai, 
 T. Vreven, K. Throssell, J. A. Montgomery, Jr., J. E. Peralta, 
 F. Ogliaro, M. J. Bearpark, J. J. Heyd, E. N. Brothers, K. N. Kudin, 
 V. N. Staroverov, T. A. Keith, R. Kobayashi, J. Normand, 
 K. Raghavachari, A. P. Rendell, J. C. Burant, S. S. Iyengar, 
 J. Tomasi, M. Cossi, J. M. Millam, M. Klene, C. Adamo, R. Cammi, 
 J. W. Ochterski, R. L. Martin, K. Morokuma, O. Farkas, 
 J. B. Foresman, and D. J. Fox, Gaussian, Inc., Wallingford CT, 2019.
 
 ******************************************
 Gaussian 16:  EM64L-G16RevC.01  3-Jul-2019
                21-Mar-2025 
 ******************************************
 %nprocshared=40
 Will use up to   40 processors via shared memory.
 %mem=50gb
 ----------------------------------------------
 # MP2/aug-cc-pVTZ opt freq=(vibrot,anharmonic)
 ----------------------------------------------
 1/18=20,19=15,38=1,80=1/1,3;
 2/9=110,12=2,17=6,18=5,40=1/2;
 3/5=16,6=1,7=10,11=9,25=1,30=1,71=1/1,2,3;
 4//1;
 5/5=2,38=5/2;
 8/6=4,10=1/1;
 9/15=2,16=-3/6;
 10/5=1/2;
 6/7=2,8=2,9=2,10=2/1;
 7/12=2/1,2,3,16;
 1/18=20,19=15,80=1/3(2);
 2/9=110/2;
 99//99;
 2/9=110/2;
 3/5=16,6=1,7=10,11=9,25=1,30=1,71=1/1,2,3;
 4/5=5,16=3,69=1/1;
 5/5=2,38=5/2;
 8/6=4,10=1/1;
 9/15=2,16=-3/6;
 10/5=1/2;
 7/12=2/1,2,3,16;
 1/18=20,19=15,80=1/3(-8);
 2/9=110/2;
 6/7=2,8=2,9=2,10=2/1;
 99/9=10/99;
 ----
 blah
 ----
 Symbolic Z-matrix:
 Charge =  0 Multiplicity = 1
 C                    -0.46214   1.20349   0.07258 
 C                    -0.91235  -0.0411   -0.08932 
 H                    -0.05653   1.58512   1.00206 
 O                    -0.45331   2.1546   -0.90594 
 H                    -0.88645  -0.7425    0.73889 
 H                    -1.31314  -0.39539  -1.03188 
 H                    -0.82449   1.7695   -1.71853 
 

 GradGradGradGradGradGradGradGradGradGradGradGradGradGradGradGradGradGrad
 Berny optimization.
 Initialization pass.
                           ----------------------------
                           !    Initial Parameters    !
                           ! (Angstroms and Degrees)  !
 --------------------------                            --------------------------
 ! Name  Definition              Value          Derivative Info.                !
 --------------------------------------------------------------------------------
 ! R1    R(1,2)                  1.3334         estimate D2E/DX2                !
 ! R2    R(1,3)                  1.0835         estimate D2E/DX2                !
 ! R3    R(1,4)                  1.3646         estimate D2E/DX2                !
 ! R4    R(2,5)                  1.0856         estimate D2E/DX2                !
 ! R5    R(2,6)                  1.0838         estimate D2E/DX2                !
 ! R6    R(4,7)                  0.9728         estimate D2E/DX2                !
 ! A1    A(2,1,3)              124.0068         estimate D2E/DX2                !
 ! A2    A(2,1,4)              124.4497         estimate D2E/DX2                !
 ! A3    A(3,1,4)              111.5435         estimate D2E/DX2                !
 ! A4    A(1,2,5)              120.1572         estimate D2E/DX2                !
 ! A5    A(1,2,6)              122.3841         estimate D2E/DX2                !
 ! A6    A(5,2,6)              117.4587         estimate D2E/DX2                !
 ! A7    A(1,4,7)              108.6984         estimate D2E/DX2                !
 ! D1    D(3,1,2,5)              0.0            estimate D2E/DX2                !
 ! D2    D(3,1,2,6)            180.0            estimate D2E/DX2                !
 ! D3    D(4,1,2,5)            180.0            estimate D2E/DX2                !
 ! D4    D(4,1,2,6)              0.0            estimate D2E/DX2                !
 ! D5    D(2,1,4,7)              0.0            estimate D2E/DX2                !
 ! D6    D(3,1,4,7)            180.0            estimate D2E/DX2                !
 --------------------------------------------------------------------------------
 Trust Radius=3.00D-01 FncErr=1.00D-07 GrdErr=1.00D-07 EigMax=2.50D+02 EigMin=1.00D-04
 Number of steps in this run=     29 maximum allowed number of steps=    100.
 GradGradGradGradGradGradGradGradGradGradGradGradGradGradGradGradGradGrad

                          Input orientation:                          
 ---------------------------------------------------------------------
 Center     Atomic      Atomic             Coordinates (Angstroms)
 Number     Number       Type             X           Y           Z
 ---------------------------------------------------------------------
      1          6           0       -0.462143    1.203495    0.072582
      2          6           0       -0.912352   -0.041100   -0.089319
      3          1           0       -0.056530    1.585116    1.002056
      4          8           0       -0.453307    2.154601   -0.905940
      5          1           0       -0.886451   -0.742502    0.738894
      6          1           0       -1.313139   -0.395385   -1.031882
      7          1           0       -0.824495    1.769503   -1.718530
 ---------------------------------------------------------------------
                    Distance matrix (angstroms):
                    1          2          3          4          5
     1  C    0.000000
     2  C    1.333385   0.000000
     3  H    1.083549   2.137313   0.000000
     4  O    1.364619   2.387194   2.030318   0.000000
     5  H    2.100217   1.085621   2.485121   3.359508   0.000000
     6  H    2.121427   1.083777   3.104569   2.693994   1.854238
     7  H    1.913046   2.437279   2.832905   0.972822   3.514674
                    6          7
     6  H    0.000000
     7  H    2.323144   0.000000
 Stoichiometry    C2H4O
 Framework group  CS[SG(C2H4O)]
 Deg. of freedom    11
 Full point group                 CS      NOp   2
 Largest Abelian subgroup         CS      NOp   2
 Largest concise Abelian subgroup C1      NOp   1
                         Standard orientation:                         
 ---------------------------------------------------------------------
 Center     Atomic      Atomic             Coordinates (Angstroms)
 Number     Number       Type             X           Y           Z
 ---------------------------------------------------------------------
      1          6           0        0.000000    0.462009    0.000000
      2          6           0        1.200649   -0.117953   -0.000000
      3          1           0       -0.155001    1.534414    0.000000
      4          8           0       -1.184550   -0.215506   -0.000000
      5          1           0        2.100029    0.490066    0.000000
      6          1           0        1.325247   -1.194544   -0.000000
      7          1           0       -0.997769   -1.170229   -0.000000
 ---------------------------------------------------------------------
 Rotational constants (GHZ):          58.0940004          10.7363177           9.0616412
 Standard basis: Aug-CC-pVTZ (5D, 7F)
 There are   183 symmetry adapted cartesian basis functions of A'  symmetry.
 There are    82 symmetry adapted cartesian basis functions of A"  symmetry.
 There are   154 symmetry adapted basis functions of A'  symmetry.
 There are    76 symmetry adapted basis functions of A"  symmetry.
   230 basis functions,   324 primitive gaussians,   265 cartesian basis functions
    12 alpha electrons       12 beta electrons
       nuclear repulsion energy        70.2843449209 Hartrees.
 NAtoms=    7 NActive=    7 NUniq=    7 SFac= 1.00D+00 NAtFMM=   60 NAOKFM=F Big=F
 Integral buffers will be    131072 words long.
 Raffenetti 1 integral format.
 Two-electron integral symmetry is turned on.
 One-electron integrals computed using PRISM.
 NBasis=   230 RedAO= T EigKep=  1.33D-05  NBF=   154    76
 NBsUse=   230 1.00D-06 EigRej= -1.00D+00 NBFU=   154    76
 ExpMin= 2.53D-02 ExpMax= 1.53D+04 ExpMxC= 5.22D+02 IAcc=3 IRadAn=         5 AccDes= 0.00D+00
 Harris functional with IExCor=  205 and IRadAn=       5 diagonalized for initial guess.
 HarFok:  IExCor=  205 AccDes= 0.00D+00 IRadAn=         5 IDoV= 1 UseB2=F ITyADJ=14
 ICtDFT=  3500011 ScaDFX=  1.000000  1.000000  1.000000  1.000000
 FoFCou: FMM=F IPFlag=           0 FMFlag=      100000 FMFlg1=           0
         NFxFlg=           0 DoJE=T BraDBF=F KetDBF=T FulRan=T
         wScrn=  0.000000 ICntrl=       500 IOpCl=  0 I1Cent=   200000004 NGrid=           0
         NMat0=    1 NMatS0=      1 NMatT0=    0 NMatD0=    1 NMtDS0=    0 NMtDT0=    0
 Petite list used in FoFCou.
 Initial guess orbital symmetries:
       Occupied  (A') (A') (A') (A') (A') (A') (A') (A') (A') (A")
                 (A') (A")
       Virtual   (A") (A') (A') (A') (A') (A") (A') (A') (A') (A')
                 (A") (A') (A') (A") (A') (A') (A') (A') (A') (A")
                 (A') (A') (A") (A") (A') (A') (A") (A') (A') (A')
                 (A') (A') (A") (A') (A") (A') (A') (A') (A") (A')
                 (A') (A") (A') (A') (A") (A') (A') (A") (A') (A")
                 (A') (A") (A') (A') (A') (A") (A') (A') (A") (A')
                 (A') (A") (A') (A') (A") (A') (A") (A') (A') (A')
                 (A") (A") (A') (A") (A') (A') (A') (A') (A") (A")
                 (A') (A') (A") (A') (A") (A') (A') (A") (A') (A")
                 (A') (A') (A') (A") (A") (A') (A") (A') (A') (A")
                 (A') (A') (A') (A") (A') (A') (A") (A') (A') (A')
                 (A') (A") (A") (A') (A') (A") (A') (A') (A') (A")
                 (A') (A") (A') (A') (A') (A") (A') (A') (A") (A")
                 (A') (A') (A') (A") (A') (A') (A") (A") (A') (A')
                 (A") (A') (A") (A") (A") (A') (A') (A') (A') (A')
                 (A") (A') (A") (A') (A') (A") (A') (A') (A') (A')
                 (A") (A") (A') (A") (A') (A') (A") (A') (A') (A")
                 (A") (A') (A") (A') (A') (A') (A") (A') (A") (A")
                 (A') (A") (A') (A") (A') (A') (A') (A') (A") (A")
                 (A') (A') (A") (A') (A') (A') (A') (A') (A') (A')
                 (A') (A') (A') (A") (A") (A') (A") (A") (A') (A")
                 (A') (A') (A') (A') (A') (A') (A') (A')
 The electronic state of the initial guess is 1-A'.
 Keep R1 ints in memory in symmetry-blocked form, NReq=531850856.
 Requested convergence on RMS density matrix=1.00D-08 within 128 cycles.
 Requested convergence on MAX density matrix=1.00D-06.
 Requested convergence on             energy=1.00D-06.
 No special actions if energy rises.
 SCF Done:  E(RHF) =  -152.957238663     A.U. after   12 cycles
            NFock= 12  Conv=0.39D-08     -V/T= 2.0019
 ExpMin= 2.53D-02 ExpMax= 1.53D+04 ExpMxC= 5.22D+02 IAcc=3 IRadAn=         5 AccDes= 0.00D+00
 HarFok:  IExCor=  205 AccDes= 0.00D+00 IRadAn=         5 IDoV=-2 UseB2=F ITyADJ=14
 ICtDFT= 12500011 ScaDFX=  1.000000  1.000000  1.000000  1.000000
 Range of M.O.s used for correlation:     4   230
 NBasis=   230 NAE=    12 NBE=    12 NFC=     3 NFV=     0
 NROrb=    227 NOA=     9 NOB=     9 NVA=   218 NVB=   218

 **** Warning!!: The largest alpha MO coefficient is  0.51557605D+02

 Fully direct method using O(ONN) memory.
 JobTyp=1 Pass  1:  I=   4 to  12 NPSUse= 40 ParTrn=T ParDer=T DoDerP=T.
 Spin components of T(2) and E(2):
     alpha-alpha T2 =       0.2086497143D-01 E2=     -0.6910374433D-01
     alpha-beta  T2 =       0.1267857701D+00 E2=     -0.4424165972D+00
     beta-beta   T2 =       0.2086497143D-01 E2=     -0.6910374433D-01
 ANorm=    0.1080979053D+01
 E2 =    -0.5806240858D+00 EUMP2 =    -0.15353786274892D+03
          IDoAtm=1111111
          Differentiating once with respect to electric field.
                with respect to dipole field.
          Differentiating once with respect to nuclear coordinates.
 Keep R1 ints in memory in symmetry-blocked form, NReq=531852342.
          There are     1 degrees of freedom in the 1st order CPHF.  IDoFFX=0 NUNeed=     1.
 LinEq1:  Iter=  0 NonCon=     1 RMS=3.44D-03 Max=7.71D-02 NDo=     1
 AX will form     1 AO Fock derivatives at one time.
 LinEq1:  Iter=  1 NonCon=     1 RMS=8.86D-04 Max=7.58D-03 NDo=     1
 LinEq1:  Iter=  2 NonCon=     1 RMS=2.66D-04 Max=4.15D-03 NDo=     1
 LinEq1:  Iter=  3 NonCon=     1 RMS=8.32D-05 Max=7.85D-04 NDo=     1
 LinEq1:  Iter=  4 NonCon=     1 RMS=3.42D-05 Max=4.26D-04 NDo=     1
 LinEq1:  Iter=  5 NonCon=     1 RMS=7.62D-06 Max=1.59D-04 NDo=     1
 LinEq1:  Iter=  6 NonCon=     1 RMS=2.51D-06 Max=2.55D-05 NDo=     1
 LinEq1:  Iter=  7 NonCon=     1 RMS=6.15D-07 Max=8.13D-06 NDo=     1
 LinEq1:  Iter=  8 NonCon=     1 RMS=1.14D-07 Max=1.04D-06 NDo=     1
 LinEq1:  Iter=  9 NonCon=     1 RMS=2.51D-08 Max=2.56D-07 NDo=     1
 LinEq1:  Iter= 10 NonCon=     1 RMS=5.57D-09 Max=7.84D-08 NDo=     1
 LinEq1:  Iter= 11 NonCon=     1 RMS=9.56D-10 Max=9.37D-09 NDo=     1
 LinEq1:  Iter= 12 NonCon=     1 RMS=1.28D-10 Max=1.26D-09 NDo=     1
 LinEq1:  Iter= 13 NonCon=     0 RMS=1.52D-11 Max=1.81D-10 NDo=     1
 Linear equations converged to 1.000D-10 1.000D-09 after    13 iterations.
 End of Minotr F.D. properties file   721 does not exist.
 End of Minotr F.D. properties file   722 does not exist.
 End of Minotr F.D. properties file   788 does not exist.

 **********************************************************************

            Population analysis using the SCF Density.

 **********************************************************************

 Orbital symmetries:
       Occupied  (A') (A') (A') (A') (A') (A') (A') (A') (A") (A')
                 (A') (A")
       Virtual   (A') (A') (A') (A') (A") (A") (A') (A') (A') (A')
                 (A') (A") (A') (A') (A') (A") (A') (A") (A') (A')
                 (A') (A") (A") (A') (A') (A') (A') (A") (A') (A')
                 (A') (A") (A') (A") (A') (A') (A') (A") (A') (A')
                 (A') (A") (A') (A") (A') (A') (A') (A") (A') (A")
                 (A') (A') (A") (A') (A") (A') (A') (A') (A') (A")
                 (A') (A") (A') (A") (A') (A') (A") (A') (A') (A')
                 (A") (A') (A") (A") (A') (A') (A') (A') (A") (A')
                 (A") (A') (A") (A') (A') (A") (A') (A') (A") (A')
                 (A") (A') (A") (A') (A') (A") (A") (A') (A") (A')
                 (A') (A') (A') (A") (A') (A') (A') (A") (A') (A')
                 (A") (A') (A') (A") (A') (A") (A') (A') (A') (A")
                 (A') (A") (A') (A') (A') (A") (A') (A') (A") (A")
                 (A') (A') (A') (A") (A') (A') (A") (A') (A") (A')
                 (A') (A") (A") (A") (A') (A") (A') (A') (A') (A")
                 (A') (A") (A') (A') (A') (A') (A") (A') (A') (A")
                 (A') (A") (A') (A') (A") (A') (A") (A") (A') (A')
                 (A") (A') (A') (A") (A') (A") (A') (A") (A') (A')
                 (A") (A") (A') (A") (A') (A') (A') (A") (A') (A')
                 (A") (A') (A") (A') (A') (A') (A') (A') (A') (A')
                 (A') (A') (A') (A") (A") (A') (A") (A") (A') (A")
                 (A') (A') (A') (A') (A') (A') (A') (A')
 The electronic state is 1-A'.
 Alpha  occ. eigenvalues --  -20.59288 -11.30245 -11.21820  -1.40245  -1.02270
 Alpha  occ. eigenvalues --   -0.83159  -0.68031  -0.67000  -0.57911  -0.54837
 Alpha  occ. eigenvalues --   -0.54388  -0.35158
 Alpha virt. eigenvalues --    0.02992   0.03779   0.04238   0.06086   0.09191
 Alpha virt. eigenvalues --    0.10037   0.10176   0.11676   0.12383   0.14353
 Alpha virt. eigenvalues --    0.14399   0.17028   0.17840   0.18221   0.20007
 Alpha virt. eigenvalues --    0.20423   0.24655   0.26149   0.26862   0.27172
 Alpha virt. eigenvalues --    0.29363   0.29847   0.31240   0.32356   0.33637
 Alpha virt. eigenvalues --    0.35053   0.36070   0.37607   0.38991   0.39767
 Alpha virt. eigenvalues --    0.41870   0.42935   0.43341   0.44105   0.44326
 Alpha virt. eigenvalues --    0.45934   0.47849   0.48404   0.48880   0.51518
 Alpha virt. eigenvalues --    0.55137   0.55304   0.58852   0.62519   0.63219
 Alpha virt. eigenvalues --    0.64988   0.71684   0.71939   0.72492   0.76229
 Alpha virt. eigenvalues --    0.77437   0.80830   0.82188   0.82290   0.85995
 Alpha virt. eigenvalues --    0.86089   0.86898   0.89407   0.90798   0.91525
 Alpha virt. eigenvalues --    0.91875   0.93317   0.95914   0.97436   0.97631
 Alpha virt. eigenvalues --    0.99058   1.01401   1.01838   1.02636   1.04939
 Alpha virt. eigenvalues --    1.05016   1.07636   1.08106   1.08651   1.08758
 Alpha virt. eigenvalues --    1.11690   1.11956   1.16114   1.18305   1.18381
 Alpha virt. eigenvalues --    1.19933   1.21333   1.27609   1.27823   1.34617
 Alpha virt. eigenvalues --    1.34667   1.40638   1.43338   1.44108   1.47012
 Alpha virt. eigenvalues --    1.49218   1.51854   1.57144   1.58168   1.59560
 Alpha virt. eigenvalues --    1.61654   1.63353   1.65074   1.73288   1.73313
 Alpha virt. eigenvalues --    1.75297   1.79791   1.80567   1.82666   1.83107
 Alpha virt. eigenvalues --    1.87210   1.92395   1.92525   1.97081   2.01705
 Alpha virt. eigenvalues --    2.02175   2.03247   2.09185   2.11028   2.19502
 Alpha virt. eigenvalues --    2.24760   2.24769   2.28625   2.37410   2.41467
 Alpha virt. eigenvalues --    2.41958   2.48573   2.49018   2.52701   2.57252
 Alpha virt. eigenvalues --    2.68215   2.70663   2.73609   2.75670   2.87537
 Alpha virt. eigenvalues --    2.93270   2.99081   3.04158   3.08119   3.08742
 Alpha virt. eigenvalues --    3.18481   3.25422   3.28336   3.30210   3.32612
 Alpha virt. eigenvalues --    3.41387   3.41537   3.43933   3.50194   3.56261
 Alpha virt. eigenvalues --    3.56440   3.59407   3.66824   3.67507   3.74193
 Alpha virt. eigenvalues --    3.75810   3.78395   3.81900   3.84270   3.94681
 Alpha virt. eigenvalues --    3.95158   3.95678   4.04360   4.07529   4.08863
 Alpha virt. eigenvalues --    4.11973   4.19629   4.22900   4.26499   4.28824
 Alpha virt. eigenvalues --    4.32061   4.33918   4.42053   4.43257   4.46379
 Alpha virt. eigenvalues --    4.50224   4.54439   4.61321   4.66906   4.71451
 Alpha virt. eigenvalues --    4.76180   4.81859   4.86808   4.87892   4.94388
 Alpha virt. eigenvalues --    4.97773   5.01716   5.06829   5.13441   5.14729
 Alpha virt. eigenvalues --    5.21292   5.26306   5.32068   5.32555   5.41134
 Alpha virt. eigenvalues --    5.42846   5.45990   5.52977   5.56332   5.66338
 Alpha virt. eigenvalues --    5.85399   6.00396   6.17824   6.26552   6.57133
 Alpha virt. eigenvalues --    6.62652   6.68832   6.74039   6.84359   6.94740
 Alpha virt. eigenvalues --    6.98706   7.23176   7.32493   7.36954   7.57398
 Alpha virt. eigenvalues --    7.59833   7.65699   7.89400   8.15499   8.48202
 Alpha virt. eigenvalues --   15.33975  17.14175  17.43577
          Condensed to atoms (all electrons):
               1          2          3          4          5          6
     1  C    5.505580   0.348751   0.192032   0.263752   0.054355  -0.096626
     2  C    0.348751   6.083089  -0.039542  -0.149841   0.336661   0.358384
     3  H    0.192032  -0.039542   0.260517  -0.102631  -0.020089   0.014855
     4  O    0.263752  -0.149841  -0.102631   8.303463   0.011786  -0.033422
     5  H    0.054355   0.336661  -0.020089   0.011786   0.265752  -0.033905
     6  H   -0.096626   0.358384   0.014855  -0.033422  -0.033905   0.300213
     7  H    0.075315  -0.014454   0.008500   0.194005  -0.003938   0.009008
               7
     1  C    0.075315
     2  C   -0.014454
     3  H    0.008500
     4  O    0.194005
     5  H   -0.003938
     6  H    0.009008
     7  H    0.535476
 Mulliken charges:
               1
     1  C   -0.343158
     2  C   -0.923049
     3  H    0.686358
     4  O   -0.487111
     5  H    0.389378
     6  H    0.481494
     7  H    0.196088
 Sum of Mulliken charges =  -0.00000
 Mulliken charges with hydrogens summed into heavy atoms:
               1
     1  C    0.343200
     2  C   -0.052177
     4  O   -0.291023
 Electronic spatial extent (au):  <R**2>=            163.7985
 Charge=             -0.0000 electrons
 Dipole moment (field-independent basis, Debye):
    X=              0.7215    Y=             -0.7303    Z=              0.0000  Tot=              1.0266
 Quadrupole moment (field-independent basis, Debye-Ang):
   XX=            -20.5915   YY=            -14.2128   ZZ=            -21.3017
   XY=              0.9415   XZ=              0.0000   YZ=              0.0000
 Traceless Quadrupole moment (field-independent basis, Debye-Ang):
   XX=             -1.8896   YY=              4.4892   ZZ=             -2.5997
   XY=              0.9415   XZ=              0.0000   YZ=              0.0000
 Octapole moment (field-independent basis, Debye-Ang**2):
  XXX=              0.4915  YYY=             -3.5556  ZZZ=              0.0000  XYY=             -4.3649
  XXY=             -1.3595  XXZ=              0.0000  XZZ=             -3.8139  YZZ=             -0.6887
  YYZ=              0.0000  XYZ=              0.0000
 Hexadecapole moment (field-independent basis, Debye-Ang**3):
 XXXX=           -142.8233 YYYY=            -36.9147 ZZZZ=            -24.5336 XXXY=              1.6670
 XXXZ=              0.0000 YYYX=             -0.3286 YYYZ=             -0.0000 ZZZX=              0.0000
 ZZZY=             -0.0000 XXYY=            -27.1468 XXZZ=            -31.1059 YYZZ=            -12.5312
 XXYZ=             -0.0000 YYXZ=              0.0000 ZZXY=             -1.0583
 N-N= 7.028434492095D+01 E-N=-4.996643999150D+02  KE= 1.526682537247D+02
 Symmetry A'   KE= 1.461900945137D+02
 Symmetry A"   KE= 6.478159210988D+00
 Calling FoFJK, ICntrl=  10002127 FMM=F ISym2X=1 I1Cent= 0 IOpClX= 0 NMat=1 NMatS=1 NMatT=0.
 ***** Axes restored to original set *****
 -------------------------------------------------------------------
 Center     Atomic                   Forces (Hartrees/Bohr)
 Number     Number              X              Y              Z
 -------------------------------------------------------------------
      1        6          -0.002035497   -0.000564599   -0.006095081
      2        6          -0.000321385   -0.007974514    0.007391202
      3        1          -0.001046082   -0.001062737   -0.002313932
      4        8          -0.000748436    0.000987107   -0.003506752
      5        1           0.000395857    0.004249363   -0.003199992
      6        1           0.000862651    0.002059340    0.000654993
      7        1           0.002892892    0.002306041    0.007069562
 -------------------------------------------------------------------
 Cartesian Forces:  Max     0.007974514 RMS     0.003644180

 GradGradGradGradGradGradGradGradGradGradGradGradGradGradGradGradGradGrad
 Berny optimization.
 FormGI is forming the generalized inverse of G from B-inverse, IUseBI=4.
 Internal  Forces:  Max     0.008012305 RMS     0.003294217
 Search for a local minimum.
 Step number   1 out of a maximum of   29
 All quantities printed in internal units (Hartrees-Bohrs-Radians)
 Mixed Optimization -- RFO/linear search
 Second derivative matrix not updated -- first step.
 The second derivative matrix:
                          R1        R2        R3        R4        R5
           R1           0.58713
           R2           0.00000   0.35569
           R3           0.00000   0.00000   0.52025
           R4           0.00000   0.00000   0.00000   0.35324
           R5           0.00000   0.00000   0.00000   0.00000   0.35542
           R6           0.00000   0.00000   0.00000   0.00000   0.00000
           A1           0.00000   0.00000   0.00000   0.00000   0.00000
           A2           0.00000   0.00000   0.00000   0.00000   0.00000
           A3           0.00000   0.00000   0.00000   0.00000   0.00000
           A4           0.00000   0.00000   0.00000   0.00000   0.00000
           A5           0.00000   0.00000   0.00000   0.00000   0.00000
           A6           0.00000   0.00000   0.00000   0.00000   0.00000
           A7           0.00000   0.00000   0.00000   0.00000   0.00000
           D1           0.00000   0.00000   0.00000   0.00000   0.00000
           D2           0.00000   0.00000   0.00000   0.00000   0.00000
           D3           0.00000   0.00000   0.00000   0.00000   0.00000
           D4           0.00000   0.00000   0.00000   0.00000   0.00000
           D5           0.00000   0.00000   0.00000   0.00000   0.00000
           D6           0.00000   0.00000   0.00000   0.00000   0.00000
                          R6        A1        A2        A3        A4
           R6           0.52804
           A1           0.00000   0.16000
           A2           0.00000   0.00000   0.25000
           A3           0.00000   0.00000   0.00000   0.16000
           A4           0.00000   0.00000   0.00000   0.00000   0.16000
           A5           0.00000   0.00000   0.00000   0.00000   0.00000
           A6           0.00000   0.00000   0.00000   0.00000   0.00000
           A7           0.00000   0.00000   0.00000   0.00000   0.00000
           D1           0.00000   0.00000   0.00000   0.00000   0.00000
           D2           0.00000   0.00000   0.00000   0.00000   0.00000
           D3           0.00000   0.00000   0.00000   0.00000   0.00000
           D4           0.00000   0.00000   0.00000   0.00000   0.00000
           D5           0.00000   0.00000   0.00000   0.00000   0.00000
           D6           0.00000   0.00000   0.00000   0.00000   0.00000
                          A5        A6        A7        D1        D2
           A5           0.16000
           A6           0.00000   0.16000
           A7           0.00000   0.00000   0.16000
           D1           0.00000   0.00000   0.00000   0.02970
           D2           0.00000   0.00000   0.00000   0.00000   0.02970
           D3           0.00000   0.00000   0.00000   0.00000   0.00000
           D4           0.00000   0.00000   0.00000   0.00000   0.00000
           D5           0.00000   0.00000   0.00000   0.00000   0.00000
           D6           0.00000   0.00000   0.00000   0.00000   0.00000
                          D3        D4        D5        D6
           D3           0.02970
           D4           0.00000   0.02970
           D5           0.00000   0.00000   0.02160
           D6           0.00000   0.00000   0.00000   0.02160
 ITU=  0
     Eigenvalues ---    0.02160   0.02740   0.02970   0.02970   0.16000
     Eigenvalues ---    0.16000   0.16000   0.16000   0.22000   0.35324
     Eigenvalues ---    0.35542   0.35569   0.52025   0.52804   0.58713
 RFO step:  Lambda=-7.20830378D-04 EMin= 2.15979795D-02
 Linear search not attempted -- first point.
 Iteration  1 RMS(Cart)=  0.02115944 RMS(Int)=  0.00017755
 Iteration  2 RMS(Cart)=  0.00025608 RMS(Int)=  0.00000001
 Iteration  3 RMS(Cart)=  0.00000001 RMS(Int)=  0.00000000
 ClnCor:  largest displacement from symmetrization is 1.90D-11 for atom     7.
 Variable       Old X    -DE/DX   Delta X   Delta X   Delta X     New X
                                 (Linear)    (Quad)   (Total)
    R1        2.51973   0.00065   0.00000   0.00111   0.00111   2.52084
    R2        2.04761  -0.00275   0.00000  -0.00772  -0.00772   2.03989
    R3        2.57876  -0.00025   0.00000  -0.00047  -0.00047   2.57829
    R4        2.05153  -0.00518   0.00000  -0.01463  -0.01463   2.03690
    R5        2.04804  -0.00156   0.00000  -0.00439  -0.00439   2.04366
    R6        1.83837  -0.00792   0.00000  -0.01498  -0.01498   1.82339
    A1        2.16433  -0.00411   0.00000  -0.01882  -0.01882   2.14550
    A2        2.17206   0.00801   0.00000   0.03630   0.03630   2.20836
    A3        1.94680  -0.00390   0.00000  -0.01748  -0.01748   1.92932
    A4        2.09714  -0.00058   0.00000  -0.00360  -0.00360   2.09353
    A5        2.13601  -0.00148   0.00000  -0.00919  -0.00919   2.12682
    A6        2.05004   0.00206   0.00000   0.01279   0.01279   2.06283
    A7        1.89714  -0.00175   0.00000  -0.01091  -0.01091   1.88623
    D1        0.00000  -0.00000   0.00000  -0.00000   0.00000   0.00000
    D2        3.14159   0.00000   0.00000   0.00000   0.00000   3.14159
    D3       -3.14159  -0.00000   0.00000  -0.00000  -0.00000   3.14159
    D4       -0.00000   0.00000   0.00000   0.00000   0.00000   0.00000
    D5       -0.00000   0.00000   0.00000   0.00000   0.00000   0.00000
    D6        3.14159   0.00000   0.00000   0.00000   0.00000  -3.14159
         Item               Value     Threshold  Converged?
 Maximum Force            0.008012     0.000450     NO 
 RMS     Force            0.003294     0.000300     NO 
 Maximum Displacement     0.044699     0.001800     NO 
 RMS     Displacement     0.021059     0.001200     NO 
 Predicted change in Energy=-3.614548D-04
 GradGradGradGradGradGradGradGradGradGradGradGradGradGradGradGradGradGrad

                          Input orientation:                          
 ---------------------------------------------------------------------
 Center     Atomic      Atomic             Coordinates (Angstroms)
 Number     Number       Type             X           Y           Z
 ---------------------------------------------------------------------
      1          6           0       -0.468792    1.197208    0.057381
      2          6           0       -0.914572   -0.051973   -0.085102
      3          1           0       -0.065296    1.574027    0.984981
      4          8           0       -0.448366    2.166647   -0.902451
      5          1           0       -0.880614   -0.733889    0.748963
      6          1           0       -1.315590   -0.411448   -1.022924
      7          1           0       -0.815188    1.793156   -1.712986
 ---------------------------------------------------------------------
                    Distance matrix (angstroms):
                    1          2          3          4          5
     1  C    0.000000
     2  C    1.333970   0.000000
     3  H    1.079464   2.123729   0.000000
     4  O    1.364370   2.409913   2.015029   0.000000
     5  H    2.092133   1.077880   2.459049   3.365578   0.000000
     6  H    2.114687   1.081457   3.088208   2.722712   1.852770
     7  H    1.899827   2.462598   2.808805   0.964894   3.528659
                    6          7
     6  H    0.000000
     7  H    2.363655   0.000000
 Stoichiometry    C2H4O
 Framework group  CS[SG(C2H4O)]
 Deg. of freedom    11
 Full point group                 CS      NOp   2
 Largest Abelian subgroup         CS      NOp   2
 Largest concise Abelian subgroup C1      NOp   1
                         Standard orientation:                         
 ---------------------------------------------------------------------
 Center     Atomic      Atomic             Coordinates (Angstroms)
 Number     Number       Type             X           Y           Z
 ---------------------------------------------------------------------
      1          6           0        0.000000    0.445777    0.000000
      2          6           0        1.213461   -0.108289    0.000000
      3          1           0       -0.157445    1.513698    0.000000
      4          8           0       -1.194124   -0.214202   -0.000000
      5          1           0        2.090894    0.517759    0.000000
      6          1           0        1.351181   -1.180941   -0.000000
      7          1           0       -1.012397   -1.161828   -0.000000
 ---------------------------------------------------------------------
 Rotational constants (GHZ):          60.3107330          10.5530380           8.9814788
 Standard basis: Aug-CC-pVTZ (5D, 7F)
 There are   183 symmetry adapted cartesian basis functions of A'  symmetry.
 There are    82 symmetry adapted cartesian basis functions of A"  symmetry.
 There are   154 symmetry adapted basis functions of A'  symmetry.
 There are    76 symmetry adapted basis functions of A"  symmetry.
   230 basis functions,   324 primitive gaussians,   265 cartesian basis functions
    12 alpha electrons       12 beta electrons
       nuclear repulsion energy        70.2710294274 Hartrees.
 NAtoms=    7 NActive=    7 NUniq=    7 SFac= 1.00D+00 NAtFMM=   60 NAOKFM=F Big=F
 Integral buffers will be    131072 words long.
 Raffenetti 1 integral format.
 Two-electron integral symmetry is turned on.
 One-electron integrals computed using PRISM.
 NBasis=   230 RedAO= T EigKep=  1.25D-05  NBF=   154    76
 NBsUse=   230 1.00D-06 EigRej= -1.00D+00 NBFU=   154    76
 Initial guess from the checkpoint file:  "/scr/Gau-7388.chk"
 B after Tr=    -0.000000    0.000000   -0.000000
         Rot=    0.999998   -0.000000    0.000000   -0.002083 Ang=  -0.24 deg.
 Initial guess orbital symmetries:
       Occupied  (A') (A') (A') (A') (A') (A') (A') (A') (A") (A')
                 (A') (A")
       Virtual   (A') (A') (A') (A') (A") (A") (A') (A') (A') (A')
                 (A') (A") (A') (A') (A') (A") (A') (A") (A') (A')
                 (A') (A") (A") (A') (A') (A') (A') (A") (A') (A')
                 (A') (A") (A') (A") (A') (A') (A') (A") (A') (A')
                 (A') (A") (A') (A") (A') (A') (A') (A") (A') (A")
                 (A') (A') (A") (A') (A") (A') (A') (A') (A') (A")
                 (A') (A") (A') (A") (A') (A') (A") (A') (A') (A')
                 (A") (A') (A") (A") (A') (A') (A') (A') (A") (A')
                 (A") (A') (A") (A') (A') (A") (A') (A') (A") (A')
                 (A") (A') (A") (A') (A') (A") (A") (A') (A") (A')
                 (A') (A') (A') (A") (A') (A') (A') (A") (A') (A')
                 (A") (A') (A') (A") (A') (A") (A') (A') (A') (A")
                 (A') (A") (A') (A') (A') (A") (A') (A') (A") (A")
                 (A') (A') (A') (A") (A') (A') (A") (A') (A") (A')
                 (A') (A") (A") (A") (A') (A") (A') (A') (A') (A")
                 (A') (A") (A') (A') (A') (A') (A") (A') (A') (A")
                 (A') (A") (A') (A') (A") (A') (A") (A") (A') (A')
                 (A") (A') (A') (A") (A') (A") (A') (A") (A') (A')
                 (A") (A") (A') (A") (A') (A') (A') (A") (A') (A')
                 (A") (A') (A") (A') (A') (A') (A') (A') (A') (A')
                 (A') (A') (A') (A") (A") (A') (A") (A") (A') (A")
                 (A') (A') (A') (A') (A') (A') (A') (A')
 ExpMin= 2.53D-02 ExpMax= 1.53D+04 ExpMxC= 5.22D+02 IAcc=3 IRadAn=         5 AccDes= 0.00D+00
 Harris functional with IExCor=  205 and IRadAn=       5 diagonalized for initial guess.
 HarFok:  IExCor=  205 AccDes= 0.00D+00 IRadAn=         5 IDoV= 1 UseB2=F ITyADJ=14
 ICtDFT=  3500011 ScaDFX=  1.000000  1.000000  1.000000  1.000000
 FoFCou: FMM=F IPFlag=           0 FMFlag=      100000 FMFlg1=           0
         NFxFlg=           0 DoJE=T BraDBF=F KetDBF=T FulRan=T
         wScrn=  0.000000 ICntrl=       500 IOpCl=  0 I1Cent=   200000004 NGrid=           0
         NMat0=    1 NMatS0=      1 NMatT0=    0 NMatD0=    1 NMtDS0=    0 NMtDT0=    0
 Petite list used in FoFCou.
 Keep R1 ints in memory in symmetry-blocked form, NReq=531850856.
 Requested convergence on RMS density matrix=1.00D-08 within 128 cycles.
 Requested convergence on MAX density matrix=1.00D-06.
 Requested convergence on             energy=1.00D-06.
 No special actions if energy rises.
 SCF Done:  E(RHF) =  -152.958002141     A.U. after   10 cycles
            NFock= 10  Conv=0.49D-08     -V/T= 2.0017
 ExpMin= 2.53D-02 ExpMax= 1.53D+04 ExpMxC= 5.22D+02 IAcc=3 IRadAn=         5 AccDes= 0.00D+00
 HarFok:  IExCor=  205 AccDes= 0.00D+00 IRadAn=         5 IDoV=-2 UseB2=F ITyADJ=14
 ICtDFT= 12500011 ScaDFX=  1.000000  1.000000  1.000000  1.000000
 Range of M.O.s used for correlation:     4   230
 NBasis=   230 NAE=    12 NBE=    12 NFC=     3 NFV=     0
 NROrb=    227 NOA=     9 NOB=     9 NVA=   218 NVB=   218

 **** Warning!!: The largest alpha MO coefficient is  0.51164308D+02

 Fully direct method using O(ONN) memory.
 JobTyp=1 Pass  1:  I=   4 to  12 NPSUse= 40 ParTrn=T ParDer=T DoDerP=T.
 Spin components of T(2) and E(2):
     alpha-alpha T2 =       0.2081503444D-01 E2=     -0.6905737750D-01
     alpha-beta  T2 =       0.1263855128D+00 E2=     -0.4420973533D+00
     beta-beta   T2 =       0.2081503444D-01 E2=     -0.6905737750D-01
 ANorm=    0.1080747696D+01
 E2 =    -0.5802121083D+00 EUMP2 =    -0.15353821424954D+03
          IDoAtm=1111111
          Differentiating once with respect to electric field.
                with respect to dipole field.
          Differentiating once with respect to nuclear coordinates.
 Keep R1 ints in memory in symmetry-blocked form, NReq=531852342.
          There are     1 degrees of freedom in the 1st order CPHF.  IDoFFX=0 NUNeed=     1.
 LinEq1:  Iter=  0 NonCon=     1 RMS=3.43D-03 Max=7.73D-02 NDo=     1
 AX will form     1 AO Fock derivatives at one time.
 LinEq1:  Iter=  1 NonCon=     1 RMS=8.85D-04 Max=7.85D-03 NDo=     1
 LinEq1:  Iter=  2 NonCon=     1 RMS=2.66D-04 Max=4.19D-03 NDo=     1
 LinEq1:  Iter=  3 NonCon=     1 RMS=8.37D-05 Max=8.27D-04 NDo=     1
 LinEq1:  Iter=  4 NonCon=     1 RMS=3.39D-05 Max=4.14D-04 NDo=     1
 LinEq1:  Iter=  5 NonCon=     1 RMS=7.59D-06 Max=1.60D-04 NDo=     1
 LinEq1:  Iter=  6 NonCon=     1 RMS=2.49D-06 Max=2.49D-05 NDo=     1
 LinEq1:  Iter=  7 NonCon=     1 RMS=6.00D-07 Max=7.85D-06 NDo=     1
 LinEq1:  Iter=  8 NonCon=     1 RMS=1.09D-07 Max=9.24D-07 NDo=     1
 LinEq1:  Iter=  9 NonCon=     1 RMS=2.39D-08 Max=2.47D-07 NDo=     1
 LinEq1:  Iter= 10 NonCon=     1 RMS=5.45D-09 Max=7.55D-08 NDo=     1
 LinEq1:  Iter= 11 NonCon=     1 RMS=9.47D-10 Max=9.10D-09 NDo=     1
 LinEq1:  Iter= 12 NonCon=     1 RMS=1.26D-10 Max=1.19D-09 NDo=     1
 LinEq1:  Iter= 13 NonCon=     0 RMS=1.54D-11 Max=1.69D-10 NDo=     1
 Linear equations converged to 1.000D-10 1.000D-09 after    13 iterations.
 End of Minotr F.D. properties file   721 does not exist.
 End of Minotr F.D. properties file   722 does not exist.
 End of Minotr F.D. properties file   788 does not exist.
 Calling FoFJK, ICntrl=  10002127 FMM=F ISym2X=1 I1Cent= 0 IOpClX= 0 NMat=1 NMatS=1 NMatT=0.
 ***** Axes restored to original set *****
 -------------------------------------------------------------------
 Center     Atomic                   Forces (Hartrees/Bohr)
 Number     Number              X              Y              Z
 -------------------------------------------------------------------
      1        6           0.000076698    0.000841568   -0.000639335
      2        6          -0.000294055   -0.000611042   -0.000319602
      3        1           0.000175989   -0.000301918    0.000898539
      4        8          -0.000293769   -0.001585135    0.000713267
      5        1           0.000413695    0.000886192    0.000421521
      6        1          -0.000014126    0.000303957   -0.000368453
      7        1          -0.000064432    0.000466378   -0.000705937
 -------------------------------------------------------------------
 Cartesian Forces:  Max     0.001585135 RMS     0.000609628

 GradGradGradGradGradGradGradGradGradGradGradGradGradGradGradGradGradGrad
 Berny optimization.
 Using GEDIIS/GDIIS optimizer.
 FormGI is forming the generalized inverse of G from B-inverse, IUseBI=4.
 Internal  Forces:  Max     0.001326268 RMS     0.000592437
 Search for a local minimum.
 Step number   2 out of a maximum of   29
 All quantities printed in internal units (Hartrees-Bohrs-Radians)
 Mixed Optimization -- En-DIIS/RFO-DIIS
 Update second derivatives using D2CorX and points    1    2
 DE= -3.52D-04 DEPred=-3.61D-04 R= 9.72D-01
 TightC=F SS=  1.41D+00  RLast= 5.36D-02 DXNew= 5.0454D-01 1.6089D-01
 Trust test= 9.72D-01 RLast= 5.36D-02 DXMaxT set to 3.00D-01
 The second derivative matrix:
                          R1        R2        R3        R4        R5
           R1           0.58850
           R2          -0.00318   0.36165
           R3           0.00113  -0.00358   0.52059
           R4          -0.00339   0.00367  -0.00552   0.34939
           R5          -0.00149   0.00248  -0.00189   0.00079   0.35636
           R6          -0.00644   0.00925  -0.00904  -0.00072   0.00308
           A1          -0.00306   0.00528  -0.00373   0.00223   0.00207
           A2           0.00509  -0.00392   0.00930   0.01034  -0.00010
           A3          -0.00498   0.01112  -0.00446   0.01091   0.00511
           A4           0.00141  -0.00479   0.00022  -0.00782  -0.00258
           A5          -0.00129   0.00198  -0.00172   0.00024   0.00071
           A6          -0.00012   0.00281   0.00150   0.00758   0.00187
           A7          -0.00343   0.00787  -0.00293   0.00814   0.00367
           D1          -0.00000   0.00000  -0.00000   0.00000   0.00000
           D2          -0.00000   0.00000   0.00000   0.00000   0.00000
           D3           0.00000  -0.00000  -0.00000  -0.00000  -0.00000
           D4          -0.00000   0.00000   0.00000   0.00000   0.00000
           D5          -0.00000   0.00000   0.00000   0.00000   0.00000
           D6          -0.00000   0.00000   0.00000   0.00000   0.00000
                          R6        A1        A2        A3        A4
           R6           0.53568
           A1           0.00713   0.16451
           A2           0.00730  -0.00135   0.22593
           A3           0.02154   0.01053  -0.01584   0.17802
           A4          -0.01255  -0.00506   0.01335  -0.00567   0.15994
           A5           0.00205   0.00159   0.00074   0.00435  -0.00237
           A6           0.01051   0.00346  -0.01409   0.00132   0.00243
           A7           0.01568   0.00753  -0.01207   0.01248  -0.00369
           D1           0.00000   0.00000  -0.00000   0.00000  -0.00000
           D2           0.00000   0.00000  -0.00000   0.00000   0.00000
           D3          -0.00000  -0.00000   0.00000  -0.00000  -0.00000
           D4           0.00000   0.00000  -0.00000   0.00000   0.00000
           D5           0.00000   0.00000  -0.00000   0.00000   0.00000
           D6           0.00000   0.00000  -0.00000   0.00000   0.00000
                          A5        A6        A7        D1        D2
           A5           0.16050
           A6           0.00187   0.15570
           A7           0.00315   0.00054   0.16862
           D1           0.00000  -0.00000   0.00000   0.02970
           D2           0.00000  -0.00000   0.00000  -0.00000   0.02970
           D3          -0.00000   0.00000  -0.00000   0.00000   0.00000
           D4           0.00000  -0.00000   0.00000  -0.00000  -0.00000
           D5           0.00000  -0.00000   0.00000  -0.00000  -0.00000
           D6           0.00000  -0.00000   0.00000   0.00000  -0.00000
                          D3        D4        D5        D6
           D3           0.02970
           D4           0.00000   0.02970
           D5           0.00000  -0.00000   0.02160
           D6           0.00000  -0.00000  -0.00000   0.02160
 ITU=  1  0
 Use linear search instead of GDIIS.
     Eigenvalues ---    0.02160   0.02738   0.02970   0.02970   0.14529
     Eigenvalues ---    0.16000   0.16000   0.16471   0.23294   0.34907
     Eigenvalues ---    0.35543   0.36461   0.51688   0.54153   0.58988
 RFO step:  Lambda=-3.24763847D-05 EMin= 2.15979795D-02
 Quartic linear search produced a step of -0.02298.
 Iteration  1 RMS(Cart)=  0.00491294 RMS(Int)=  0.00001942
 Iteration  2 RMS(Cart)=  0.00001699 RMS(Int)=  0.00000001
 Iteration  3 RMS(Cart)=  0.00000000 RMS(Int)=  0.00000000
 ClnCor:  largest displacement from symmetrization is 4.66D-09 for atom     6.
 Variable       Old X    -DE/DX   Delta X   Delta X   Delta X     New X
                                 (Linear)    (Quad)   (Total)
    R1        2.52084  -0.00055  -0.00003  -0.00084  -0.00086   2.51997
    R2        2.03989   0.00073   0.00018   0.00149   0.00166   2.04156
    R3        2.57829  -0.00081   0.00001  -0.00154  -0.00153   2.57675
    R4        2.03690  -0.00022   0.00034  -0.00161  -0.00127   2.03563
    R5        2.04366   0.00022   0.00010   0.00032   0.00042   2.04407
    R6        1.82339   0.00044   0.00034  -0.00021   0.00013   1.82352
    A1        2.14550  -0.00056   0.00043  -0.00483  -0.00440   2.14111
    A2        2.20836  -0.00016  -0.00083   0.00176   0.00093   2.20928
    A3        1.92932   0.00072   0.00040   0.00307   0.00347   1.93279
    A4        2.09353  -0.00113   0.00008  -0.00712  -0.00704   2.08649
    A5        2.12682   0.00013   0.00021   0.00018   0.00039   2.12721
    A6        2.06283   0.00099  -0.00029   0.00694   0.00665   2.06948
    A7        1.88623   0.00133   0.00025   0.00736   0.00761   1.89384
    D1       -0.00000  -0.00000   0.00000  -0.00000   0.00000   0.00000
    D2       -3.14159  -0.00000  -0.00000   0.00000  -0.00000   3.14159
    D3        3.14159   0.00000   0.00000  -0.00000   0.00000  -3.14159
    D4        0.00000   0.00000  -0.00000   0.00000  -0.00000  -0.00000
    D5        0.00000   0.00000  -0.00000   0.00000  -0.00000   0.00000
    D6       -3.14159   0.00000  -0.00000   0.00000  -0.00000   3.14159
         Item               Value     Threshold  Converged?
 Maximum Force            0.001326     0.000450     NO 
 RMS     Force            0.000592     0.000300     NO 
 Maximum Displacement     0.010275     0.001800     NO 
 RMS     Displacement     0.004912     0.001200     NO 
 Predicted change in Energy=-1.643477D-05
 GradGradGradGradGradGradGradGradGradGradGradGradGradGradGradGradGradGrad

                          Input orientation:                          
 ---------------------------------------------------------------------
 Center     Atomic      Atomic             Coordinates (Angstroms)
 Number     Number       Type             X           Y           Z
 ---------------------------------------------------------------------
      1          6           0       -0.469521    1.195851    0.056421
      2          6           0       -0.915039   -0.052993   -0.085557
      3          1           0       -0.066380    1.569093    0.986643
      4          8           0       -0.448794    2.165207   -0.902333
      5          1           0       -0.877885   -0.728755    0.752501
      6          1           0       -1.316271   -0.413268   -1.023236
      7          1           0       -0.814528    1.798593   -1.716576
 ---------------------------------------------------------------------
                    Distance matrix (angstroms):
                    1          2          3          4          5
     1  C    0.000000
     2  C    1.333513   0.000000
     3  H    1.080345   2.121556   0.000000
     4  O    1.363558   2.409340   2.017381   0.000000
     5  H    2.086959   1.077208   2.448156   3.361193   0.000000
     6  H    2.114689   1.081678   3.087329   2.723173   1.856060
     7  H    1.904165   2.469554   2.814212   0.964965   3.533815
                    6          7
     6  H    0.000000
     7  H    2.371666   0.000000
 Stoichiometry    C2H4O
 Framework group  CS[SG(C2H4O)]
 Deg. of freedom    11
 Full point group                 CS      NOp   2
 Largest Abelian subgroup         CS      NOp   2
 Largest concise Abelian subgroup C1      NOp   1
                         Standard orientation:                         
 ---------------------------------------------------------------------
 Center     Atomic      Atomic             Coordinates (Angstroms)
 Number     Number       Type             X           Y           Z
 ---------------------------------------------------------------------
      1          6           0        0.000000    0.444920    0.000000
      2          6           0        1.213586   -0.107768    0.000000
      3          1           0       -0.153921    1.514245   -0.000000
      4          8           0       -1.193379   -0.214730   -0.000000
      5          1           0        2.085426    0.524903    0.000000
      6          1           0        1.352806   -1.180449    0.000000
      7          1           0       -1.018801   -1.163772   -0.000000
 ---------------------------------------------------------------------
 Rotational constants (GHZ):          60.3144795          10.5584251           8.9854637
 Standard basis: Aug-CC-pVTZ (5D, 7F)
 There are   183 symmetry adapted cartesian basis functions of A'  symmetry.
 There are    82 symmetry adapted cartesian basis functions of A"  symmetry.
 There are   154 symmetry adapted basis functions of A'  symmetry.
 There are    76 symmetry adapted basis functions of A"  symmetry.
   230 basis functions,   324 primitive gaussians,   265 cartesian basis functions
    12 alpha electrons       12 beta electrons
       nuclear repulsion energy        70.2839754174 Hartrees.
 NAtoms=    7 NActive=    7 NUniq=    7 SFac= 1.00D+00 NAtFMM=   60 NAOKFM=F Big=F
 Integral buffers will be    131072 words long.
 Raffenetti 1 integral format.
 Two-electron integral symmetry is turned on.
 One-electron integrals computed using PRISM.
 NBasis=   230 RedAO= T EigKep=  1.24D-05  NBF=   154    76
 NBsUse=   230 1.00D-06 EigRej= -1.00D+00 NBFU=   154    76
 Initial guess from the checkpoint file:  "/scr/Gau-7388.chk"
 B after Tr=    -0.000000    0.000000    0.000000
         Rot=    1.000000    0.000000   -0.000000   -0.000286 Ang=  -0.03 deg.
 Initial guess orbital symmetries:
       Occupied  (A') (A') (A') (A') (A') (A') (A') (A') (A") (A')
                 (A') (A")
       Virtual   (A') (A') (A') (A') (A") (A") (A') (A') (A') (A')
                 (A') (A") (A') (A') (A') (A") (A') (A") (A') (A')
                 (A') (A") (A") (A') (A') (A') (A') (A") (A') (A')
                 (A') (A") (A') (A") (A') (A') (A') (A") (A') (A')
                 (A") (A') (A') (A") (A') (A') (A') (A") (A') (A")
                 (A') (A') (A") (A') (A") (A') (A') (A') (A') (A")
                 (A') (A") (A') (A") (A') (A') (A") (A') (A') (A")
                 (A') (A') (A") (A') (A") (A') (A') (A') (A") (A')
                 (A") (A') (A") (A') (A') (A") (A') (A') (A") (A')
                 (A") (A') (A") (A') (A') (A") (A") (A') (A") (A')
                 (A') (A') (A') (A') (A") (A') (A') (A") (A') (A')
                 (A") (A') (A') (A") (A') (A") (A') (A') (A') (A")
                 (A') (A") (A') (A') (A') (A") (A') (A') (A") (A")
                 (A') (A') (A') (A') (A") (A') (A") (A') (A") (A')
                 (A') (A") (A") (A") (A') (A") (A') (A') (A') (A")
                 (A') (A") (A') (A') (A') (A") (A') (A') (A') (A")
                 (A') (A") (A') (A') (A") (A') (A") (A") (A') (A')
                 (A") (A') (A') (A") (A') (A") (A') (A") (A') (A')
                 (A") (A") (A') (A") (A') (A') (A') (A') (A") (A')
                 (A") (A') (A") (A') (A') (A') (A') (A') (A') (A')
                 (A') (A') (A') (A") (A") (A') (A") (A") (A') (A")
                 (A') (A') (A') (A') (A') (A') (A') (A')
 Keep R1 ints in memory in symmetry-blocked form, NReq=531850856.
 Requested convergence on RMS density matrix=1.00D-08 within 128 cycles.
 Requested convergence on MAX density matrix=1.00D-06.
 Requested convergence on             energy=1.00D-06.
 No special actions if energy rises.
 SCF Done:  E(RHF) =  -152.958104924     A.U. after    8 cycles
            NFock=  8  Conv=0.44D-08     -V/T= 2.0017
 ExpMin= 2.53D-02 ExpMax= 1.53D+04 ExpMxC= 5.22D+02 IAcc=3 IRadAn=         5 AccDes= 0.00D+00
 HarFok:  IExCor=  205 AccDes= 0.00D+00 IRadAn=         5 IDoV=-2 UseB2=F ITyADJ=14
 ICtDFT= 12500011 ScaDFX=  1.000000  1.000000  1.000000  1.000000
 Range of M.O.s used for correlation:     4   230
 NBasis=   230 NAE=    12 NBE=    12 NFC=     3 NFV=     0
 NROrb=    227 NOA=     9 NOB=     9 NVA=   218 NVB=   218

 **** Warning!!: The largest alpha MO coefficient is  0.50483988D+02

 Fully direct method using O(ONN) memory.
 JobTyp=1 Pass  1:  I=   4 to  12 NPSUse= 40 ParTrn=T ParDer=T DoDerP=T.
 Spin components of T(2) and E(2):
     alpha-alpha T2 =       0.2080601465D-01 E2=     -0.6904956812D-01
     alpha-beta  T2 =       0.1263265232D+00 E2=     -0.4420295472D+00
     beta-beta   T2 =       0.2080601465D-01 E2=     -0.6904956812D-01
 ANorm=    0.1080712058D+01
 E2 =    -0.5801286834D+00 EUMP2 =    -0.15353823360735D+03
          IDoAtm=1111111
          Differentiating once with respect to electric field.
                with respect to dipole field.
          Differentiating once with respect to nuclear coordinates.
 Keep R1 ints in memory in symmetry-blocked form, NReq=531852342.
          There are     1 degrees of freedom in the 1st order CPHF.  IDoFFX=0 NUNeed=     1.
 LinEq1:  Iter=  0 NonCon=     1 RMS=3.43D-03 Max=7.74D-02 NDo=     1
 AX will form     1 AO Fock derivatives at one time.
 LinEq1:  Iter=  1 NonCon=     1 RMS=8.83D-04 Max=7.72D-03 NDo=     1
 LinEq1:  Iter=  2 NonCon=     1 RMS=2.65D-04 Max=4.20D-03 NDo=     1
 LinEq1:  Iter=  3 NonCon=     1 RMS=8.31D-05 Max=8.08D-04 NDo=     1
 LinEq1:  Iter=  4 NonCon=     1 RMS=3.37D-05 Max=4.09D-04 NDo=     1
 LinEq1:  Iter=  5 NonCon=     1 RMS=7.57D-06 Max=1.60D-04 NDo=     1
 LinEq1:  Iter=  6 NonCon=     1 RMS=2.48D-06 Max=2.49D-05 NDo=     1
 LinEq1:  Iter=  7 NonCon=     1 RMS=6.00D-07 Max=7.97D-06 NDo=     1
 LinEq1:  Iter=  8 NonCon=     1 RMS=1.09D-07 Max=8.54D-07 NDo=     1
 LinEq1:  Iter=  9 NonCon=     1 RMS=2.41D-08 Max=2.53D-07 NDo=     1
 LinEq1:  Iter= 10 NonCon=     1 RMS=5.54D-09 Max=7.61D-08 NDo=     1
 LinEq1:  Iter= 11 NonCon=     1 RMS=9.52D-10 Max=8.75D-09 NDo=     1
 LinEq1:  Iter= 12 NonCon=     1 RMS=1.26D-10 Max=1.14D-09 NDo=     1
 LinEq1:  Iter= 13 NonCon=     0 RMS=1.52D-11 Max=1.67D-10 NDo=     1
 Linear equations converged to 1.000D-10 1.000D-09 after    13 iterations.
 End of Minotr F.D. properties file   721 does not exist.
 End of Minotr F.D. properties file   722 does not exist.
 End of Minotr F.D. properties file   788 does not exist.
 Calling FoFJK, ICntrl=  10002127 FMM=F ISym2X=1 I1Cent= 0 IOpClX= 0 NMat=1 NMatS=1 NMatT=0.
 ***** Axes restored to original set *****
 -------------------------------------------------------------------
 Center     Atomic                   Forces (Hartrees/Bohr)
 Number     Number              X              Y              Z
 -------------------------------------------------------------------
      1        6           0.000124454    0.000821899   -0.000461465
      2        6          -0.000323336   -0.000460357   -0.000575515
      3        1           0.000028918   -0.000033717    0.000130809
      4        8           0.000059876   -0.000421038    0.000642925
      5        1           0.000146102    0.000077380    0.000398443
      6        1           0.000033512    0.000099837    0.000004430
      7        1          -0.000069526   -0.000084004   -0.000139627
 -------------------------------------------------------------------
 Cartesian Forces:  Max     0.000821899 RMS     0.000337606

 GradGradGradGradGradGradGradGradGradGradGradGradGradGradGradGradGradGrad
 Berny optimization.
 Using GEDIIS/GDIIS optimizer.
 FormGI is forming the generalized inverse of G from B-inverse, IUseBI=4.
 Internal  Forces:  Max     0.000713065 RMS     0.000230197
 Search for a local minimum.
 Step number   3 out of a maximum of   29
 All quantities printed in internal units (Hartrees-Bohrs-Radians)
 Mixed Optimization -- En-DIIS/RFO-DIIS
 Swapping is turned off.
 Update second derivatives using D2CorX and points    1    2    3
 DE= -1.94D-05 DEPred=-1.64D-05 R= 1.18D+00
 TightC=F SS=  1.41D+00  RLast= 1.38D-02 DXNew= 5.0454D-01 4.1539D-02
 Trust test= 1.18D+00 RLast= 1.38D-02 DXMaxT set to 3.00D-01
 The second derivative matrix:
                          R1        R2        R3        R4        R5
           R1           0.60724
           R2          -0.00938   0.35952
           R3          -0.00902   0.00984   0.50183
           R4           0.01158  -0.00132  -0.01354   0.36135
           R5          -0.00564   0.00340   0.00144  -0.00252   0.35723
           R6          -0.00299   0.00594  -0.00567   0.00204   0.00208
           A1           0.00485   0.00714  -0.01878   0.00860   0.00081
           A2           0.00412  -0.00468   0.01239   0.00954  -0.00000
           A3          -0.01175   0.00981   0.00777   0.00548   0.00623
           A4           0.00656   0.00272  -0.02474  -0.00363  -0.00272
           A5           0.00083   0.00003   0.00014   0.00192   0.00010
           A6          -0.00739  -0.00275   0.02460   0.00171   0.00262
           A7          -0.02413   0.00848   0.02331  -0.00845   0.00758
           D1           0.00000  -0.00000   0.00000   0.00000  -0.00000
           D2          -0.00000   0.00000  -0.00000  -0.00000   0.00000
           D3           0.00000  -0.00000   0.00000  -0.00000  -0.00000
           D4          -0.00000   0.00000  -0.00000   0.00000   0.00000
           D5          -0.00000   0.00000  -0.00000  -0.00000   0.00000
           D6          -0.00000   0.00000  -0.00000  -0.00000   0.00000
                          R6        A1        A2        A3        A4
           R6           0.53521
           A1           0.01092   0.16307
           A2           0.00654  -0.00063   0.22573
           A3           0.01845   0.01148  -0.01641   0.17744
           A4          -0.00681  -0.01272   0.01543   0.00030   0.14109
           A5           0.00179   0.00382   0.00031   0.00252   0.00096
           A6           0.00502   0.00890  -0.01574  -0.00282   0.01795
           A7           0.00862   0.00546  -0.01261   0.01466   0.00437
           D1           0.00000   0.00000  -0.00000  -0.00000   0.00000
           D2           0.00000  -0.00000  -0.00000   0.00000  -0.00000
           D3          -0.00000   0.00000   0.00000  -0.00000   0.00000
           D4           0.00000  -0.00000  -0.00000   0.00000  -0.00000
           D5           0.00000  -0.00000  -0.00000   0.00000  -0.00000
           D6           0.00000  -0.00000  -0.00000   0.00000  -0.00000
                          A5        A6        A7        D1        D2
           A5           0.16037
           A6          -0.00132   0.14337
           A7          -0.00106  -0.00332   0.18217
           D1           0.00000  -0.00000  -0.00000   0.02970
           D2           0.00000   0.00000   0.00000  -0.00000   0.02970
           D3          -0.00000  -0.00000  -0.00000   0.00000   0.00000
           D4           0.00000   0.00000   0.00000  -0.00000  -0.00000
           D5           0.00000   0.00000   0.00000  -0.00000  -0.00000
           D6           0.00000   0.00000   0.00000  -0.00000  -0.00000
                          D3        D4        D5        D6
           D3           0.02970
           D4           0.00000   0.02970
           D5           0.00000  -0.00000   0.02160
           D6           0.00000  -0.00000  -0.00000   0.02160
 ITU=  1  1  0
     Eigenvalues ---    0.02160   0.02736   0.02970   0.02970   0.10714
     Eigenvalues ---    0.16000   0.16052   0.17680   0.23282   0.35450
     Eigenvalues ---    0.35927   0.36339   0.50738   0.53671   0.61206
 En-DIIS/RFO-DIIS/Sim-DIIS IScMMF=       -3 using points:     3    2
 RFO step:  Lambda=-4.44022897D-06.
 DidBck=F Rises=F RFO-DIIS coefs:    1.31806   -0.31806
 Iteration  1 RMS(Cart)=  0.00174234 RMS(Int)=  0.00000327
 Iteration  2 RMS(Cart)=  0.00000312 RMS(Int)=  0.00000000
 Iteration  3 RMS(Cart)=  0.00000000 RMS(Int)=  0.00000001
 ClnCor:  largest displacement from symmetrization is 6.97D-09 for atom     6.
 Variable       Old X    -DE/DX   Delta X   Delta X   Delta X     New X
                                 (Linear)    (Quad)   (Total)
    R1        2.51997   0.00033  -0.00027   0.00090   0.00062   2.52060
    R2        2.04156   0.00011   0.00053  -0.00009   0.00044   2.04200
    R3        2.57675  -0.00071  -0.00049  -0.00134  -0.00183   2.57492
    R4        2.03563   0.00027  -0.00040   0.00101   0.00060   2.03623
    R5        2.04407  -0.00005   0.00013  -0.00032  -0.00019   2.04389
    R6        1.82352   0.00018   0.00004   0.00018   0.00022   1.82374
    A1        2.14111  -0.00010  -0.00140  -0.00002  -0.00142   2.13969
    A2        2.20928   0.00004   0.00029   0.00049   0.00078   2.21006
    A3        1.93279   0.00006   0.00110  -0.00047   0.00064   1.93343
    A4        2.08649  -0.00040  -0.00224  -0.00153  -0.00377   2.08272
    A5        2.12721   0.00010   0.00012   0.00058   0.00071   2.12792
    A6        2.06948   0.00029   0.00211   0.00095   0.00306   2.07254
    A7        1.89384  -0.00004   0.00242  -0.00210   0.00032   1.89416
    D1       -0.00000  -0.00000   0.00000  -0.00000   0.00000   0.00000
    D2        3.14159  -0.00000  -0.00000   0.00000   0.00000   3.14159
    D3        3.14159   0.00000   0.00000  -0.00000   0.00000   3.14159
    D4        0.00000   0.00000  -0.00000   0.00000  -0.00000   0.00000
    D5       -0.00000   0.00000  -0.00000   0.00000   0.00000   0.00000
    D6        3.14159   0.00000  -0.00000   0.00000   0.00000   3.14159
         Item               Value     Threshold  Converged?
 Maximum Force            0.000713     0.000450     NO 
 RMS     Force            0.000230     0.000300     YES
 Maximum Displacement     0.004242     0.001800     NO 
 RMS     Displacement     0.001743     0.001200     NO 
 Predicted change in Energy=-2.220173D-06
 GradGradGradGradGradGradGradGradGradGradGradGradGradGradGradGradGradGrad

                          Input orientation:                          
 ---------------------------------------------------------------------
 Center     Atomic      Atomic             Coordinates (Angstroms)
 Number     Number       Type             X           Y           Z
 ---------------------------------------------------------------------
      1          6           0       -0.469808    1.195715    0.055621
      2          6           0       -0.915461   -0.053417   -0.086496
      3          1           0       -0.066835    1.567595    0.986733
      4          8           0       -0.448620    2.165132   -0.901682
      5          1           0       -0.876693   -0.726511    0.754043
      6          1           0       -1.316766   -0.414263   -1.023809
      7          1           0       -0.814235    1.799476   -1.716547
 ---------------------------------------------------------------------
                    Distance matrix (angstroms):
                    1          2          3          4          5
     1  C    0.000000
     2  C    1.333842   0.000000
     3  H    1.080580   2.121242   0.000000
     4  O    1.362589   2.409238   2.017157   0.000000
     5  H    2.085257   1.077527   2.443959   3.359504   0.000000
     6  H    2.115310   1.081578   3.087454   2.724310   1.857935
     7  H    1.903611   2.469924   2.814267   0.965082   3.533882
                    6          7
     6  H    0.000000
     7  H    2.373407   0.000000
 Stoichiometry    C2H4O
 Framework group  CS[SG(C2H4O)]
 Deg. of freedom    11
 Full point group                 CS      NOp   2
 Largest Abelian subgroup         CS      NOp   2
 Largest concise Abelian subgroup C1      NOp   1
                         Standard orientation:                         
 ---------------------------------------------------------------------
 Center     Atomic      Atomic             Coordinates (Angstroms)
 Number     Number       Type             X           Y           Z
 ---------------------------------------------------------------------
      1          6           0        0.000000    0.444282    0.000000
      2          6           0        1.213654   -0.109052   -0.000000
      3          1           0       -0.151991    1.514119    0.000000
      4          8           0       -1.193320   -0.213468    0.000000
      5          1           0        2.083627    0.526724   -0.000000
      6          1           0        1.353168   -1.181594   -0.000000
      7          1           0       -1.020166   -1.162889   -0.000000
 ---------------------------------------------------------------------
 Rotational constants (GHZ):          60.3435521          10.5607204           8.9877712
 Standard basis: Aug-CC-pVTZ (5D, 7F)
 There are   183 symmetry adapted cartesian basis functions of A'  symmetry.
 There are    82 symmetry adapted cartesian basis functions of A"  symmetry.
 There are   154 symmetry adapted basis functions of A'  symmetry.
 There are    76 symmetry adapted basis functions of A"  symmetry.
   230 basis functions,   324 primitive gaussians,   265 cartesian basis functions
    12 alpha electrons       12 beta electrons
       nuclear repulsion energy        70.2938291889 Hartrees.
 NAtoms=    7 NActive=    7 NUniq=    7 SFac= 1.00D+00 NAtFMM=   60 NAOKFM=F Big=F
 Integral buffers will be    131072 words long.
 Raffenetti 1 integral format.
 Two-electron integral symmetry is turned on.
 One-electron integrals computed using PRISM.
 NBasis=   230 RedAO= T EigKep=  1.24D-05  NBF=   154    76
 NBsUse=   230 1.00D-06 EigRej= -1.00D+00 NBFU=   154    76
 Initial guess from the checkpoint file:  "/scr/Gau-7388.chk"
 B after Tr=     0.000000   -0.000000   -0.000000
         Rot=    1.000000    0.000000    0.000000    0.000335 Ang=   0.04 deg.
 Initial guess orbital symmetries:
       Occupied  (A') (A') (A') (A') (A') (A') (A') (A') (A") (A')
                 (A') (A")
       Virtual   (A') (A') (A') (A') (A") (A") (A') (A') (A') (A')
                 (A') (A") (A') (A') (A') (A") (A') (A") (A') (A')
                 (A') (A") (A") (A') (A') (A') (A') (A") (A') (A')
                 (A') (A") (A') (A') (A") (A') (A') (A") (A') (A')
                 (A") (A') (A') (A") (A') (A') (A') (A") (A') (A")
                 (A') (A') (A") (A') (A") (A') (A') (A') (A') (A")
                 (A') (A") (A') (A") (A') (A') (A") (A') (A') (A")
                 (A') (A') (A") (A') (A") (A') (A') (A') (A") (A')
                 (A") (A') (A") (A') (A") (A') (A') (A') (A") (A')
                 (A") (A') (A') (A") (A') (A") (A") (A') (A") (A')
                 (A') (A') (A') (A') (A") (A') (A') (A") (A') (A')
                 (A") (A') (A') (A") (A') (A") (A') (A') (A') (A")
                 (A') (A") (A') (A') (A') (A") (A') (A") (A') (A")
                 (A') (A') (A') (A') (A") (A') (A") (A') (A") (A')
                 (A') (A") (A") (A") (A") (A') (A') (A') (A') (A")
                 (A') (A") (A') (A') (A') (A") (A') (A') (A') (A")
                 (A') (A") (A') (A') (A") (A') (A") (A") (A') (A')
                 (A") (A') (A') (A") (A') (A") (A') (A") (A') (A')
                 (A") (A") (A') (A") (A') (A') (A') (A') (A") (A')
                 (A") (A') (A") (A') (A') (A') (A') (A') (A') (A')
                 (A') (A') (A') (A") (A") (A') (A") (A") (A') (A")
                 (A') (A') (A') (A') (A') (A') (A') (A')
 Keep R1 ints in memory in symmetry-blocked form, NReq=531850856.
 Requested convergence on RMS density matrix=1.00D-08 within 128 cycles.
 Requested convergence on MAX density matrix=1.00D-06.
 Requested convergence on             energy=1.00D-06.
 No special actions if energy rises.
 SCF Done:  E(RHF) =  -152.958110013     A.U. after    8 cycles
            NFock=  8  Conv=0.65D-08     -V/T= 2.0017
 ExpMin= 2.53D-02 ExpMax= 1.53D+04 ExpMxC= 5.22D+02 IAcc=3 IRadAn=         5 AccDes= 0.00D+00
 HarFok:  IExCor=  205 AccDes= 0.00D+00 IRadAn=         5 IDoV=-2 UseB2=F ITyADJ=14
 ICtDFT= 12500011 ScaDFX=  1.000000  1.000000  1.000000  1.000000
 Range of M.O.s used for correlation:     4   230
 NBasis=   230 NAE=    12 NBE=    12 NFC=     3 NFV=     0
 NROrb=    227 NOA=     9 NOB=     9 NVA=   218 NVB=   218

 **** Warning!!: The largest alpha MO coefficient is  0.50066376D+02

 Fully direct method using O(ONN) memory.
 JobTyp=1 Pass  1:  I=   4 to  12 NPSUse= 40 ParTrn=T ParDer=T DoDerP=T.
 Spin components of T(2) and E(2):
     alpha-alpha T2 =       0.2080585682D-01 E2=     -0.6905234190D-01
     alpha-beta  T2 =       0.1263219320D+00 E2=     -0.4420212818D+00
     beta-beta   T2 =       0.2080585682D-01 E2=     -0.6905234190D-01
 ANorm=    0.1080709788D+01
 E2 =    -0.5801259656D+00 EUMP2 =    -0.15353823597839D+03
          IDoAtm=1111111
          Differentiating once with respect to electric field.
                with respect to dipole field.
          Differentiating once with respect to nuclear coordinates.
 Keep R1 ints in memory in symmetry-blocked form, NReq=531852342.
          There are     1 degrees of freedom in the 1st order CPHF.  IDoFFX=0 NUNeed=     1.
 LinEq1:  Iter=  0 NonCon=     1 RMS=3.43D-03 Max=7.74D-02 NDo=     1
 AX will form     1 AO Fock derivatives at one time.
 LinEq1:  Iter=  1 NonCon=     1 RMS=8.83D-04 Max=7.68D-03 NDo=     1
 LinEq1:  Iter=  2 NonCon=     1 RMS=2.65D-04 Max=4.22D-03 NDo=     1
 LinEq1:  Iter=  3 NonCon=     1 RMS=8.29D-05 Max=8.04D-04 NDo=     1
 LinEq1:  Iter=  4 NonCon=     1 RMS=3.36D-05 Max=4.05D-04 NDo=     1
 LinEq1:  Iter=  5 NonCon=     1 RMS=7.58D-06 Max=1.61D-04 NDo=     1
 LinEq1:  Iter=  6 NonCon=     1 RMS=2.47D-06 Max=2.49D-05 NDo=     1
 LinEq1:  Iter=  7 NonCon=     1 RMS=6.02D-07 Max=8.16D-06 NDo=     1
 LinEq1:  Iter=  8 NonCon=     1 RMS=1.10D-07 Max=8.29D-07 NDo=     1
 LinEq1:  Iter=  9 NonCon=     1 RMS=2.46D-08 Max=2.61D-07 NDo=     1
 LinEq1:  Iter= 10 NonCon=     1 RMS=5.67D-09 Max=7.65D-08 NDo=     1
 LinEq1:  Iter= 11 NonCon=     1 RMS=9.62D-10 Max=8.40D-09 NDo=     1
 LinEq1:  Iter= 12 NonCon=     1 RMS=1.26D-10 Max=1.11D-09 NDo=     1
 LinEq1:  Iter= 13 NonCon=     0 RMS=1.52D-11 Max=1.67D-10 NDo=     1
 Linear equations converged to 1.000D-10 1.000D-09 after    13 iterations.
 End of Minotr F.D. properties file   721 does not exist.
 End of Minotr F.D. properties file   722 does not exist.
 End of Minotr F.D. properties file   788 does not exist.
 Calling FoFJK, ICntrl=  10002127 FMM=F ISym2X=1 I1Cent= 0 IOpClX= 0 NMat=1 NMatS=1 NMatT=0.
 ***** Axes restored to original set *****
 -------------------------------------------------------------------
 Center     Atomic                   Forces (Hartrees/Bohr)
 Number     Number              X              Y              Z
 -------------------------------------------------------------------
      1        6           0.000060994    0.000177890    0.000012110
      2        6          -0.000058727   -0.000088548   -0.000099302
      3        1          -0.000015285   -0.000030937   -0.000017488
      4        8           0.000022402    0.000002257    0.000071273
      5        1           0.000002647   -0.000026544    0.000036825
      6        1           0.000011028   -0.000006040    0.000042660
      7        1          -0.000023059   -0.000028078   -0.000046079
 -------------------------------------------------------------------
 Cartesian Forces:  Max     0.000177890 RMS     0.000058242

 GradGradGradGradGradGradGradGradGradGradGradGradGradGradGradGradGradGrad
 Berny optimization.
 Using GEDIIS/GDIIS optimizer.
 FormGI is forming the generalized inverse of G from B-inverse, IUseBI=4.
 Internal  Forces:  Max     0.000130604 RMS     0.000039096
 Search for a local minimum.
 Step number   4 out of a maximum of   29
 All quantities printed in internal units (Hartrees-Bohrs-Radians)
 Mixed Optimization -- En-DIIS/RFO-DIIS
 Swapping is turned off.
 Update second derivatives using D2CorX and points    1    2    3    4
 DE= -2.37D-06 DEPred=-2.22D-06 R= 1.07D+00
 TightC=F SS=  1.41D+00  RLast= 5.62D-03 DXNew= 5.0454D-01 1.6861D-02
 Trust test= 1.07D+00 RLast= 5.62D-03 DXMaxT set to 3.00D-01
 The second derivative matrix:
                          R1        R2        R3        R4        R5
           R1           0.59936
           R2          -0.01333   0.36245
           R3           0.00940   0.00557   0.49702
           R4           0.00567  -0.00188  -0.00655   0.35754
           R5          -0.00453   0.00495  -0.00393  -0.00131   0.35725
           R6          -0.00898   0.00503   0.00335  -0.00182   0.00328
           A1           0.00890   0.00656  -0.02126   0.00970  -0.00042
           A2           0.00341  -0.00486   0.01313   0.00973   0.00026
           A3          -0.01568   0.01008   0.01154   0.00370   0.00725
           A4           0.01868  -0.00065  -0.02695   0.00034  -0.00644
           A5          -0.00230  -0.00043   0.00460   0.00009   0.00077
           A6          -0.01638   0.00108   0.02234  -0.00043   0.00568
           A7          -0.02686   0.01045   0.02154  -0.00836   0.00874
           D1           0.00000  -0.00000   0.00000   0.00000  -0.00000
           D2          -0.00000   0.00000   0.00000  -0.00000   0.00000
           D3          -0.00000  -0.00000   0.00000  -0.00000  -0.00000
           D4          -0.00000  -0.00000   0.00000  -0.00000   0.00000
           D5          -0.00000   0.00000   0.00000  -0.00000   0.00000
           D6          -0.00000   0.00000   0.00000  -0.00000   0.00000
                          R6        A1        A2        A3        A4
           R6           0.53201
           A1           0.01251   0.16159
           A2           0.00595   0.00036   0.22536
           A3           0.01704   0.01245  -0.01720   0.17695
           A4          -0.00168  -0.01453   0.01657   0.00232   0.14024
           A5           0.00002   0.00484  -0.00003   0.00159   0.00369
           A6           0.00166   0.00969  -0.01654  -0.00391   0.01607
           A7           0.00895   0.00577  -0.01381   0.01525   0.00287
           D1          -0.00000   0.00000  -0.00000  -0.00000   0.00000
           D2           0.00000  -0.00000  -0.00000   0.00000  -0.00000
           D3          -0.00000   0.00000   0.00000  -0.00000   0.00000
           D4          -0.00000   0.00000  -0.00000   0.00000   0.00000
           D5           0.00000  -0.00000  -0.00000   0.00000  -0.00000
           D6           0.00000  -0.00000  -0.00000   0.00000  -0.00000
                          A5        A6        A7        D1        D2
           A5           0.15941
           A6          -0.00310   0.14703
           A7          -0.00124  -0.00163   0.18358
           D1          -0.00000  -0.00000  -0.00000   0.02970
           D2          -0.00000   0.00000   0.00000   0.00000   0.02970
           D3          -0.00000  -0.00000  -0.00000   0.00000   0.00000
           D4          -0.00000  -0.00000   0.00000   0.00000  -0.00000
           D5           0.00000   0.00000   0.00000   0.00000  -0.00000
           D6          -0.00000   0.00000   0.00000   0.00000  -0.00000
                          D3        D4        D5        D6
           D3           0.02970
           D4          -0.00000   0.02970
           D5           0.00000  -0.00000   0.02160
           D6           0.00000  -0.00000  -0.00000   0.02160
 ITU=  1  1  1  0
     Eigenvalues ---    0.02160   0.02736   0.02970   0.02970   0.10449
     Eigenvalues ---    0.16007   0.16080   0.17667   0.23342   0.35432
     Eigenvalues ---    0.35687   0.36677   0.50328   0.53201   0.60605
 En-DIIS/RFO-DIIS/Sim-DIIS IScMMF=       -3 using points:     4    3    2
 RFO step:  Lambda=-6.65626441D-08.
 DidBck=F Rises=F RFO-DIIS coefs:    1.07394   -0.08035    0.00641
 Iteration  1 RMS(Cart)=  0.00017074 RMS(Int)=  0.00000002
 Iteration  2 RMS(Cart)=  0.00000002 RMS(Int)=  0.00000000
 ClnCor:  largest displacement from symmetrization is 8.28D-09 for atom     4.
 Variable       Old X    -DE/DX   Delta X   Delta X   Delta X     New X
                                 (Linear)    (Quad)   (Total)
    R1        2.52060   0.00013   0.00005   0.00018   0.00024   2.52083
    R2        2.04200  -0.00003   0.00002  -0.00010  -0.00008   2.04192
    R3        2.57492  -0.00004  -0.00013   0.00002  -0.00011   2.57481
    R4        2.03623   0.00005   0.00005   0.00007   0.00012   2.03636
    R5        2.04389  -0.00004  -0.00002  -0.00010  -0.00012   2.04377
    R6        1.82374   0.00006   0.00002   0.00010   0.00012   1.82386
    A1        2.13969  -0.00003  -0.00008  -0.00016  -0.00023   2.13946
    A2        2.21006   0.00001   0.00005   0.00001   0.00006   2.21013
    A3        1.93343   0.00002   0.00002   0.00015   0.00017   1.93360
    A4        2.08272  -0.00002  -0.00023   0.00001  -0.00022   2.08250
    A5        2.12792   0.00003   0.00005   0.00016   0.00021   2.12813
    A6        2.07254  -0.00001   0.00018  -0.00017   0.00001   2.07256
    A7        1.89416  -0.00001  -0.00002   0.00002  -0.00001   1.89415
    D1        0.00000   0.00000   0.00000   0.00000   0.00000   0.00000
    D2        3.14159  -0.00000   0.00000   0.00000   0.00000  -3.14159
    D3       -3.14159   0.00000   0.00000   0.00000  -0.00000   3.14159
    D4        0.00000   0.00000   0.00000   0.00000  -0.00000   0.00000
    D5       -0.00000  -0.00000   0.00000   0.00000   0.00000   0.00000
    D6        3.14159   0.00000   0.00000   0.00000   0.00000   3.14159
         Item               Value     Threshold  Converged?
 Maximum Force            0.000131     0.000450     YES
 RMS     Force            0.000039     0.000300     YES
 Maximum Displacement     0.000402     0.001800     YES
 RMS     Displacement     0.000171     0.001200     YES
 Predicted change in Energy=-3.685135D-08
 Optimization completed.
    -- Stationary point found.
                           ----------------------------
                           !   Optimized Parameters   !
                           ! (Angstroms and Degrees)  !
[...]
 2,-0.00012324,0.07223764,0.01792640,0.18648972,-0.00077472,-0.00119113
 ,-0.00045532,-0.00038973,0.00040034,-0.00202489,-0.06313791,-0.0171183
 6,-0.00243713,0.00936355,-0.01495529,0.00093838,0.00251739,0.00010300,
 -0.00045450,-0.00095554,-0.00024165,0.12158048,0.14872282,0.21197496,-
 0.00019558,0.00026240,-0.00013733,0.00027228,0.00109932,-0.00057063,-0
 .11970393,-0.16100992,-0.19617307,-0.04168274,-0.00380133,0.05869082,-
 0.06735149,-0.09583672,-0.13991625,0.00561227,-0.02691670,-0.00400230,
 -0.00833884,-0.02496350,-0.04550550,-0.01745708,0.02085159,0.03127799,
 -0.00607150,-0.02387975,0.02083419,-0.00412317,0.02080790,-0.04940387,
 0.01481689,0.02919119,0.07762950,0.00009783,-0.00184730,-0.00148534,-0
 .01725984,0.03142174,0.00179763,0.08214161,0.00003230,-0.00358034,0.00
 511177,-0.02698709,0.00154253,0.07526656,0.07480706,0.15004976,-0.0034
 7657,-0.00106883,-0.00915485,-0.06458254,-0.07864151,-0.11797686,0.021
 40427,0.00218394,0.00507026,-0.00141575,-0.00010373,-0.00077906,0.0033
 8156,-0.00291449,-0.00586412,-0.04452226,0.00457368,-0.01168357,0.0477
 1288,0.00041982,0.00124683,-0.00115380,0.00028043,0.00041910,0.0069444
 4,-0.04750022,-0.00484992,0.00253863,0.03985485,-0.01471483,-0.0013337
 1,-0.00287538,-0.00248482,-0.00924873,-0.00356123,-0.02053550,-0.08215
 908,-0.15553887,-0.10961813,-0.00178004,-0.00006393,-0.00180813,-0.001
 26571,0.00115990,-0.00091921,0.00101279,-0.00245722,0.00038170,-0.0000
 5228,0.00057273,0.00075254,0.00172953,-0.00101536,-0.00136156,-0.00317
 781,-0.00103348,0.01435645,-0.02004774,-0.00113959,-0.00352024,0.00177
 060,0.00071279,0.00059790,0.00121712,0.00283029,-0.00727478,-0.0008002
 1,-0.00004926,-0.00378864,0.00140439,-0.01283547,0.01685571,-0.0010141
 3,-0.00256201,0.00106777,0.00060417,0.00075658,0.00071949,0.00122232,0
 .01748596,-0.01405896,0.00157851,-0.00099067,-0.00071259,0.00420167,0.
 00512445,0.01231436,-0.00143183,0.00056216,-0.00032379,0.00046882,0.00
 000125,0.00004242,0.00027317,0.00004000,-0.00113335,-0.00466788,-0.000
 43852,-0.00114655,0.00201261,0.00626139,0.00435673,0.01470831,0.000459
 36,0.00147735,-0.00165898,-0.00022298,-0.00010711,-0.00013718,-0.00143
 994,-0.00173242,-0.00225876,-0.00474535,-0.00298952,-0.00129753,0.0001
 9702,-0.00236092,0.01110993,0.01096982,0.02371665,-0.00021490,-0.00132
 095,-0.00082172,0.00027997,0.00060014,0.00074033,0.00043448,0.00260762
 ,-0.00072888,-0.01008243,-0.01251392,-0.01996927,0.00005079,0.00039752
 ,-0.00882529,0.00110858,-0.00022140,0.00106391,-0.00061740,0.00034257,
 -0.00140121,0.02073567,0.04165231,0.08940792,0.00008254,-0.00039469,-0
 .00028315,-0.00042249,0.00012608,-0.00022952,-0.02093769,-0.00577671,-
 0.00079135,-0.01539547,0.00038507,-0.00215199,0.00445317,0.00004302,0.
 00186400,-0.00215275,0.04784467,0.01437673,0.12104067,-0.00060183,-0.0
 0106543,-0.00053689,0.00000816,0.00014151,-0.00053975,-0.04190239,-0.0
 1237345,-0.00228447,0.00490689,-0.01010349,0.00042145,0.00245897,-0.00
 036283,-0.00108388,-0.00116777,-0.00262859,0.08284789,0.10067870,0.145
 89349,-0.00006372,0.00014422,-0.00006648,-0.00010460,-0.00015201,-0.00
 057624,-0.07973267,-0.10686901,-0.13215587,-0.02810977,-0.02206812,-0.
 01469409,-0.04552950,-0.06457738,-0.08845436,0.00278075,0.00263711,0.0
 0988411,-0.00849774,0.00499547,0.01302725,0.00148687,-0.02363998,-0.12
 821649,0.00738573,-0.00626805,0.02985152,-0.08775245,0.08543275,-0.353
 25116,0.01032559,0.01453452,0.04748444,0.00024320,-0.00250234,-0.00056
 511,-0.00979254,0.01626646,-0.00488046,0.04933829,-0.00037566,-0.00313
 330,0.00337782,-0.01420514,0.00659055,0.04564966,0.04364325,0.09507491
 ,-0.00281808,-0.00361529,-0.00421533,-0.04252719,-0.04551658,-0.083903
 54,0.01079862,0.00597654,-0.00191911,0.00039479,-0.00192048,-0.0016338
 1,0.00067550,-0.00203932,-0.00010050,-0.01958248,0.00492038,0.01143149
 ,0.01408744,-0.00259917,-0.00310839,-0.00365365,0.00137025,-0.00095216
 ,0.00695844,-0.01803860,-0.01177319,-0.00080023,0.01756037,-0.01177758
 ,-0.00091483,-0.00142195,0.00000855,-0.00371252,-0.00425308,-0.0063390
 0,-0.02524717,-0.05329779,-0.03264930,0.00176066,0.00237375,-0.0048100
 2,-0.01852356,-0.00723493,-0.00114354,0.00046875,-0.00025710,0.0000526
 6,-0.00046752,0.00056674,0.00084615,0.01766269,-0.00134008,-0.00089207
 ,-0.00085684,-0.01383414,0.10402301,-0.17247489,0.00003732,0.00007606,
 0.00060959,0.00033733,-0.00128490,0.00150909,0.01277392,-0.09118028,-0
 .00087567,0.01135525,-0.01245017,0.00584755,-0.15077504,0.16311028,-0.
 00025929,-0.00035867,0.00006296,0.00108917,0.00226343,0.00027620,0.002
 18037,0.15224677,-0.14123241,0.00268202,-0.00305738,-0.00325235,0.0233
 6829,0.03024244,0.08368446,-0.00095829,0.00024993,0.00016431,-0.000473
 51,0.00016451,0.00009841,-0.00115291,0.00208721,-0.00816539,-0.0235693
 6,0.00017167,0.00134885,0.00406813,0.03774402,0.01715251,0.09341386,0.
 00062174,0.00117236,-0.00035102,-0.00055113,-0.00225039,-0.00001774,-0
 .00832986,-0.01081375,-0.01523779,-0.02953185,-0.00588481,-0.00667313,
 -0.00654983,-0.01034798,0.07573745,0.06874678,0.16438975,-0.00022955,-
 0.00157351,-0.00017665,0.00085655,0.00233546,-0.00021404,0.00287018,0.
 01901605,-0.01004940,-0.07280479,-0.08230760,-0.14411916,-0.00023792,-
 0.00039643,-0.00185764,0.00023432,0.00005983,0.00002471,-0.00096219,0.
 00036082,-0.00042085,0.00865463,0.01361589,0.02973018,0.00025191,-0.00
 006158,0.00018332,0.00010373,-0.00012456,0.00024328,-0.00804449,-0.002
 94577,-0.00534097,-0.00354654,0.00006783,0.00025562,0.00017206,0.00014
 365,0.00112686,-0.00172831,0.01623564,0.00793753,0.03992107,0.00010746
 ,0.00007181,0.00050609,-0.00015484,-0.00072475,0.00033264,-0.01345397,
 -0.00332611,0.00084307,0.00483632,-0.00189654,0.00001626,0.00014578,0.
 00010655,-0.00019079,-0.00101420,-0.00050340,0.02695488,0.03130669,0.0
 5069520,0.00000424,-0.00004975,0.00028266,0.00027536,0.00043220,0.0005
 1745,-0.02790301,-0.03565704,-0.04920192,-0.05541765,0.20147192,0.5037
 1286,-0.00519993,0.00307311,-0.13909921,0.02033014,-0.21802227,-0.0268
 4607,-0.02512002,-0.21671055,-0.48666080,-0.09244407,0.21624856,0.4737
 7087,-0.02823546,-0.09675717,0.10839178,-0.00214538,0.10945153,-0.2171
 4168,0.00834815,0.00751894,0.04087790,0.00185450,-0.00261156,0.0005000
 8,-0.00791900,0.01034397,-0.00543043,0.03287449,-0.00146956,-0.0061802
 4,0.00440944,-0.00785843,0.01141981,0.03788494,0.02358484,0.09308420,-
 0.00070947,0.00065471,-0.00048306,-0.03815681,-0.03135227,-0.08603817,
 0.02376787,0.01325675,-0.00687868,-0.00052621,-0.00300516,-0.00095769,
 -0.00068759,-0.00197417,0.00154817,-0.02782081,0.01023360,0.00297627,0
 .05336831,-0.00261253,-0.00648650,-0.00094222,0.00218935,-0.00295389,0
 .00977490,-0.01555027,-0.00524008,-0.00367602,0.06330908,-0.05756690,-
 0.00137376,-0.00223336,-0.00141789,-0.00286249,-0.00391568,-0.00578683
 ,-0.00189935,-0.06913520,0.04476141,0.00065397,-0.00174306,-0.00151399
 ,-0.00309326,-0.00107143,0.00324273,-0.00012401,0.00014479,-0.00008123
 ,0.00061735,0.00060138,-0.00024592,0.00305166,-0.00148353,-0.00207832,
 -0.00090112,-0.00307117,0.02163192,-0.03697107,-0.00011693,-0.00012037
 ,-0.00041153,0.00009874,0.00101438,-0.00022188,0.00450596,-0.01622566,
 -0.00178894,-0.00175429,-0.00234797,0.00536118,-0.03039559,0.04609512,
 0.00019598,0.00044897,0.00002281,0.00028653,0.00143091,-0.00007527,-0.
 00180278,0.03428142,-0.04009670,0.00220587,-0.00200441,0.00031899,0.00
 606246,0.00657383,0.02735114,-0.00059402,0.00066834,-0.00022477,-0.000
 06814,0.00030149,-0.00010119,-0.00106578,0.00012428,-0.00226411,-0.006
 18873,-0.00115868,-0.00569143,0.00513757,0.00809233,0.00186448,0.02000
 151,0.00079748,0.00232655,-0.00062757,0.00012434,0.00126512,-0.0010738
 7,-0.00233376,-0.00397200,-0.00390800,-0.00575846,0.00419965,-0.000576
 95,0.00235656,-0.00163892,0.02574254,0.01500824,0.06437499,-0.00036151
 ,-0.00105202,-0.00081528,0.00008647,-0.00049142,0.00067041,0.00033977,
 0.00417463,-0.00372230,-0.02523079,-0.01984652,-0.05860075,0.00011159,
 -0.00047786,-0.00075823,0.00049244,0.00057629,0.00024458,-0.00087800,0
 .00014506,-0.00026083,0.00471755,0.00483697,0.01015872,-0.00003992,-0.
 00005737,0.00001217,-0.00035168,0.00023676,0.00000047,-0.00405199,-0.0
 0269670,-0.00682818,-0.00110821,0.00083464,0.00206040,0.00080793,0.000
 08115,0.00093855,-0.00162304,0.00704975,0.00942468,0.01327090,-0.00010
 391,-0.00025002,-0.00010342,0.00009492,0.00000762,-0.00014950,-0.00525
 985,-0.00535304,0.00159234,0.00618792,-0.00082318,-0.00002906,-0.00004
 159,0.00018085,-0.00019313,-0.00141290,0.00001633,0.00781455,0.0059947
 7,0.01941509,0.00006146,0.00004957,0.00012441,0.00015074,0.00031690,-0
 .00026817,-0.00939689,-0.01109468,-0.01864533,-0.00395661,0.00777726,-
 0.00043032,0.01064741,0.01575319,0.00862232,-0.00454146,0.00226711,-0.
 00047068,-0.29993400,0.00488566,0.00648506,0.00376193,0.28629723,0.020
 98761,-0.00324477,-0.00484864,-0.01066162,0.92643373,0.20525514,2.1549
 8138,0.00185536,-0.00659172,-0.01481120,-0.00127431,0.00063114,-0.0000
 0497,-0.00215124,-0.00702668,0.00238658,-0.01664671,0.00003660,-0.0005
 6860,-0.00084102,0.00588917,-0.00329659,-0.01435040,-0.01521635,-0.022
 58428,0.00062485,0.00111389,-0.00060150,0.01425945,0.01397440,0.023699
 16,-0.00038712,0.00059730,0.00154534,0.00294367,-0.00135658,-0.0005151
 3,0.00030086,0.00011629,-0.00013237,-0.00026089,0.00138542,0.00174427,
 0.00159593,-0.00154716,-0.00203333,0.00081407,-0.00006331,-0.00003250,
 0.00014796,-0.00084542,-0.00271588,0.00071046,-0.00099564,0.00234133,-
 0.00031328,0.00144067,0.00098110,0.00005788,0.00073853,-0.00028840,-0.
 00009850,0.00014106,-0.00043210,0.00100723,-0.00336949,0.00246653,0.19
 000890,0.02507288,-0.05086428,-0.00075340,0.00082817,0.00004509,0.0005
 3363,-0.00069272,-0.00038166,-0.19958535,-0.00020303,-0.00241564,0.003
 31385,0.03249349,-0.21043396,0.53889469,0.00073621,0.00115014,0.000107
 07,-0.00036064,-0.00011614,-0.00013816,-0.02986022,0.19978870,-0.00088
 793,-0.00709828,0.00594262,-0.05872549,0.51449395,-0.54074522,0.000142
 53,0.00040951,-0.00099904,-0.00073345,-0.00123012,-0.00023574,0.051857
 44,-0.52778960,0.52391031,0.00601695,-0.00065664,0.00052333,0.11328276
 ,-0.31538541,-0.87209022,0.00205199,0.00021101,-0.00045684,-0.00324304
 ,0.00170450,0.00011171,0.00868682,-0.00281624,0.00843353,-0.12712647,-
 0.00664992,-0.00724362,-0.00776313,-0.31941738,0.18600537,-0.73875854,
 -0.00055932,0.00051746,-0.00013839,0.00174620,0.00243419,-0.00089010,0
 .00795188,0.01182814,0.02106397,0.31637414,-0.19473599,0.00687246,0.01
 194424,0.01601420,-0.86781887,-0.72550046,-1.60491403,0.00035922,0.002
 39463,0.00076732,0.00006753,-0.00102723,-0.00251588,-0.00297393,-0.014
 34421,0.01244624,0.86367154,0.72570982,1.57945287,0.00000560,-0.000023
 80,0.00009922,-0.00048551,-0.00014492,0.00028565,-0.00002925,-0.000054
 59,0.00001025,0.00011291,0.00005871,-0.00008662,0.00010219,0.00001038,
 -0.00008659,0.00033096,0.00055445,-0.00017795,-0.00003690,-0.00016868,
 -0.00052632,-0.00001500,-0.00012989,-0.00044200,-0.00051581,-0.0000421
 9,-0.00015660,0.00001149,0.00010285,0.00071940,-0.00029640,0.00006947,
 0.00019866,0.00015060,0.00056866,0.00119449,0.00082320,-0.00040023,-0.
 00098764,0.00025272,0.00046149,0.00032516,0.00026975,-0.00056523,0.000
 96008,-0.00000289,-0.00002929,0.00000674,-0.00013340,-0.00044162,0.000
 14968,-0.00014919,-0.00004370,-0.00031910,-0.00019300,0.00077646,-0.00
 125075,-0.00004398,-0.00015811,0.00012818,-0.13557742,0.49805191,-0.22
 231551,1.25425824,1.15553223,2.22268727,-0.00436812,0.01485561,-0.0002
 8069,-0.01484465,0.00737864,0.01486370,-0.00109070,0.00678760,-0.01114
 520,0.00764015,0.02349538,-0.00883636,0.03319142,0.00539036,0.07630540
 ,0.14723558,-0.50477195,-1.25947044,0.00702873,0.00102595,0.00191356,-
 0.16009460,-0.50718989,0.20311072,-1.14891184,-0.00530022,-0.00353089,
 -0.00720859,0.50492476,-0.19804462,-1.25690893,-1.14096117,-2.23143155
 ,0.00861534,0.01359345,0.02004509,1.24707789,1.12641460,2.20537543,-0.
 00403298,-0.00718628,0.00347598,-0.00051377,-0.00118038,-0.00077475,0.
 00333693,0.00764934,0.00149125,-0.00249601,0.00300508,0.00979455,-0.00
 343429,-0.00110709,-0.00291995,-0.00043894,-0.00178206,-0.00183981,-0.
 00346690,0.00108571,-0.01030354,-0.00732048,-0.03694605,0.01229323,-0.
 00085245,-0.00067991,-0.00198052,0.01148266,0.02754586,0.00899535,-0.0
 0017052,0.01152592,-0.01556411,0.00489420,-0.00273838,-0.00132288,0.00
 432572,0.00079146,0.00116235,-0.00350051,0.00187932,0.00067530,0.00006
 565,0.00005476,0.00008188,-0.00555862,-0.00340085,-0.00308413,-0.00136
 993,0.00084306,-0.01052084,0.01785555,0.00261491,0.00248203,0.00140181
 ,0.00016732,0.00004056,0.00053172,-0.00018221,0.01129496,-0.00062104,0
 .00080842,0.00328018,0.00110770,0.01768591,-0.01137626,-0.00010399,-0.
 00101706,-0.00357578,-0.00003738,0.00016156,-0.00027097,-0.00074575,-0
 .01815089,0.01150299,-0.00576956,0.00035185,0.00144339,0.00785391,-0.0
 1418012,-0.04256313,0.00491575,-0.00106632,0.00018518,-0.00022518,0.00
 022882,-0.00017901,0.00021982,-0.00026871,0.00024122,-0.00750893,0.000
 46611,-0.00273928,-0.00226272,-0.01554765,0.01361607,-0.03867637,0.000
 14418,0.00078157,0.00515798,0.00016486,0.00022923,0.00004025,-0.000027
 14,-0.00026605,0.00043947,0.01502280,-0.01148933,0.00132235,-0.0026383
 5,0.00082137,-0.04111445,-0.03417971,-0.07361876,-0.00109719,0.0011776
 0,0.00034761,-0.00011122,0.00025065,-0.00087575,-0.00001467,-0.0003549
 5,0.00056077,0.04097130,0.03528835,0.07253122,-0.00238171,0.00143728,0
 .00189634,0.00051818,-0.00062320,-0.00056958,0.00107811,-0.00089696,-0
 .00113602,0.00386537,-0.00148522,-0.00304208,-0.00044625,0.00022645,0.
 00015930,0.00051418,-0.00022313,0.00004387,-0.00314789,0.00168902,0.00
 037000,0.00153727,-0.00053135,-0.00036298,-0.00041743,-0.00215578,-0.0
 0295900,-0.00213978,-0.00070059,0.00499894,-0.00201779,0.00022218,0.00
 005343,0.00007266,-0.00008829,-0.00013212,0.00045638,0.00156478,-0.001
 96827,0.00162967,0.00070958,0.00118567,-0.00066687,-0.00071948,-0.0005
 3851,0.00019754,0.00199949,0.00024390,-0.00387334,-0.00459796,-0.00259
 721,0.00016380,0.00008666,-0.00012079,-0.00009896,0.00001302,0.0002335
 1,0.00264816,0.00250869,0.00159343,-0.00205738,0.00282106,-0.03394245,
 0.03145073,0.03195913,0.05702999,-0.00747924,0.01464805,-0.00290677,-0
 .57850125,0.01089676,0.02235109,0.00016680,0.09868548,0.58227565,0.001
 06722,0.01250181,-0.02104918,0.46172026,-1.08762925,1.91974213,0.00348
 810,-0.01276236,-0.03586604,0.00271092,-0.00282178,-0.00071806,-0.0045
 8212,-0.01417386,0.00723697,-0.03466773,-0.00206947,-0.00159318,-0.001
 05091,0.01415634,-0.00708040,-0.03437067,-0.03002629,-0.06270297,-0.00
 151502,-0.00352463,0.00259046,0.03583860,0.03281837,0.06303727,0.00050
 132,0.00037612,0.00143013,-0.00273577,0.00051593,0.00130748,0.00042358
 ,0.00015385,-0.00019270,-0.00013136,0.00210507,0.00379885,0.00283971,0
 .00042461,-0.00195901,-0.00002398,-0.00028283,-0.00007070,-0.00039685,
 -0.00092639,-0.00370804,-0.00040160,-0.00284565,0.00163942,0.00140425,
 0.00027629,0.00102513,0.00026993,0.00103911,0.00021937,0.00002513,0.00
 105090,-0.00087139,0.00210675,-0.00541022,0.00328517,0.53650367,0.0551
 7523,-0.07706219,-0.00246925,0.00159652,0.00048949,0.00288318,-0.00167
 070,-0.00080258,-0.53441548,-0.00042654,0.00259497,-0.00113173,0.05320
 454,-0.66111351,1.44966961,0.00170802,0.00107665,0.00115731,-0.0005330
 4,0.00071596,0.00137190,-0.04914990,0.66320036,-0.00199439,-0.01751924
 ,0.01485208,-0.07497450,1.45614964,-1.24697739,0.00037140,0.00079075,-
 0.00274898,-0.00200778,-0.00236898,-0.00042689,0.07509617,-1.43775846,
 1.22863919,0.00316882,0.00040849,0.00233938,0.04956774,-0.16277875,-0.
 38651589,0.00033354,0.00041463,-0.00020293,-0.00071692,0.00022322,-0.0
 0040471,-0.00443431,-0.00461816,0.00375561,-0.04799742,-0.00103131,-0.
 00157531,0.00074154,-0.16502263,0.05979206,-0.37338486,0.00006168,0.00
 047236,-0.00002044,0.00020835,0.00055798,-0.00061132,-0.00035335,-0.00
 588533,0.00074147,0.16604556,-0.05401377,0.00386467,0.00547601,0.00923
 260,-0.38413886,-0.36600666,-0.65584726,0.00017101,0.00114020,-0.00038
 392,-0.00038896,-0.00056238,-0.00134895,-0.00076237,-0.01328221,0.0074
 7533,0.38130673,0.37285407,0.64138259,0.00027160,-0.00008112,0.0002673
 8,-0.00006605,0.00032714,0.00020113,0.00009525,-0.00007804,-0.00004678
 ,-0.00022402,0.00012702,-0.00009042,-0.00017452,-0.00018495,-0.0002464
 3,0.00007853,0.00009172,-0.00005224,0.00001920,-0.00019117,-0.00046416
 ,0.00009233,0.00012941,0.00024703,-0.00008260,-0.00005906,-0.00004169,
 -0.00000743,0.00020517,0.00066492,-0.00028127,-0.00018759,-0.00058922,
 -0.00003504,0.00030503,0.00065205,0.00038096,-0.00020178,-0.00046893,0
 .00038401,0.00045425,0.00099789,0.00041062,0.00056771,0.00051620,-0.00
 006685,-0.00006981,-0.00001126,-0.00017327,-0.00053836,-0.00023667,-0.
 00024363,-0.00002636,-0.00081321,-0.00027821,-0.00032047,-0.00051045,-
 0.00003266,-0.00006697,0.00005749,-0.00288689,-0.00327745,-0.02107281,
 -0.00265717,0.01046360,-0.02084447,0.00144521,0.00075216,0.00306080,-0
 .00043752,0.00146089,0.00255623,0.00238401,-0.00072863,-0.00447146,0.0
 0230976,0.00005281,0.00781069,-0.00098841,0.00244522,-0.00574210,0.004
 13016,-0.00083459,-0.00137407,0.00025115,-0.00027522,-0.00012009,-0.00
 255560,0.00066733,0.00511147,0.00188196,-0.00014558,-0.00023922,0.0001
 7349,0.00025998,-0.00479749,-0.00296507,-0.00305619,-0.00169568,-0.000
 25753,-0.00025333,-0.00020208,0.00186947,0.00253908,0.00025010,-0.0180
 9330,0.00288006,-0.01064172,0.00012402,-0.00120459,0.00062008,-0.00133
 555,0.00092814,-0.00025937,-0.22143853,-0.01110730,0.01378643,-0.06785
 033,0.00032933,-0.00458318,0.00628100,0.00119404,0.00348512,-0.0014140
 7,1.20474041,-0.15943398,0.00417633,-0.02185645,0.02110187,-0.00100511
 ,0.00123689,-0.00429142,-0.00054092,-0.00228812,-0.00091066,2.58492106
 ,2.65182639,4.29488225,-0.00020843,-0.00031551,-0.00030374,-0.00037003
 ,0.00037740,0.00017264,0.00011919,-0.00000839,0.00000347,0.00170520,-0
 .00087344,-0.00055108,0.00005052,-0.00050744,-0.00069797,-0.00094465,0
 .00036450,0.00040817,0.00018987,0.00004466,0.00009799,0.00017106,-0.00
 073504,-0.00046779,0.00036073,-0.00004829,-0.00011628,-0.00010037,-0.0
 0031338,-0.00001246,0.00018639,0.00023240,-0.00017761,-0.00005278,-0.0
 0000340,-0.00004896,-0.00069760,-0.00009425,-0.00003990,0.00006478,0.0
 0001321,0.00024537,0.00002367,-0.00002315,0.00015227,0.00062317,0.0002
 2586,-0.00045263,-0.00084461,0.00026987,0.00024138,-0.00025740,0.00029
 604,-0.00003498,0.00039281,-0.00018524,-0.00010200,-0.00049290,0.00028
 916,-0.00132748,0.00234092,-0.00008667,0.00197578,-0.00164930,0.000259
 42,-0.00002896,-0.00018070,-0.00017455,0.00079234,-0.00177589,-0.00019
 535,-0.00011311,-0.00001035,-0.00015028,-0.00177595,-0.00017851,0.0013
 1420,-0.00199422,-0.00012161,-0.00062175,0.00094639,0.00025237,-0.0001
 4655,-0.00001984,0.00046350,-0.00022864,0.00142404,-0.00009118,0.00002
 313,0.00015909,0.00018803,0.00085589,-0.00078956,0.01558955,0.00081850
 ,0.01176360,-0.00163598,0.00014430,-0.00154134,0.00023527,-0.00197136,
 0.00136764,0.23929558,-1.19457908,-2.58696532,-0.00168923,0.00106686,0
 .00070165,0.00055520,0.00005826,-0.00051262,-0.25235039,0.01247480,0.0
 0164411,0.05172443,-0.00048508,0.00435380,-0.00749313,-0.00064827,-0.0
 0362892,0.00219420,-1.20643445,0.14642105,-2.62750356,0.00106359,0.000
 88895,0.00017579,-0.00043309,0.00047731,-0.00119625,1.19446251,-0.1501
 5631,-0.00058496,0.01339547,-0.00436579,-0.00087453,-0.00542353,0.0016
 5620,-0.00003404,-0.00215650,0.00262702,-2.57440592,-2.58852005,-4.312
 16615,0.00070516,0.00018666,-0.00012535,0.00000790,0.00041943,0.000274
 00,2.57518639,2.58209851,4.31210009\\@
 The archive entry for this job was punched.


 COLLEGE PROFESSOR: SOMEONE WHO TALKS IN OTHER PEOPLE'S SLEEP.
 Job cpu time:       5 days  7 hours 40 minutes 17.3 seconds.
 Elapsed time:       0 days  3 hours 14 minutes 46.7 seconds.
 File lengths (MBytes):  RWF=   7246 Int=      0 D2E=      0 Chk=     47 Scr=      1
 Normal termination of Gaussian 16 at Fri Mar 21 19:10:09 2025.
