blah                                                                    
SP        RHF                                                         Aug-CC-pVDZ         
Number of atoms                            I                7
Info1-9                                    I   N=           9
          19          16           0           0           0         110
           1           1           2
Full Title                                 C   N=           1
blah        
Route                                      C   N=           2
# HF/aug-cc-pVDZ pop=nbo
Charge                                     I                0
Multiplicity                               I                1
Number of electrons                        I               24
Number of alpha electrons                  I               12
Number of beta electrons                   I               12
Number of basis functions                  I              105
Number of independent functions            I              105
Number of point charges in /Mol/           I                0
Number of translation vectors              I                0
Atomic numbers                             I   N=           7
           6           6           1           8           1           1
           1
Nuclear charges                            R   N=           7
  6.00000000E+00  6.00000000E+00  1.00000000E+00  8.00000000E+00  1.00000000E+00
  1.00000000E+00  1.00000000E+00
Current cartesian coordinates              R   N=          21
  6.43162705E-18  8.46825961E-01  0.00000000E+00  2.31696297E+00 -2.17137091E-01
  0.00000000E+00 -2.87026722E-01  2.89056098E+00  0.00000000E+00 -2.27833696E+00
 -3.99533456E-01  0.00000000E+00  3.98071753E+00  9.96002831E-01  0.00000000E+00
  2.58444425E+00 -2.26618980E+00  0.00000000E+00 -1.95320580E+00 -2.20224336E+00
  0.00000000E+00
Number of symbols in /Mol/                 I                0
Int Atom Types                             I   N=           7
           0           0           0           0           0           0
           0
Force Field                                I                0
Atom Types                                 C   N=           7
                                                            
                        
MM charges                                 R   N=           7
  0.00000000E+00  0.00000000E+00  0.00000000E+00  0.00000000E+00  0.00000000E+00
  0.00000000E+00  0.00000000E+00
Integer atomic weights                     I   N=           7
          12          12           1          16           1           1
           1
Real atomic weights                        R   N=           7
  1.20000000E+01  1.20000000E+01  1.00782504E+00  1.59949146E+01  1.00782504E+00
  1.00782504E+00  1.00782504E+00
Atom fragment info                         I   N=           7
           0           0           0           0           0           0
           0
Atom residue num                           I   N=           7
           0           0           0           0           0           0
           0
Nuclear spins                              I   N=           7
           0           0           1           0           1           1
           1
Nuclear ZEff                               R   N=           7
 -3.60000000E+00 -3.60000000E+00 -1.00000000E+00 -5.60000000E+00 -1.00000000E+00
 -1.00000000E+00 -1.00000000E+00
Nuclear ZNuc                               R   N=           7
  6.00000000E+00  6.00000000E+00  1.00000000E+00  8.00000000E+00  1.00000000E+00
  1.00000000E+00  1.00000000E+00
Nuclear QMom                               R   N=           7
  0.00000000E+00  0.00000000E+00  0.00000000E+00  0.00000000E+00  0.00000000E+00
  0.00000000E+00  0.00000000E+00
Nuclear GFac                               R   N=           7
  0.00000000E+00  0.00000000E+00  2.79284600E+00  0.00000000E+00  2.79284600E+00
  2.79284600E+00  2.79284600E+00
MicOpt                                     I   N=           7
          -1          -1          -1          -1          -1          -1
          -1
Number of residues                         I                0
Number of secondary structures             I                0
SymInf integers                            I   N=          26
           1           2           1           1           1           1
           1          -1           0           0           0           0
           0           0           0           0           0           0
           0           0           0           0           0           0
           0           0
RotTr to input orientation                 R   N=          12
  1.00000000E+00  5.57884932E-07  0.00000000E+00 -5.57884932E-07  1.00000000E+00
  0.00000000E+00  0.00000000E+00  0.00000000E+00  1.00000000E+00  4.72431531E-07
 -1.57477177E-07  0.00000000E+00
Number of contracted shells                I               47
Number of primitive shells                 I               97
Pure/Cartesian d shells                    I                0
Pure/Cartesian f shells                    I                0
Highest angular momentum                   I                2
Largest degree of contraction              I                7
Shell types                                I   N=          47
           0           0           0           0           1           1
           1          -2          -2           0           0           0
           0           1           1           1          -2          -2
           0           0           0           1           1           0
           0           0           0           1           1           1
          -2          -2           0           0           0           1
           1           0           0           0           1           1
           0           0           0           1           1
Number of primitives per shell             I   N=          47
           7           7           1           1           3           1
           1           1           1           7           7           1
           1           3           1           1           1           1
           3           1           1           1           1           7
           7           1           1           3           1           1
           1           1           3           1           1           1
           1           3           1           1           1           1
           3           1           1           1           1
Shell to atom map                          I   N=          47
           1           1           1           1           1           1
           1           1           1           2           2           2
           2           2           2           2           2           2
           3           3           3           3           3           4
           4           4           4           4           4           4
           4           4           5           5           5           5
           5           6           6           6           6           6
           7           7           7           7           7
Primitive exponents                        R   N=          97
  6.66500000E+03  1.00000000E+03  2.28000000E+02  6.47100000E+01  2.10600000E+01
  7.49500000E+00  2.79700000E+00  6.66500000E+03  2.28000000E+02  6.47100000E+01
  2.10600000E+01  7.49500000E+00  2.79700000E+00  5.21500000E-01  1.59600000E-01
  4.69000000E-02  9.43900000E+00  2.00200000E+00  5.45600000E-01  1.51700000E-01
  4.04100000E-02  5.50000000E-01  1.51000000E-01  6.66500000E+03  1.00000000E+03
  2.28000000E+02  6.47100000E+01  2.10600000E+01  7.49500000E+00  2.79700000E+00
  6.66500000E+03  2.28000000E+02  6.47100000E+01  2.10600000E+01  7.49500000E+00
  2.79700000E+00  5.21500000E-01  1.59600000E-01  4.69000000E-02  9.43900000E+00
  2.00200000E+00  5.45600000E-01  1.51700000E-01  4.04100000E-02  5.50000000E-01
  1.51000000E-01  1.30100000E+01  1.96200000E+00  4.44600000E-01  1.22000000E-01
  2.97400000E-02  7.27000000E-01  1.41000000E-01  1.17200000E+04  1.75900000E+03
  4.00800000E+02  1.13700000E+02  3.70300000E+01  1.32700000E+01  5.02500000E+00
  1.17200000E+04  4.00800000E+02  1.13700000E+02  3.70300000E+01  1.32700000E+01
  5.02500000E+00  1.01300000E+00  3.02300000E-01  7.89600000E-02  1.77000000E+01
  3.85400000E+00  1.04600000E+00  2.75300000E-01  6.85600000E-02  1.18500000E+00
  3.32000000E-01  1.30100000E+01  1.96200000E+00  4.44600000E-01  1.22000000E-01
  2.97400000E-02  7.27000000E-01  1.41000000E-01  1.30100000E+01  1.96200000E+00
  4.44600000E-01  1.22000000E-01  2.97400000E-02  7.27000000E-01  1.41000000E-01
  1.30100000E+01  1.96200000E+00  4.44600000E-01  1.22000000E-01  2.97400000E-02
  7.27000000E-01  1.41000000E-01
Contraction coefficients                   R   N=          97
  6.93516317E-04  5.34150243E-03  2.71366714E-02  1.01992385E-01  2.75508636E-01
  4.51086433E-01  2.87565745E-01  7.73354740E-06  2.78072137E-04 -2.57875654E-03
 -8.95087684E-03 -1.06058855E-01 -1.31517686E-01  1.09948660E+00  1.00000000E+00
  1.00000000E+00  5.69792516E-02  3.13207212E-01  7.60376742E-01  1.00000000E+00
  1.00000000E+00  1.00000000E+00  1.00000000E+00  6.93516317E-04  5.34150243E-03
  2.71366714E-02  1.01992385E-01  2.75508636E-01  4.51086433E-01  2.87565745E-01
  7.73354740E-06  2.78072137E-04 -2.57875654E-03 -8.95087684E-03 -1.06058855E-01
 -1.31517686E-01  1.09948660E+00  1.00000000E+00  1.00000000E+00  5.69792516E-02
  3.13207212E-01  7.60376742E-01  1.00000000E+00  1.00000000E+00  1.00000000E+00
  1.00000000E+00  3.34987264E-02  2.34800801E-01  8.13682958E-01  1.00000000E+00
  1.00000000E+00  1.00000000E+00  1.00000000E+00  7.11864434E-04  5.48520199E-03
  2.79099296E-02  1.05133208E-01  2.84002490E-01  4.51673946E-01  2.73208126E-01
  7.69030046E-06  3.13484579E-04 -2.96614853E-03 -1.08753543E-02 -1.20753817E-01
 -1.06275264E-01  1.09597548E+00  1.00000000E+00  1.00000000E+00  6.26791663E-02
  3.33536566E-01  7.41239642E-01  1.00000000E+00  1.00000000E+00  1.00000000E+00
  1.00000000E+00  3.34987264E-02  2.34800801E-01  8.13682958E-01  1.00000000E+00
  1.00000000E+00  1.00000000E+00  1.00000000E+00  3.34987264E-02  2.34800801E-01
  8.13682958E-01  1.00000000E+00  1.00000000E+00  1.00000000E+00  1.00000000E+00
  3.34987264E-02  2.34800801E-01  8.13682958E-01  1.00000000E+00  1.00000000E+00
  1.00000000E+00  1.00000000E+00
Coordinates of each shell                  R   N=         141
 -8.96612028E-23  8.46826118E-01  0.00000000E+00 -8.96612028E-23  8.46826118E-01
  0.00000000E+00 -8.96612028E-23  8.46826118E-01  0.00000000E+00 -8.96612028E-23
  8.46826118E-01  0.00000000E+00 -8.96612028E-23  8.46826118E-01  0.00000000E+00
 -8.96612028E-23  8.46826118E-01  0.00000000E+00 -8.96612028E-23  8.46826118E-01
  0.00000000E+00 -8.96612028E-23  8.46826118E-01  0.00000000E+00 -8.96612028E-23
  8.46826118E-01  0.00000000E+00  2.31696237E+00 -2.17138226E-01  0.00000000E+00
  2.31696237E+00 -2.17138226E-01  0.00000000E+00  2.31696237E+00 -2.17138226E-01
  0.00000000E+00  2.31696237E+00 -2.17138226E-01  0.00000000E+00  2.31696237E+00
 -2.17138226E-01  0.00000000E+00  2.31696237E+00 -2.17138226E-01  0.00000000E+00
  2.31696237E+00 -2.17138226E-01  0.00000000E+00  2.31696237E+00 -2.17138226E-01
  0.00000000E+00  2.31696237E+00 -2.17138226E-01  0.00000000E+00 -2.87025581E-01
  2.89056130E+00  0.00000000E+00 -2.87025581E-01  2.89056130E+00  0.00000000E+00
 -2.87025581E-01  2.89056130E+00  0.00000000E+00 -2.87025581E-01  2.89056130E+00
  0.00000000E+00 -2.87025581E-01  2.89056130E+00  0.00000000E+00 -2.27833766E+00
 -3.99532028E-01  0.00000000E+00 -2.27833766E+00 -3.99532028E-01  0.00000000E+00
 -2.27833766E+00 -3.99532028E-01  0.00000000E+00 -2.27833766E+00 -3.99532028E-01
  0.00000000E+00 -2.27833766E+00 -3.99532028E-01  0.00000000E+00 -2.27833766E+00
 -3.99532028E-01  0.00000000E+00 -2.27833766E+00 -3.99532028E-01  0.00000000E+00
 -2.27833766E+00 -3.99532028E-01  0.00000000E+00 -2.27833766E+00 -3.99532028E-01
  0.00000000E+00  3.98071761E+00  9.96000767E-01  0.00000000E+00  3.98071761E+00
  9.96000767E-01  0.00000000E+00  3.98071761E+00  9.96000767E-01  0.00000000E+00
  3.98071761E+00  9.96000767E-01  0.00000000E+00  3.98071761E+00  9.96000767E-01
  0.00000000E+00  2.58444251E+00 -2.26619109E+00  0.00000000E+00  2.58444251E+00
 -2.26619109E+00  0.00000000E+00  2.58444251E+00 -2.26619109E+00  0.00000000E+00
  2.58444251E+00 -2.26619109E+00  0.00000000E+00  2.58444251E+00 -2.26619109E+00
  0.00000000E+00 -1.95320751E+00 -2.20224211E+00  0.00000000E+00 -1.95320751E+00
 -2.20224211E+00  0.00000000E+00 -1.95320751E+00 -2.20224211E+00  0.00000000E+00
 -1.95320751E+00 -2.20224211E+00  0.00000000E+00 -1.95320751E+00 -2.20224211E+00
  0.00000000E+00
Num ILSW                                   I              100
ILSW                                       I   N=         100
           0           0           0           0           2           0
           0           0           0           0           0          -1
           5           0           0           0           0           0
           0           0           1           0           0           0
           1           0           0           0           0           0
           0           0      100000           0          -1           0
           0           0           0           0           0           0
           0           0           0           1           0           0
           0 -2000000000           1           0           0           0
           0           0           4          52           0           0
           0           0           0           0           0           0
           0           0           0           0           0           1
           0           0           0           0           0           0
           0           0           0           0           0           0
           0           0           0           0           0           0
           0           0           0           0           0           0
           0           0           0           0
Num RLSW                                   I               52
RLSW                                       R   N=          52
  1.00000000E+00  1.00000000E+00  1.00000000E+00  1.00000000E+00  1.00000000E+00
  0.00000000E+00  0.00000000E+00  1.00000000E+00  0.00000000E+00  0.00000000E+00
  0.00000000E+00  0.00000000E+00  1.00000000E+00  0.00000000E+00  0.00000000E+00
  0.00000000E+00  0.00000000E+00  1.00000000E+00  0.00000000E+00  0.00000000E+00
  0.00000000E+00  0.00000000E+00  1.00000000E+00  0.00000000E+00  0.00000000E+00
  0.00000000E+00  0.00000000E+00  1.00000000E+00  0.00000000E+00  0.00000000E+00
  0.00000000E+00  0.00000000E+00  1.00000000E+00  0.00000000E+00  0.00000000E+00
  0.00000000E+00  0.00000000E+00  0.00000000E+00  1.00000000E+00  1.00000000E+00
  0.00000000E+00  1.00000000E+00  0.00000000E+00  0.00000000E+00  0.00000000E+00
  0.00000000E+00  0.00000000E+00  0.00000000E+00  0.00000000E+00  0.00000000E+00
  0.00000000E+00  0.00000000E+00
MxBond                                     I                3
NBond                                      I   N=           7
           3           3           1           2           1           1
           1
IBond                                      I   N=          21
           2           3           4           1           5           6
           1           0           0           1           7           0
           2           0           0           2           0           0
           4           0           0
RBond                                      R   N=          21
  2.00000000E+00  1.00000000E+00  1.50000000E+00  2.00000000E+00  1.00000000E+00
  1.00000000E+00  1.00000000E+00  0.00000000E+00  0.00000000E+00  1.50000000E+00
  1.00000000E+00  0.00000000E+00  1.00000000E+00  0.00000000E+00  0.00000000E+00
  1.00000000E+00  0.00000000E+00  0.00000000E+00  1.00000000E+00  0.00000000E+00
  0.00000000E+00
Virial Ratio                               R      2.002310889322848E+00
SCF Energy                                 R     -1.529178725024067E+02
Total Energy                               R     -1.529178725024067E+02
RMS Density                                R      1.651924255111361E-09
Job Status                                 I                1
Nuclear derivative order                   I                0
External E-field                           R   N=          35
  0.00000000E+00  0.00000000E+00  0.00000000E+00  0.00000000E+00  0.00000000E+00
  0.00000000E+00  0.00000000E+00  0.00000000E+00  0.00000000E+00  0.00000000E+00
  0.00000000E+00  0.00000000E+00  0.00000000E+00  0.00000000E+00  0.00000000E+00
  0.00000000E+00  0.00000000E+00  0.00000000E+00  0.00000000E+00  0.00000000E+00
  0.00000000E+00  0.00000000E+00  0.00000000E+00  0.00000000E+00  0.00000000E+00
  0.00000000E+00  0.00000000E+00  0.00000000E+00  0.00000000E+00  0.00000000E+00
  0.00000000E+00  0.00000000E+00  0.00000000E+00  0.00000000E+00  0.00000000E+00
IOpCl                                      I                0
IROHF                                      I                0
Alpha Orbital Energies                     R   N=         105
 -2.06044592E+01 -1.13143433E+01 -1.12312347E+01 -1.40446137E+00 -1.02160158E+00
 -8.31152540E-01 -6.79551800E-01 -6.66657921E-01 -5.76796994E-01 -5.48600998E-01
 -5.42659694E-01 -3.50012924E-01  3.69749503E-02  4.52108133E-02  5.22019377E-02
  7.06955131E-02  1.10854107E-01  1.18443237E-01  1.21233694E-01  1.40181389E-01
  1.50396551E-01  1.74202351E-01  1.81188368E-01  2.03880893E-01  2.16125045E-01
  2.21068794E-01  2.51481795E-01  2.52396076E-01  2.96517918E-01  3.22833596E-01
  3.37697734E-01  3.50924239E-01  3.60069632E-01  4.12307307E-01  4.19294639E-01
  4.32694821E-01  4.33208208E-01  4.51494246E-01  4.79849566E-01  5.16917584E-01
  5.17848353E-01  5.41387817E-01  5.70966759E-01  6.06748224E-01  6.16364600E-01
  6.24342704E-01  6.35731164E-01  6.50767061E-01  6.68712538E-01  6.69049123E-01
  6.95988805E-01  7.33324441E-01  7.39363975E-01  7.87774981E-01  8.19658259E-01
  8.43942733E-01  8.72763497E-01  9.25034734E-01  9.54473398E-01  1.02631686E+00
  1.05828192E+00  1.12033361E+00  1.18792037E+00  1.19135701E+00  1.25266041E+00
  1.27974721E+00  1.30484476E+00  1.44400367E+00  1.53603566E+00  1.53614430E+00
  1.55544335E+00  1.56422737E+00  1.60999920E+00  1.68255496E+00  1.71563732E+00
  1.77643303E+00  1.78689305E+00  1.87574528E+00  1.93587416E+00  1.97692362E+00
  1.99814576E+00  2.06990631E+00  2.07059835E+00  2.08596302E+00  2.12479753E+00
  2.17300620E+00  2.18159258E+00  2.30372735E+00  2.34745726E+00  2.41566578E+00
  2.42317006E+00  2.55953332E+00  2.64997810E+00  2.67738796E+00  2.78441400E+00
  2.90873741E+00  2.92866438E+00  3.07745878E+00  3.25012677E+00  3.55383340E+00
  3.71346885E+00  3.73978493E+00  3.81115365E+00  3.96411818E+00  4.30222770E+00
Alpha MO coefficients                      R   N=       11025
  3.09510727E-06  3.00707584E-04  3.08606263E-03  1.10169477E-02 -5.10534069E-04
 -2.58904186E-04  0.00000000E+00 -7.04100912E-03 -3.64081829E-03  0.00000000E+00
  1.45659356E-03 -2.15919011E-03  0.00000000E+00 -2.21878867E-04  0.00000000E+00
  0.00000000E+00 -1.65008307E-04 -5.23177860E-05 -1.01730505E-03  0.00000000E+00
  0.00000000E+00 -1.78125349E-04  3.47648884E-03  3.21738939E-05  1.13521203E-04
  3.99773487E-03 -8.17572208E-03  7.51622847E-05 -2.77140554E-05  0.00000000E+00
 -9.41459814E-04  1.46485189E-03  0.00000000E+00  1.59106405E-03 -5.75662618E-04
  0.00000000E+00  7.39797495E-05  0.00000000E+00  0.00000000E+00 -1.95796322E-04
 -8.19047307E-05  6.24001592E-04  0.00000000E+00  0.00000000E+00  4.76060403E-05
 -9.39365581E-04 -3.25246887E-04  1.66755885E-03  6.65863750E-04  8.50343279E-06
  2.50542561E-04  0.00000000E+00 -7.96847922E-04 -7.16095109E-04  0.00000000E+00
  9.97269740E-01  1.70400880E-02 -1.14442248E-02 -8.42589168E-03  1.56447120E-03
 -5.95162273E-04  0.00000000E+00 -4.04842804E-03 -4.46511955E-04  0.00000000E+00
 -1.95683307E-03  4.01249032E-05  0.00000000E+00 -5.59750999E-06  0.00000000E+00
  0.00000000E+00 -2.54204898E-05 -4.10048878E-05  3.84643541E-04  0.00000000E+00
  0.00000000E+00 -4.20311509E-04 -3.28604104E-04  1.78959904E-04  4.52521770E-05
 -2.42003012E-04  9.67358282E-06 -4.36570280E-05  0.00000000E+00  5.69866939E-04
  2.53185849E-05  0.00000000E+00  7.98529673E-05  1.33315892E-03 -3.53604517E-04
 -6.71599095E-05 -4.09347323E-05  0.00000000E+00 -5.04917617E-04 -2.33850717E-06
  0.00000000E+00  2.77026421E-04  1.97343884E-03 -2.73830920E-04  1.52830356E-04
 -2.80627411E-04  0.00000000E+00 -3.55743787E-04  5.86274727E-04  0.00000000E+00
  9.97639976E-01  2.04385505E-02 -2.85634309E-02 -9.48522935E-03 -1.56292378E-03
 -6.70874820E-04  0.00000000E+00 -1.17225007E-02 -3.21594469E-04  0.00000000E+00
 -1.64726172E-03 -8.36000771E-04  0.00000000E+00 -7.77675066E-04  0.00000000E+00
  0.00000000E+00  2.87771500E-04  2.48851930E-04  2.14093061E-03  0.00000000E+00
  0.00000000E+00 -2.05003627E-03  3.13615835E-03  8.95093410E-03 -7.62101326E-05
  1.31778486E-02  4.22542172E-03 -1.40768228E-04  3.61023219E-05  0.00000000E+00
 -1.13637138E-02  6.54485749E-03  0.00000000E+00 -1.91380665E-03  1.67563003E-03
  0.00000000E+00  6.85683945E-05  0.00000000E+00  0.00000000E+00  1.42146999E-04
 -1.57257933E-04 -5.36371218E-04  0.00000000E+00  0.00000000E+00  9.24212457E-04
 -1.56946259E-03  4.27264883E-04  8.46267348E-03  1.10288540E-03  4.81188188E-05
  1.75380935E-04  0.00000000E+00 -4.04442046E-04 -2.72879908E-03  0.00000000E+00
 -6.58767108E-05  7.83418734E-04 -1.79312561E-03 -2.48010985E-04  3.94235954E-04
  2.29768977E-04  0.00000000E+00 -2.48415871E-03 -1.48660833E-03  0.00000000E+00
 -5.41907224E-04 -5.86485920E-04  0.00000000E+00  8.02014005E-05  0.00000000E+00
  0.00000000E+00  8.19871891E-05 -1.71531102E-05  4.48580266E-04  0.00000000E+00
  0.00000000E+00 -1.06850322E-03 -1.02262686E-03  8.38789288E-05  4.20391900E-03
  3.11942021E-04 -4.33303524E-05 -1.27579470E-05  0.00000000E+00 -7.82513986E-04
 -1.04689325E-03  0.00000000E+00  1.22410889E-04  5.87111867E-03  1.52435763E-03
 -2.62797020E-05  3.05616841E-05  0.00000000E+00 -2.56705616E-04  1.78785105E-03
  0.00000000E+00 -4.50678184E-04 -2.68158028E-03 -1.02455485E-03  1.80780269E-04
  1.20823888E-04  0.00000000E+00 -2.47877403E-04 -1.01681997E-03  0.00000000E+00
 -9.46021830E-03 -4.07941532E-04  1.15503659E-02  1.23732449E-02  6.49906620E-05
 -3.06700426E-05  0.00000000E+00  7.44428317E-03 -4.26448411E-03  0.00000000E+00
  3.04555632E-03 -3.67741937E-03  0.00000000E+00  1.58406931E-04  0.00000000E+00
  0.00000000E+00 -6.65007010E-05  3.87955279E-05 -3.39886039E-04  0.00000000E+00
  0.00000000E+00  1.03154533E-03 -3.85230728E-04  9.97565760E-01  2.09224330E-02
 -3.41399207E-02 -1.92497334E-02 -2.33895121E-05 -6.78068049E-05  0.00000000E+00
  3.92701599E-03 -1.85934558E-03  0.00000000E+00  2.78084817E-03 -3.80282918E-05
  0.00000000E+00 -6.16484958E-04  0.00000000E+00  0.00000000E+00  2.55087520E-05
 -1.14194194E-04  2.30739742E-03  0.00000000E+00  0.00000000E+00 -8.82275126E-04
  1.60961495E-03  7.69176069E-05  3.74623058E-03  2.28950580E-03 -2.05402891E-05
 -2.66861356E-05  0.00000000E+00 -2.19108638E-04 -1.01838331E-03  0.00000000E+00
  2.74181745E-06 -7.10526563E-05  7.89478160E-06 -1.58420714E-03 -3.97944509E-05
 -5.90421996E-06  0.00000000E+00 -7.81340632E-05  2.12743055E-04  0.00000000E+00
 -4.07677215E-04  5.58883115E-04  0.00000000E+00  1.32741563E-06  0.00000000E+00
  0.00000000E+00  1.99625688E-05  1.88216705E-05 -6.71416343E-05  0.00000000E+00
  0.00000000E+00 -9.46014786E-05 -2.56330132E-05  3.20754793E-04  8.83660207E-03
 -2.96914986E-04  2.36874685E-04  2.01573147E-04  0.00000000E+00 -2.16377058E-03
 -1.84483920E-03  0.00000000E+00  2.89582126E-04  1.01638629E-02  1.07918813E-03
  2.05975734E-05 -3.76271281E-04  0.00000000E+00 -4.66473061E-06  3.12219920E-03
  0.00000000E+00 -1.00083841E-04  1.08152892E-03 -2.70120772E-04 -8.63732314E-06
  3.54019818E-05  0.00000000E+00  4.49475844E-05  2.97516936E-04  0.00000000E+00
 -7.31285667E-02  1.34124589E-01  8.58599054E-02 -2.04834364E-01 -8.82375418E-02
 -5.95769079E-02  0.00000000E+00  1.47266024E-01 -4.44336819E-02  0.00000000E+00
 -3.71244991E-02  4.53561254E-02  0.00000000E+00 -1.35864208E-02  0.00000000E+00
  0.00000000E+00  1.37389395E-02  2.31761504E-02  8.55899324E-03  0.00000000E+00
  0.00000000E+00 -4.92675895E-03 -9.20875567E-02 -1.47677812E-02  2.95199041E-02
 -1.48945318E-01  1.65712598E-01 -2.44053465E-02  3.67551441E-03  0.00000000E+00
  8.39121226E-02 -2.41833745E-02  0.00000000E+00 -3.69828301E-02  3.31574678E-03
  0.00000000E+00 -8.58029563E-04  0.00000000E+00  0.00000000E+00  9.05590186E-03
  9.19480971E-05 -6.72923175E-03  0.00000000E+00  0.00000000E+00 -2.41069118E-02
  2.42272736E-03  3.42871638E-02  3.01695592E-02 -1.84413455E-02 -9.82358587E-04
 -9.39298466E-03  0.00000000E+00  2.72481907E-02 -1.06012101E-02  0.00000000E+00
 -2.03135181E-01  4.19427075E-01  4.72663952E-01  1.18665962E-01  7.85801345E-02
 -2.11521384E-02  0.00000000E+00  6.49862377E-02  5.49089705E-02  0.00000000E+00
  2.99229565E-02 -3.94270766E-03  0.00000000E+00 -8.86811736E-03  0.00000000E+00
  0.00000000E+00  1.53669598E-04  3.07523711E-03  1.03436981E-02  0.00000000E+00
  0.00000000E+00  2.19583318E-02  1.10191968E-02  2.86358515E-03  4.34905464E-03
  1.52589471E-02 -1.84426878E-03  7.18688489E-04  0.00000000E+00 -7.35774383E-03
 -3.60679887E-03  0.00000000E+00  9.80033485E-03 -6.10280784E-02  2.49528118E-03
 -5.60749891E-04  3.76076391E-03  0.00000000E+00  1.20033796E-03 -1.20177155E-02
  0.00000000E+00  1.91533172E-01  1.18084274E-02  4.33458317E-03 -4.40576334E-03
  3.73970225E-02  0.00000000E+00 -1.18927323E-03  1.32702644E-02  0.00000000E+00
 -1.34550845E-01  2.76022574E-01  8.73382642E-02  1.26281978E-01  1.49995466E-01
 -2.90560566E-02  0.00000000E+00  2.15921401E-02  5.27754349E-02  0.00000000E+00
  2.92706290E-02 -3.51626159E-02  0.00000000E+00 -8.58494126E-03  0.00000000E+00
  0.00000000E+00  9.85623381E-03 -1.94571639E-02  1.22838899E-03  0.00000000E+00
  0.00000000E+00  4.20197110E-02  3.60553661E-02 -1.55534759E-01  3.00199649E-01
  2.10261191E-01 -1.34471012E-01 -9.75629933E-02  5.11637135E-02  0.00000000E+00
 -1.10881159E-01 -8.56761385E-03  0.00000000E+00  2.67581273E-02 -4.68268639E-03
  0.00000000E+00 -8.97917599E-03  0.00000000E+00  0.00000000E+00  1.02340015E-02
 -1.19368604E-02  5.64311705E-03  0.00000000E+00  0.00000000E+00  4.82742195E-02
 -4.12556395E-03  1.09372532E-01  1.95970291E-02  2.08729588E-02  5.14018152E-03
 -1.41419770E-02  0.00000000E+00 -1.38081550E-02  4.13175846E-03  0.00000000E+00
  5.21840303E-02 -1.16810135E-01 -1.38108537E-01 -8.58814454E-02  7.19912911E-02
  6.83386508E-02  0.00000000E+00  5.56398206E-02  1.65793846E-02  0.00000000E+00
 -1.94974551E-02  1.08685711E-02  0.00000000E+00 -6.98260667E-04  0.00000000E+00
  0.00000000E+00  6.85843015E-03  3.91419728E-03 -1.01530629E-02  0.00000000E+00
  0.00000000E+00  6.85246565E-03 -1.10802555E-03  1.25314971E-01  4.67121193E-02
 -6.07915817E-03 -1.68493319E-02 -8.42175599E-03  0.00000000E+00 -1.09146550E-02
  5.57665402E-03  0.00000000E+00  1.17699885E-01  7.42172300E-02 -6.76109477E-04
 -4.47792547E-03  1.72614721E-02  0.00000000E+00 -3.04127835E-03  9.85421550E-03
  0.00000000E+00 -9.09216630E-02  4.13065847E-02 -4.44753687E-04  3.14978891E-03
 -1.48292515E-02  0.00000000E+00  1.65890725E-03  1.04401022E-02  0.00000000E+00
 -9.16972050E-02  2.01114401E-01  2.61805073E-01 -1.22253613E-01 -1.85158290E-01
  1.10995024E-01  0.00000000E+00  8.12747946E-02 -2.45452780E-02  0.00000000E+00
 -7.50671775E-03  3.79162610E-03  0.00000000E+00 -9.00786720E-03  0.00000000E+00
  0.00000000E+00  9.05858945E-03  1.30820863E-02  1.91456334E-02  0.00000000E+00
  0.00000000E+00  3.44360344E-02 -3.33019567E-02  9.37539504E-02 -1.86455759E-01
 -2.33634668E-01  1.11463761E-01 -5.40871117E-02  4.60195078E-02  0.00000000E+00
  9.86250644E-02 -5.76233716E-02  0.00000000E+00 -2.74809734E-02 -4.39172487E-03
  0.00000000E+00  4.71945978E-03  0.00000000E+00  0.00000000E+00  6.55756488E-03
 -2.05062512E-03 -6.38369163E-03  0.00000000E+00  0.00000000E+00 -4.19320586E-02
  3.22645952E-02  2.01133842E-01  1.08104341E-01  4.41873330E-03  3.91108095E-04
 -2.00171133E-02  0.00000000E+00  1.09576292E-02 -7.83595709E-03  0.00000000E+00
  1.47534487E-02 -3.91167208E-02  5.47122510E-03 -3.19507825E-02  1.17236211E-01
  3.10226095E-01  0.00000000E+00  8.26457235E-02  1.40346476E-01  0.00000000E+00
 -8.52152472E-03  2.52852859E-02  0.00000000E+00  5.93526734E-05  0.00000000E+00
  0.00000000E+00  1.17742570E-02  1.51884578E-02 -1.15104617E-02  0.00000000E+00
  0.00000000E+00 -9.63980306E-03  1.90531338E-03 -1.21921351E-01 -7.45121078E-02
  1.12253502E-02  1.02927336E-02  9.98230712E-03  0.00000000E+00  1.76307404E-02
 -3.01136646E-03  0.00000000E+00 -1.48222864E-01 -1.31380447E-01 -1.33210982E-02
  1.76560288E-03 -1.40890171E-02  0.00000000E+00  1.45018424E-02 -2.05738194E-02
  0.00000000E+00 -2.47616424E-01  4.35935066E-02  5.11084325E-03  9.92580780E-03
 -3.27811732E-02  0.00000000E+00  4.30839197E-03  2.38877998E-02  0.00000000E+00
  6.22971649E-02 -1.35354091E-01 -1.87071319E-01  2.66960865E-01 -1.90730302E-01
  3.49887908E-02  0.00000000E+00 -1.27834199E-01 -9.20482997E-03  0.00000000E+00
  7.51410006E-02 -3.78064294E-02  0.00000000E+00 -2.82983015E-03  0.00000000E+00
  0.00000000E+00  2.28876745E-02  8.30898686E-03 -6.79077448E-03  0.00000000E+00
  0.00000000E+00 -5.04355082E-02  2.77704328E-03 -5.25405401E-02  1.06614055E-01
  1.14565309E-01 -2.77306261E-01  2.77993453E-01 -1.19177078E-01  0.00000000E+00
  3.64630474E-02  2.17963376E-02  0.00000000E+00  5.70452816E-02 -4.27896030E-02
  0.00000000E+00 -5.67803395E-04  0.00000000E+00  0.00000000E+00 -1.08175605E-02
  2.06152648E-02  7.06009827E-03  0.00000000E+00  0.00000000E+00  1.71441599E-02
 -7.34137487E-02 -4.79952294E-02 -7.09607115E-02  2.56620541E-02 -3.52407795E-03