 Entering Gaussian System, Link 0=g16
 Input=enolone_mp2_avdz.gjf
 Output=enolone_mp2_avdz.log
 Initial command:
 /sw/contrib/gaussian/g16/A03/g16/l1.exe "/gscratch/scrubbed/gds001/Gau-1265.inp" -scrdir="/gscratch/scrubbed/gds001/"
 Entering Link 1 = /sw/contrib/gaussian/g16/A03/g16/l1.exe PID=      1267.
  
 Copyright (c) 1988,1990,1992,1993,1995,1998,2003,2009,2016,
            Gaussian, Inc.  All Rights Reserved.
  
 This is part of the Gaussian(R) 16 program.  It is based on
 the Gaussian(R) 09 system (copyright 2009, Gaussian, Inc.),
 the Gaussian(R) 03 system (copyright 2003, Gaussian, Inc.),
 the Gaussian(R) 98 system (copyright 1998, Gaussian, Inc.),
 the Gaussian(R) 94 system (copyright 1995, Gaussian, Inc.),
 the Gaussian 92(TM) system (copyright 1992, Gaussian, Inc.),
 the Gaussian 90(TM) system (copyright 1990, Gaussian, Inc.),
 the Gaussian 88(TM) system (copyright 1988, Gaussian, Inc.),
 the Gaussian 86(TM) system (copyright 1986, Carnegie Mellon
 University), and the Gaussian 82(TM) system (copyright 1983,
 Carnegie Mellon University). Gaussian is a federally registered
 trademark of Gaussian, Inc.
  
 This software contains proprietary and confidential information,
 including trade secrets, belonging to Gaussian, Inc.
  
 This software is provided under written license and may be
 used, copied, transmitted, or stored only in accord with that
 written license.
  
 The following legend is applicable only to US Government
 contracts under FAR:
  
                    RESTRICTED RIGHTS LEGEND
  
 Use, reproduction and disclosure by the US Government is
 subject to restrictions as set forth in subparagraphs (a)
 and (c) of the Commercial Computer Software - Restricted
 Rights clause in FAR 52.227-19.
  
 Gaussian, Inc.
 340 Quinnipiac St., Bldg. 40, Wallingford CT 06492
  
  
 ---------------------------------------------------------------
 Warning -- This program may not be used in any manner that
 competes with the business of Gaussian, Inc. or will provide
 assistance to any competitor of Gaussian, Inc.  The licensee
 of this program is prohibited from giving any competitor of
 Gaussian, Inc. access to this program.  By using this program,
 the user acknowledges that Gaussian, Inc. is engaged in the
 business of creating and licensing software in the field of
 computational chemistry and represents and warrants to the
 licensee that it is not a competitor of Gaussian, Inc. and that
 it will not use this program in any manner prohibited above.
 ---------------------------------------------------------------
  

 Cite this work as:
 Gaussian 16, Revision A.03,
 M. J. Frisch, G. W. Trucks, H. B. Schlegel, G. E. Scuseria, 
 M. A. Robb, J. R. Cheeseman, G. Scalmani, V. Barone, 
 G. A. Petersson, H. Nakatsuji, X. Li, M. Caricato, A. V. Marenich, 
 J. Bloino, B. G. Janesko, R. Gomperts, B. Mennucci, H. P. Hratchian, 
 J. V. Ortiz, A. F. Izmaylov, J. L. Sonnenberg, D. Williams-Young, 
 F. Ding, F. Lipparini, F. Egidi, J. Goings, B. Peng, A. Petrone, 
 T. Henderson, D. Ranasinghe, V. G. Zakrzewski, J. Gao, N. Rega, 
 G. Zheng, W. Liang, M. Hada, M. Ehara, K. Toyota, R. Fukuda, 
 J. Hasegawa, M. Ishida, T. Nakajima, Y. Honda, O. Kitao, H. Nakai, 
 T. Vreven, K. Throssell, J. A. Montgomery, Jr., J. E. Peralta, 
 F. Ogliaro, M. J. Bearpark, J. J. Heyd, E. N. Brothers, K. N. Kudin, 
 V. N. Staroverov, T. A. Keith, R. Kobayashi, J. Normand, 
 K. Raghavachari, A. P. Rendell, J. C. Burant, S. S. Iyengar, 
 J. Tomasi, M. Cossi, J. M. Millam, M. Klene, C. Adamo, R. Cammi, 
 J. W. Ochterski, R. L. Martin, K. Morokuma, O. Farkas, 
 J. B. Foresman, and D. J. Fox, Gaussian, Inc., Wallingford CT, 2016.
 
 ******************************************
 Gaussian 16:  ES64L-G16RevA.03 25-Dec-2016
                20-Mar-2023 
 ******************************************
 %nprocshared=28
 Will use up to   28 processors via shared memory.
 %mem=41GB
 -----------------------------------
 # mp2/aug-cc-pVDZ opt freq=(vibrot)
 -----------------------------------
 1/18=20,19=15,38=1/1,3;
 2/9=110,12=2,17=6,18=5,40=1/2;
 3/5=16,7=10,11=9,25=1,30=1,71=1/1,2,3;
 4//1;
 5/5=2,38=5/2;
 8/6=4,10=1/1;
 9/15=2,16=-3/6;
 10/5=1/2;
 6/7=2,8=2,9=2,10=2/1;
 7/12=2/1,2,3,16;
 1/18=20,19=15/3(2);
 2/9=110/2;
 99//99;
 2/9=110/2;
 3/5=16,7=10,11=9,25=1,30=1,71=1/1,2,3;
 4/5=5,16=3,69=1/1;
 5/5=2,38=5/2;
 8/6=4,10=1/1;
 9/15=2,16=-3/6;
 10/5=1/2;
 7/12=2/1,2,3,16;
 1/18=20,19=15/3(-8);
 2/9=110/2;
 6/7=2,8=2,9=2,10=2/1;
 99//99;
 ----
 blah
 ----
 Symbolic Z-matrix:
 Charge =  0 Multiplicity = 1
 C                    -2.65056   0.14543  -0.20395 
 C                    -1.46972   0.75062  -0.05014 
 C                    -2.70353  -1.31214  -0.4585 
 H                    -3.59583   0.66706  -0.15289 
 O                    -1.30135   2.08803   0.1884 
 H                    -0.51238   0.24078  -0.09865 
 H                    -2.16901   2.52503   0.22802 
 O                    -1.71421  -2.02717  -0.54128 
 H                    -3.72305  -1.71698  -0.57085 
 

 GradGradGradGradGradGradGradGradGradGradGradGradGradGradGradGradGradGrad
 Berny optimization.
 Initialization pass.
                           ----------------------------
                           !    Initial Parameters    !
                           ! (Angstroms and Degrees)  !
 --------------------------                            --------------------------
 ! Name  Definition              Value          Derivative Info.                !
 --------------------------------------------------------------------------------
 ! R1    R(1,2)                  1.3358         estimate D2E/DX2                !
 ! R2    R(1,3)                  1.4806         estimate D2E/DX2                !
 ! R3    R(1,4)                  1.0809         estimate D2E/DX2                !
 ! R4    R(2,5)                  1.3689         estimate D2E/DX2                !
 ! R5    R(2,6)                  1.0857         estimate D2E/DX2                !
 ! R6    R(3,8)                  1.2235         estimate D2E/DX2                !
 ! R7    R(3,9)                  1.1027         estimate D2E/DX2                !
 ! R8    R(5,7)                  0.9723         estimate D2E/DX2                !
 ! A1    A(2,1,3)              119.8309         estimate D2E/DX2                !
 ! A2    A(2,1,4)              123.3008         estimate D2E/DX2                !
 ! A3    A(3,1,4)              116.8682         estimate D2E/DX2                !
 ! A4    A(1,2,5)              124.8498         estimate D2E/DX2                !
 ! A5    A(1,2,6)              124.1659         estimate D2E/DX2                !
 ! A6    A(5,2,6)              110.9843         estimate D2E/DX2                !
 ! A7    A(1,3,8)              123.9214         estimate D2E/DX2                !
 ! A8    A(1,3,9)              114.3319         estimate D2E/DX2                !
 ! A9    A(8,3,9)              121.7467         estimate D2E/DX2                !
 ! A10   A(2,5,7)              109.661          estimate D2E/DX2                !
 ! D1    D(3,1,2,5)           -180.0            estimate D2E/DX2                !
 ! D2    D(3,1,2,6)             -0.0001         estimate D2E/DX2                !
 ! D3    D(4,1,2,5)             -0.0002         estimate D2E/DX2                !
 ! D4    D(4,1,2,6)            179.9996         estimate D2E/DX2                !
 ! D5    D(2,1,3,8)             -0.004          estimate D2E/DX2                !
 ! D6    D(2,1,3,9)            179.9959         estimate D2E/DX2                !
 ! D7    D(4,1,3,8)            179.9962         estimate D2E/DX2                !
 ! D8    D(4,1,3,9)             -0.0039         estimate D2E/DX2                !
 ! D9    D(1,2,5,7)             -0.0009         estimate D2E/DX2                !
 ! D10   D(6,2,5,7)            179.9992         estimate D2E/DX2                !
 --------------------------------------------------------------------------------
 Trust Radius=3.00D-01 FncErr=1.00D-07 GrdErr=1.00D-07 EigMax=2.50D+02 EigMin=1.00D-04
 Number of steps in this run=     38 maximum allowed number of steps=    100.
 GradGradGradGradGradGradGradGradGradGradGradGradGradGradGradGradGradGrad

                          Input orientation:                          
 ---------------------------------------------------------------------
 Center     Atomic      Atomic             Coordinates (Angstroms)
 Number     Number       Type             X           Y           Z
 ---------------------------------------------------------------------
      1          6           0       -2.650558    0.145430   -0.203950
      2          6           0       -1.469717    0.750615   -0.050137
      3          6           0       -2.703526   -1.312144   -0.458500
      4          1           0       -3.595832    0.667056   -0.152890
      5          8           0       -1.301352    2.088026    0.188402
      6          1           0       -0.512376    0.240781   -0.098649
      7          1           0       -2.169008    2.525029    0.228016
      8          8           0       -1.714215   -2.027173   -0.541283
      9          1           0       -3.723046   -1.716979   -0.570854
 ---------------------------------------------------------------------
                    Distance matrix (angstroms):
                    1          2          3          4          5
     1  C    0.000000
     2  C    1.335774   0.000000
     3  C    1.480581   2.438036   0.000000
     4  H    1.080854   2.130236   2.192451   0.000000
     5  O    2.397494   1.368911   3.734398   2.720345   0.000000
     6  H    2.142896   1.085720   2.709651   3.113255   2.029087
     7  H    2.465964   1.927412   3.934578   2.373390   0.972300
     8  O    2.389714   2.831450   1.223461   3.309109   4.199734
     9  H    2.180233   3.381961   1.102695   2.423737   4.573745
                    6          7          8          9
     6  H    0.000000
     7  H    2.840585   0.000000
     8  O    2.604604   4.639094   0.000000
     9  H    3.790015   4.587794   2.032855   0.000000
 Stoichiometry    C3H4O2
 Framework group  C1[X(C3H4O2)]
 Deg. of freedom    21
 Full point group                 C1      NOp   1
 Largest Abelian subgroup         C1      NOp   1
 Largest concise Abelian subgroup C1      NOp   1
                         Standard orientation:                         
 ---------------------------------------------------------------------
 Center     Atomic      Atomic             Coordinates (Angstroms)
 Number     Number       Type             X           Y           Z
 ---------------------------------------------------------------------
      1          6           0        0.007248    0.692215   -0.000008
      2          6           0        0.861385   -0.334792    0.000015
      3          6           0       -1.451204    0.437187    0.000014
      4          1           0        0.322351    1.726118   -0.000037
      5          8           0        2.225293   -0.217870   -0.000001
      6          1           0        0.560580   -1.378009    0.000050
      7          1           0        2.473028    0.722340   -0.000045
      8          8           0       -1.948884   -0.680476   -0.000019
      9          1           0       -2.071814    1.348658    0.000065
 ---------------------------------------------------------------------
 Rotational constants (GHZ):          20.4263380           2.7313326           2.4091854
 Standard basis: Aug-CC-pVDZ (5D, 7F)
 There are   161 symmetry adapted cartesian basis functions of A   symmetry.
 There are   151 symmetry adapted basis functions of A   symmetry.
   151 basis functions,   259 primitive gaussians,   161 cartesian basis functions
    19 alpha electrons       19 beta electrons
       nuclear repulsion energy       155.6640675835 Hartrees.
 NAtoms=    9 NActive=    9 NUniq=    9 SFac= 1.00D+00 NAtFMM=   60 NAOKFM=F Big=F
 Integral buffers will be    131072 words long.
 Raffenetti 1 integral format.
 Two-electron integral symmetry is turned on.
 One-electron integrals computed using PRISM.
 NBasis=   151 RedAO= T EigKep=  3.64D-05  NBF=   151
 NBsUse=   151 1.00D-06 EigRej= -1.00D+00 NBFU=   151
 ExpMin= 2.97D-02 ExpMax= 1.17D+04 ExpMxC= 4.01D+02 IAcc=3 IRadAn=         5 AccDes= 0.00D+00
 Harris functional with IExCor=  205 and IRadAn=       5 diagonalized for initial guess.
 HarFok:  IExCor=  205 AccDes= 0.00D+00 IRadAn=         5 IDoV= 1 UseB2=F ITyADJ=14
 ICtDFT=  3500011 ScaDFX=  1.000000  1.000000  1.000000  1.000000
 FoFCou: FMM=F IPFlag=           0 FMFlag=      100000 FMFlg1=           0
         NFxFlg=           0 DoJE=T BraDBF=F KetDBF=T FulRan=T
         wScrn=  0.000000 ICntrl=       500 IOpCl=  0 I1Cent=   200000004 NGrid=           0
         NMat0=    1 NMatS0=      1 NMatT0=    0 NMatD0=    1 NMtDS0=    0 NMtDT0=    0
 Petite list used in FoFCou.
 Keep R1 ints in memory in canonical form, NReq=71984878.
 Requested convergence on RMS density matrix=1.00D-08 within 128 cycles.
 Requested convergence on MAX density matrix=1.00D-06.
 Requested convergence on             energy=1.00D-06.
 No special actions if energy rises.
 SCF Done:  E(RHF) =  -265.663623196     A.U. after   14 cycles
            NFock= 14  Conv=0.71D-08     -V/T= 2.0017
 ExpMin= 2.97D-02 ExpMax= 1.17D+04 ExpMxC= 4.01D+02 IAcc=3 IRadAn=         5 AccDes= 0.00D+00
 HarFok:  IExCor=  205 AccDes= 0.00D+00 IRadAn=         5 IDoV=-2 UseB2=F ITyADJ=14
 ICtDFT= 12500011 ScaDFX=  1.000000  1.000000  1.000000  1.000000
 Range of M.O.s used for correlation:     6   151
 NBasis=   151 NAE=    19 NBE=    19 NFC=     5 NFV=     0
 NROrb=    146 NOA=    14 NOB=    14 NVA=   132 NVB=   132

 **** Warning!!: The largest alpha MO coefficient is  0.42433198D+02

 Fully direct method using O(ONN) memory.
 JobTyp=1 Pass  1:  I=   6 to  19 NPSUse= 28 ParTrn=T ParDer=T DoDerP=T.
 Spin components of T(2) and E(2):
     alpha-alpha T2 =       0.3405599887D-01 E2=     -0.1041964770D+00
     alpha-beta  T2 =       0.1888629229D+00 E2=     -0.5888232699D+00
     beta-beta   T2 =       0.3405599887D-01 E2=     -0.1041964770D+00
 ANorm=    0.1121148929D+01
 E2 =    -0.7972162240D+00 EUMP2 =    -0.26646083941964D+03
          IDoAtm=111111111
          Differentiating once with respect to electric field.
                with respect to dipole field.
          Differentiating once with respect to nuclear coordinates.
 Keep R1 ints in memory in canonical form, NReq=71990715.
          There are     1 degrees of freedom in the 1st order CPHF.  IDoFFX=0 NUNeed=     1.
 LinEq1:  Iter=  0 NonCon=     1 RMS=5.59D-03 Max=1.13D-01 NDo=     1
 AX will form     1 AO Fock derivatives at one time.
 LinEq1:  Iter=  1 NonCon=     1 RMS=1.74D-03 Max=2.69D-02 NDo=     1
 LinEq1:  Iter=  2 NonCon=     1 RMS=6.29D-04 Max=1.01D-02 NDo=     1
 LinEq1:  Iter=  3 NonCon=     1 RMS=2.27D-04 Max=2.87D-03 NDo=     1
 LinEq1:  Iter=  4 NonCon=     1 RMS=7.96D-05 Max=9.88D-04 NDo=     1
 LinEq1:  Iter=  5 NonCon=     1 RMS=2.90D-05 Max=5.19D-04 NDo=     1
 LinEq1:  Iter=  6 NonCon=     1 RMS=1.13D-05 Max=2.77D-04 NDo=     1
 LinEq1:  Iter=  7 NonCon=     1 RMS=3.55D-06 Max=5.23D-05 NDo=     1
 LinEq1:  Iter=  8 NonCon=     1 RMS=1.29D-06 Max=2.44D-05 NDo=     1
 LinEq1:  Iter=  9 NonCon=     1 RMS=3.36D-07 Max=2.79D-06 NDo=     1
 LinEq1:  Iter= 10 NonCon=     1 RMS=6.84D-08 Max=5.19D-07 NDo=     1
 LinEq1:  Iter= 11 NonCon=     1 RMS=1.95D-08 Max=3.69D-07 NDo=     1
 LinEq1:  Iter= 12 NonCon=     1 RMS=5.05D-09 Max=5.84D-08 NDo=     1
 LinEq1:  Iter= 13 NonCon=     1 RMS=1.44D-09 Max=1.35D-08 NDo=     1
 LinEq1:  Iter= 14 NonCon=     1 RMS=2.90D-10 Max=2.73D-09 NDo=     1
 LinEq1:  Iter= 15 NonCon=     0 RMS=4.82D-11 Max=3.44D-10 NDo=     1
 Linear equations converged to 1.000D-10 1.000D-09 after    15 iterations.
 End of Minotr F.D. properties file   721 does not exist.
 End of Minotr F.D. properties file   722 does not exist.
 End of Minotr F.D. properties file   788 does not exist.

 **********************************************************************

            Population analysis using the SCF density.

 **********************************************************************

 Orbital symmetries:
       Occupied  (A) (A) (A) (A) (A) (A) (A) (A) (A) (A) (A) (A)
                 (A) (A) (A) (A) (A) (A) (A)
       Virtual   (A) (A) (A) (A) (A) (A) (A) (A) (A) (A) (A) (A)
                 (A) (A) (A) (A) (A) (A) (A) (A) (A) (A) (A) (A)
                 (A) (A) (A) (A) (A) (A) (A) (A) (A) (A) (A) (A)
                 (A) (A) (A) (A) (A) (A) (A) (A) (A) (A) (A) (A)
                 (A) (A) (A) (A) (A) (A) (A) (A) (A) (A) (A) (A)
                 (A) (A) (A) (A) (A) (A) (A) (A) (A) (A) (A) (A)
                 (A) (A) (A) (A) (A) (A) (A) (A) (A) (A) (A) (A)
                 (A) (A) (A) (A) (A) (A) (A) (A) (A) (A) (A) (A)
                 (A) (A) (A) (A) (A) (A) (A) (A) (A) (A) (A) (A)
                 (A) (A) (A) (A) (A) (A) (A) (A) (A) (A) (A) (A)
                 (A) (A) (A) (A) (A) (A) (A) (A) (A) (A) (A) (A)
 The electronic state is 1-A.
 Alpha  occ. eigenvalues --  -20.63196 -20.55826 -11.34711 -11.34588 -11.24558
 Alpha  occ. eigenvalues --   -1.43237  -1.38335  -1.07300  -0.90220  -0.81329
 Alpha  occ. eigenvalues --   -0.71519  -0.68882  -0.64074  -0.60376  -0.59625
 Alpha  occ. eigenvalues --   -0.56827  -0.53307  -0.42639  -0.37181
 Alpha virt. eigenvalues --    0.02527   0.04165   0.05195   0.06708   0.06924
 Alpha virt. eigenvalues --    0.10339   0.11125   0.12530   0.13086   0.13256
 Alpha virt. eigenvalues --    0.13944   0.14565   0.15017   0.16488   0.17753
 Alpha virt. eigenvalues --    0.21378   0.23433   0.23573   0.24969   0.25869
 Alpha virt. eigenvalues --    0.27582   0.28702   0.30536   0.30906   0.32370
 Alpha virt. eigenvalues --    0.33492   0.35657   0.36509   0.38090   0.38227
 Alpha virt. eigenvalues --    0.40471   0.41406   0.43806   0.43891   0.44921
 Alpha virt. eigenvalues --    0.47042   0.47774   0.51745   0.54019   0.55461
 Alpha virt. eigenvalues --    0.56445   0.58760   0.62076   0.63406   0.63564
 Alpha virt. eigenvalues --    0.63998   0.66071   0.67117   0.68071   0.68085
 Alpha virt. eigenvalues --    0.72735   0.73937   0.74258   0.76212   0.78115
 Alpha virt. eigenvalues --    0.79262   0.84424   0.85441   0.88412   0.89009
 Alpha virt. eigenvalues --    0.92874   0.94114   0.95274   0.99509   1.03333
 Alpha virt. eigenvalues --    1.06679   1.08882   1.13028   1.18227   1.20216
 Alpha virt. eigenvalues --    1.23529   1.25416   1.27578   1.29693   1.31481
 Alpha virt. eigenvalues --    1.34813   1.42787   1.46730   1.47873   1.49785
 Alpha virt. eigenvalues --    1.50680   1.57700   1.58625   1.60309   1.64954
 Alpha virt. eigenvalues --    1.67926   1.69788   1.71196   1.75937   1.77851
 Alpha virt. eigenvalues --    1.82075   1.85158   1.90524   1.93896   1.97843
 Alpha virt. eigenvalues --    1.98463   2.02529   2.03266   2.06514   2.09784
 Alpha virt. eigenvalues --    2.13849   2.16169   2.19730   2.19879   2.22481
 Alpha virt. eigenvalues --    2.32667   2.35220   2.39905   2.42284   2.44264
 Alpha virt. eigenvalues --    2.49605   2.60427   2.67278   2.71867   2.86680
 Alpha virt. eigenvalues --    2.91381   2.92794   3.04005   3.07802   3.27461
 Alpha virt. eigenvalues --    3.43921   3.54883   3.69685   3.71524   3.74465
 Alpha virt. eigenvalues --    3.77779   3.80383   3.82624   3.91998   4.05754
 Alpha virt. eigenvalues --    4.13041   4.29089
          Condensed to atoms (all electrons):
               1          2          3          4          5          6
     1  C    5.151961   0.227493   0.089464   0.022563  -0.050006  -0.099086
     2  C    0.227493   4.796089  -0.024582   0.020488  -0.011910   0.335251
     3  C    0.089464  -0.024582   4.977810  -0.131802   0.000805  -0.059186
     4  H    0.022563   0.020488  -0.131802   1.689499  -0.059641   0.052259
     5  O   -0.050006  -0.011910   0.000805  -0.059641   8.614518  -0.153974
     6  H   -0.099086   0.335251  -0.059186   0.052259  -0.153974   1.127555
     7  H    0.029575  -0.118514   0.012331   0.009392   0.334393   0.010312
     8  O   -0.011028  -0.057431   0.299297  -0.003681   0.003137   0.000876
     9  H    0.044563  -0.007340   0.213246  -0.076614   0.002317  -0.004221
               7          8          9
     1  C    0.029575  -0.011028   0.044563
     2  C   -0.118514  -0.057431  -0.007340
     3  C    0.012331   0.299297   0.213246
     4  H    0.009392  -0.003681  -0.076614
     5  O    0.334393   0.003137   0.002317
     6  H    0.010312   0.000876  -0.004221
     7  H    0.552780  -0.001835   0.000986
     8  O   -0.001835   8.553152  -0.057844
     9  H    0.000986  -0.057844   0.976525
 Mulliken charges:
               1
     1  C    0.594501
     2  C    0.840455
     3  C    0.622618
     4  H   -0.522464
     5  O   -0.679641
     6  H   -0.209786
     7  H    0.170580
     8  O   -0.724643
     9  H   -0.091620
 Sum of Mulliken charges =  -0.00000
 Mulliken charges with hydrogens summed into heavy atoms:
               1
     1  C    0.072036
     2  C    0.630669
     3  C    0.530998
     5  O   -0.509060
     8  O   -0.724643
 Electronic spatial extent (au):  <R**2>=            474.4474
 Charge=             -0.0000 electrons
 Dipole moment (field-independent basis, Debye):
    X=              2.2718    Y=              3.2928    Z=              0.0000  Tot=              4.0005
 Quadrupole moment (field-independent basis, Debye-Ang):
   XX=            -33.9492   YY=            -26.2683   ZZ=            -30.7845
   XY=             -1.2649   XZ=             -0.0004   YZ=             -0.0002
 Traceless Quadrupole moment (field-independent basis, Debye-Ang):
   XX=             -3.6152   YY=              4.0657   ZZ=             -0.4505
   XY=             -1.2649   XZ=             -0.0004   YZ=             -0.0002
 Octapole moment (field-independent basis, Debye-Ang**2):
  XXX=             16.1570  YYY=             -0.1625  ZZZ=             -0.0001  XYY=              5.9542
  XXY=             21.2456  XXZ=             -0.0003  XZZ=              0.0452  YZZ=             -1.5909
  YYZ=             -0.0000  XYZ=             -0.0003
 Hexadecapole moment (field-independent basis, Debye-Ang**3):
 XXXX=           -470.6780 YYYY=            -89.3234 ZZZZ=            -31.5984 XXXY=             13.1927
 XXXZ=             -0.0021 YYYX=              1.1308 YYYZ=             -0.0004 ZZZX=             -0.0001
 ZZZY=             -0.0001 XXYY=            -84.7263 XXZZ=            -81.2437 YYZZ=            -22.6216
 XXYZ=             -0.0005 YYXZ=             -0.0003 ZZXY=              0.6603
 N-N= 1.556640675835D+02 E-N=-9.361092572010D+02  KE= 2.652084707743D+02
 Calling FoFJK, ICntrl=  10002127 FMM=F ISym2X=0 I1Cent= 0 IOpClX= 0 NMat=1 NMatS=1 NMatT=0.
 ***** Axes restored to original set *****
 -------------------------------------------------------------------
 Center     Atomic                   Forces (Hartrees/Bohr)
 Number     Number              X              Y              Z
 -------------------------------------------------------------------
      1        6          -0.013412890   -0.024554124   -0.004808280
      2        6           0.013217038    0.027711152    0.005346271
      3        6          -0.000280652    0.015737098    0.002712917
      4        1          -0.007000891    0.007779049    0.001056497
      5        8           0.001736252   -0.002579429   -0.000374607
      6        1           0.002083913   -0.004581427   -0.000706573
      7        1           0.001530365   -0.002307065   -0.000335706
      8        8           0.008251116   -0.011525246   -0.001653010
      9        1          -0.006124251   -0.005680008   -0.001237509
 -------------------------------------------------------------------
 Cartesian Forces:  Max     0.027711152 RMS     0.009547561

 GradGradGradGradGradGradGradGradGradGradGradGradGradGradGradGradGradGrad
 Berny optimization.
 FormGI is forming the generalized inverse of G from B-inverse, IUseBI=4.
 Internal  Forces:  Max     0.025131695 RMS     0.006564582
 Search for a local minimum.
 Step number   1 out of a maximum of   38
 All quantities printed in internal units (Hartrees-Bohrs-Radians)
 Mixed Optimization -- RFO/linear search
 Second derivative matrix not updated -- first step.
 ITU=  0
     Eigenvalues ---    0.01023   0.01023   0.02043   0.02103   0.02703
     Eigenvalues ---    0.02938   0.16000   0.16000   0.16000   0.16000
     Eigenvalues ---    0.22000   0.22000   0.22000   0.33386   0.34503
     Eigenvalues ---    0.35312   0.35891   0.51186   0.52910   0.58162
     Eigenvalues ---    0.93866
 RFO step:  Lambda=-2.79411123D-03 EMin= 1.02282044D-02
 Linear search not attempted -- first point.
 Iteration  1 RMS(Cart)=  0.02337220 RMS(Int)=  0.00019800
 Iteration  2 RMS(Cart)=  0.00023502 RMS(Int)=  0.00000003
 Iteration  3 RMS(Cart)=  0.00000003 RMS(Int)=  0.00000002
 Variable       Old X    -DE/DX   Delta X   Delta X   Delta X     New X
                                 (Linear)    (Quad)   (Total)
    R1        2.52425   0.02513   0.00000   0.04300   0.04300   2.56725
    R2        2.79789   0.00141   0.00000   0.00405   0.00405   2.80195
    R3        2.04252   0.00993   0.00000   0.02744   0.02744   2.06996
    R4        2.58687  -0.00450   0.00000  -0.00874  -0.00874   2.57813
    R5        2.05171   0.00402   0.00000   0.01130   0.01130   2.06301
    R6        2.31201   0.01352   0.00000   0.01436   0.01436   2.32637
    R7        2.08379   0.00787   0.00000   0.02339   0.02339   2.10718
    R8        1.83738  -0.00242   0.00000  -0.00454  -0.00454   1.83284
    A1        2.09144   0.00163   0.00000   0.00731   0.00731   2.09875
    A2        2.15201  -0.00437   0.00000  -0.02548  -0.02548   2.12653
    A3        2.03974   0.00274   0.00000   0.01817   0.01817   2.05790
    A4        2.17904   0.00706   0.00000   0.03171   0.03171   2.21075
    A5        2.16710  -0.00672   0.00000  -0.03545  -0.03545   2.13166
    A6        1.93704  -0.00034   0.00000   0.00374   0.00374   1.94078
    A7        2.16284   0.00492   0.00000   0.02209   0.02209   2.18493
    A8        1.99547   0.00072   0.00000   0.00848   0.00848   2.00395
    A9        2.12488  -0.00564   0.00000  -0.03057  -0.03057   2.09431
   A10        1.91395  -0.00256   0.00000  -0.01572  -0.01572   1.89823
    D1       -3.14159   0.00000   0.00000   0.00000   0.00000  -3.14159
    D2       -0.00000   0.00000   0.00000   0.00000   0.00000   0.00000
    D3       -0.00000   0.00000   0.00000  -0.00000  -0.00000  -0.00000
    D4        3.14159  -0.00000   0.00000  -0.00000  -0.00000   3.14158
    D5       -0.00007   0.00000   0.00000   0.00002   0.00002  -0.00005
    D6        3.14152   0.00000   0.00000   0.00002   0.00002   3.14154
    D7        3.14153   0.00000   0.00000   0.00003   0.00003   3.14155
    D8       -0.00007   0.00000   0.00000   0.00002   0.00002  -0.00005
    D9       -0.00002   0.00000   0.00000   0.00000   0.00000  -0.00001
   D10        3.14158   0.00000   0.00000   0.00001   0.00001   3.14158
         Item               Value     Threshold  Converged?
 Maximum Force            0.025132     0.000450     NO 
 RMS     Force            0.006565     0.000300     NO 
 Maximum Displacement     0.058716     0.001800     NO 
 RMS     Displacement     0.023359     0.001200     NO 
 Predicted change in Energy=-1.409134D-03
 GradGradGradGradGradGradGradGradGradGradGradGradGradGradGradGradGradGrad

                          Input orientation:                          
 ---------------------------------------------------------------------
 Center     Atomic      Atomic             Coordinates (Angstroms)
 Number     Number       Type             X           Y           Z
 ---------------------------------------------------------------------
      1          6           0       -2.661769    0.139706   -0.205408
      2          6           0       -1.471555    0.774987   -0.046000
      3          6           0       -2.700884   -1.320504   -0.459839
      4          1           0       -3.615073    0.676563   -0.152038
      5          8           0       -1.283500    2.105110    0.192099
      6          1           0       -0.518719    0.244725   -0.098240
      7          1           0       -2.149328    2.540412    0.231505
      8          8           0       -1.714674   -2.052308   -0.545635
      9          1           0       -3.724128   -1.748050   -0.576291
 ---------------------------------------------------------------------
                    Distance matrix (angstroms):
                    1          2          3          4          5
     1  C    0.000000
     2  C    1.358530   0.000000
     3  C    1.482726   2.464467   0.000000
     4  H    1.095377   2.148395   2.217827   0.000000
     5  O    2.433198   1.364288   3.764150   2.755977   0.000000
     6  H    2.148297   1.091697   2.709712   3.126785   2.032293
     7  H    2.493367   1.911310   3.960914   2.401967   0.969896
     8  O    2.411984   2.881378   1.231060   3.348607   4.244323
     9  H    2.197677   3.423597   1.115072   2.463865   4.625357
                    6          7          8          9
     6  H    0.000000
     7  H    2.835100   0.000000
     8  O    2.628085   4.678241   0.000000
     9  H    3.804515   4.639336   2.032589   0.000000
 Stoichiometry    C3H4O2
 Framework group  C1[X(C3H4O2)]
 Deg. of freedom    21
 Full point group                 C1      NOp   1
 Largest Abelian subgroup         C1      NOp   1
 Largest concise Abelian subgroup C1      NOp   1
                         Standard orientation:                         
 ---------------------------------------------------------------------
 Center     Atomic      Atomic             Coordinates (Angstroms)
 Number     Number       Type             X           Y           Z
 ---------------------------------------------------------------------
      1          6           0       -0.002271    0.703788   -0.000008
      2          6           0        0.885461   -0.324577    0.000008
      3          6           0       -1.459921    0.432246    0.000009
      4          1           0        0.324499    1.749289   -0.000024
      5          8           0        2.246196   -0.226183    0.000001
      6          1           0        0.565135   -1.368222    0.000032
      7          1           0        2.491081    0.712289   -0.000027
      8          8           0       -1.973063   -0.686768   -0.000012
      9          1           0       -2.105387    1.341509    0.000052
 ---------------------------------------------------------------------
 Rotational constants (GHZ):          20.2001632           2.6726997           2.3603941
 Standard basis: Aug-CC-pVDZ (5D, 7F)
 There are   161 symmetry adapted cartesian basis functions of A   symmetry.
 There are   151 symmetry adapted basis functions of A   symmetry.
   151 basis functions,   259 primitive gaussians,   161 cartesian basis functions
    19 alpha electrons       19 beta electrons
       nuclear repulsion energy       154.4931832594 Hartrees.
 NAtoms=    9 NActive=    9 NUniq=    9 SFac= 1.00D+00 NAtFMM=   60 NAOKFM=F Big=F
 Integral buffers will be    131072 words long.
 Raffenetti 1 integral format.
 Two-electron integral symmetry is turned on.
 One-electron integrals computed using PRISM.
 NBasis=   151 RedAO= T EigKep=  4.05D-05  NBF=   151
 NBsUse=   151 1.00D-06 EigRej= -1.00D+00 NBFU=   151
 Initial guess from the checkpoint file:  "/gscratch/scrubbed/gds001/Gau-1267.chk"
 B after Tr=    -0.000000    0.000000    0.000000
         Rot=    1.000000    0.000000   -0.000000   -0.000433 Ang=   0.05 deg.
 ExpMin= 2.97D-02 ExpMax= 1.17D+04 ExpMxC= 4.01D+02 IAcc=3 IRadAn=         5 AccDes= 0.00D+00
 Harris functional with IExCor=  205 and IRadAn=       5 diagonalized for initial guess.
 HarFok:  IExCor=  205 AccDes= 0.00D+00 IRadAn=         5 IDoV= 1 UseB2=F ITyADJ=14
 ICtDFT=  3500011 ScaDFX=  1.000000  1.000000  1.000000  1.000000
 FoFCou: FMM=F IPFlag=           0 FMFlag=      100000 FMFlg1=           0
         NFxFlg=           0 DoJE=T BraDBF=F KetDBF=T FulRan=T
         wScrn=  0.000000 ICntrl=       500 IOpCl=  0 I1Cent=   200000004 NGrid=           0
         NMat0=    1 NMatS0=      1 NMatT0=    0 NMatD0=    1 NMtDS0=    0 NMtDT0=    0
 Petite list used in FoFCou.
 Keep R1 ints in memory in canonical form, NReq=71984293.
 Requested convergence on RMS density matrix=1.00D-08 within 128 cycles.
 Requested convergence on MAX density matrix=1.00D-06.
 Requested convergence on             energy=1.00D-06.
 No special actions if energy rises.
 SCF Done:  E(RHF) =  -265.662411976     A.U. after   12 cycles
            NFock= 12  Conv=0.56D-08     -V/T= 2.0023
 ExpMin= 2.97D-02 ExpMax= 1.17D+04 ExpMxC= 4.01D+02 IAcc=3 IRadAn=         5 AccDes= 0.00D+00
 HarFok:  IExCor=  205 AccDes= 0.00D+00 IRadAn=         5 IDoV=-2 UseB2=F ITyADJ=14
 ICtDFT= 12500011 ScaDFX=  1.000000  1.000000  1.000000  1.000000
 Range of M.O.s used for correlation:     6   151
 NBasis=   151 NAE=    19 NBE=    19 NFC=     5 NFV=     0
 NROrb=    146 NOA=    14 NOB=    14 NVA=   132 NVB=   132

 **** Warning!!: The largest alpha MO coefficient is  0.40312067D+02

 Fully direct method using O(ONN) memory.
 JobTyp=1 Pass  1:  I=   6 to  19 NPSUse= 28 ParTrn=T ParDer=T DoDerP=T.
 Spin components of T(2) and E(2):
     alpha-alpha T2 =       0.3440745585D-01 E2=     -0.1045070651D+00
     alpha-beta  T2 =       0.1909895263D+00 E2=     -0.5908216938D+00
     beta-beta   T2 =       0.3440745585D-01 E2=     -0.1045070651D+00
 ANorm=    0.1122410102D+01
 E2 =    -0.7998358240D+00 EUMP2 =    -0.26646224779957D+03
          IDoAtm=111111111
          Differentiating once with respect to electric field.
                with respect to dipole field.
          Differentiating once with respect to nuclear coordinates.
 Keep R1 ints in memory in canonical form, NReq=71990099.
          There are     1 degrees of freedom in the 1st order CPHF.  IDoFFX=0 NUNeed=     1.
 LinEq1:  Iter=  0 NonCon=     1 RMS=5.69D-03 Max=1.13D-01 NDo=     1
 AX will form     1 AO Fock derivatives at one time.
 LinEq1:  Iter=  1 NonCon=     1 RMS=1.79D-03 Max=2.87D-02 NDo=     1
 LinEq1:  Iter=  2 NonCon=     1 RMS=6.55D-04 Max=1.05D-02 NDo=     1
 LinEq1:  Iter=  3 NonCon=     1 RMS=2.46D-04 Max=3.22D-03 NDo=     1
 LinEq1:  Iter=  4 NonCon=     1 RMS=8.66D-05 Max=1.02D-03 NDo=     1
 LinEq1:  Iter=  5 NonCon=     1 RMS=3.26D-05 Max=6.53D-04 NDo=     1
 LinEq1:  Iter=  6 NonCon=     1 RMS=1.21D-05 Max=2.72D-04 NDo=     1
 LinEq1:  Iter=  7 NonCon=     1 RMS=3.75D-06 Max=5.60D-05 NDo=     1
 LinEq1:  Iter=  8 NonCon=     1 RMS=1.38D-06 Max=2.43D-05 NDo=     1
 LinEq1:  Iter=  9 NonCon=     1 RMS=3.61D-07 Max=3.14D-06 NDo=     1
 LinEq1:  Iter= 10 NonCon=     1 RMS=7.20D-08 Max=5.37D-07 NDo=     1
 LinEq1:  Iter= 11 NonCon=     1 RMS=2.06D-08 Max=3.82D-07 NDo=     1
 LinEq1:  Iter= 12 NonCon=     1 RMS=5.42D-09 Max=6.22D-08 NDo=     1
 LinEq1:  Iter= 13 NonCon=     1 RMS=1.55D-09 Max=1.48D-08 NDo=     1
 LinEq1:  Iter= 14 NonCon=     1 RMS=3.15D-10 Max=2.93D-09 NDo=     1
 LinEq1:  Iter= 15 NonCon=     0 RMS=5.24D-11 Max=3.88D-10 NDo=     1
 Linear equations converged to 1.000D-10 1.000D-09 after    15 iterations.
 End of Minotr F.D. properties file   721 does not exist.
 End of Minotr F.D. properties file   722 does not exist.
 End of Minotr F.D. properties file   788 does not exist.
 Calling FoFJK, ICntrl=  10002127 FMM=F ISym2X=0 I1Cent= 0 IOpClX= 0 NMat=1 NMatS=1 NMatT=0.
 ***** Axes restored to original set *****
 -------------------------------------------------------------------
 Center     Atomic                   Forces (Hartrees/Bohr)
 Number     Number              X              Y              Z
 -------------------------------------------------------------------
      1        6          -0.000384545   -0.004757155   -0.000839747
      2        6           0.001542542    0.005876958    0.001081529
      3        6          -0.001342825    0.004605473    0.000742375
      4        1           0.000593482    0.000626771    0.000133288
      5        8          -0.001362510   -0.004846346   -0.000895783
      6        1          -0.000473840   -0.001769553   -0.000326086
      7        1          -0.000474511    0.000811008    0.000120788
      8        8           0.001819383   -0.000743559   -0.000053342
      9        1           0.000082824    0.000196402    0.000036977
 -------------------------------------------------------------------
 Cartesian Forces:  Max     0.005876958 RMS     0.002110969

 GradGradGradGradGradGradGradGradGradGradGradGradGradGradGradGradGradGrad
 Berny optimization.
 Using GEDIIS/GDIIS optimizer.
 FormGI is forming the generalized inverse of G from B-inverse, IUseBI=4.
 Internal  Forces:  Max     0.004322753 RMS     0.001361509
 Search for a local minimum.
 Step number   2 out of a maximum of   38
 All quantities printed in internal units (Hartrees-Bohrs-Radians)
 Mixed Optimization -- RFO/linear search
 Update second derivatives using D2CorX and points    1    2
 DE= -1.41D-03 DEPred=-1.41D-03 R= 9.99D-01
 TightC=F SS=  1.41D+00  RLast= 9.30D-02 DXNew= 5.0454D-01 2.7896D-01
 Trust test= 9.99D-01 RLast= 9.30D-02 DXMaxT set to 3.00D-01
 ITU=  1  0
 Use linear search instead of GDIIS.
     Eigenvalues ---    0.01023   0.01023   0.02018   0.02103   0.02694
     Eigenvalues ---    0.02938   0.14472   0.16000   0.16000   0.16332
     Eigenvalues ---    0.21868   0.22000   0.22816   0.32684   0.34450
     Eigenvalues ---    0.35370   0.37326   0.49351   0.52982   0.62314
     Eigenvalues ---    0.92460
 RFO step:  Lambda=-1.65362433D-04 EMin= 1.02282043D-02
 Quartic linear search produced a step of  0.02252.
 Iteration  1 RMS(Cart)=  0.00809608 RMS(Int)=  0.00003708
 Iteration  2 RMS(Cart)=  0.00003521 RMS(Int)=  0.00000000
 Iteration  3 RMS(Cart)=  0.00000000 RMS(Int)=  0.00000000
 Variable       Old X    -DE/DX   Delta X   Delta X   Delta X     New X
                                 (Linear)    (Quad)   (Total)
    R1        2.56725  -0.00064   0.00097   0.00045   0.00142   2.56867
    R2        2.80195  -0.00414   0.00009  -0.01210  -0.01201   2.78994
    R3        2.06996  -0.00020   0.00062   0.00044   0.00106   2.07102
    R4        2.57813  -0.00432  -0.00020  -0.00895  -0.00915   2.56898
    R5        2.06301   0.00046   0.00025   0.00175   0.00201   2.06502
    R6        2.32637   0.00190   0.00032   0.00260   0.00292   2.32929
    R7        2.10718  -0.00016   0.00053   0.00039   0.00092   2.10810
    R8        1.83284   0.00079  -0.00010   0.00136   0.00126   1.83410
    A1        2.09875  -0.00081   0.00016  -0.00349  -0.00332   2.09543
    A2        2.12653  -0.00047  -0.00057  -0.00469  -0.00527   2.12126
    A3        2.05790   0.00128   0.00041   0.00818   0.00859   2.06649
    A4        2.21075  -0.00028   0.00071  -0.00012   0.00059   2.21134
    A5        2.13166  -0.00172  -0.00080  -0.01255  -0.01335   2.11831
    A6        1.94078   0.00200   0.00008   0.01267   0.01276   1.95354
    A7        2.18493  -0.00066   0.00050  -0.00224  -0.00174   2.18319
    A8        2.00395   0.00017   0.00019   0.00084   0.00103   2.00498
    A9        2.09431   0.00049  -0.00069   0.00139   0.00071   2.09502
   A10        1.89823   0.00095  -0.00035   0.00548   0.00513   1.90335
    D1       -3.14159  -0.00000   0.00000  -0.00000  -0.00000  -3.14159
    D2        0.00000   0.00000   0.00000   0.00000   0.00000   0.00000
    D3       -0.00000   0.00000  -0.00000   0.00000   0.00000  -0.00000
    D4        3.14158   0.00000  -0.00000   0.00000   0.00000   3.14159
    D5       -0.00005  -0.00000   0.00000  -0.00000  -0.00000  -0.00005
    D6        3.14154   0.00000   0.00000   0.00004   0.00004   3.14158
    D7        3.14155  -0.00000   0.00000  -0.00001  -0.00000   3.14155
    D8       -0.00005   0.00000   0.00000   0.00004   0.00004  -0.00000
    D9       -0.00001   0.00000   0.00000   0.00000   0.00000  -0.00001
   D10        3.14158   0.00000   0.00000   0.00000   0.00000   3.14159
         Item               Value     Threshold  Converged?
 Maximum Force            0.004323     0.000450     NO 
 RMS     Force            0.001362     0.000300     NO 
 Maximum Displacement     0.025287     0.001800     NO 
 RMS     Displacement     0.008100     0.001200     NO 
 Predicted change in Energy=-8.317920D-05
 GradGradGradGradGradGradGradGradGradGradGradGradGradGradGradGradGradGrad

                          Input orientation:                          
 ---------------------------------------------------------------------
 Center     Atomic      Atomic             Coordinates (Angstroms)
 Number     Number       Type             X           Y           Z
 ---------------------------------------------------------------------
      1          6           0       -2.664275    0.138945   -0.205636
      2          6           0       -1.473400    0.774579   -0.046148
      3          6           0       -2.698325   -1.315161   -0.458794
      4          1           0       -3.615217    0.681004   -0.151264
      5          8           0       -1.285216    2.099866    0.191113
      6          1           0       -0.526815    0.231344   -0.100898
      7          1           0       -2.149135    2.540328    0.231497
      8          8           0       -1.707164   -2.042973   -0.543700
      9          1           0       -3.720084   -1.747292   -0.576017
 ---------------------------------------------------------------------
                    Distance matrix (angstroms):
                    1          2          3          4          5
     1  C    0.000000
     2  C    1.359283   0.000000
     3  C    1.476371   2.457180   0.000000
     4  H    1.095936   2.146436   2.218094   0.000000
     5  O    2.429903   1.359445   3.752555   2.749418   0.000000
     6  H    2.142018   1.092760   2.689837   3.121371   2.037601
     7  H    2.494613   1.910909   3.955111   2.398539   0.970563
     8  O    2.406473   2.870680   1.232606   3.348839   4.228606
     9  H    2.193126   3.418799   1.115558   2.467394   4.617109
                    6          7          8          9
     6  H    0.000000
     7  H    2.841446   0.000000
     8  O    2.600349   4.669359   0.000000
     9  H    3.786516   4.637202   2.034777   0.000000
 Stoichiometry    C3H4O2
 Framework group  C1[X(C3H4O2)]
 Deg. of freedom    21
 Full point group                 C1      NOp   1
 Largest Abelian subgroup         C1      NOp   1
 Largest concise Abelian subgroup C1      NOp   1
                         Standard orientation:                         
 ---------------------------------------------------------------------
 Center     Atomic      Atomic             Coordinates (Angstroms)
 Number     Number       Type             X           Y           Z
 ---------------------------------------------------------------------
      1          6           0       -0.004040    0.706618   -0.000004
      2          6           0        0.882726   -0.323575    0.000008
      3          6           0       -1.454924    0.433475    0.000014
      4          1           0        0.329883    1.750444   -0.000020
      5          8           0        2.238825   -0.228252   -0.000001
      6          1           0        0.546702   -1.363388    0.000029
      7          1           0        2.490572    0.709093   -0.000024
      8          8           0       -1.964625   -0.688810   -0.000012
      9          1           0       -2.103341    1.341233    0.000015
 ---------------------------------------------------------------------
 Rotational constants (GHZ):          20.1209574           2.6915055           2.3739510
 Standard basis: Aug-CC-pVDZ (5D, 7F)
 There are   161 symmetry adapted cartesian basis functions of A   symmetry.
 There are   151 symmetry adapted basis functions of A   symmetry.
   151 basis functions,   259 primitive gaussians,   161 cartesian basis functions
    19 alpha electrons       19 beta electrons
       nuclear repulsion energy       154.7535618689 Hartrees.
 NAtoms=    9 NActive=    9 NUniq=    9 SFac= 1.00D+00 NAtFMM=   60 NAOKFM=F Big=F
 Integral buffers will be    131072 words long.
 Raffenetti 1 integral format.
 Two-electron integral symmetry is turned on.
 One-electron integrals computed using PRISM.
 NBasis=   151 RedAO= T EigKep=  4.02D-05  NBF=   151
 NBsUse=   151 1.00D-06 EigRej= -1.00D+00 NBFU=   151
 Initial guess from the checkpoint file:  "/gscratch/scrubbed/gds001/Gau-1267.chk"
 B after Tr=    -0.000000    0.000000    0.000000
         Rot=    1.000000    0.000000    0.000000    0.000127 Ang=   0.01 deg.
 ExpMin= 2.97D-02 ExpMax= 1.17D+04 ExpMxC= 4.01D+02 IAcc=3 IRadAn=         5 AccDes= 0.00D+00
 Harris functional with IExCor=  205 and IRadAn=       5 diagonalized for initial guess.
 HarFok:  IExCor=  205 AccDes= 0.00D+00 IRadAn=         5 IDoV= 1 UseB2=F ITyADJ=14
 ICtDFT=  3500011 ScaDFX=  1.000000  1.000000  1.000000  1.000000
 FoFCou: FMM=F IPFlag=           0 FMFlag=      100000 FMFlg1=           0
         NFxFlg=           0 DoJE=T BraDBF=F KetDBF=T FulRan=T
         wScrn=  0.000000 ICntrl=       500 IOpCl=  0 I1Cent=   200000004 NGrid=           0
         NMat0=    1 NMatS0=      1 NMatT0=    0 NMatD0=    1 NMtDS0=    0 NMtDT0=    0
 Petite list used in FoFCou.
 Keep R1 ints in memory in canonical form, NReq=71984425.
 Requested convergence on RMS density matrix=1.00D-08 within 128 cycles.
 Requested convergence on MAX density matrix=1.00D-06.
 Requested convergence on             energy=1.00D-06.
 No special actions if energy rises.
 SCF Done:  E(RHF) =  -265.662583117     A.U. after   11 cycles
            NFock= 11  Conv=0.59D-08     -V/T= 2.0022
 ExpMin= 2.97D-02 ExpMax= 1.17D+04 ExpMxC= 4.01D+02 IAcc=3 IRadAn=         5 AccDes= 0.00D+00
 HarFok:  IExCor=  205 AccDes= 0.00D+00 IRadAn=         5 IDoV=-2 UseB2=F ITyADJ=14
 ICtDFT= 12500011 ScaDFX=  1.000000  1.000000  1.000000  1.000000
 Range of M.O.s used for correlation:     6   151
 NBasis=   151 NAE=    19 NBE=    19 NFC=     5 NFV=     0
 NROrb=    146 NOA=    14 NOB=    14 NVA=   132 NVB=   132

 **** Warning!!: The largest alpha MO coefficient is  0.39100814D+02

 Fully direct method using O(ONN) memory.
 JobTyp=1 Pass  1:  I=   6 to  19 NPSUse= 28 ParTrn=T ParDer=T DoDerP=T.
 Spin components of T(2) and E(2):
     alpha-alpha T2 =       0.3440726598D-01 E2=     -0.1045470427D+00
     alpha-beta  T2 =       0.1908268660D+00 E2=     -0.5906716731D+00
     beta-beta   T2 =       0.3440726598D-01 E2=     -0.1045470427D+00
 ANorm=    0.1122337471D+01
 E2 =    -0.7997657586D+00 EUMP2 =    -0.26646234887546D+03
          IDoAtm=111111111
          Differentiating once with respect to electric field.
                with respect to dipole field.
          Differentiating once with respect to nuclear coordinates.
 Keep R1 ints in memory in canonical form, NReq=71990275.
          There are     1 degrees of freedom in the 1st order CPHF.  IDoFFX=0 NUNeed=     1.
 LinEq1:  Iter=  0 NonCon=     1 RMS=5.70D-03 Max=1.13D-01 NDo=     1
 AX will form     1 AO Fock derivatives at one time.
 LinEq1:  Iter=  1 NonCon=     1 RMS=1.79D-03 Max=2.88D-02 NDo=     1
 LinEq1:  Iter=  2 NonCon=     1 RMS=6.60D-04 Max=1.06D-02 NDo=     1
 LinEq1:  Iter=  3 NonCon=     1 RMS=2.49D-04 Max=3.38D-03 NDo=     1
 LinEq1:  Iter=  4 NonCon=     1 RMS=8.81D-05 Max=1.01D-03 NDo=     1
 LinEq1:  Iter=  5 NonCon=     1 RMS=3.31D-05 Max=6.70D-04 NDo=     1
 LinEq1:  Iter=  6 NonCon=     1 RMS=1.22D-05 Max=2.67D-04 NDo=     1
 LinEq1:  Iter=  7 NonCon=     1 RMS=3.77D-06 Max=5.67D-05 NDo=     1
 LinEq1:  Iter=  8 NonCon=     1 RMS=1.37D-06 Max=2.41D-05 NDo=     1
 LinEq1:  Iter=  9 NonCon=     1 RMS=3.62D-07 Max=3.19D-06 NDo=     1
 LinEq1:  Iter= 10 NonCon=     1 RMS=7.26D-08 Max=5.69D-07 NDo=     1
 LinEq1:  Iter= 11 NonCon=     1 RMS=2.09D-08 Max=3.88D-07 NDo=     1
 LinEq1:  Iter= 12 NonCon=     1 RMS=5.51D-09 Max=6.29D-08 NDo=     1
 LinEq1:  Iter= 13 NonCon=     1 RMS=1.57D-09 Max=1.47D-08 NDo=     1
 LinEq1:  Iter= 14 NonCon=     1 RMS=3.16D-10 Max=2.90D-09 NDo=     1
 LinEq1:  Iter= 15 NonCon=     0 RMS=5.24D-11 Max=3.81D-10 NDo=     1
 Linear equations converged to 1.000D-10 1.000D-09 after    15 iterations.
 End of Minotr F.D. properties file   721 does not exist.
 End of Minotr F.D. properties file   722 does not exist.
 End of Minotr F.D. properties file   788 does not exist.
 Calling FoFJK, ICntrl=  10002127 FMM=F ISym2X=0 I1Cent= 0 IOpClX= 0 NMat=1 NMatS=1 NMatT=0.
 ***** Axes restored to original set *****
 -------------------------------------------------------------------
 Center     Atomic                   Forces (Hartrees/Bohr)
 Number     Number              X              Y              Z
 -------------------------------------------------------------------
      1        6          -0.000160514   -0.000393599   -0.000073479
      2        6           0.000374114    0.001833823    0.000333123
      3        6          -0.000977209    0.000760402    0.000086385
      4        1           0.000570937   -0.000128587    0.000001600
      5        8          -0.000419202   -0.001766221   -0.000323433
      6        1          -0.000336555   -0.000173889   -0.000044069
      7        1           0.000012515    0.000099466    0.000017817
      8        8           0.000432530   -0.000256564   -0.000024687
      9        1           0.000503384    0.000025169    0.000026742
 -------------------------------------------------------------------
 Cartesian Forces:  Max     0.001833823 RMS     0.000600833

 GradGradGradGradGradGradGradGradGradGradGradGradGradGradGradGradGradGrad
 Berny optimization.
 Using GEDIIS/GDIIS optimizer.
 FormGI is forming the generalized inverse of G from B-inverse, IUseBI=4.
 Internal  Forces:  Max     0.001734511 RMS     0.000409640
 Search for a local minimum.
 Step number   3 out of a maximum of   38
 All quantities printed in internal units (Hartrees-Bohrs-Radians)
 Mixed Optimization -- En-DIIS/RFO-DIIS
 Update second derivatives using D2CorX and points    1    2    3
 DE= -1.01D-04 DEPred=-8.32D-05 R= 1.22D+00
 TightC=F SS=  1.41D+00  RLast= 2.70D-02 DXNew= 5.0454D-01 8.1098D-02
 Trust test= 1.22D+00 RLast= 2.70D-02 DXMaxT set to 3.00D-01
 ITU=  1  1  0
 Use linear search instead of GDIIS.
     Eigenvalues ---    0.01023   0.01023   0.02011   0.02103   0.02690
     Eigenvalues ---    0.02938   0.12674   0.16000   0.16037   0.16531
     Eigenvalues ---    0.21764   0.22031   0.22818   0.33709   0.33926
     Eigenvalues ---    0.35387   0.36732   0.45366   0.53090   0.61510
     Eigenvalues ---    0.92106
 RFO step:  Lambda=-6.52505751D-06 EMin= 1.02281988D-02
 Quartic linear search produced a step of  0.26363.
 Iteration  1 RMS(Cart)=  0.00244194 RMS(Int)=  0.00000350
 Iteration  2 RMS(Cart)=  0.00000326 RMS(Int)=  0.00000001
 Iteration  3 RMS(Cart)=  0.00000000 RMS(Int)=  0.00000001
 Variable       Old X    -DE/DX   Delta X   Delta X   Delta X     New X
                                 (Linear)    (Quad)   (Total)
    R1        2.56867  -0.00033   0.00038  -0.00028   0.00010   2.56877
    R2        2.78994  -0.00054  -0.00317   0.00085  -0.00232   2.78762
    R3        2.07102  -0.00056   0.00028  -0.00171  -0.00143   2.06959
    R4        2.56898  -0.00173  -0.00241  -0.00234  -0.00475   2.56423
    R5        2.06502  -0.00020   0.00053  -0.00098  -0.00045   2.06457
    R6        2.32929   0.00050   0.00077   0.00026   0.00103   2.33032
    R7        2.10810  -0.00047   0.00024  -0.00158  -0.00134   2.10676
    R8        1.83410   0.00003   0.00033  -0.00028   0.00005   1.83415
    A1        2.09543  -0.00010  -0.00088   0.00030  -0.00058   2.09485
    A2        2.12126  -0.00013  -0.00139  -0.00036  -0.00175   2.11951
    A3        2.06649   0.00023   0.00226   0.00006   0.00233   2.06882
    A4        2.21134   0.00005   0.00016   0.00072   0.00088   2.21221
    A5        2.11831  -0.00036  -0.00352  -0.00033  -0.00385   2.11446
    A6        1.95354   0.00031   0.00336  -0.00039   0.00298   1.95651
    A7        2.18319  -0.00020  -0.00046  -0.00036  -0.00081   2.18238
    A8        2.00498   0.00028   0.00027   0.00193   0.00221   2.00718
    A9        2.09502  -0.00008   0.00019  -0.00158  -0.00139   2.09362
   A10        1.90335   0.00018   0.00135  -0.00008   0.00127   1.90463
    D1       -3.14159  -0.00000  -0.00000  -0.00001  -0.00001   3.14159
    D2        0.00000  -0.00000   0.00000  -0.00000  -0.00000   0.00000
    D3       -0.00000  -0.00000   0.00000  -0.00000  -0.00000  -0.00001
    D4        3.14159   0.00000   0.00000   0.00000   0.00000   3.14159
    D5       -0.00005   0.00000  -0.00000   0.00021   0.00021   0.00016
    D6        3.14158  -0.00000   0.00001  -0.00018  -0.00017   3.14141
    D7        3.14155   0.00000  -0.00000   0.00021   0.00021  -3.14143
    D8       -0.00000  -0.00000   0.00001  -0.00019  -0.00018  -0.00018
    D9       -0.00001   0.00000   0.00000   0.00001   0.00001  -0.00000
   D10        3.14159   0.00000   0.00000   0.00000   0.00000   3.14159
         Item               Value     Threshold  Converged?
 Maximum Force            0.001735     0.000450     NO 
 RMS     Force            0.000410     0.000300     NO 
 Maximum Displacement     0.005978     0.001800     NO 
 RMS     Displacement     0.002442     0.001200     NO 
 Predicted change in Energy=-7.968882D-06
 GradGradGradGradGradGradGradGradGradGradGradGradGradGradGradGradGradGrad

                          Input orientation:                          
 ---------------------------------------------------------------------
 Center     Atomic      Atomic             Coordinates (Angstroms)
 Number     Number       Type             X           Y           Z
 ---------------------------------------------------------------------
      1          6           0       -2.665166    0.139301   -0.205653
      2          6           0       -1.474298    0.775051   -0.046121
      3          6           0       -2.698217   -1.313615   -0.458623
      4          1           0       -3.614544    0.682540   -0.150992
      5          8           0       -1.285395    2.097722    0.190763
      6          1           0       -0.529978    0.228435   -0.101573
      7          1           0       -2.148426    2.539947    0.231509
      8          8           0       -1.705550   -2.040349   -0.543095
      9          1           0       -3.718056   -1.748390   -0.576063
 ---------------------------------------------------------------------
                    Distance matrix (angstroms):
                    1          2          3          4          5
     1  C    0.000000
     2  C    1.359336   0.000000
     3  C    1.475145   2.455740   0.000000
     4  H    1.095177   2.144809   2.217865   0.000000
     5  O    2.428235   1.356930   3.748998   2.746720   0.000000
     6  H    2.139581   1.092522   2.684523   3.118204   2.037241
     7  H    2.494239   1.909551   3.953289   2.397033   0.970590
     8  O    2.405329   2.868264   1.233153   3.348452   4.223590
     9  H    2.192980   3.418046   1.114851   2.469984   4.615024
                    6          7          8          9
     6  H    0.000000
     7  H    2.841374   0.000000
     8  O    2.593124   4.666397   0.000000
     9  H    3.781113   4.637429   2.033841   0.000000
 Stoichiometry    C3H4O2
 Framework group  C1[X(C3H4O2)]
 Deg. of freedom    21
 Full point group                 C1      NOp   1
 Largest Abelian subgroup         C1      NOp   1
 Largest concise Abelian subgroup C1      NOp   1
                         Standard orientation:                         
 ---------------------------------------------------------------------
 Center     Atomic      Atomic             Coordinates (Angstroms)
 Number     Number       Type             X           Y           Z
 ---------------------------------------------------------------------
      1          6           0       -0.004148    0.707523   -0.000011
      2          6           0        0.882526   -0.322818   -0.000024
      3          6           0       -1.453702    0.433949   -0.000065
      4          1           0        0.331497    1.749999    0.000043
      5          8           0        2.236210   -0.229025    0.000017
      6          1           0        0.542443   -1.361062   -0.000075
      7          1           0        2.490092    0.707771    0.000058
      8          8           0       -1.962206   -0.689479    0.000037
      9          1           0       -2.104121    1.339404    0.000137
 ---------------------------------------------------------------------
 Rotational constants (GHZ):          20.1047559           2.6970880           2.3780663
 Standard basis: Aug-CC-pVDZ (5D, 7F)
 There are   161 symmetry adapted cartesian basis functions of A   symmetry.
 There are   151 symmetry adapted basis functions of A   symmetry.
   151 basis functions,   259 primitive gaussians,   161 cartesian basis functions
    19 alpha electrons       19 beta electrons
       nuclear repulsion energy       154.8498344326 Hartrees.
 NAtoms=    9 NActive=    9 NUniq=    9 SFac= 1.00D+00 NAtFMM=   60 NAOKFM=F Big=F
 Integral buffers will be    131072 words long.
 Raffenetti 1 integral format.
 Two-electron integral symmetry is turned on.
 One-electron integrals computed using PRISM.
 NBasis=   151 RedAO= T EigKep=  4.01D-05  NBF=   151
 NBsUse=   151 1.00D-06 EigRej= -1.00D+00 NBFU=   151
 Initial guess from the checkpoint file:  "/gscratch/scrubbed/gds001/Gau-1267.chk"
 B after Tr=     0.000000    0.000000   -0.000000
         Rot=    1.000000   -0.000000    0.000000    0.000016 Ang=  -0.00 deg.
 Keep R1 ints in memory in canonical form, NReq=71984425.
 Requested convergence on RMS density matrix=1.00D-08 within 128 cycles.
 Requested convergence on MAX density matrix=1.00D-06.
 Requested convergence on             energy=1.00D-06.
 No special actions if energy rises.
 SCF Done:  E(RHF) =  -265.662707399     A.U. after   10 cycles
            NFock= 10  Conv=0.62D-08     -V/T= 2.0022
 ExpMin= 2.97D-02 ExpMax= 1.17D+04 ExpMxC= 4.01D+02 IAcc=3 IRadAn=         5 AccDes= 0.00D+00
 HarFok:  IExCor=  205 AccDes= 0.00D+00 IRadAn=         5 IDoV=-2 UseB2=F ITyADJ=14
 ICtDFT= 12500011 ScaDFX=  1.000000  1.000000  1.000000  1.000000
 Range of M.O.s used for correlation:     6   151
 NBasis=   151 NAE=    19 NBE=    19 NFC=     5 NFV=     0
 NROrb=    146 NOA=    14 NOB=    14 NVA=   132 NVB=   132

 **** Warning!!: The largest alpha MO coefficient is  0.38641182D+02

 Fully direct method using O(ONN) memory.
 JobTyp=1 Pass  1:  I=   6 to  19 NPSUse= 28 ParTrn=T ParDer=T DoDerP=T.
 Spin components of T(2) and E(2):
     alpha-alpha T2 =       0.3439661821D-01 E2=     -0.1045488578D+00
     alpha-beta  T2 =       0.1907069557D+00 E2=     -0.5905518002D+00
     beta-beta   T2 =       0.3439661821D-01 E2=     -0.1045488578D+00
 ANorm=    0.1122274562D+01
 E2 =    -0.7996495159D+00 EUMP2 =    -0.26646235691491D+03
          IDoAtm=111111111
          Differentiating once with respect to electric field.
                with respect to dipole field.
          Differentiating once with respect to nuclear coordinates.
 Keep R1 ints in memory in canonical form, NReq=71990451.
          There are     1 degrees of freedom in the 1st order CPHF.  IDoFFX=0 NUNeed=     1.
 LinEq1:  Iter=  0 NonCon=     1 RMS=5.70D-03 Max=1.13D-01 NDo=     1
 AX will form     1 AO Fock derivatives at one time.
 LinEq1:  Iter=  1 NonCon=     1 RMS=1.79D-03 Max=2.88D-02 NDo=     1
 LinEq1:  Iter=  2 NonCon=     1 RMS=6.61D-04 Max=1.07D-02 NDo=     1
 LinEq1:  Iter=  3 NonCon=     1 RMS=2.49D-04 Max=3.41D-03 NDo=     1
 LinEq1:  Iter=  4 NonCon=     1 RMS=8.84D-05 Max=1.01D-03 NDo=     1
 LinEq1:  Iter=  5 NonCon=     1 RMS=3.32D-05 Max=6.72D-04 NDo=     1
 LinEq1:  Iter=  6 NonCon=     1 RMS=1.22D-05 Max=2.65D-04 NDo=     1
 LinEq1:  Iter=  7 NonCon=     1 RMS=3.77D-06 Max=5.69D-05 NDo=     1
 LinEq1:  Iter=  8 NonCon=     1 RMS=1.37D-06 Max=2.40D-05 NDo=     1
 LinEq1:  Iter=  9 NonCon=     1 RMS=3.61D-07 Max=3.20D-06 NDo=     1
 LinEq1:  Iter= 10 NonCon=     1 RMS=7.24D-08 Max=5.79D-07 NDo=     1
 LinEq1:  Iter= 11 NonCon=     1 RMS=2.09D-08 Max=3.88D-07 NDo=     1
 LinEq1:  Iter= 12 NonCon=     1 RMS=5.53D-09 Max=6.31D-08 NDo=     1
 LinEq1:  Iter= 13 NonCon=     1 RMS=1.57D-09 Max=1.46D-08 NDo=     1
 LinEq1:  Iter= 14 NonCon=     1 RMS=3.16D-10 Max=2.88D-09 NDo=     1
 LinEq1:  Iter= 15 NonCon=     0 RMS=5.23D-11 Max=3.77D-10 NDo=     1
 Linear equations converged to 1.000D-10 1.000D-09 after    15 iterations.
 End of Minotr F.D. properties file   721 does not exist.
 End of Minotr F.D. properties file   722 does not exist.
 End of Minotr F.D. properties file   788 does not exist.
 Calling FoFJK, ICntrl=  10002127 FMM=F ISym2X=0 I1Cent= 0 IOpClX= 0 NMat=1 NMatS=1 NMatT=0.
 ***** Axes restored to original set *****
 -------------------------------------------------------------------
 Center     Atomic                   Forces (Hartrees/Bohr)
 Number     Number              X              Y              Z
 -------------------------------------------------------------------
      1        6           0.000077866    0.000151670    0.000019604
      2        6          -0.000002481   -0.000034840   -0.000008016
      3        6          -0.000203127   -0.000078256    0.000017269
      4        1          -0.000007668   -0.000037808   -0.000007865
      5        8          -0.000086665   -0.000070255   -0.000014344
      6        1           0.000017848   -0.000008181   -0.000000697
      7        1           0.000034676    0.000060044    0.000011667
      8        8           0.000074476   -0.000016086   -0.000013791
      9        1           0.000095075    0.000033712   -0.000003828
 -------------------------------------------------------------------
 Cartesian Forces:  Max     0.000203127 RMS     0.000065018

 GradGradGradGradGradGradGradGradGradGradGradGradGradGradGradGradGradGrad
 Berny optimization.
 Using GEDIIS/GDIIS optimizer.
 FormGI is forming the generalized inverse of G from B-inverse, IUseBI=4.
 Internal  Forces:  Max     0.000128846 RMS     0.000041399
 Search for a local minimum.
 Step number   4 out of a maximum of   38
 All quantities printed in internal units (Hartrees-Bohrs-Radians)
 Mixed Optimization -- En-DIIS/RFO-DIIS
 Swapping is turned off.
 Update second derivatives using D2CorX and points    1    2    3    4
 DE= -8.04D-06 DEPred=-7.97D-06 R= 1.01D+00
 TightC=F SS=  1.41D+00  RLast= 8.70D-03 DXNew= 5.0454D-01 2.6088D-02
 Trust test= 1.01D+00 RLast= 8.70D-03 DXMaxT set to 3.00D-01
 ITU=  1  1  1  0
     Eigenvalues ---    0.01023   0.01024   0.02009   0.02103   0.02689
     Eigenvalues ---    0.02938   0.12699   0.16000   0.16106   0.16604
     Eigenvalues ---    0.21668   0.21996   0.22883   0.33143   0.34811
     Eigenvalues ---    0.35390   0.36326   0.45214   0.53105   0.60675
     Eigenvalues ---    0.91690
 En-DIIS/RFO-DIIS/Sim-DIIS IScMMF=       -3 using points:     4    3
 RFO step:  Lambda=-2.67809947D-07.
 DidBck=F Rises=F RFO-DIIS coefs:    1.00984   -0.00984
 Iteration  1 RMS(Cart)=  0.00052141 RMS(Int)=  0.00000051
 Iteration  2 RMS(Cart)=  0.00000043 RMS(Int)=  0.00000031
 Variable       Old X    -DE/DX   Delta X   Delta X   Delta X     New X
                                 (Linear)    (Quad)   (Total)
    R1        2.56877  -0.00006   0.00000  -0.00009  -0.00009   2.56868
    R2        2.78762   0.00006  -0.00002   0.00018   0.00016   2.78777
    R3        2.06959  -0.00001  -0.00001  -0.00003  -0.00005   2.06954
    R4        2.56423  -0.00002  -0.00005  -0.00005  -0.00009   2.56413
    R5        2.06457   0.00002  -0.00000   0.00006   0.00005   2.06462
    R6        2.33032   0.00007   0.00001   0.00008   0.00009   2.33041
    R7        2.10676  -0.00010  -0.00001  -0.00030  -0.00031   2.10645
    R8        1.83415  -0.00000   0.00000  -0.00001  -0.00001   1.83414
    A1        2.09485  -0.00002  -0.00001  -0.00011  -0.00011   2.09474
    A2        2.11951   0.00005  -0.00002   0.00029   0.00027   2.11978
    A3        2.06882  -0.00003   0.00002  -0.00018  -0.00016   2.06866
    A4        2.21221  -0.00000   0.00001   0.00001   0.00002   2.21223
    A5        2.11446   0.00000  -0.00004  -0.00000  -0.00004   2.11442
    A6        1.95651  -0.00000   0.00003  -0.00001   0.00002   1.95654
    A7        2.18238  -0.00005  -0.00001  -0.00023  -0.00024   2.18214
    A8        2.00718   0.00003   0.00002   0.00018   0.00020   2.00739
    A9        2.09362   0.00002  -0.00001   0.00005   0.00003   2.09366
   A10        1.90463   0.00013   0.00001   0.00081   0.00082   1.90545
    D1        3.14159   0.00000  -0.00000   0.00003   0.00003  -3.14156
    D2        0.00000   0.00000  -0.00000   0.00000   0.00000   0.00000
    D3       -0.00001   0.00000  -0.00000   0.00004   0.00004   0.00003
    D4        3.14159   0.00000   0.00000   0.00000   0.00000  -3.14159
    D5        0.00016  -0.00001   0.00000  -0.00131  -0.00130  -0.00115
    D6        3.14141   0.00001  -0.00000   0.00126   0.00126  -3.14052
    D7       -3.14143  -0.00001   0.00000  -0.00131  -0.00131   3.14045
    D8       -0.00018   0.00001  -0.00000   0.00126   0.00126   0.00108
    D9       -0.00000  -0.00000   0.00000  -0.00002  -0.00002  -0.00002
   D10        3.14159   0.00000   0.00000   0.00001   0.00001  -3.14159
         Item               Value     Threshold  Converged?
 Maximum Force            0.000129     0.000450     YES
 RMS     Force            0.000041     0.000300     YES
 Maximum Displacement     0.001286     0.001800     YES
 RMS     Displacement     0.000521     0.001200     YES
 Predicted change in Energy=-1.338929D-07
 Optimization completed.
    -- Stationary point found.
                           ----------------------------
                           !   Optimized Parameters   !
                           ! (Angstroms and Degrees)  !
 --------------------------                            --------------------------
 ! Name  Definition              Value          Derivative Info.                !
 --------------------------------------------------------------------------------
 ! R1    R(1,2)                  1.3593         -DE/DX =   -0.0001              !
 ! R2    R(1,3)                  1.4751         -DE/DX =    0.0001              !
 ! R3    R(1,4)                  1.0952         -DE/DX =    0.0                 !
 ! R4    R(2,5)                  1.3569         -DE/DX =    0.0                 !
 ! R5    R(2,6)                  1.0925         -DE/DX =    0.0                 !
 ! R6    R(3,8)                  1.2332         -DE/DX =    0.0001              !
 ! R7    R(3,9)                  1.1149         -DE/DX =   -0.0001              !
 ! R8    R(5,7)                  0.9706         -DE/DX =    0.0                 !
 ! A1    A(2,1,3)              120.0263         -DE/DX =    0.0                 !
 ! A2    A(2,1,4)              121.439          -DE/DX =    0.0001              !
 ! A3    A(3,1,4)              118.5347         -DE/DX =    0.0                 !
 ! A4    A(1,2,5)              126.7505         -DE/DX =    0.0                 !
 ! A5    A(1,2,6)              121.1494         -DE/DX =    0.0                 !
 ! A6    A(5,2,6)              112.1            -DE/DX =    0.0                 !
 ! A7    A(1,3,8)              125.0409         -DE/DX =   -0.0001              !
 ! A8    A(1,3,9)              115.0032         -DE/DX =    0.0                 !
 ! A9    A(8,3,9)              119.9559         -DE/DX =    0.0                 !
 ! A10   A(2,5,7)              109.1271         -DE/DX =    0.0001              !
 ! D1    D(3,1,2,5)           -180.0002         -DE/DX =    0.0                 !
 ! D2    D(3,1,2,6)              0.0001         -DE/DX =    0.0                 !
 ! D3    D(4,1,2,5)             -0.0004         -DE/DX =    0.0                 !
 ! D4    D(4,1,2,6)           -180.0002         -DE/DX =    0.0                 !
 ! D5    D(2,1,3,8)              0.0091         -DE/DX =    0.0                 !
 ! D6    D(2,1,3,9)           -180.0106         -DE/DX =    0.0                 !
 ! D7    D(4,1,3,8)            180.0093         -DE/DX =    0.0                 !
 ! D8    D(4,1,3,9)             -0.0103         -DE/DX =    0.0                 !
 ! D9    D(1,2,5,7)              0.0            -DE/DX =    0.0                 !
 ! D10   D(6,2,5,7)           -180.0002         -DE/DX =    0.0                 !
 --------------------------------------------------------------------------------
 GradGradGradGradGradGradGradGradGradGradGradGradGradGradGradGradGradGrad

                          Input orientation:                          
 ---------------------------------------------------------------------
 Center     Atomic      Atomic             Coordinates (Angstroms)
 Number     Number       Type             X           Y           Z
 ---------------------------------------------------------------------
      1          6           0       -2.665166    0.139301   -0.205653
      2          6           0       -1.474298    0.775051   -0.046121
      3          6           0       -2.698217   -1.313615   -0.458623
      4          1           0       -3.614544    0.682540   -0.150992
      5          8           0       -1.285395    2.097722    0.190763
      6          1           0       -0.529978    0.228435   -0.101573
      7          1           0       -2.148426    2.539947    0.231509
      8          8           0       -1.705550   -2.040349   -0.543095
      9          1           0       -3.718056   -1.748390   -0.576063
 ---------------------------------------------------------------------
                    Distance matrix (angstroms):
                    1          2          3          4          5
     1  C    0.000000
     2  C    1.359336   0.000000
     3  C    1.475145   2.455740   0.000000
     4  H    1.095177   2.144809   2.217865   0.000000
     5  O    2.428235   1.356930   3.748998   2.746720   0.000000
     6  H    2.139581   1.092522   2.684523   3.118204   2.037241
     7  H    2.494239   1.909551   3.953289   2.397033   0.970590
     8  O    2.405329   2.868264   1.233153   3.348452   4.223590
     9  H    2.192980   3.418046   1.114851   2.469984   4.615024
                    6          7          8          9
     6  H    0.000000
     7  H    2.841374   0.000000
     8  O    2.593124   4.666397   0.000000
     9  H    3.781113   4.637429   2.033841   0.000000
 Stoichiometry    C3H4O2
 Framework group  C1[X(C3H4O2)]
 Deg. of freedom    21
 Full point group                 C1      NOp   1
 Largest Abelian subgroup         C1      NOp   1
 Largest concise Abelian subgroup C1      NOp   1
                         Standard orientation:                         
 ---------------------------------------------------------------------
 Center     Atomic      Atomic             Coordinates (Angstroms)
 Number     Number       Type             X           Y           Z
 ---------------------------------------------------------------------
      1          6           0       -0.004148    0.707523   -0.000011
      2          6           0        0.882526   -0.322818   -0.000024
      3          6           0       -1.453702    0.433949   -0.000065
      4          1           0        0.331497    1.749999    0.000043
      5          8           0        2.236210   -0.229025    0.000017
      6          1           0        0.542443   -1.361062   -0.000075
      7          1           0        2.490092    0.707771    0.000058
      8          8           0       -1.962206   -0.689479    0.000037
      9          1           0       -2.104121    1.339404    0.000137
 ---------------------------------------------------------------------
 Rotational constants (GHZ):          20.1047559           2.6970880           2.3780663

 **********************************************************************

            Population analysis using the SCF density.

 **********************************************************************

 Orbital symmetries:
       Occupied  (A) (A) (A) (A) (A) (A) (A) (A) (A) (A) (A) (A)
                 (A) (A) (A) (A) (A) (A) (A)
       Virtual   (A) (A) (A) (A) (A) (A) (A) (A) (A) (A) (A) (A)
                 (A) (A) (A) (A) (A) (A) (A) (A) (A) (A) (A) (A)
                 (A) (A) (A) (A) (A) (A) (A) (A) (A) (A) (A) (A)
                 (A) (A) (A) (A) (A) (A) (A) (A) (A) (A) (A) (A)
                 (A) (A) (A) (A) (A) (A) (A) (A) (A) (A) (A) (A)
                 (A) (A) (A) (A) (A) (A) (A) (A) (A) (A) (A) (A)
                 (A) (A) (A) (A) (A) (A) (A) (A) (A) (A) (A) (A)
                 (A) (A) (A) (A) (A) (A) (A) (A) (A) (A) (A) (A)
                 (A) (A) (A) (A) (A) (A) (A) (A) (A) (A) (A) (A)
                 (A) (A) (A) (A) (A) (A) (A) (A) (A) (A) (A) (A)
                 (A) (A) (A) (A) (A) (A) (A) (A) (A) (A) (A) (A)
 The electronic state is 1-A.
 Alpha  occ. eigenvalues --  -20.63981 -20.55629 -11.35373 -11.34743 -11.25040
 Alpha  occ. eigenvalues --   -1.44337  -1.37523  -1.06861  -0.90320  -0.81362
 Alpha  occ. eigenvalues --   -0.71512  -0.68845  -0.63780  -0.61030  -0.60123
 Alpha  occ. eigenvalues --   -0.56099  -0.52890  -0.42547  -0.36826
 Alpha virt. eigenvalues --    0.02468   0.04168   0.05230   0.06653   0.06810
 Alpha virt. eigenvalues --    0.10370   0.11155   0.12472   0.13068   0.13167
 Alpha virt. eigenvalues --    0.13989   0.14598   0.14882   0.16566   0.17802
 Alpha virt. eigenvalues --    0.21182   0.23406   0.23417   0.24823   0.25883
 Alpha virt. eigenvalues --    0.27360   0.28656   0.30639   0.30940   0.32185
 Alpha virt. eigenvalues --    0.33294   0.35639   0.36494   0.38050   0.38230
 Alpha virt. eigenvalues --    0.39999   0.41197   0.43761   0.43843   0.44755
 Alpha virt. eigenvalues --    0.47252   0.47629   0.51337   0.53934   0.55143
 Alpha virt. eigenvalues --    0.56206   0.59028   0.61914   0.62994   0.63189
 Alpha virt. eigenvalues --    0.63640   0.65658   0.66926   0.67761   0.67807
 Alpha virt. eigenvalues --    0.73137   0.73721   0.74242   0.76102   0.78313
 Alpha virt. eigenvalues --    0.78915   0.84752   0.85354   0.88019   0.88097
 Alpha virt. eigenvalues --    0.92379   0.94022   0.94389   0.99309   1.02958
 Alpha virt. eigenvalues --    1.07135   1.09000   1.13449   1.17778   1.20354
 Alpha virt. eigenvalues --    1.23354   1.25434   1.26448   1.29790   1.30061
 Alpha virt. eigenvalues --    1.35086   1.43328   1.46415   1.48409   1.49658
 Alpha virt. eigenvalues --    1.50946   1.56899   1.58512   1.60679   1.64578
 Alpha virt. eigenvalues --    1.67467   1.69280   1.71519   1.76213   1.77541
 Alpha virt. eigenvalues --    1.82091   1.84493   1.90431   1.94206   1.97973
 Alpha virt. eigenvalues --    1.98327   2.02422   2.03412   2.06402   2.09788
 Alpha virt. eigenvalues --    2.13153   2.13458   2.18013   2.19340   2.21794
 Alpha virt. eigenvalues --    2.31366   2.34475   2.38601   2.40726   2.42464
 Alpha virt. eigenvalues --    2.48436   2.59593   2.66688   2.71247   2.85036
 Alpha virt. eigenvalues --    2.88657   2.90707   3.03056   3.04329   3.23063
 Alpha virt. eigenvalues --    3.42811   3.55473   3.69007   3.71094   3.74539
 Alpha virt. eigenvalues --    3.78060   3.79929   3.82218   3.91658   4.03957
 Alpha virt. eigenvalues --    4.11923   4.28288
          Condensed to atoms (all electrons):
               1          2          3          4          5          6
     1  C    5.114569   0.236237   0.085047   0.105212  -0.065541  -0.092640
     2  C    0.236237   4.795209  -0.012777  -0.010459   0.009574   0.357226
     3  C    0.085047  -0.012777   4.972297  -0.139695  -0.000380  -0.064555
     4  H    0.105212  -0.010459  -0.139695   1.604745  -0.057511   0.046893
     5  O   -0.065541   0.009574  -0.000380  -0.057511   8.594628  -0.156758
     6  H   -0.092640   0.357226  -0.064555   0.046893  -0.156758   1.089459
     7  H    0.016391  -0.110322   0.013759   0.010348   0.331708   0.012637
     8  O   -0.010370  -0.056993   0.290915  -0.002195   0.003274   0.005467
     9  H    0.024854  -0.004905   0.247045  -0.065905   0.001966  -0.002856
               7          8          9
     1  C    0.016391  -0.010370   0.024854
     2  C   -0.110322  -0.056993  -0.004905
     3  C    0.013759   0.290915   0.247045
     4  H    0.010348  -0.002195  -0.065905
     5  O    0.331708   0.003274   0.001966
     6  H    0.012637   0.005467  -0.002856
     7  H    0.559514  -0.001985   0.000832
     8  O   -0.001985   8.572276  -0.062262
     9  H    0.000832  -0.062262   0.934751
 Mulliken charges:
               1
     1  C    0.586241
     2  C    0.797211
     3  C    0.608344
     4  H   -0.491433
     5  O   -0.660959
     6  H   -0.194875
     7  H    0.167118
     8  O   -0.738127
     9  H   -0.073521
 Sum of Mulliken charges =  -0.00000
 Mulliken charges with hydrogens summed into heavy atoms:
               1
     1  C    0.094808
     2  C    0.602336
     3  C    0.534823
     5  O   -0.493841
     8  O   -0.738127
 Electronic spatial extent (au):  <R**2>=            479.8185
 Charge=             -0.0000 electrons
 Dipole moment (field-independent basis, Debye):
    X=              2.5797    Y=              3.2826    Z=             -0.0000  Tot=              4.1750
 Quadrupole moment (field-independent basis, Debye-Ang):
   XX=            -33.6295   YY=            -26.6024   ZZ=            -30.9318
   XY=             -1.2754   XZ=              0.0004   YZ=              0.0004
 Traceless Quadrupole moment (field-independent basis, Debye-Ang):
   XX=             -3.2416   YY=              3.7855   ZZ=             -0.5439
   XY=             -1.2754   XZ=              0.0004   YZ=              0.0004
 Octapole moment (field-independent basis, Debye-Ang**2):
  XXX=             18.2758  YYY=             -0.3302  ZZZ=              0.0004  XYY=              6.1016
  XXY=             21.5555  XXZ=              0.0005  XZZ=              0.2988  YZZ=             -1.7519
  YYZ=              0.0005  XYZ=              0.0001
 Hexadecapole moment (field-independent basis, Debye-Ang**3):
 XXXX=           -472.8975 YYYY=            -91.4675 ZZZZ=            -32.0196 XXXY=             12.6856
 XXXZ=              0.0012 YYYX=              1.3362 YYYZ=              0.0011 ZZZX=              0.0000
 ZZZY=              0.0001 XXYY=            -86.2544 XXZZ=            -82.1824 YYZZ=            -23.0924
 XXYZ=              0.0016 YYXZ=             -0.0005 ZZXY=              0.6384
 N-N= 1.548498344326D+02 E-N=-9.343249615996D+02  KE= 2.650763207829D+02
 1\1\GINC-N2218\FOpt\RMP2-FC\Aug-CC-pVDZ\C3H4O2\GDS001\20-Mar-2023\0\\#
  mp2/aug-cc-pVDZ opt freq=(vibrot)\\blah\\0,1\C,-2.6651661216,0.139301
 3806,-0.2056525471\C,-1.4742984706,0.7750508562,-0.0461205511\C,-2.698
 2169459,-1.3136149999,-0.4586227724\H,-3.6145435346,0.6825399808,-0.15
 09917592\O,-1.2853953071,2.0977223695,0.1907629478\H,-0.529978146,0.22
 84346205,-0.1015726914\H,-2.1484257551,2.5399468624,0.2315094944\O,-1.
 7055496968,-2.0403493161,-0.5430953928\H,-3.7180557139,-1.7483903728,-
 0.5760630426\\Version=ES64L-G16RevA.03\State=1-A\HF=-265.6627074\MP2=-
 266.4623569\RMSD=6.250e-09\RMSF=6.502e-05\Dipole=-0.9255125,1.1296155,
 0.1571204\PG=C01 [X(C3H4O2)]\\@


 ONE BIG VICE IN A MAN IS APT TO KEEP OUT MANY SMALLER ONES.

                           -- BRET HARTE
 Job cpu time:       0 days  0 hours 17 minutes 22.4 seconds.
 Elapsed time:       0 days  0 hours  0 minutes 49.8 seconds.
 File lengths (MBytes):  RWF=     72 Int=      0 D2E=      0 Chk=      8 Scr=      8
 Normal termination of Gaussian 16 at Mon Mar 20 11:36:54 2023.
 Link1:  Proceeding to internal job step number  2.
 ----------------------------------------------------------------------
 #N Geom=AllCheck Guess=TCheck SCRF=Check GenChk RMP2(FC)/Aug-CC-pVDZ F
 req
 ----------------------------------------------------------------------
 1/10=4,29=7,30=1,38=1,40=1/1,3;
 2/12=2,40=1/2;
[...]
    6     0.036063       0.036085          0.353468
    7     0.042382       0.042472          0.488210
    8     0.043309       0.043415          0.509802
    9     0.045860       0.046023          0.571613
   10     0.046944       0.047138          0.598967
   11     0.052701       0.053128          0.754874
   12     0.059749       0.060681          0.970286
   13     0.060061       0.061022          0.980450
   14     0.060337       0.061324          0.989483
   15     0.075072       0.078271          1.531756
   16     0.081876       0.086728          1.822004
   17     0.112002       0.130096          3.409484
   18     0.136182       0.172781          5.040523
   19     0.240420       0.445221         15.710117
   20     0.295261       0.647846         23.694621
   21     0.365547       0.967862         36.318025

 Mean Square Amplitudes of Cartesian Coordinates
 -----------------------------------------------
    Label        <(S-Se)^2>^1/2 (0)    <(S-Se)^2>^1/2 (298.15)
 X(1)  (Angs)        0.031153              0.031787
 Y(1)  (Angs)        0.044672              0.058518
 Z(1)  (Angs)        0.048962              0.066645
 X(2)  (Angs)        0.036621              0.044176
 Y(2)  (Angs)        0.038570              0.045600
 Z(2)  (Angs)        0.055001              0.077774
 X(3)  (Angs)        0.034279              0.035225
 Y(3)  (Angs)        0.028708              0.029633
 Z(3)  (Angs)        0.045132              0.063998
 X(4)  (Angs)        0.117211              0.119169
 Y(4)  (Angs)        0.088088              0.096464
 Z(4)  (Angs)        0.153088              0.188334
 X(5)  (Angs)        0.036393              0.043965
 Y(5)  (Angs)        0.032423              0.044051
 Z(5)  (Angs)        0.031923              0.041862
 X(6)  (Angs)        0.120213              0.134277
 Y(6)  (Angs)        0.086889              0.093936
 Z(6)  (Angs)        0.176978              0.247224
 X(7)  (Angs)        0.121436              0.126223
 Y(7)  (Angs)        0.081049              0.090915
 Z(7)  (Angs)        0.199917              0.262009
 X(8)  (Angs)        0.049970              0.069358
 Y(8)  (Angs)        0.024363              0.030179
 Z(8)  (Angs)        0.031987              0.051286
 X(9)  (Angs)        0.105410              0.110325
 Y(9)  (Angs)        0.090626              0.093252
 Z(9)  (Angs)        0.194331              0.275603
 ***** Axes restored to original set *****
 -------------------------------------------------------------------
 Center     Atomic                   Forces (Hartrees/Bohr)
 Number     Number              X              Y              Z
 -------------------------------------------------------------------
      1        6           0.000077873    0.000151667    0.000019599
      2        6          -0.000002466   -0.000034828   -0.000008014
      3        6          -0.000203111   -0.000078280    0.000017267
      4        1          -0.000007675   -0.000037804   -0.000007864
      5        8          -0.000086669   -0.000070263   -0.000014344
      6        1           0.000017839   -0.000008175   -0.000000696
      7        1           0.000034678    0.000060040    0.000011666
      8        8           0.000074458   -0.000016072   -0.000013790
      9        1           0.000095073    0.000033714   -0.000003824
 -------------------------------------------------------------------
 Cartesian Forces:  Max     0.000203111 RMS     0.000065016
 FormGI is forming the generalized inverse of G from B-inverse, IUseBI=4.

 GradGradGradGradGradGradGradGradGradGradGradGradGradGradGradGradGradGrad
 Berny optimization.
 Internal  Forces:  Max     0.000128841 RMS     0.000041396
 Search for a local minimum.
 Step number   1 out of a maximum of    2
 All quantities printed in internal units (Hartrees-Bohrs-Radians)
 Second derivative matrix not updated -- analytic derivatives used.
 ITU=  0
     Eigenvalues ---    0.00407   0.01346   0.01651   0.02493   0.04049
     Eigenvalues ---    0.07645   0.10092   0.12221   0.14063   0.15148
     Eigenvalues ---    0.16979   0.21537   0.22905   0.31686   0.34302
     Eigenvalues ---    0.36476   0.37438   0.44146   0.51399   0.58392
     Eigenvalues ---    0.76348
 Angle between quadratic step and forces=  25.41 degrees.
 Linear search not attempted -- first point.
 Iteration  1 RMS(Cart)=  0.00041396 RMS(Int)=  0.00000016
 Iteration  2 RMS(Cart)=  0.00000014 RMS(Int)=  0.00000001
 Variable       Old X    -DE/DX   Delta X   Delta X   Delta X     New X
                                 (Linear)    (Quad)   (Total)
    R1        2.56877  -0.00006   0.00000  -0.00012  -0.00012   2.56865
    R2        2.78762   0.00006   0.00000   0.00023   0.00023   2.78785
    R3        2.06959  -0.00001   0.00000  -0.00005  -0.00005   2.06954
    R4        2.56423  -0.00002   0.00000  -0.00010  -0.00010   2.56413
    R5        2.06457   0.00002   0.00000   0.00005   0.00005   2.06461
    R6        2.33032   0.00007   0.00000   0.00011   0.00011   2.33043
    R7        2.10676  -0.00010   0.00000  -0.00035  -0.00035   2.10642
    R8        1.83415  -0.00000   0.00000  -0.00003  -0.00003   1.83411
    A1        2.09485  -0.00002   0.00000  -0.00020  -0.00020   2.09465
    A2        2.11951   0.00005   0.00000   0.00044   0.00044   2.11995
    A3        2.06882  -0.00003   0.00000  -0.00024  -0.00024   2.06858
    A4        2.21221  -0.00000   0.00000   0.00009   0.00009   2.21230
    A5        2.11446   0.00000   0.00000  -0.00003  -0.00003   2.11443
    A6        1.95651  -0.00000   0.00000  -0.00006  -0.00006   1.95646
    A7        2.18238  -0.00005   0.00000  -0.00025  -0.00025   2.18213
    A8        2.00718   0.00003   0.00000   0.00022   0.00022   2.00741
    A9        2.09362   0.00002   0.00000   0.00002   0.00002   2.09365
   A10        1.90463   0.00013   0.00000   0.00073   0.00073   1.90536
    D1        3.14159   0.00000   0.00000   0.00000   0.00000   3.14159
    D2        0.00000   0.00000   0.00000  -0.00000  -0.00000  -0.00000
    D3       -0.00001   0.00000   0.00000   0.00001   0.00001   0.00000
    D4        3.14159   0.00000   0.00000   0.00000   0.00000  -3.14159
    D5        0.00016  -0.00001   0.00000  -0.00016  -0.00016   0.00000
    D6        3.14141   0.00001   0.00000   0.00019   0.00019  -3.14159
    D7       -3.14143  -0.00001   0.00000  -0.00016  -0.00016  -3.14159
    D8       -0.00018   0.00001   0.00000   0.00018   0.00018   0.00000
    D9       -0.00000  -0.00000   0.00000   0.00000   0.00000   0.00000
   D10        3.14159   0.00000   0.00000   0.00000   0.00000  -3.14159
         Item               Value     Threshold  Converged?
 Maximum Force            0.000129     0.000450     YES
 RMS     Force            0.000041     0.000300     YES
 Maximum Displacement     0.001184     0.001800     YES
 RMS     Displacement     0.000414     0.001200     YES
 Predicted change in Energy=-1.122767D-07
 Optimization completed.
    -- Stationary point found.
                           ----------------------------
                           !   Optimized Parameters   !
                           ! (Angstroms and Degrees)  !
 --------------------------                            --------------------------
 ! Name  Definition              Value          Derivative Info.                !
 --------------------------------------------------------------------------------
 ! R1    R(1,2)                  1.3593         -DE/DX =   -0.0001              !
 ! R2    R(1,3)                  1.4751         -DE/DX =    0.0001              !
 ! R3    R(1,4)                  1.0952         -DE/DX =    0.0                 !
 ! R4    R(2,5)                  1.3569         -DE/DX =    0.0                 !
 ! R5    R(2,6)                  1.0925         -DE/DX =    0.0                 !
 ! R6    R(3,8)                  1.2332         -DE/DX =    0.0001              !
 ! R7    R(3,9)                  1.1149         -DE/DX =   -0.0001              !
 ! R8    R(5,7)                  0.9706         -DE/DX =    0.0                 !
 ! A1    A(2,1,3)              120.0263         -DE/DX =    0.0                 !
 ! A2    A(2,1,4)              121.439          -DE/DX =    0.0001              !
 ! A3    A(3,1,4)              118.5347         -DE/DX =    0.0                 !
 ! A4    A(1,2,5)              126.7505         -DE/DX =    0.0                 !
 ! A5    A(1,2,6)              121.1494         -DE/DX =    0.0                 !
 ! A6    A(5,2,6)              112.1            -DE/DX =    0.0                 !
 ! A7    A(1,3,8)              125.0409         -DE/DX =   -0.0001              !
 ! A8    A(1,3,9)              115.0032         -DE/DX =    0.0                 !
 ! A9    A(8,3,9)              119.9559         -DE/DX =    0.0                 !
 ! A10   A(2,5,7)              109.1271         -DE/DX =    0.0001              !
 ! D1    D(3,1,2,5)            179.9998         -DE/DX =    0.0                 !
 ! D2    D(3,1,2,6)              0.0001         -DE/DX =    0.0                 !
 ! D3    D(4,1,2,5)             -0.0004         -DE/DX =    0.0                 !
 ! D4    D(4,1,2,6)           -180.0002         -DE/DX =    0.0                 !
 ! D5    D(2,1,3,8)              0.0091         -DE/DX =    0.0                 !
 ! D6    D(2,1,3,9)           -180.0106         -DE/DX =    0.0                 !
 ! D7    D(4,1,3,8)           -179.9907         -DE/DX =    0.0                 !
 ! D8    D(4,1,3,9)             -0.0103         -DE/DX =    0.0                 !
 ! D9    D(1,2,5,7)              0.0            -DE/DX =    0.0                 !
 ! D10   D(6,2,5,7)           -180.0002         -DE/DX =    0.0                 !
 --------------------------------------------------------------------------------
 GradGradGradGradGradGradGradGradGradGradGradGradGradGradGradGradGradGrad


 ----------------------------------------------------------------------

 Electric dipole moment (input orientation):
 (Debye = 10**-18 statcoulomb cm , SI units = C m)
                  (au)            (Debye)         (10**-30 SI)
   Tot        0.146877D+01      0.373325D+01      0.124528D+02
   x         -0.925512D+00     -0.235242D+01     -0.784682D+01
   y          0.112962D+01      0.287120D+01      0.957728D+01
   z          0.157120D+00      0.399360D+00      0.133212D+01

 Dipole polarizability, Alpha (input orientation).
 (esu units = cm**3 , SI units = C**2 m**2 J**-1)
 Alpha(0;0):
               (au)            (10**-24 esu)      (10**-40 SI)
   iso        0.491613D+02      0.728496D+01      0.810561D+01
   aniso      0.321518D+02      0.476440D+01      0.530111D+01
   xx         0.501752D+02      0.743520D+01      0.827278D+01
   yx         0.627309D+01      0.929576D+00      0.103429D+01
   yy         0.649014D+02      0.961739D+01      0.107008D+02
   zx         0.187105D+01      0.277262D+00      0.308495D+00
   zy         0.608198D+01      0.901256D+00      0.100278D+01
   zz         0.324074D+02      0.480228D+01      0.534325D+01

 ----------------------------------------------------------------------

 Dipole orientation:
     6         -3.35955887         -1.78343459          3.33447449
     6         -1.20042029         -0.47063819          2.87265530
     6         -4.90284660         -2.72165067          1.21107217
     1         -3.99559877         -2.17026444          5.26553614
     8          0.40483740          0.50528285          4.61792835
     1         -0.57424573         -0.08981421          0.94254655
     1         -0.22669654          0.12122078          6.29654760
     8         -4.40164953         -2.41715122         -1.04425059
     1         -6.63832671         -3.77727637          1.76983375

 Electric dipole moment (dipole orientation):
 (Debye = 10**-18 statcoulomb cm , SI units = C m)
                  (au)            (Debye)         (10**-30 SI)
   Tot        0.146877D+01      0.373325D+01      0.124528D+02
   x          0.000000D+00      0.000000D+00      0.000000D+00
   y          0.000000D+00      0.000000D+00      0.000000D+00
   z          0.146877D+01      0.373325D+01      0.124528D+02

 Dipole polarizability, Alpha (dipole orientation).
 (esu units = cm**3 , SI units = C**2 m**2 J**-1)
 Alpha(0;0):
               (au)            (10**-24 esu)      (10**-40 SI)
   iso        0.491613D+02      0.728496D+01      0.810561D+01
   aniso      0.321518D+02      0.476440D+01      0.530111D+01
   xx         0.543330D+02      0.805132D+01      0.895831D+01
   yx         0.140186D+02      0.207734D+01      0.231136D+01
   yy         0.398002D+02      0.589779D+01      0.656217D+01
   zx         0.774188D+01      0.114723D+01      0.127646D+01
   zy         0.470710D+01      0.697521D+00      0.776096D+00
   zz         0.533507D+02      0.790576D+01      0.879635D+01

 ----------------------------------------------------------------------
 1\1\GINC-N2218\Freq\RMP2-FC\Aug-CC-pVDZ\C3H4O2\GDS001\20-Mar-2023\0\\#
 N Geom=AllCheck Guess=TCheck SCRF=Check GenChk RMP2(FC)/Aug-CC-pVDZ Fr
 eq\\blah\\0,1\C,-2.6651661216,0.1393013806,-0.2056525471\C,-1.47429847
 06,0.7750508562,-0.0461205511\C,-2.6982169459,-1.3136149999,-0.4586227
 724\H,-3.6145435346,0.6825399808,-0.1509917592\O,-1.2853953071,2.09772
 23695,0.1907629478\H,-0.529978146,0.2284346205,-0.1015726914\H,-2.1484
 257551,2.5399468624,0.2315094944\O,-1.7055496968,-2.0403493161,-0.5430
 953928\H,-3.7180557139,-1.7483903728,-0.5760630426\\Version=ES64L-G16R
 evA.03\State=1-A\HF=-265.6627074\MP2=-266.4623569\RMSD=9.856e-10\RMSF=
 6.502e-05\ZeroPoint=0.0667474\Thermal=0.0720565\Dipole=-0.9255124,1.12
 96155,0.1571203\DipoleDeriv=-0.298019,-0.774745,-0.1362791,-0.2835982,
 -0.9743214,-0.1377288,-0.0512146,-0.1581379,-0.2763633,0.4622626,0.565
 4901,0.1164244,0.5559115,1.5351625,0.2860376,0.1147629,0.2864123,0.071
 018,0.7873317,-0.0694666,0.0147175,0.165808,1.6183232,0.2625159,0.0554
 359,0.2527239,0.1880383,-0.0316652,0.0637533,0.0025541,0.0537572,-0.03
 93427,-0.0344817,0.0008218,-0.0340893,0.166814,-0.2387955,-0.0777727,-
 0.0102369,-0.4990119,-1.6320049,-0.2485128,-0.0831879,-0.2310258,-0.35
 99377,0.053452,0.0314737,0.0015974,0.0184797,0.0612554,-0.0139568,-0.0
 006517,-0.0134164,0.1439217,0.1163156,-0.0556235,-0.0181318,-0.0093373
 ,0.3691257,0.0079327,-0.0101179,0.0060114,0.3216874,-0.5923702,0.42404
 89,0.0618697,0.0878241,-0.9288532,-0.1029749,0.0035899,-0.0889447,-0.3
 284377,-0.258512,-0.1071581,-0.0325152,-0.0898331,-0.0093446,-0.018831
 2,-0.0294384,-0.0195334,0.0732594\Polar=50.1752249,6.2730884,64.901375
 2,1.8710539,6.0819797,32.4073774\PG=C01 [X(C3H4O2)]\NImag=0\\0.8116143
 9,0.03945497,0.62055801,0.03685023,0.09375185,0.10636153,-0.42931703,-
 0.12580268,-0.03743162,0.84868427,-0.14330433,-0.16695856,-0.02578003,
 0.03924006,0.66919733,-0.04046270,-0.02505130,-0.05847555,0.03623588,0
 .09334597,0.15722966,-0.11038662,-0.03630132,-0.00840538,0.01134750,-0
 .02969583,-0.00443817,0.80957575,-0.00419844,-0.23897089,-0.03130072,-
 0.02535413,-0.04053757,-0.00709980,-0.12890637,0.64787242,-0.00284681,
 -0.03262302,-0.06502737,-0.00368381,-0.00727805,-0.00702920,0.00390828
 ,0.07595883,0.19130452,-0.27354912,0.12308489,0.01113415,-0.01788659,0
 .01992531,0.00252993,0.00375420,-0.00640755,-0.00086997,0.28729572,0.1
 2322764,-0.12561199,-0.01173220,-0.01706560,0.00761573,-0.00013095,0.0
 2975626,-0.00299854,0.00106598,-0.13226601,0.12702475,0.01115833,-0.01
 173769,-0.02989838,-0.00387511,0.00140535,0.00436233,0.00539310,-0.000
 43482,-0.00187556,-0.01182859,0.01295497,0.02226129,0.00627058,-0.0456
 0547,-0.00829840,-0.11995969,-0.00327767,-0.00369725,-0.00821302,0.005
 15021,0.00001635,0.00310768,0.00007079,0.00039257,0.52075047,-0.015799
 73,-0.05190876,-0.01239980,-0.04776616,-0.32621403,-0.05075453,-0.0044
 4142,0.02337005,0.00163340,0.00031026,0.00301108,0.00158240,-0.1320008
 8,0.51229712,-0.00313618,-0.01363842,0.01341869,-0.01140112,-0.0489065
 2,-0.05351855,-0.00164533,0.00203279,0.01315783,0.00043419,0.00157308,
 -0.00576454,-0.00274200,0.07695514,0.04946269,-0.01620835,0.01498399,0
 .00158864,-0.28909608,0.12776721,0.01202499,-0.00146836,0.00147508,0.0
 0039112,-0.00251094,-0.00256104,-0.00090489,0.00852603,-0.00600666,-0.
 00073257,0.29653949,-0.01236732,0.01195891,0.00016757,0.11977593,-0.11
 739828,-0.00742407,-0.00078508,0.00057812,0.00088753,-0.00306406,-0.00
 122214,-0.00182827,0.02964698,-0.02457942,-0.00321898,-0.13341881,0.13
 712904,-0.00314699,0.00130372,0.00812135,0.01064028,-0.00709252,-0.046
 59754,-0.00000024,0.00098065,-0.00456546,-0.00099185,-0.00180760,0.008
 24690,0.00544166,-0.00469889,0.00052936,-0.01191246,0.01353696,0.02882
 038,0.00174886,-0.00730069,-0.00106309,0.00471899,-0.00384899,-0.00048
 145,-0.00135175,0.00200444,0.00033052,-0.00080767,0.00113982,0.0001538
 3,-0.41416646,0.20139050,0.01816601,0.00212335,-0.00111751,-0.00033859
 ,0.40728070,0.00111602,0.00478869,0.00141187,0.04575048,-0.02900739,-0
 .00316891,0.00087674,-0.00238312,-0.00021085,-0.00158305,-0.00026937,-
 0.00015411,0.14907132,-0.12670018,-0.01371617,-0.00270825,-0.00531725,
 -0.00200644,-0.19143632,0.15731191,0.00039417,0.00106230,-0.00289565,0
 .00810770,-0.00522798,-0.00030705,0.00013538,-0.00016434,-0.00097724,-
 0.00031770,-0.00004110,0.00022111,0.00910611,-0.01154419,-0.01337005,-
 0.00061409,-0.00194039,0.00525834,-0.01661858,0.01771557,0.01148504,0.
 01140604,0.03732306,0.00634707,-0.01128013,-0.00772982,-0.00183646,-0.
 47627178,0.25380582,0.02662532,0.00057309,-0.00098112,-0.00029251,0.00
 393716,0.00572405,0.00120674,0.00184638,0.00081531,0.00020223,0.000666
 23,-0.00131555,-0.00019961,0.51447204,0.03960813,-0.04422065,-0.008440
 62,0.00886818,0.00891958,0.00178736,0.26099679,-0.27776438,-0.02681978
 ,-0.00035984,-0.00823905,-0.00205211,-0.00085538,-0.00777822,-0.001167
 95,0.00060799,-0.00115654,-0.00023889,-0.00068959,0.00111928,0.0001676
 1,-0.31618633,0.31229780,0.00674425,-0.00853978,0.01286925,0.00103602,
 0.00109750,0.00095562,0.02786270,-0.02711363,-0.06362915,-0.00018464,-
 0.00207738,0.00316010,0.00006713,-0.00089413,-0.00139227,0.00016664,-0
 .00023043,0.00033680,-0.00009114,0.00014137,0.00000709,-0.03428978,0.0
 3692007,0.02797525,-0.00157874,0.00016326,-0.00072160,0.00278876,0.000
 92407,0.00012524,-0.22698591,-0.09756907,-0.02387100,0.00002364,-0.001
 32074,-0.00019672,-0.00025276,-0.00140997,-0.00014974,0.00024849,0.000
 51457,0.00010596,-0.00021226,0.00022861,0.00000661,-0.04534903,0.00801
 004,-0.00131119,0.27131781,-0.02773694,-0.00963475,-0.00567794,0.00235
 393,-0.00561681,-0.00150378,-0.09149978,-0.10916609,-0.01261404,0.0003
 6006,0.00068953,0.00026428,-0.00219991,-0.00149765,0.00008703,-0.00013
 952,0.00000756,0.00002302,-0.00014167,0.00045743,-0.00002748,0.0285445
 9,0.01682217,0.00069640,0.09045924,0.10793859,-0.00555430,-0.00452767,
 0.01552613,0.00037179,-0.00156371,0.00338028,-0.02281034,-0.01285898,-
 0.06135837,0.00009447,0.00019518,-0.00071324,-0.00028616,0.00012059,-0
 .00252315,-0.00000737,0.00005009,-0.00015013,-0.00005751,-0.00001232,0
 .00057841,0.00223699,-0.00015568,0.01971731,0.02601244,0.01875250,0.02
 554274\\-0.00007787,-0.00015167,-0.00001960,0.00000247,0.00003483,0.00
 000801,0.00020311,0.00007828,-0.00001727,0.00000767,0.00003780,0.00000
 786,0.00008667,0.00007026,0.00001434,-0.00001784,0.00000817,0.00000070
 ,-0.00003468,-0.00006004,-0.00001167,-0.00007446,0.00001607,0.00001379
 ,-0.00009507,-0.00003371,0.00000382\\\@


 WE HAVE LEARNED THAT NOTHING IS SIMPLE AND
 RATIONAL EXCEPT WHAT WE OURSELVES HAVE INVENTED;
 THAT GOD THINKS IN TERMS NEITHER OF EUCLID OR RIEMANN; THAT SCIENCE HAS "EXPLAINED" NOTHING;
 THAT THE MORE WE KNOW THE MORE FANTASTIC THE WORLD BECOMES
 AND THE PROFOUNDER THE SURROUNDING DARKNESS.
   --  ALDOUS HUXLEY
 Job cpu time:       0 days  0 hours 49 minutes  1.0 seconds.
 Elapsed time:       0 days  0 hours  1 minutes 46.4 seconds.
 File lengths (MBytes):  RWF=   2680 Int=      0 D2E=      0 Chk=      8 Scr=      8
 Normal termination of Gaussian 16 at Mon Mar 20 11:38:41 2023.
