 Entering Gaussian System, Link 0=g16
 Input=enolc_mp2_avdz_opt_anharm.gjf
 Output=enolc_mp2_avdz_opt_anharm.log
 Initial command:
 /sw/contrib/chem-src/g16/c01/g16/l1.exe "/scr/Gau-73287.inp" -scrdir="/scr/"
 Entering Link 1 = /sw/contrib/chem-src/g16/c01/g16/l1.exe PID=     73288.
  
 Copyright (c) 1988-2019, Gaussian, Inc.  All Rights Reserved.
  
 This is part of the Gaussian(R) 16 program.  It is based on
 the Gaussian(R) 09 system (copyright 2009, Gaussian, Inc.),
 the Gaussian(R) 03 system (copyright 2003, Gaussian, Inc.),
 the Gaussian(R) 98 system (copyright 1998, Gaussian, Inc.),
 the Gaussian(R) 94 system (copyright 1995, Gaussian, Inc.),
 the Gaussian 92(TM) system (copyright 1992, Gaussian, Inc.),
 the Gaussian 90(TM) system (copyright 1990, Gaussian, Inc.),
 the Gaussian 88(TM) system (copyright 1988, Gaussian, Inc.),
 the Gaussian 86(TM) system (copyright 1986, Carnegie Mellon
 University), and the Gaussian 82(TM) system (copyright 1983,
 Carnegie Mellon University). Gaussian is a federally registered
 trademark of Gaussian, Inc.
  
 This software contains proprietary and confidential information,
 including trade secrets, belonging to Gaussian, Inc.
  
 This software is provided under written license and may be
 used, copied, transmitted, or stored only in accord with that
 written license.
  
 The following legend is applicable only to US Government
 contracts under FAR:
  
                    RESTRICTED RIGHTS LEGEND
  
 Use, reproduction and disclosure by the US Government is
 subject to restrictions as set forth in subparagraphs (a)
 and (c) of the Commercial Computer Software - Restricted
 Rights clause in FAR 52.227-19.
  
 Gaussian, Inc.
 340 Quinnipiac St., Bldg. 40, Wallingford CT 06492
  
  
 ---------------------------------------------------------------
 Warning -- This program may not be used in any manner that
 competes with the business of Gaussian, Inc. or will provide
 assistance to any competitor of Gaussian, Inc.  The licensee
 of this program is prohibited from giving any competitor of
 Gaussian, Inc. access to this program.  By using this program,
 the user acknowledges that Gaussian, Inc. is engaged in the
 business of creating and licensing software in the field of
 computational chemistry and represents and warrants to the
 licensee that it is not a competitor of Gaussian, Inc. and that
 it will not use this program in any manner prohibited above.
 ---------------------------------------------------------------
  

 Cite this work as:
 Gaussian 16, Revision C.01,
 M. J. Frisch, G. W. Trucks, H. B. Schlegel, G. E. Scuseria, 
 M. A. Robb, J. R. Cheeseman, G. Scalmani, V. Barone, 
 G. A. Petersson, H. Nakatsuji, X. Li, M. Caricato, A. V. Marenich, 
 J. Bloino, B. G. Janesko, R. Gomperts, B. Mennucci, H. P. Hratchian, 
 J. V. Ortiz, A. F. Izmaylov, J. L. Sonnenberg, D. Williams-Young, 
 F. Ding, F. Lipparini, F. Egidi, J. Goings, B. Peng, A. Petrone, 
 T. Henderson, D. Ranasinghe, V. G. Zakrzewski, J. Gao, N. Rega, 
 G. Zheng, W. Liang, M. Hada, M. Ehara, K. Toyota, R. Fukuda, 
 J. Hasegawa, M. Ishida, T. Nakajima, Y. Honda, O. Kitao, H. Nakai, 
 T. Vreven, K. Throssell, J. A. Montgomery, Jr., J. E. Peralta, 
 F. Ogliaro, M. J. Bearpark, J. J. Heyd, E. N. Brothers, K. N. Kudin, 
 V. N. Staroverov, T. A. Keith, R. Kobayashi, J. Normand, 
 K. Raghavachari, A. P. Rendell, J. C. Burant, S. S. Iyengar, 
 J. Tomasi, M. Cossi, J. M. Millam, M. Klene, C. Adamo, R. Cammi, 
 J. W. Ochterski, R. L. Martin, K. Morokuma, O. Farkas, 
 J. B. Foresman, and D. J. Fox, Gaussian, Inc., Wallingford CT, 2019.
 
 ******************************************
 Gaussian 16:  EM64L-G16RevC.01  3-Jul-2019
                21-Mar-2025 
 ******************************************
 %nprocshared=40
 Will use up to   40 processors via shared memory.
 %mem=50gb
 ----------------------------------------------
 # MP2/aug-cc-pVDZ opt freq=(vibrot,anharmonic)
 ----------------------------------------------
 1/18=20,19=15,38=1,80=1/1,3;
 2/9=110,12=2,17=6,18=5,40=1/2;
 3/5=16,7=10,11=9,25=1,30=1,71=1/1,2,3;
 4//1;
 5/5=2,38=5/2;
 8/6=4,10=1/1;
 9/15=2,16=-3/6;
 10/5=1/2;
 6/7=2,8=2,9=2,10=2/1;
 7/12=2/1,2,3,16;
 1/18=20,19=15,80=1/3(2);
 2/9=110/2;
 99//99;
 2/9=110/2;
 3/5=16,7=10,11=9,25=1,30=1,71=1/1,2,3;
 4/5=5,16=3,69=1/1;
 5/5=2,38=5/2;
 8/6=4,10=1/1;
 9/15=2,16=-3/6;
 10/5=1/2;
 7/12=2/1,2,3,16;
 1/18=20,19=15,80=1/3(-8);
 2/9=110/2;
 6/7=2,8=2,9=2,10=2/1;
 99/9=10/99;
 ----
 blah
 ----
 Symbolic Z-matrix:
 Charge =  0 Multiplicity = 1
 C                    -0.46214   1.20349   0.07258 
 C                    -0.91235  -0.0411   -0.08932 
 H                    -0.05653   1.58512   1.00206 
 O                    -0.45331   2.1546   -0.90594 
 H                    -0.88645  -0.7425    0.73889 
 H                    -1.31314  -0.39539  -1.03188 
 H                    -0.82449   1.7695   -1.71853 
 

 GradGradGradGradGradGradGradGradGradGradGradGradGradGradGradGradGradGrad
 Berny optimization.
 Initialization pass.
                           ----------------------------
                           !    Initial Parameters    !
                           ! (Angstroms and Degrees)  !
 --------------------------                            --------------------------
 ! Name  Definition              Value          Derivative Info.                !
 --------------------------------------------------------------------------------
 ! R1    R(1,2)                  1.3334         estimate D2E/DX2                !
 ! R2    R(1,3)                  1.0835         estimate D2E/DX2                !
 ! R3    R(1,4)                  1.3646         estimate D2E/DX2                !
 ! R4    R(2,5)                  1.0856         estimate D2E/DX2                !
 ! R5    R(2,6)                  1.0838         estimate D2E/DX2                !
 ! R6    R(4,7)                  0.9728         estimate D2E/DX2                !
 ! A1    A(2,1,3)              124.0068         estimate D2E/DX2                !
 ! A2    A(2,1,4)              124.4497         estimate D2E/DX2                !
 ! A3    A(3,1,4)              111.5435         estimate D2E/DX2                !
 ! A4    A(1,2,5)              120.1572         estimate D2E/DX2                !
 ! A5    A(1,2,6)              122.3841         estimate D2E/DX2                !
 ! A6    A(5,2,6)              117.4587         estimate D2E/DX2                !
 ! A7    A(1,4,7)              108.6984         estimate D2E/DX2                !
 ! D1    D(3,1,2,5)              0.0            estimate D2E/DX2                !
 ! D2    D(3,1,2,6)            180.0            estimate D2E/DX2                !
 ! D3    D(4,1,2,5)            180.0            estimate D2E/DX2                !
 ! D4    D(4,1,2,6)              0.0            estimate D2E/DX2                !
 ! D5    D(2,1,4,7)              0.0            estimate D2E/DX2                !
 ! D6    D(3,1,4,7)            180.0            estimate D2E/DX2                !
 --------------------------------------------------------------------------------
 Trust Radius=3.00D-01 FncErr=1.00D-07 GrdErr=1.00D-07 EigMax=2.50D+02 EigMin=1.00D-04
 Number of steps in this run=     29 maximum allowed number of steps=    100.
 GradGradGradGradGradGradGradGradGradGradGradGradGradGradGradGradGradGrad

                          Input orientation:                          
 ---------------------------------------------------------------------
 Center     Atomic      Atomic             Coordinates (Angstroms)
 Number     Number       Type             X           Y           Z
 ---------------------------------------------------------------------
      1          6           0       -0.462143    1.203495    0.072582
      2          6           0       -0.912352   -0.041100   -0.089319
      3          1           0       -0.056530    1.585116    1.002056
      4          8           0       -0.453307    2.154601   -0.905940
      5          1           0       -0.886451   -0.742502    0.738894
      6          1           0       -1.313139   -0.395385   -1.031882
      7          1           0       -0.824495    1.769503   -1.718530
 ---------------------------------------------------------------------
                    Distance matrix (angstroms):
                    1          2          3          4          5
     1  C    0.000000
     2  C    1.333385   0.000000
     3  H    1.083549   2.137313   0.000000
     4  O    1.364619   2.387194   2.030318   0.000000
     5  H    2.100217   1.085621   2.485121   3.359508   0.000000
     6  H    2.121427   1.083777   3.104569   2.693994   1.854238
     7  H    1.913046   2.437279   2.832905   0.972822   3.514674
                    6          7
     6  H    0.000000
     7  H    2.323144   0.000000
 Stoichiometry    C2H4O
 Framework group  CS[SG(C2H4O)]
 Deg. of freedom    11
 Full point group                 CS      NOp   2
 Largest Abelian subgroup         CS      NOp   2
 Largest concise Abelian subgroup C1      NOp   1
                         Standard orientation:                         
 ---------------------------------------------------------------------
 Center     Atomic      Atomic             Coordinates (Angstroms)
 Number     Number       Type             X           Y           Z
 ---------------------------------------------------------------------
      1          6           0        0.000000    0.462009    0.000000
      2          6           0        1.200649   -0.117953   -0.000000
      3          1           0       -0.155001    1.534414    0.000000
      4          8           0       -1.184550   -0.215506   -0.000000
      5          1           0        2.100029    0.490066    0.000000
      6          1           0        1.325247   -1.194544   -0.000000
      7          1           0       -0.997769   -1.170229   -0.000000
 ---------------------------------------------------------------------
 Rotational constants (GHZ):          58.0940004          10.7363177           9.0616412
 Standard basis: Aug-CC-pVDZ (5D, 7F)
 There are    82 symmetry adapted cartesian basis functions of A'  symmetry.
 There are    29 symmetry adapted cartesian basis functions of A"  symmetry.
 There are    76 symmetry adapted basis functions of A'  symmetry.
 There are    29 symmetry adapted basis functions of A"  symmetry.
   105 basis functions,   173 primitive gaussians,   111 cartesian basis functions
    12 alpha electrons       12 beta electrons
       nuclear repulsion energy        70.2843449209 Hartrees.
 NAtoms=    7 NActive=    7 NUniq=    7 SFac= 1.00D+00 NAtFMM=   60 NAOKFM=F Big=F
 Integral buffers will be    131072 words long.
 Raffenetti 1 integral format.
 Two-electron integral symmetry is turned on.
 One-electron integrals computed using PRISM.
 NBasis=   105 RedAO= T EigKep=  6.77D-05  NBF=    76    29
 NBsUse=   105 1.00D-06 EigRej= -1.00D+00 NBFU=    76    29
 ExpMin= 2.97D-02 ExpMax= 1.17D+04 ExpMxC= 4.01D+02 IAcc=3 IRadAn=         5 AccDes= 0.00D+00
 Harris functional with IExCor=  205 and IRadAn=       5 diagonalized for initial guess.
 HarFok:  IExCor=  205 AccDes= 0.00D+00 IRadAn=         5 IDoV= 1 UseB2=F ITyADJ=14
 ICtDFT=  3500011 ScaDFX=  1.000000  1.000000  1.000000  1.000000
 FoFCou: FMM=F IPFlag=           0 FMFlag=      100000 FMFlg1=           0
         NFxFlg=           0 DoJE=T BraDBF=F KetDBF=T FulRan=T
         wScrn=  0.000000 ICntrl=       500 IOpCl=  0 I1Cent=   200000004 NGrid=           0
         NMat0=    1 NMatS0=      1 NMatT0=    0 NMatD0=    1 NMtDS0=    0 NMtDT0=    0
 Petite list used in FoFCou.
 Initial guess orbital symmetries:
       Occupied  (A') (A') (A') (A') (A') (A') (A') (A') (A') (A")
                 (A') (A")
       Virtual   (A") (A') (A') (A') (A') (A") (A') (A') (A') (A')
                 (A") (A') (A') (A') (A") (A') (A') (A') (A') (A")
                 (A') (A') (A") (A') (A") (A') (A') (A') (A") (A')
                 (A') (A') (A") (A') (A') (A") (A') (A') (A') (A")
                 (A') (A") (A') (A') (A") (A') (A') (A") (A') (A')
                 (A") (A') (A") (A') (A') (A') (A") (A") (A') (A')
                 (A') (A') (A') (A") (A") (A') (A') (A") (A') (A')
                 (A") (A') (A') (A') (A") (A") (A') (A') (A") (A')
                 (A') (A') (A') (A') (A') (A') (A') (A') (A") (A")
                 (A') (A') (A')
 The electronic state of the initial guess is 1-A'.
 Keep R1 ints in memory in symmetry-blocked form, NReq=23969040.
 Requested convergence on RMS density matrix=1.00D-08 within 128 cycles.
 Requested convergence on MAX density matrix=1.00D-06.
 Requested convergence on             energy=1.00D-06.
 No special actions if energy rises.
 SCF Done:  E(RHF) =  -152.918709109     A.U. after   13 cycles
            NFock= 13  Conv=0.15D-08     -V/T= 2.0016
 ExpMin= 2.97D-02 ExpMax= 1.17D+04 ExpMxC= 4.01D+02 IAcc=3 IRadAn=         5 AccDes= 0.00D+00
 HarFok:  IExCor=  205 AccDes= 0.00D+00 IRadAn=         5 IDoV=-2 UseB2=F ITyADJ=14
 ICtDFT= 12500011 ScaDFX=  1.000000  1.000000  1.000000  1.000000
 Range of M.O.s used for correlation:     4   105
 NBasis=   105 NAE=    12 NBE=    12 NFC=     3 NFV=     0
 NROrb=    102 NOA=     9 NOB=     9 NVA=    93 NVB=    93

 **** Warning!!: The largest alpha MO coefficient is  0.28487175D+02

 Fully direct method using O(ONN) memory.
 JobTyp=1 Pass  1:  I=   4 to  12 NPSUse= 40 ParTrn=T ParDer=T DoDerP=T.
 Spin components of T(2) and E(2):
     alpha-alpha T2 =       0.1973735719D-01 E2=     -0.5988829493D-01
     alpha-beta  T2 =       0.1174383994D+00 E2=     -0.3614399115D+00
     beta-beta   T2 =       0.1973735719D-01 E2=     -0.5988829493D-01
 ANorm=    0.1075598956D+01
 E2 =    -0.4812165013D+00 EUMP2 =    -0.15339992561059D+03
          IDoAtm=1111111
          Differentiating once with respect to electric field.
                with respect to dipole field.
          Differentiating once with respect to nuclear coordinates.
 Keep R1 ints in memory in symmetry-blocked form, NReq=23972924.
          There are     1 degrees of freedom in the 1st order CPHF.  IDoFFX=0 NUNeed=     1.
 LinEq1:  Iter=  0 NonCon=     1 RMS=5.30D-03 Max=7.41D-02 NDo=     1
 AX will form     1 AO Fock derivatives at one time.
 LinEq1:  Iter=  1 NonCon=     1 RMS=1.31D-03 Max=1.08D-02 NDo=     1
 LinEq1:  Iter=  2 NonCon=     1 RMS=4.54D-04 Max=4.62D-03 NDo=     1
 LinEq1:  Iter=  3 NonCon=     1 RMS=1.31D-04 Max=1.26D-03 NDo=     1
 LinEq1:  Iter=  4 NonCon=     1 RMS=4.58D-05 Max=4.22D-04 NDo=     1
 LinEq1:  Iter=  5 NonCon=     1 RMS=1.15D-05 Max=1.72D-04 NDo=     1
 LinEq1:  Iter=  6 NonCon=     1 RMS=3.25D-06 Max=2.29D-05 NDo=     1
 LinEq1:  Iter=  7 NonCon=     1 RMS=7.04D-07 Max=6.25D-06 NDo=     1
 LinEq1:  Iter=  8 NonCon=     1 RMS=1.22D-07 Max=7.57D-07 NDo=     1
 LinEq1:  Iter=  9 NonCon=     1 RMS=2.24D-08 Max=1.50D-07 NDo=     1
 LinEq1:  Iter= 10 NonCon=     1 RMS=3.64D-09 Max=2.56D-08 NDo=     1
 LinEq1:  Iter= 11 NonCon=     1 RMS=4.90D-10 Max=3.85D-09 NDo=     1
 LinEq1:  Iter= 12 NonCon=     0 RMS=9.29D-11 Max=6.56D-10 NDo=     1
 Linear equations converged to 1.000D-10 1.000D-09 after    12 iterations.
 End of Minotr F.D. properties file   721 does not exist.
 End of Minotr F.D. properties file   722 does not exist.
 End of Minotr F.D. properties file   788 does not exist.

 **********************************************************************

            Population analysis using the SCF Density.

 **********************************************************************

 Orbital symmetries:
       Occupied  (A') (A') (A') (A') (A') (A') (A') (A') (A") (A')
                 (A') (A")
       Virtual   (A') (A') (A') (A') (A") (A") (A') (A') (A') (A')
                 (A') (A") (A') (A') (A") (A') (A') (A') (A') (A")
                 (A') (A") (A') (A') (A") (A') (A') (A") (A') (A')
                 (A') (A') (A') (A") (A') (A') (A") (A') (A') (A")
                 (A') (A') (A") (A') (A") (A') (A') (A') (A") (A')
                 (A") (A') (A") (A') (A') (A') (A') (A") (A") (A')
                 (A') (A') (A') (A") (A") (A') (A') (A") (A') (A")
                 (A') (A') (A') (A") (A') (A') (A") (A') (A") (A')
                 (A') (A') (A') (A') (A') (A') (A') (A') (A") (A")
                 (A') (A') (A')
 The electronic state is 1-A'.
 Alpha  occ. eigenvalues --  -20.60185 -11.30980 -11.22568  -1.40627  -1.02510
 Alpha  occ. eigenvalues --   -0.83336  -0.68103  -0.67073  -0.57828  -0.54840
 Alpha  occ. eigenvalues --   -0.54367  -0.35089
 Alpha virt. eigenvalues --    0.03714   0.04503   0.05215   0.07123   0.11111
 Alpha virt. eigenvalues --    0.11781   0.12076   0.14067   0.14941   0.17388
 Alpha virt. eigenvalues --    0.18059   0.20608   0.21741   0.22140   0.25153
 Alpha virt. eigenvalues --    0.25384   0.29909   0.32553   0.33653   0.35330
 Alpha virt. eigenvalues --    0.36313   0.41327   0.41906   0.43375   0.43504
 Alpha virt. eigenvalues --    0.45170   0.48387   0.51919   0.52299   0.54211
 Alpha virt. eigenvalues --    0.57357   0.60798   0.62036   0.62462   0.63643
 Alpha virt. eigenvalues --    0.65149   0.67476   0.67779   0.69737   0.73178
 Alpha virt. eigenvalues --    0.74514   0.79524   0.82185   0.84686   0.87291
 Alpha virt. eigenvalues --    0.92394   0.96434   1.02549   1.05864   1.12162
 Alpha virt. eigenvalues --    1.18990   1.19013   1.25273   1.27885   1.31406
 Alpha virt. eigenvalues --    1.44983   1.53661   1.53960   1.55855   1.56777
 Alpha virt. eigenvalues --    1.61721   1.68044   1.71457   1.77872   1.79367
 Alpha virt. eigenvalues --    1.87080   1.92786   1.97924   2.00153   2.07115
 Alpha virt. eigenvalues --    2.07600   2.09316   2.14119   2.17908   2.20167
 Alpha virt. eigenvalues --    2.31978   2.35538   2.41817   2.43773   2.56149
 Alpha virt. eigenvalues --    2.67430   2.70466   2.79816   2.92045   2.94018
 Alpha virt. eigenvalues --    3.09592   3.26848   3.57225   3.71485   3.74022
 Alpha virt. eigenvalues --    3.83676   3.97099   4.30158
          Condensed to atoms (all electrons):
               1          2          3          4          5          6
     1  C    4.447422   0.531488   0.291033  -0.004256  -0.047075   0.014712
     2  C    0.531488   4.597154  -0.088344  -0.049640   0.298206   0.230995
     3  H    0.291033  -0.088344   1.188138  -0.141103  -0.082348   0.051358
     4  O   -0.004256  -0.049640  -0.141103   8.593622   0.016406  -0.063992
     5  H   -0.047075   0.298206  -0.082348   0.016406   1.317993  -0.250334
     6  H    0.014712   0.230995   0.051358  -0.063992  -0.250334   1.332900
     7  H   -0.097552   0.017938   0.017065   0.324259   0.005279   0.006852
               7
     1  C   -0.097552
     2  C    0.017938
     3  H    0.017065
     4  O    0.324259
     5  H    0.005279
     6  H    0.006852
     7  H    0.560877
 Mulliken charges:
               1
     1  C    0.864227
     2  C    0.462203
     3  H   -0.235800
     4  O   -0.675294
     5  H   -0.258128
     6  H   -0.322491
     7  H    0.165283
 Sum of Mulliken charges =   0.00000
 Mulliken charges with hydrogens summed into heavy atoms:
               1
     1  C    0.628427
     2  C   -0.118416
     4  O   -0.510012
 Electronic spatial extent (au):  <R**2>=            163.9547
 Charge=              0.0000 electrons
 Dipole moment (field-independent basis, Debye):
    X=              0.7344    Y=             -0.7308    Z=             -0.0000  Tot=              1.0360
 Quadrupole moment (field-independent basis, Debye-Ang):
   XX=            -20.6613   YY=            -14.2370   ZZ=            -21.4177
   XY=              0.9570   XZ=              0.0000   YZ=             -0.0000
 Traceless Quadrupole moment (field-independent basis, Debye-Ang):
   XX=             -1.8893   YY=              4.5350   ZZ=             -2.6457
   XY=              0.9570   XZ=              0.0000   YZ=             -0.0000
 Octapole moment (field-independent basis, Debye-Ang**2):
  XXX=              0.5534  YYY=             -3.5446  ZZZ=              0.0000  XYY=             -4.3779
  XXY=             -1.3670  XXZ=             -0.0000  XZZ=             -3.7923  YZZ=             -0.6838
  YYZ=              0.0000  XYZ=              0.0000
 Hexadecapole moment (field-independent basis, Debye-Ang**3):
 XXXX=           -143.7075 YYYY=            -37.0520 ZZZZ=            -24.9789 XXXY=              1.8543
 XXXZ=              0.0000 YYYX=             -0.3235 YYYZ=             -0.0000 ZZZX=              0.0000
 ZZZY=             -0.0000 XXYY=            -27.2480 XXZZ=            -31.3680 YYZZ=            -12.5889
 XXYZ=             -0.0000 YYXZ=              0.0000 ZZXY=             -1.0623
 N-N= 7.028434492095D+01 E-N=-4.995284777535D+02  KE= 1.526725065005D+02
 Symmetry A'   KE= 1.462183683521D+02
 Symmetry A"   KE= 6.454138148418D+00
 Calling FoFJK, ICntrl=  10002127 FMM=F ISym2X=1 I1Cent= 0 IOpClX= 0 NMat=1 NMatS=1 NMatT=0.
 ***** Axes restored to original set *****
 -------------------------------------------------------------------
 Center     Atomic                   Forces (Hartrees/Bohr)
 Number     Number              X              Y              Z
 -------------------------------------------------------------------
      1        6           0.001041026    0.007192996   -0.004196931
      2        6          -0.003537594   -0.017098180    0.006480910
      3        1           0.002153934    0.001961595    0.005004589
      4        8           0.000760409    0.009176567   -0.007221008
      5        1           0.000491588   -0.001384836    0.003083518
      6        1          -0.002406968   -0.001188030   -0.006656118
      7        1           0.001497605    0.001339888    0.003505039
 -------------------------------------------------------------------
 Cartesian Forces:  Max     0.017098180 RMS     0.005636890

 GradGradGradGradGradGradGradGradGradGradGradGradGradGradGradGradGradGrad
 Berny optimization.
 FormGI is forming the generalized inverse of G from B-inverse, IUseBI=4.
 Internal  Forces:  Max     0.019849179 RMS     0.006199704
 Search for a local minimum.
 Step number   1 out of a maximum of   29
 All quantities printed in internal units (Hartrees-Bohrs-Radians)
 Mixed Optimization -- RFO/linear search
 Second derivative matrix not updated -- first step.
 The second derivative matrix:
                          R1        R2        R3        R4        R5
           R1           0.58713
           R2           0.00000   0.35569
           R3           0.00000   0.00000   0.52025
           R4           0.00000   0.00000   0.00000   0.35324
           R5           0.00000   0.00000   0.00000   0.00000   0.35542
           R6           0.00000   0.00000   0.00000   0.00000   0.00000
           A1           0.00000   0.00000   0.00000   0.00000   0.00000
           A2           0.00000   0.00000   0.00000   0.00000   0.00000
           A3           0.00000   0.00000   0.00000   0.00000   0.00000
           A4           0.00000   0.00000   0.00000   0.00000   0.00000
           A5           0.00000   0.00000   0.00000   0.00000   0.00000
           A6           0.00000   0.00000   0.00000   0.00000   0.00000
           A7           0.00000   0.00000   0.00000   0.00000   0.00000
           D1           0.00000   0.00000   0.00000   0.00000   0.00000
           D2           0.00000   0.00000   0.00000   0.00000   0.00000
           D3           0.00000   0.00000   0.00000   0.00000   0.00000
           D4           0.00000   0.00000   0.00000   0.00000   0.00000
           D5           0.00000   0.00000   0.00000   0.00000   0.00000
           D6           0.00000   0.00000   0.00000   0.00000   0.00000
                          R6        A1        A2        A3        A4
           R6           0.52804
           A1           0.00000   0.16000
           A2           0.00000   0.00000   0.25000
           A3           0.00000   0.00000   0.00000   0.16000
           A4           0.00000   0.00000   0.00000   0.00000   0.16000
           A5           0.00000   0.00000   0.00000   0.00000   0.00000
           A6           0.00000   0.00000   0.00000   0.00000   0.00000
           A7           0.00000   0.00000   0.00000   0.00000   0.00000
           D1           0.00000   0.00000   0.00000   0.00000   0.00000
           D2           0.00000   0.00000   0.00000   0.00000   0.00000
           D3           0.00000   0.00000   0.00000   0.00000   0.00000
           D4           0.00000   0.00000   0.00000   0.00000   0.00000
           D5           0.00000   0.00000   0.00000   0.00000   0.00000
           D6           0.00000   0.00000   0.00000   0.00000   0.00000
                          A5        A6        A7        D1        D2
           A5           0.16000
           A6           0.00000   0.16000
           A7           0.00000   0.00000   0.16000
           D1           0.00000   0.00000   0.00000   0.02970
           D2           0.00000   0.00000   0.00000   0.00000   0.02970
           D3           0.00000   0.00000   0.00000   0.00000   0.00000
           D4           0.00000   0.00000   0.00000   0.00000   0.00000
           D5           0.00000   0.00000   0.00000   0.00000   0.00000
           D6           0.00000   0.00000   0.00000   0.00000   0.00000
                          D3        D4        D5        D6
           D3           0.02970
           D4           0.00000   0.02970
           D5           0.00000   0.00000   0.02160
           D6           0.00000   0.00000   0.00000   0.02160
 ITU=  0
     Eigenvalues ---    0.02160   0.02740   0.02970   0.02970   0.16000
     Eigenvalues ---    0.16000   0.16000   0.16000   0.22000   0.35324
     Eigenvalues ---    0.35542   0.35569   0.52025   0.52804   0.58713
 RFO step:  Lambda=-1.72927483D-03 EMin= 2.15979795D-02
 Linear search not attempted -- first point.
 Iteration  1 RMS(Cart)=  0.03339194 RMS(Int)=  0.00026078
 Iteration  2 RMS(Cart)=  0.00029022 RMS(Int)=  0.00000004
 Iteration  3 RMS(Cart)=  0.00000006 RMS(Int)=  0.00000000
 ClnCor:  largest displacement from symmetrization is 6.07D-09 for atom     2.
 Variable       Old X    -DE/DX   Delta X   Delta X   Delta X     New X
                                 (Linear)    (Quad)   (Total)
    R1        2.51973   0.01985   0.00000   0.03371   0.03371   2.55344
    R2        2.04761   0.00579   0.00000   0.01620   0.01620   2.06381
    R3        2.57876   0.01001   0.00000   0.01918   0.01918   2.59793
    R4        2.05153   0.00326   0.00000   0.00918   0.00918   2.06071
    R5        2.04804   0.00707   0.00000   0.01979   0.01979   2.06783
    R6        1.83837  -0.00403   0.00000  -0.00761  -0.00761   1.83076
    A1        2.16433  -0.00459   0.00000  -0.02087  -0.02087   2.14346
    A2        2.17206   0.00901   0.00000   0.04063   0.04063   2.21269
    A3        1.94680  -0.00442   0.00000  -0.01976  -0.01976   1.92704
    A4        2.09714  -0.00055   0.00000  -0.00338  -0.00338   2.09376
    A5        2.13601  -0.00101   0.00000  -0.00622  -0.00622   2.12978
    A6        2.05004   0.00155   0.00000   0.00960   0.00960   2.05964
    A7        1.89714  -0.00054   0.00000  -0.00334  -0.00334   1.89381
    D1        0.00000  -0.00000   0.00000  -0.00000  -0.00000   0.00000
    D2        3.14159   0.00000   0.00000   0.00000   0.00000  -3.14159
    D3       -3.14159  -0.00000   0.00000  -0.00000  -0.00000   3.14159
    D4       -0.00000   0.00000   0.00000   0.00000   0.00000   0.00000
    D5       -0.00000   0.00000   0.00000   0.00000   0.00000   0.00000
    D6        3.14159   0.00000   0.00000   0.00000   0.00000   3.14159
         Item               Value     Threshold  Converged?
 Maximum Force            0.019849     0.000450     NO 
 RMS     Force            0.006200     0.000300     NO 
 Maximum Displacement     0.083072     0.001800     NO 
 RMS     Displacement     0.033364     0.001200     NO 
 Predicted change in Energy=-8.689006D-04
 GradGradGradGradGradGradGradGradGradGradGradGradGradGradGradGradGradGrad

                          Input orientation:                          
 ---------------------------------------------------------------------
 Center     Atomic      Atomic             Coordinates (Angstroms)
 Number     Number       Type             X           Y           Z
 ---------------------------------------------------------------------
      1          6           0       -0.467037    1.202590    0.057449
      2          6           0       -0.917711   -0.063467   -0.083246
      3          1           0       -0.058679    1.584573    0.995565
      4          8           0       -0.445610    2.180749   -0.908330
      5          1           0       -0.882216   -0.751328    0.762173
      6          1           0       -1.324495   -0.432852   -1.029534
      7          1           0       -0.812669    1.813463   -1.726215
 ---------------------------------------------------------------------
                    Distance matrix (angstroms):
                    1          2          3          4          5
     1  C    0.000000
     2  C    1.351222   0.000000
     3  H    1.092121   2.148907   0.000000
     4  O    1.374766   2.437241   2.032230   0.000000
     5  H    2.118207   1.090479   2.487793   3.402686   0.000000
     6  H    2.142764   1.094249   3.126231   2.760079   1.872765
     7  H    1.916791   2.496648   2.833546   0.968797   3.574222
                    6          7
     6  H    0.000000
     7  H    2.406920   0.000000
 Stoichiometry    C2H4O
 Framework group  CS[SG(C2H4O)]
 Deg. of freedom    11
 Full point group                 CS      NOp   2
 Largest Abelian subgroup         CS      NOp   2
 Largest concise Abelian subgroup C1      NOp   1
                         Standard orientation:                         
 ---------------------------------------------------------------------
 Center     Atomic      Atomic             Coordinates (Angstroms)
 Number     Number       Type             X           Y           Z
 ---------------------------------------------------------------------
      1          6           0        0.000000    0.448022   -0.000000
      2          6           0        1.227960   -0.115818    0.000000
      3          1           0       -0.154786    1.529119   -0.000000
      4          8           0       -1.207491   -0.209205   -0.000000
      5          1           0        2.117133    0.515463    0.000000
      6          1           0        1.368222   -1.201040    0.000000
      7          1           0       -1.038399   -1.163131    0.000000
 ---------------------------------------------------------------------
 Rotational constants (GHZ):          59.3297571          10.3128908           8.7857272
 Standard basis: Aug-CC-pVDZ (5D, 7F)
 There are    82 symmetry adapted cartesian basis functions of A'  symmetry.
 There are    29 symmetry adapted cartesian basis functions of A"  symmetry.
 There are    76 symmetry adapted basis functions of A'  symmetry.
 There are    29 symmetry adapted basis functions of A"  symmetry.
   105 basis functions,   173 primitive gaussians,   111 cartesian basis functions
    12 alpha electrons       12 beta electrons
       nuclear repulsion energy        69.5536072662 Hartrees.
 NAtoms=    7 NActive=    7 NUniq=    7 SFac= 1.00D+00 NAtFMM=   60 NAOKFM=F Big=F
 Integral buffers will be    131072 words long.
 Raffenetti 1 integral format.
 Two-electron integral symmetry is turned on.
 One-electron integrals computed using PRISM.
 NBasis=   105 RedAO= T EigKep=  7.02D-05  NBF=    76    29
 NBsUse=   105 1.00D-06 EigRej= -1.00D+00 NBFU=    76    29
 Initial guess from the checkpoint file:  "/scr/Gau-73288.chk"
 B after Tr=    -0.000000    0.000000    0.000000
         Rot=    1.000000   -0.000000   -0.000000    0.000447 Ang=   0.05 deg.
 Initial guess orbital symmetries:
       Occupied  (A') (A') (A') (A') (A') (A') (A') (A') (A") (A')
                 (A') (A")
       Virtual   (A') (A') (A') (A') (A") (A") (A') (A') (A') (A')
                 (A') (A") (A') (A') (A") (A') (A') (A') (A') (A")
                 (A') (A") (A') (A') (A") (A') (A') (A") (A') (A')
                 (A') (A') (A') (A") (A') (A') (A") (A') (A') (A")
                 (A') (A') (A") (A') (A") (A') (A') (A') (A") (A')
                 (A") (A') (A") (A') (A') (A') (A') (A") (A") (A')
                 (A') (A') (A') (A") (A") (A') (A') (A") (A') (A")
                 (A') (A') (A') (A") (A') (A') (A") (A') (A") (A')
                 (A') (A') (A') (A') (A') (A') (A') (A') (A") (A")
                 (A') (A') (A')
 ExpMin= 2.97D-02 ExpMax= 1.17D+04 ExpMxC= 4.01D+02 IAcc=3 IRadAn=         5 AccDes= 0.00D+00
 Harris functional with IExCor=  205 and IRadAn=       5 diagonalized for initial guess.
 HarFok:  IExCor=  205 AccDes= 0.00D+00 IRadAn=         5 IDoV= 1 UseB2=F ITyADJ=14
 ICtDFT=  3500011 ScaDFX=  1.000000  1.000000  1.000000  1.000000
 FoFCou: FMM=F IPFlag=           0 FMFlag=      100000 FMFlg1=           0
         NFxFlg=           0 DoJE=T BraDBF=F KetDBF=T FulRan=T
         wScrn=  0.000000 ICntrl=       500 IOpCl=  0 I1Cent=   200000004 NGrid=           0
         NMat0=    1 NMatS0=      1 NMatT0=    0 NMatD0=    1 NMtDS0=    0 NMtDT0=    0
 Petite list used in FoFCou.
 Keep R1 ints in memory in symmetry-blocked form, NReq=23968673.
 Requested convergence on RMS density matrix=1.00D-08 within 128 cycles.
 Requested convergence on MAX density matrix=1.00D-06.
 Requested convergence on             energy=1.00D-06.
 No special actions if energy rises.
 SCF Done:  E(RHF) =  -152.917694742     A.U. after   11 cycles
            NFock= 11  Conv=0.69D-08     -V/T= 2.0024
 ExpMin= 2.97D-02 ExpMax= 1.17D+04 ExpMxC= 4.01D+02 IAcc=3 IRadAn=         5 AccDes= 0.00D+00
 HarFok:  IExCor=  205 AccDes= 0.00D+00 IRadAn=         5 IDoV=-2 UseB2=F ITyADJ=14
 ICtDFT= 12500011 ScaDFX=  1.000000  1.000000  1.000000  1.000000
 Range of M.O.s used for correlation:     4   105
 NBasis=   105 NAE=    12 NBE=    12 NFC=     3 NFV=     0
 NROrb=    102 NOA=     9 NOB=     9 NVA=    93 NVB=    93

 **** Warning!!: The largest alpha MO coefficient is  0.25139035D+02

 Fully direct method using O(ONN) memory.
 JobTyp=1 Pass  1:  I=   4 to  12 NPSUse= 40 ParTrn=T ParDer=T DoDerP=T.
 Spin components of T(2) and E(2):
     alpha-alpha T2 =       0.1995160834D-01 E2=     -0.6003109580D-01
     alpha-beta  T2 =       0.1190515953D+00 E2=     -0.3629427909D+00
     beta-beta   T2 =       0.1995160834D-01 E2=     -0.6003109580D-01
 ANorm=    0.1076547636D+01
 E2 =    -0.4830049825D+00 EUMP2 =    -0.15340069972487D+03
          IDoAtm=1111111
          Differentiating once with respect to electric field.
                with respect to dipole field.
          Differentiating once with respect to nuclear coordinates.
 Keep R1 ints in memory in symmetry-blocked form, NReq=23972688.
          There are     1 degrees of freedom in the 1st order CPHF.  IDoFFX=0 NUNeed=     1.
 LinEq1:  Iter=  0 NonCon=     1 RMS=5.39D-03 Max=7.27D-02 NDo=     1
 AX will form     1 AO Fock derivatives at one time.
 LinEq1:  Iter=  1 NonCon=     1 RMS=1.36D-03 Max=1.06D-02 NDo=     1
 LinEq1:  Iter=  2 NonCon=     1 RMS=4.69D-04 Max=4.83D-03 NDo=     1
 LinEq1:  Iter=  3 NonCon=     1 RMS=1.39D-04 Max=1.37D-03 NDo=     1
 LinEq1:  Iter=  4 NonCon=     1 RMS=4.74D-05 Max=4.47D-04 NDo=     1
 LinEq1:  Iter=  5 NonCon=     1 RMS=1.28D-05 Max=2.08D-04 NDo=     1
 LinEq1:  Iter=  6 NonCon=     1 RMS=3.56D-06 Max=2.34D-05 NDo=     1
 LinEq1:  Iter=  7 NonCon=     1 RMS=7.95D-07 Max=7.37D-06 NDo=     1
 LinEq1:  Iter=  8 NonCon=     1 RMS=1.40D-07 Max=1.03D-06 NDo=     1
 LinEq1:  Iter=  9 NonCon=     1 RMS=2.90D-08 Max=2.13D-07 NDo=     1
 LinEq1:  Iter= 10 NonCon=     1 RMS=6.55D-09 Max=5.63D-08 NDo=     1
 LinEq1:  Iter= 11 NonCon=     1 RMS=1.17D-09 Max=9.01D-09 NDo=     1
 LinEq1:  Iter= 12 NonCon=     1 RMS=2.02D-10 Max=1.17D-09 NDo=     1
 LinEq1:  Iter= 13 NonCon=     0 RMS=3.35D-11 Max=3.12D-10 NDo=     1
 Linear equations converged to 1.000D-10 1.000D-09 after    13 iterations.
 End of Minotr F.D. properties file   721 does not exist.
 End of Minotr F.D. properties file   722 does not exist.
 End of Minotr F.D. properties file   788 does not exist.
 Calling FoFJK, ICntrl=  10002127 FMM=F ISym2X=1 I1Cent= 0 IOpClX= 0 NMat=1 NMatS=1 NMatT=0.
 ***** Axes restored to original set *****
 -------------------------------------------------------------------
 Center     Atomic                   Forces (Hartrees/Bohr)
 Number     Number              X              Y              Z
 -------------------------------------------------------------------
      1        6          -0.000355952   -0.001466993    0.000383638
      2        6          -0.000037096    0.000742220   -0.000908269
      3        1          -0.000066000   -0.000451896    0.000261705
      4        8          -0.000046298   -0.000565838    0.000447195
      5        1           0.000527018    0.001376233    0.000275017
      6        1           0.000209235    0.000600575    0.000051782
      7        1          -0.000230908   -0.000234301   -0.000511067
 -------------------------------------------------------------------
 Cartesian Forces:  Max     0.001466993 RMS     0.000602632

 GradGradGradGradGradGradGradGradGradGradGradGradGradGradGradGradGradGrad
 Berny optimization.
 Using GEDIIS/GDIIS optimizer.
 FormGI is forming the generalized inverse of G from B-inverse, IUseBI=4.
 Internal  Forces:  Max     0.002720297 RMS     0.000860011
 Search for a local minimum.
 Step number   2 out of a maximum of   29
 All quantities printed in internal units (Hartrees-Bohrs-Radians)
 Mixed Optimization -- En-DIIS/RFO-DIIS
 Update second derivatives using D2CorX and points    1    2
 DE= -7.74D-04 DEPred=-8.69D-04 R= 8.91D-01
 TightC=F SS=  1.41D+00  RLast= 7.02D-02 DXNew= 5.0454D-01 2.1066D-01
 Trust test= 8.91D-01 RLast= 7.02D-02 DXMaxT set to 3.00D-01
 The second derivative matrix:
                          R1        R2        R3        R4        R5
           R1           0.63065
           R2           0.00278   0.35398
           R3           0.01186  -0.00116   0.52152
           R4           0.00951   0.00106   0.00306   0.35521
           R5           0.00792  -0.00093   0.00069   0.00208   0.35576
           R6          -0.00952  -0.00074  -0.00273  -0.00205  -0.00183
           A1          -0.01506  -0.00244  -0.00561  -0.00294  -0.00386
           A2           0.00096  -0.00402  -0.00389   0.00119  -0.00294
           A3          -0.02796  -0.00579  -0.01170  -0.00515  -0.00815
           A4           0.01750   0.00468   0.00840   0.00297   0.00590
           A5          -0.00274  -0.00028  -0.00086  -0.00057  -0.00058
           A6          -0.01475  -0.00440  -0.00755  -0.00239  -0.00532
           A7          -0.00025   0.00016   0.00011  -0.00010   0.00009
           D1          -0.00000  -0.00000  -0.00000  -0.00000  -0.00000
           D2           0.00000   0.00000   0.00000   0.00000   0.00000
           D3           0.00000   0.00000   0.00000   0.00000   0.00000
           D4           0.00000   0.00000   0.00000   0.00000   0.00000
           D5          -0.00000  -0.00000  -0.00000  -0.00000  -0.00000
           D6           0.00000   0.00000   0.00000   0.00000   0.00000
                          R6        A1        A2        A3        A4
           R6           0.53012
           A1           0.00319   0.16406
           A2          -0.00049  -0.00351   0.24120
           A3           0.00584   0.00655  -0.00928   0.16945
           A4          -0.00358  -0.00327   0.00809  -0.00367   0.16030
           A5           0.00059   0.00087  -0.00029   0.00154  -0.00090
           A6           0.00299   0.00241  -0.00780   0.00213   0.00060
           A7           0.00007   0.00022   0.00038   0.00053  -0.00043
           D1           0.00000   0.00000  -0.00000   0.00000  -0.00000
           D2          -0.00000  -0.00000   0.00000  -0.00000   0.00000
           D3          -0.00000  -0.00000   0.00000  -0.00000  -0.00000
           D4          -0.00000  -0.00000   0.00000  -0.00000   0.00000
           D5           0.00000   0.00000  -0.00000   0.00000   0.00000
           D6          -0.00000  -0.00000   0.00000  -0.00000   0.00000
                          A5        A6        A7        D1        D2
           A5           0.16017
           A6           0.00074   0.15866
           A7           0.00003   0.00041   0.15998
           D1           0.00000  -0.00000   0.00000   0.02970
           D2          -0.00000   0.00000  -0.00000  -0.00000   0.02970
           D3          -0.00000   0.00000  -0.00000   0.00000  -0.00000
           D4          -0.00000   0.00000  -0.00000  -0.00000   0.00000
           D5           0.00000  -0.00000   0.00000  -0.00000   0.00000
           D6          -0.00000   0.00000  -0.00000  -0.00000   0.00000
                          D3        D4        D5        D6
           D3           0.02970
           D4          -0.00000   0.02970
           D5           0.00000   0.00000   0.02160
           D6          -0.00000   0.00000   0.00000   0.02160
 ITU=  1  0
 Use linear search instead of GDIIS.
     Eigenvalues ---    0.02160   0.02738   0.02970   0.02970   0.15444
     Eigenvalues ---    0.16000   0.16000   0.16045   0.22803   0.35241
     Eigenvalues ---    0.35516   0.35743   0.52019   0.52959   0.63595
 RFO step:  Lambda=-2.91892677D-05 EMin= 2.15979795D-02
 Quartic linear search produced a step of -0.08336.
 Iteration  1 RMS(Cart)=  0.00468427 RMS(Int)=  0.00001073
 Iteration  2 RMS(Cart)=  0.00000985 RMS(Int)=  0.00000000
 Iteration  3 RMS(Cart)=  0.00000000 RMS(Int)=  0.00000000
 ClnCor:  largest displacement from symmetrization is 8.03D-09 for atom     7.
 Variable       Old X    -DE/DX   Delta X   Delta X   Delta X     New X
                                 (Linear)    (Quad)   (Total)
    R1        2.55344  -0.00272  -0.00281  -0.00094  -0.00375   2.54969
    R2        2.06381   0.00004  -0.00135   0.00167   0.00032   2.06413
    R3        2.59793  -0.00053  -0.00160   0.00094  -0.00066   2.59728
    R4        2.06071  -0.00064  -0.00077  -0.00077  -0.00153   2.05917
    R5        2.06783  -0.00033  -0.00165   0.00107  -0.00058   2.06725
    R6        1.83076   0.00061   0.00063   0.00031   0.00095   1.83171
    A1        2.14346  -0.00014   0.00174  -0.00341  -0.00167   2.14178
    A2        2.21269  -0.00080  -0.00339   0.00052  -0.00287   2.20982
    A3        1.92704   0.00094   0.00165   0.00289   0.00454   1.93158
    A4        2.09376  -0.00149   0.00028  -0.00882  -0.00854   2.08522
    A5        2.12978   0.00018   0.00052   0.00043   0.00095   2.13073
    A6        2.05964   0.00131  -0.00080   0.00839   0.00759   2.06723
    A7        1.89381  -0.00001   0.00028  -0.00035  -0.00008   1.89373
    D1        0.00000  -0.00000   0.00000   0.00000  -0.00000  -0.00000
    D2        3.14159  -0.00000   0.00000  -0.00000   0.00000   3.14159
    D3        3.14159   0.00000   0.00000   0.00000   0.00000   3.14159
    D4       -0.00000   0.00000   0.00000   0.00000   0.00000   0.00000
    D5        0.00000  -0.00000  -0.00000  -0.00000   0.00000   0.00000
    D6        3.14159   0.00000   0.00000  -0.00000   0.00000   3.14159
         Item               Value     Threshold  Converged?
 Maximum Force            0.002720     0.000450     NO 
 RMS     Force            0.000860     0.000300     NO 
 Maximum Displacement     0.012977     0.001800     NO 
 RMS     Displacement     0.004687     0.001200     NO 
 Predicted change in Energy=-2.076876D-05
 GradGradGradGradGradGradGradGradGradGradGradGradGradGradGradGradGradGrad

                          Input orientation:                          
 ---------------------------------------------------------------------
 Center     Atomic      Atomic             Coordinates (Angstroms)
 Number     Number       Type             X           Y           Z
 ---------------------------------------------------------------------
      1          6           0       -0.467238    1.201501    0.057944
      2          6           0       -0.917900   -0.062160   -0.085252
      3          1           0       -0.059461    1.579875    0.997972
      4          8           0       -0.446243    2.178740   -0.908282
      5          1           0       -0.879600   -0.744460    0.763497
      6          1           0       -1.324368   -0.430315   -1.031802
      7          1           0       -0.813608    1.810548   -1.726215
 ---------------------------------------------------------------------
                    Distance matrix (angstroms):
                    1          2          3          4          5
     1  C    0.000000
     2  C    1.349237   0.000000
     3  H    1.092292   2.146292   0.000000
     4  O    1.374420   2.433407   2.035201   0.000000
     5  H    2.110595   1.089667   2.475912   3.395252   0.000000
     6  H    2.141271   1.093943   3.124234   2.755635   1.876061
     7  H    1.916803   2.492122   2.836044   0.969297   3.568065
                    6          7
     6  H    0.000000
     7  H    2.400948   0.000000
 Stoichiometry    C2H4O
 Framework group  CS[SG(C2H4O)]
 Deg. of freedom    11
 Full point group                 CS      NOp   2
 Largest Abelian subgroup         CS      NOp   2
 Largest concise Abelian subgroup C1      NOp   1
                         Standard orientation:                         
 ---------------------------------------------------------------------
 Center     Atomic      Atomic             Coordinates (Angstroms)
 Number     Number       Type             X           Y           Z
 ---------------------------------------------------------------------
      1          6           0        0.000000    0.448650   -0.000000
      2          6           0        1.225899   -0.114921    0.000000
      3          1           0       -0.152509    1.530242   -0.000000
      4          8           0       -1.205598   -0.211322    0.000000
      5          1           0        2.109283    0.523050   -0.000000
      6          1           0        1.366657   -1.199771    0.000000
      7          1           0       -1.034043   -1.165317    0.000000
 ---------------------------------------------------------------------
 Rotational constants (GHZ):          59.1780525          10.3489606           8.8085380
 Standard basis: Aug-CC-pVDZ (5D, 7F)
 There are    82 symmetry adapted cartesian basis functions of A'  symmetry.
 There are    29 symmetry adapted cartesian basis functions of A"  symmetry.
 There are    76 symmetry adapted basis functions of A'  symmetry.
 There are    29 symmetry adapted basis functions of A"  symmetry.
   105 basis functions,   173 primitive gaussians,   111 cartesian basis functions
    12 alpha electrons       12 beta electrons
       nuclear repulsion energy        69.6096706414 Hartrees.
 NAtoms=    7 NActive=    7 NUniq=    7 SFac= 1.00D+00 NAtFMM=   60 NAOKFM=F Big=F
 Integral buffers will be    131072 words long.
 Raffenetti 1 integral format.
 Two-electron integral symmetry is turned on.
 One-electron integrals computed using PRISM.
 NBasis=   105 RedAO= T EigKep=  7.02D-05  NBF=    76    29
 NBsUse=   105 1.00D-06 EigRej= -1.00D+00 NBFU=    76    29
 Initial guess from the checkpoint file:  "/scr/Gau-73288.chk"
 B after Tr=     0.000000    0.000000    0.000000
         Rot=    1.000000    0.000000   -0.000000   -0.000746 Ang=  -0.09 deg.
 Initial guess orbital symmetries:
       Occupied  (A') (A') (A') (A') (A') (A') (A') (A') (A") (A')
                 (A') (A")
       Virtual   (A') (A') (A') (A') (A") (A") (A') (A') (A') (A')
                 (A') (A") (A') (A') (A") (A') (A') (A') (A') (A")
                 (A') (A") (A') (A') (A") (A') (A') (A') (A") (A')
                 (A') (A') (A') (A") (A') (A') (A') (A") (A') (A")
                 (A') (A') (A") (A') (A") (A') (A') (A') (A") (A')
                 (A") (A') (A") (A') (A') (A') (A") (A') (A") (A')
                 (A') (A') (A') (A") (A") (A') (A') (A") (A') (A")
                 (A') (A') (A') (A") (A') (A') (A") (A') (A") (A')
                 (A') (A') (A') (A') (A') (A') (A') (A') (A") (A")
                 (A') (A') (A')
 Keep R1 ints in memory in symmetry-blocked form, NReq=23968673.
 Requested convergence on RMS density matrix=1.00D-08 within 128 cycles.
 Requested convergence on MAX density matrix=1.00D-06.
 Requested convergence on             energy=1.00D-06.
 No special actions if energy rises.
 SCF Done:  E(RHF) =  -152.917857493     A.U. after    9 cycles
            NFock=  9  Conv=0.48D-08     -V/T= 2.0023
 ExpMin= 2.97D-02 ExpMax= 1.17D+04 ExpMxC= 4.01D+02 IAcc=3 IRadAn=         5 AccDes= 0.00D+00
 HarFok:  IExCor=  205 AccDes= 0.00D+00 IRadAn=         5 IDoV=-2 UseB2=F ITyADJ=14
 ICtDFT= 12500011 ScaDFX=  1.000000  1.000000  1.000000  1.000000
 Range of M.O.s used for correlation:     4   105
 NBasis=   105 NAE=    12 NBE=    12 NFC=     3 NFV=     0
 NROrb=    102 NOA=     9 NOB=     9 NVA=    93 NVB=    93

 **** Warning!!: The largest alpha MO coefficient is  0.24696126D+02

 Fully direct method using O(ONN) memory.
 JobTyp=1 Pass  1:  I=   4 to  12 NPSUse= 40 ParTrn=T ParDer=T DoDerP=T.
 Spin components of T(2) and E(2):
     alpha-alpha T2 =       0.1993481567D-01 E2=     -0.6002103364D-01
     alpha-beta  T2 =       0.1189180612D+00 E2=     -0.3628249615D+00
     beta-beta   T2 =       0.1993481567D-01 E2=     -0.6002103364D-01
 ANorm=    0.1076470015D+01
 E2 =    -0.4828670288D+00 EUMP2 =    -0.15340072452168D+03
          IDoAtm=1111111
          Differentiating once with respect to electric field.
                with respect to dipole field.
          Differentiating once with respect to nuclear coordinates.
 Keep R1 ints in memory in symmetry-blocked form, NReq=23972747.
          There are     1 degrees of freedom in the 1st order CPHF.  IDoFFX=0 NUNeed=     1.
 LinEq1:  Iter=  0 NonCon=     1 RMS=5.38D-03 Max=7.29D-02 NDo=     1
 AX will form     1 AO Fock derivatives at one time.
 LinEq1:  Iter=  1 NonCon=     1 RMS=1.35D-03 Max=1.06D-02 NDo=     1
 LinEq1:  Iter=  2 NonCon=     1 RMS=4.68D-04 Max=4.81D-03 NDo=     1
 LinEq1:  Iter=  3 NonCon=     1 RMS=1.38D-04 Max=1.36D-03 NDo=     1
 LinEq1:  Iter=  4 NonCon=     1 RMS=4.73D-05 Max=4.44D-04 NDo=     1
 LinEq1:  Iter=  5 NonCon=     1 RMS=1.27D-05 Max=2.04D-04 NDo=     1
 LinEq1:  Iter=  6 NonCon=     1 RMS=3.53D-06 Max=2.33D-05 NDo=     1
 LinEq1:  Iter=  7 NonCon=     1 RMS=7.85D-07 Max=7.26D-06 NDo=     1
 LinEq1:  Iter=  8 NonCon=     1 RMS=1.38D-07 Max=9.71D-07 NDo=     1
 LinEq1:  Iter=  9 NonCon=     1 RMS=2.80D-08 Max=1.99D-07 NDo=     1
 LinEq1:  Iter= 10 NonCon=     1 RMS=6.24D-09 Max=5.43D-08 NDo=     1
 LinEq1:  Iter= 11 NonCon=     1 RMS=1.15D-09 Max=9.39D-09 NDo=     1
 LinEq1:  Iter= 12 NonCon=     1 RMS=2.01D-10 Max=1.17D-09 NDo=     1
 LinEq1:  Iter= 13 NonCon=     0 RMS=3.33D-11 Max=3.15D-10 NDo=     1
 Linear equations converged to 1.000D-10 1.000D-09 after    13 iterations.
 End of Minotr F.D. properties file   721 does not exist.
 End of Minotr F.D. properties file   722 does not exist.
 End of Minotr F.D. properties file   788 does not exist.
 Calling FoFJK, ICntrl=  10002127 FMM=F ISym2X=1 I1Cent= 0 IOpClX= 0 NMat=1 NMatS=1 NMatT=0.
 ***** Axes restored to original set *****
 -------------------------------------------------------------------
 Center     Atomic                   Forces (Hartrees/Bohr)
 Number     Number              X              Y              Z
 -------------------------------------------------------------------
      1        6           0.000032185    0.000084477    0.000016339
      2        6          -0.000308033   -0.000508880   -0.000473793
      3        1          -0.000056795   -0.000094299   -0.000086858
      4        8           0.000052814   -0.000000473    0.000174167
      5        1           0.000175680    0.000327373    0.000230868
      6        1           0.000125368    0.000253415    0.000143778
      7        1          -0.000021219   -0.000061612   -0.000004501
 -------------------------------------------------------------------
 Cartesian Forces:  Max     0.000508880 RMS     0.000211092

 GradGradGradGradGradGradGradGradGradGradGradGradGradGradGradGradGradGrad
 Berny optimization.
 Using GEDIIS/GDIIS optimizer.
 FormGI is forming the generalized inverse of G from B-inverse, IUseBI=4.
 Internal  Forces:  Max     0.000471124 RMS     0.000171414
 Search for a local minimum.
 Step number   3 out of a maximum of   29
 All quantities printed in internal units (Hartrees-Bohrs-Radians)
 Mixed Optimization -- En-DIIS/RFO-DIIS
 Swapping is turned off.
 Update second derivatives using D2CorX and points    1    2    3
 DE= -2.48D-05 DEPred=-2.08D-05 R= 1.19D+00
 TightC=F SS=  1.41D+00  RLast= 1.35D-02 DXNew= 5.0454D-01 4.0386D-02
 Trust test= 1.19D+00 RLast= 1.35D-02 DXMaxT set to 3.00D-01
 The second derivative matrix:
                          R1        R2        R3        R4        R5
           R1           0.65038
           R2          -0.00968   0.35594
           R3           0.00226  -0.00163   0.51897
           R4           0.01395  -0.00193   0.00068   0.35619
           R5          -0.00991   0.00025  -0.00178  -0.00229   0.35458
           R6          -0.01240   0.00188  -0.00044  -0.00267   0.00216
           A1          -0.01890  -0.00274  -0.00676  -0.00393  -0.00519
           A2           0.01234  -0.00835  -0.00627   0.00387  -0.00825
           A3          -0.03640  -0.00111  -0.00831  -0.00706  -0.00159
           A4           0.00198   0.00051   0.00046  -0.00110  -0.00436
           A5          -0.00100   0.00019   0.00004  -0.00012   0.00057
           A6          -0.00098  -0.00071  -0.00051   0.00122   0.00379
           A7          -0.00683   0.00092  -0.00045  -0.00171   0.00017
           D1           0.00000  -0.00000   0.00000   0.00000  -0.00000
           D2           0.00000   0.00000   0.00000  -0.00000   0.00000
           D3           0.00000   0.00000   0.00000   0.00000   0.00000
           D4           0.00000  -0.00000   0.00000   0.00000   0.00000
           D5          -0.00000  -0.00000  -0.00000  -0.00000  -0.00000
           D6          -0.00000   0.00000  -0.00000  -0.00000   0.00000
                          R6        A1        A2        A3        A4
           R6           0.53042
           A1           0.00415   0.16334
           A2          -0.00256  -0.00427   0.24629
           A3           0.00715   0.00794  -0.01387   0.17298
           A4           0.00068  -0.00734   0.00634   0.00158   0.13746
           A5           0.00012   0.00130  -0.00008   0.00095   0.00161
           A6          -0.00080   0.00604  -0.00626  -0.00254   0.02094
           A7           0.00151  -0.00017  -0.00171   0.00300  -0.00361
           D1          -0.00000   0.00000   0.00000  -0.00000   0.00000
           D2          -0.00000  -0.00000   0.00000   0.00000  -0.00000
           D3          -0.00000  -0.00000   0.00000  -0.00000  -0.00000
           D4          -0.00000   0.00000   0.00000  -0.00000   0.00000
           D5           0.00000   0.00000  -0.00000   0.00000   0.00000
           D6           0.00000  -0.00000  -0.00000   0.00000  -0.00000
                          A5        A6        A7        D1        D2
           A5           0.15989
           A6          -0.00150   0.14056
           A7           0.00037   0.00324   0.16018
           D1          -0.00000  -0.00000  -0.00000   0.02970
           D2          -0.00000   0.00000  -0.00000  -0.00000   0.02970
           D3          -0.00000   0.00000  -0.00000   0.00000  -0.00000
           D4          -0.00000  -0.00000   0.00000  -0.00000   0.00000
           D5           0.00000  -0.00000   0.00000  -0.00000   0.00000
           D6           0.00000   0.00000   0.00000  -0.00000   0.00000
                          D3        D4        D5        D6
           D3           0.02970
           D4           0.00000   0.02970
           D5           0.00000  -0.00000   0.02160
           D6          -0.00000   0.00000   0.00000   0.02160
 ITU=  1  1  0
     Eigenvalues ---    0.02160   0.02737   0.02970   0.02970   0.11436
     Eigenvalues ---    0.15997   0.16000   0.16180   0.23321   0.35274
     Eigenvalues ---    0.35524   0.35803   0.51896   0.52923   0.65624
 En-DIIS/RFO-DIIS/Sim-DIIS IScMMF=       -3 using points:     3    2
 RFO step:  Lambda=-4.18164756D-06.
 DidBck=F Rises=F RFO-DIIS coefs:    1.36687   -0.36687
 Iteration  1 RMS(Cart)=  0.00180531 RMS(Int)=  0.00000356
 Iteration  2 RMS(Cart)=  0.00000332 RMS(Int)=  0.00000001
 Iteration  3 RMS(Cart)=  0.00000000 RMS(Int)=  0.00000001
 ClnCor:  largest displacement from symmetrization is 8.99D-09 for atom     5.
 Variable       Old X    -DE/DX   Delta X   Delta X   Delta X     New X
                                 (Linear)    (Quad)   (Total)
    R1        2.54969  -0.00005  -0.00138   0.00126  -0.00011   2.54957
    R2        2.06413  -0.00013   0.00012  -0.00046  -0.00034   2.06379
    R3        2.59728  -0.00016  -0.00024  -0.00007  -0.00031   2.59697
    R4        2.05917  -0.00002  -0.00056   0.00047  -0.00010   2.05907
    R5        2.06725  -0.00026  -0.00021  -0.00060  -0.00082   2.06644
    R6        1.83171   0.00004   0.00035  -0.00026   0.00009   1.83180
    A1        2.14178  -0.00012  -0.00061  -0.00036  -0.00097   2.14081
    A2        2.20982   0.00012  -0.00105   0.00177   0.00071   2.21054
    A3        1.93158  -0.00000   0.00167  -0.00140   0.00026   1.93184
    A4        2.08522  -0.00047  -0.00313  -0.00101  -0.00414   2.08108
    A5        2.13073   0.00004   0.00035   0.00000   0.00035   2.13109
    A6        2.06723   0.00043   0.00278   0.00100   0.00379   2.07102
    A7        1.89373  -0.00010  -0.00003  -0.00077  -0.00080   1.89293
    D1       -0.00000   0.00000   0.00000   0.00000  -0.00000  -0.00000
    D2        3.14159  -0.00000   0.00000  -0.00000   0.00000   3.14159
    D3        3.14159  -0.00000   0.00000  -0.00000   0.00000  -3.14159
    D4        0.00000  -0.00000   0.00000  -0.00000  -0.00000  -0.00000
    D5       -0.00000  -0.00000   0.00000   0.00000   0.00000   0.00000
    D6        3.14159  -0.00000   0.00000  -0.00000   0.00000   3.14159
         Item               Value     Threshold  Converged?
 Maximum Force            0.000471     0.000450     NO 
 RMS     Force            0.000171     0.000300     YES
 Maximum Displacement     0.005008     0.001800     NO 
 RMS     Displacement     0.001806     0.001200     NO 
 Predicted change in Energy=-2.090883D-06
 GradGradGradGradGradGradGradGradGradGradGradGradGradGradGradGradGradGrad

                          Input orientation:                          
 ---------------------------------------------------------------------
 Center     Atomic      Atomic             Coordinates (Angstroms)
 Number     Number       Type             X           Y           Z
 ---------------------------------------------------------------------
      1          6           0       -0.467590    1.200945    0.057372
      2          6           0       -0.918317   -0.062589   -0.086171
      3          1           0       -0.060096    1.578042    0.997826
      4          8           0       -0.446049    2.178934   -0.907849
      5          1           0       -0.878320   -0.741810    0.764900
      6          1           0       -1.324639   -0.430675   -1.032311
      7          1           0       -0.813407    1.810881   -1.725904
 ---------------------------------------------------------------------
                    Distance matrix (angstroms):
                    1          2          3          4          5
     1  C    0.000000
     2  C    1.349177   0.000000
     3  H    1.092112   2.145522   0.000000
     4  O    1.374255   2.433643   2.035100   0.000000
     5  H    2.107983   1.089616   2.470923   3.393478   0.000000
     6  H    2.141058   1.093511   3.123375   2.756351   1.877758
     7  H    1.916164   2.491912   2.835560   0.969344   3.567149
                    6          7
     6  H    0.000000
     7  H    2.401459   0.000000
 Stoichiometry    C2H4O
 Framework group  CS[SG(C2H4O)]
 Deg. of freedom    11
 Full point group                 CS      NOp   2
 Largest Abelian subgroup         CS      NOp   2
 Largest concise Abelian subgroup C1      NOp   1
                         Standard orientation:                         
 ---------------------------------------------------------------------
 Center     Atomic      Atomic             Coordinates (Angstroms)
 Number     Number       Type             X           Y           Z
 ---------------------------------------------------------------------
      1          6           0        0.000000    0.448121   -0.000000
      2          6           0        1.226084   -0.114904    0.000000
      3          1           0       -0.151888    1.529619   -0.000000
      4          8           0       -1.205644   -0.211424    0.000000
      5          1           0        2.106505    0.527062   -0.000000
      6          1           0        1.367629   -1.199216    0.000000
      7          1           0       -1.033592   -1.165377    0.000000
 ---------------------------------------------------------------------
 Rotational constants (GHZ):          59.2137981          10.3493164           8.8095874
 Standard basis: Aug-CC-pVDZ (5D, 7F)
 There are    82 symmetry adapted cartesian basis functions of A'  symmetry.
 There are    29 symmetry adapted cartesian basis functions of A"  symmetry.
 There are    76 symmetry adapted basis functions of A'  symmetry.
 There are    29 symmetry adapted basis functions of A"  symmetry.
   105 basis functions,   173 primitive gaussians,   111 cartesian basis functions
    12 alpha electrons       12 beta electrons
       nuclear repulsion energy        69.6168564528 Hartrees.
 NAtoms=    7 NActive=    7 NUniq=    7 SFac= 1.00D+00 NAtFMM=   60 NAOKFM=F Big=F
 Integral buffers will be    131072 words long.
 Raffenetti 1 integral format.
 Two-electron integral symmetry is turned on.
 One-electron integrals computed using PRISM.
 NBasis=   105 RedAO= T EigKep=  7.02D-05  NBF=    76    29
 NBsUse=   105 1.00D-06 EigRej= -1.00D+00 NBFU=    76    29
 Initial guess from the checkpoint file:  "/scr/Gau-73288.chk"
 B after Tr=     0.000000   -0.000000   -0.000000
         Rot=    1.000000   -0.000000   -0.000000   -0.000181 Ang=  -0.02 deg.
 Initial guess orbital symmetries:
       Occupied  (A') (A') (A') (A') (A') (A') (A') (A') (A") (A')
                 (A') (A")
       Virtual   (A') (A') (A') (A') (A") (A") (A') (A') (A') (A')
                 (A') (A") (A') (A') (A") (A') (A') (A') (A') (A")
                 (A') (A") (A') (A') (A") (A') (A') (A') (A") (A')
                 (A') (A') (A') (A") (A') (A') (A') (A") (A') (A")
                 (A') (A') (A") (A') (A") (A') (A') (A') (A") (A')
                 (A") (A') (A") (A') (A') (A') (A") (A') (A") (A')
                 (A') (A') (A') (A") (A") (A') (A') (A") (A') (A")
                 (A') (A') (A') (A") (A') (A') (A") (A') (A") (A')
                 (A') (A') (A') (A') (A') (A') (A') (A') (A") (A")
                 (A') (A') (A')
 Keep R1 ints in memory in symmetry-blocked form, NReq=23968673.
 Requested convergence on RMS density matrix=1.00D-08 within 128 cycles.
 Requested convergence on MAX density matrix=1.00D-06.
 Requested convergence on             energy=1.00D-06.
 No special actions if energy rises.
 SCF Done:  E(RHF) =  -152.917872502     A.U. after    8 cycles
            NFock=  8  Conv=0.64D-08     -V/T= 2.0023
 ExpMin= 2.97D-02 ExpMax= 1.17D+04 ExpMxC= 4.01D+02 IAcc=3 IRadAn=         5 AccDes= 0.00D+00
 HarFok:  IExCor=  205 AccDes= 0.00D+00 IRadAn=         5 IDoV=-2 UseB2=F ITyADJ=14
 ICtDFT= 12500011 ScaDFX=  1.000000  1.000000  1.000000  1.000000
 Range of M.O.s used for correlation:     4   105
 NBasis=   105 NAE=    12 NBE=    12 NFC=     3 NFV=     0
 NROrb=    102 NOA=     9 NOB=     9 NVA=    93 NVB=    93

 **** Warning!!: The largest alpha MO coefficient is  0.24599296D+02

 Fully direct method using O(ONN) memory.
 JobTyp=1 Pass  1:  I=   4 to  12 NPSUse= 40 ParTrn=T ParDer=T DoDerP=T.
 Spin components of T(2) and E(2):
     alpha-alpha T2 =       0.1993343107D-01 E2=     -0.6002183505D-01
     alpha-beta  T2 =       0.1188997197D+00 E2=     -0.3628106241D+00
     beta-beta   T2 =       0.1993343107D-01 E2=     -0.6002183505D-01
 ANorm=    0.1076460209D+01
 E2 =    -0.4828542942D+00 EUMP2 =    -0.15340072679617D+03
          IDoAtm=1111111
          Differentiating once with respect to electric field.
                with respect to dipole field.
          Differentiating once with respect to nuclear coordinates.
 Keep R1 ints in memory in symmetry-blocked form, NReq=23972688.
          There are     1 degrees of freedom in the 1st order CPHF.  IDoFFX=0 NUNeed=     1.
 LinEq1:  Iter=  0 NonCon=     1 RMS=5.38D-03 Max=7.30D-02 NDo=     1
 AX will form     1 AO Fock derivatives at one time.
 LinEq1:  Iter=  1 NonCon=     1 RMS=1.35D-03 Max=1.07D-02 NDo=     1
 LinEq1:  Iter=  2 NonCon=     1 RMS=4.68D-04 Max=4.80D-03 NDo=     1
 LinEq1:  Iter=  3 NonCon=     1 RMS=1.38D-04 Max=1.36D-03 NDo=     1
 LinEq1:  Iter=  4 NonCon=     1 RMS=4.72D-05 Max=4.44D-04 NDo=     1
 LinEq1:  Iter=  5 NonCon=     1 RMS=1.27D-05 Max=2.04D-04 NDo=     1
 LinEq1:  Iter=  6 NonCon=     1 RMS=3.53D-06 Max=2.33D-05 NDo=     1
 LinEq1:  Iter=  7 NonCon=     1 RMS=7.85D-07 Max=7.27D-06 NDo=     1
 LinEq1:  Iter=  8 NonCon=     1 RMS=1.38D-07 Max=9.78D-07 NDo=     1
 LinEq1:  Iter=  9 NonCon=     1 RMS=2.81D-08 Max=2.00D-07 NDo=     1
 LinEq1:  Iter= 10 NonCon=     1 RMS=6.28D-09 Max=5.45D-08 NDo=     1
 LinEq1:  Iter= 11 NonCon=     1 RMS=1.15D-09 Max=9.31D-09 NDo=     1
 LinEq1:  Iter= 12 NonCon=     1 RMS=2.01D-10 Max=1.17D-09 NDo=     1
 LinEq1:  Iter= 13 NonCon=     0 RMS=3.33D-11 Max=3.14D-10 NDo=     1
 Linear equations converged to 1.000D-10 1.000D-09 after    13 iterations.
 End of Minotr F.D. properties file   721 does not exist.
 End of Minotr F.D. properties file   722 does not exist.
 End of Minotr F.D. properties file   788 does not exist.
 Calling FoFJK, ICntrl=  10002127 FMM=F ISym2X=1 I1Cent= 0 IOpClX= 0 NMat=1 NMatS=1 NMatT=0.
 ***** Axes restored to original set *****
 -------------------------------------------------------------------
 Center     Atomic                   Forces (Hartrees/Bohr)
 Number     Number              X              Y              Z
 -------------------------------------------------------------------
      1        6           0.000047244    0.000151236   -0.000004866
      2        6          -0.000077998   -0.000177694   -0.000068233
      3        1           0.000002132   -0.000000959    0.000008027
      4        8          -0.000003674   -0.000037806    0.000027971
      5        1           0.000018304    0.000017854    0.000041273
      6        1           0.000009586    0.000015496    0.000015107
      7        1           0.000004406    0.000031873   -0.000019278
 -------------------------------------------------------------------
 Cartesian Forces:  Max     0.000177694 RMS     0.000059387

 GradGradGradGradGradGradGradGradGradGradGradGradGradGradGradGradGradGrad
 Berny optimization.
 Using GEDIIS/GDIIS optimizer.
 FormGI is forming the generalized inverse of G from B-inverse, IUseBI=4.
 Internal  Forces:  Max     0.000153183 RMS     0.000044631
 Search for a local minimum.
 Step number   4 out of a maximum of   29
 All quantities printed in internal units (Hartrees-Bohrs-Radians)
 Mixed Optimization -- En-DIIS/RFO-DIIS
 Swapping is turned off.
 Update second derivatives using D2CorX and points    1    2    3    4
 DE= -2.27D-06 DEPred=-2.09D-06 R= 1.09D+00
 TightC=F SS=  1.41D+00  RLast= 5.89D-03 DXNew= 5.0454D-01 1.7671D-02
 Trust test= 1.09D+00 RLast= 5.89D-03 DXMaxT set to 3.00D-01
 The second derivative matrix:
                          R1        R2        R3        R4        R5
           R1           0.64530
           R2          -0.00531   0.36117
           R3           0.00205   0.00363   0.52279
           R4           0.01287  -0.00178  -0.00024   0.35599
           R5          -0.00328   0.00600   0.00320  -0.00207   0.35964
           R6          -0.00946   0.00162   0.00063  -0.00195   0.00237
           A1          -0.01191  -0.00420  -0.00802  -0.00255  -0.00755
           A2           0.00496  -0.00633  -0.00537   0.00261  -0.00424
           A3          -0.03132  -0.00005  -0.00523  -0.00608   0.00019
           A4           0.01786   0.00054  -0.00186   0.00110  -0.00808
           A5          -0.00069   0.00003   0.00033   0.00010   0.00100
           A6          -0.01717  -0.00057   0.00153  -0.00121   0.00708
           A7           0.00509   0.00370   0.00323   0.00052   0.00444
           D1           0.00000   0.00000   0.00000   0.00000   0.00000
           D2           0.00000   0.00000   0.00000   0.00000   0.00000
           D3          -0.00000  -0.00000  -0.00000  -0.00000  -0.00000
           D4           0.00000  -0.00000  -0.00000   0.00000  -0.00000
           D5          -0.00000  -0.00000  -0.00000  -0.00000  -0.00000
           D6           0.00000   0.00000   0.00000   0.00000   0.00000
                          R6        A1        A2        A3        A4
           R6           0.52935
           A1           0.00356   0.16315
           A2          -0.00153  -0.00141   0.24096
           A3           0.00551   0.00634  -0.01166   0.17093
           A4           0.00131  -0.00846   0.01429   0.00165   0.13014
           A5          -0.00025   0.00176  -0.00062   0.00037   0.00374
           A6          -0.00106   0.00670  -0.01367  -0.00202   0.02612
           A7          -0.00005   0.00082   0.00058   0.00106   0.00383
           D1          -0.00000   0.00000  -0.00000  -0.00000   0.00000
           D2          -0.00000   0.00000  -0.00000  -0.00000   0.00000
           D3           0.00000  -0.00000   0.00000   0.00000  -0.00000
           D4          -0.00000   0.00000   0.00000  -0.00000   0.00000
           D5           0.00000   0.00000  -0.00000   0.00000   0.00000
           D6          -0.00000   0.00000  -0.00000  -0.00000   0.00000
                          A5        A6        A7        D1        D2
           A5           0.15963
           A6          -0.00337   0.13725
           A7           0.00007  -0.00390   0.16452
           D1          -0.00000  -0.00000   0.00000   0.02970
           D2          -0.00000  -0.00000   0.00000  -0.00000   0.02970
           D3           0.00000   0.00000  -0.00000   0.00000   0.00000
           D4           0.00000  -0.00000  -0.00000   0.00000   0.00000
           D5           0.00000  -0.00000  -0.00000   0.00000   0.00000
           D6          -0.00000  -0.00000   0.00000  -0.00000  -0.00000
                          D3        D4        D5        D6
           D3           0.02970
           D4          -0.00000   0.02970
           D5          -0.00000  -0.00000   0.02160
           D6           0.00000   0.00000   0.00000   0.02160
 ITU=  1  1  1  0
     Eigenvalues ---    0.02160   0.02736   0.02970   0.02970   0.09989
     Eigenvalues ---    0.16003   0.16143   0.16519   0.22884   0.35447
     Eigenvalues ---    0.35524   0.36717   0.52286   0.52880   0.64969
 En-DIIS/RFO-DIIS/Sim-DIIS IScMMF=       -3 using points:     4    3    2
 RFO step:  Lambda=-1.45509661D-07.
 DidBck=F Rises=F RFO-DIIS coefs:    1.14075   -0.14781    0.00706
 Iteration  1 RMS(Cart)=  0.00045159 RMS(Int)=  0.00000014
 Iteration  2 RMS(Cart)=  0.00000013 RMS(Int)=  0.00000001
 ClnCor:  largest displacement from symmetrization is 5.58D-09 for atom     1.
 Variable       Old X    -DE/DX   Delta X   Delta X   Delta X     New X
                                 (Linear)    (Quad)   (Total)
    R1        2.54957   0.00015   0.00001   0.00025   0.00026   2.54983
    R2        2.06379   0.00001  -0.00005   0.00008   0.00003   2.06382
    R3        2.59697  -0.00001  -0.00004   0.00001  -0.00003   2.59694
    R4        2.05907   0.00002  -0.00000   0.00005   0.00005   2.05913
    R5        2.06644  -0.00002  -0.00011   0.00002  -0.00009   2.06635
    R6        1.83180   0.00000   0.00001   0.00001   0.00002   1.83181
    A1        2.14081  -0.00003  -0.00013  -0.00010  -0.00022   2.14059
    A2        2.21054   0.00005   0.00012   0.00015   0.00027   2.21080
    A3        1.93184  -0.00002   0.00000  -0.00005  -0.00005   1.93179
    A4        2.08108  -0.00005  -0.00052  -0.00008  -0.00061   2.08047
    A5        2.13109   0.00002   0.00004   0.00010   0.00014   2.13122
    A6        2.07102   0.00004   0.00048  -0.00001   0.00047   2.07149
    A7        1.89293   0.00007  -0.00011   0.00056   0.00044   1.89338
    D1        0.00000  -0.00000   0.00000  -0.00000  -0.00000  -0.00000
    D2       -3.14159  -0.00000   0.00000  -0.00000  -0.00000  -3.14159
    D3        3.14159   0.00000  -0.00000   0.00000   0.00000   3.14159
    D4       -0.00000   0.00000  -0.00000  -0.00000   0.00000   0.00000
    D5        0.00000  -0.00000   0.00000  -0.00000  -0.00000  -0.00000
    D6        3.14159  -0.00000  -0.00000   0.00000  -0.00000   3.14159
         Item               Value     Threshold  Converged?
 Maximum Force            0.000153     0.000450     YES
 RMS     Force            0.000045     0.000300     YES
 Maximum Displacement     0.001202     0.001800     YES
 RMS     Displacement     0.000452     0.001200     YES
 Predicted change in Energy=-7.274700D-08
 Optimization completed.
    -- Stationary point found.
                           ----------------------------
                           !   Optimized Parameters   !
                           ! (Angstroms and Degrees)  !
 --------------------------                            --------------------------
 ! Name  Definition              Value          Derivative Info.                !
 --------------------------------------------------------------------------------
 ! R1    R(1,2)                  1.3492         -DE/DX =    0.0002              !
 ! R2    R(1,3)                  1.0921         -DE/DX =    0.0                 !
 ! R3    R(1,4)                  1.3743         -DE/DX =    0.0                 !
 ! R4    R(2,5)                  1.0896         -DE/DX =    0.0                 !
 ! R5    R(2,6)                  1.0935         -DE/DX =    0.0                 !
 ! R6    R(4,7)                  0.9693         -DE/DX =    0.0                 !
 ! A1    A(2,1,3)              122.6594         -DE/DX =    0.0                 !
 ! A2    A(2,1,4)              126.6544         -DE/DX =    0.0001              !
 ! A3    A(3,1,4)              110.6863         -DE/DX =    0.0                 !
 ! A4    A(1,2,5)              119.2371         -DE/DX =   -0.0001              !
 ! A5    A(1,2,6)              122.1022         -DE/DX =    0.0                 !
 ! A6    A(5,2,6)              118.6607         -DE/DX =    0.0                 !
 ! A7    A(1,4,7)              108.4569         -DE/DX =    0.0001              !
 ! D1    D(3,1,2,5)              0.0            -DE/DX =    0.0                 !
 ! D2    D(3,1,2,6)           -180.0            -DE/DX =    0.0                 !
 ! D3    D(4,1,2,5)            180.0            -DE/DX =    0.0                 !
 ! D4    D(4,1,2,6)              0.0            -DE/DX =    0.0                 !
 ! D5    D(2,1,4,7)              0.0            -DE/DX =    0.0                 !
 ! D6    D(3,1,4,7)            180.0            -DE/DX =    0.0                 !
 --------------------------------------------------------------------------------
 GradGradGradGradGradGradGradGradGradGradGradGradGradGradGradGradGradGrad

                          Input orientation:                          
 ---------------------------------------------------------------------
 Center     Atomic      Atomic             Coordinates (Angstroms)
 Number     Number       Type             X           Y           Z
 ---------------------------------------------------------------------
      1          6           0       -0.467590    1.200945    0.057372
      2          6           0       -0.918317   -0.062589   -0.086171
      3          1           0       -0.060096    1.578042    0.997826
      4          8           0       -0.446049    2.178934   -0.907849
      5          1           0       -0.878320   -0.741810    0.764900
      6          1           0       -1.324639   -0.430675   -1.032311
      7          1           0       -0.813407    1.810881   -1.725904
 ---------------------------------------------------------------------
                    Distance matrix (angstroms):
                    1          2          3          4          5
     1  C    0.000000
     2  C    1.349177   0.000000
     3  H    1.092112   2.145522   0.000000
     4  O    1.374255   2.433643   2.035100   0.000000
     5  H    2.107983   1.089616   2.470923   3.393478   0.000000
     6  H    2.141058   1.093511   3.123375   2.756351   1.877758
     7  H    1.916164   2.491912   2.835560   0.969344   3.567149
                    6          7
     6  H    0.000000
     7  H    2.401459   0.000000
 Stoichiometry    C2H4O
 Framework group  CS[SG(C2H4O)]
 Deg. of freedom    11
 Full point group                 CS      NOp   2
 Largest Abelian subgroup         CS      NOp   2
 Largest concise Abelian subgroup C1      NOp   1
                         Standard orientation:                         
 ---------------------------------------------------------------------
 Center     Atomic      Atomic             Coordinates (Angstroms)
 Number     Number       Type             X           Y           Z
 ---------------------------------------------------------------------
      1          6           0       -0.000000    0.448121   -0.000000
      2          6           0        1.226084   -0.114904   -0.000000
      3          1           0       -0.151888    1.529619   -0.000000
      4          8           0       -1.205644   -0.211424    0.000000
      5          1           0        2.106505    0.527062   -0.000000
      6          1           0        1.367629   -1.199216   -0.000000
      7          1           0       -1.033592   -1.165377    0.000000
 ---------------------------------------------------------------------
 Rotational constants (GHZ):          59.2137981          10.3493164           8.8095874

 **********************************************************************

            Population analysis using the SCF Density.

 **********************************************************************

 Orbital symmetries:
       Occupied  (A') (A') (A') (A') (A') (A') (A') (A') (A") (A')
                 (A') (A")
       Virtual   (A') (A') (A') (A') (A") (A") (A') (A') (A') (A')
                 (A') (A") (A') (A') (A") (A') (A') (A') (A') (A")
                 (A') (A") (A') (A') (A") (A') (A') (A') (A") (A')
                 (A') (A') (A') (A") (A') (A') (A") (A') (A') (A")
                 (A') (A') (A") (A') (A") (A') (A') (A') (A") (A')
                 (A") (A') (A") (A') (A') (A') (A') (A") (A") (A')
                 (A') (A') (A') (A") (A") (A') (A') (A") (A') (A")
                 (A') (A') (A') (A") (A') (A') (A") (A') (A") (A')
                 (A') (A') (A') (A') (A') (A') (A') (A') (A") (A")
                 (A') (A') (A')
 The electronic state is 1-A'.
 Alpha  occ. eigenvalues --  -20.60446 -11.31434 -11.23123  -1.40446  -1.02160
 Alpha  occ. eigenvalues --   -0.83115  -0.67955  -0.66666  -0.57680  -0.54860
 Alpha  occ. eigenvalues --   -0.54266  -0.35001
 Alpha virt. eigenvalues --    0.03697   0.04521   0.05220   0.07070   0.11085
 Alpha virt. eigenvalues --    0.11844   0.12123   0.14018   0.15040   0.17420
 Alpha virt. eigenvalues --    0.18119   0.20388   0.21613   0.22107   0.25148
 Alpha virt. eigenvalues --    0.25240   0.29652   0.32283   0.33770   0.35092
 Alpha virt. eigenvalues --    0.36007   0.41231   0.41929   0.43269   0.43321
[...]
 0043975,-0.00018181,0.00107773,-0.00202265,-0.05984621,-0.01673414,-0.
 00345710,0.00985816,-0.01766349,0.00133908,0.00170631,0.00161680,-0.00
 032121,-0.00143872,0.00018125,0.11623803,0.14093713,0.20374276,-0.0002
 8307,-0.00001325,-0.00004976,0.00014898,0.00079766,-0.00062237,-0.1136
 6470,-0.15184728,-0.18720519,-0.04310494,0.00244191,0.05348728,-0.0500
 4137,-0.07900931,-0.10952093,0.00781512,-0.02835561,-0.00554791,-0.010
 83494,-0.02627786,-0.04550827,-0.01845325,0.02202465,0.02571242,-0.007
 74906,-0.02528543,0.01994370,-0.00328824,0.02724727,-0.05660822,0.0133
 5634,0.02356187,0.06206518,-0.00064351,-0.00096995,-0.00065368,-0.0149
 6425,0.02546248,0.00461514,0.06494967,0.00089367,-0.00192471,0.0048375
 4,-0.02185475,-0.00218974,0.06005174,0.05870002,0.12216967,-0.00262796
 ,-0.00129051,-0.00740642,-0.05089373,-0.06154114,-0.09460147,0.0237394
 3,0.00241417,0.00644539,-0.00189073,0.00068062,-0.00077796,0.00305675,
 -0.00317283,-0.00468573,-0.05171356,0.00643705,-0.00807791,0.05197256,
 0.00067922,0.00176908,-0.00162533,0.00012184,-0.00034789,0.00659991,-0
 .06035273,-0.01428462,0.00218364,0.03874433,-0.01286288,-0.00077648,-0
 .00162071,-0.00270970,-0.00817602,-0.00423376,-0.01689563,-0.10503121,
 -0.18366913,-0.15112165,-0.00154163,0.00043914,-0.00164108,-0.00104233
 ,0.00011013,-0.00079010,0.00092689,-0.00233854,0.00002619,-0.00020952,
 0.00059441,0.00094060,0.00178984,-0.00065387,-0.00057074,-0.00279979,-
 0.00181859,0.01714012,-0.02502501,-0.00133211,-0.00366228,0.00127104,0
 .00079943,0.00043497,0.00144006,0.00329948,-0.01025059,-0.00048317,0.0
 0079428,-0.00361426,0.00125313,-0.01868291,0.02307528,-0.00103999,-0.0
 0203832,0.00041193,0.00072340,0.00076590,0.00088027,0.00092167,0.02218
 176,-0.02002155,0.00039442,-0.00044848,-0.00044511,0.00548395,0.004824
 30,0.01196588,-0.00099803,0.00038746,-0.00049339,0.00068584,0.00005246
 ,0.00010409,-0.00009128,0.00017554,-0.00104156,-0.00507397,0.00002334,
 -0.00060164,0.00142840,0.00627283,0.00516497,0.01546290,0.00022483,0.0
 0102411,-0.00137619,-0.00020170,0.00007296,-0.00006542,-0.00145869,-0.
 00201277,-0.00248528,-0.00496702,-0.00384897,-0.00094493,-0.00012303,-
 0.00230257,0.01043133,0.01069978,0.02325637,-0.00032110,-0.00084141,-0
 .00113730,0.00037334,0.00077031,0.00104888,0.00068970,0.00288845,-0.00
 062314,-0.00991736,-0.01274015,-0.01957178,-0.00065875,-0.00005299,-0.
 01083511,0.00111243,-0.00039189,0.00129315,-0.00073419,0.00062250,-0.0
 0137711,0.02633178,0.05246775,0.11075537,0.00016803,-0.00046988,-0.000
 33348,-0.00040093,0.00010641,-0.00031099,-0.02581837,-0.00743305,-0.00
 334386,-0.01808828,0.00030384,-0.00235360,0.00438807,0.00024827,0.0024
 8536,-0.00236314,0.05983305,0.02043340,0.14940464,-0.00064594,-0.00107
 872,-0.00053542,-0.00002427,0.00020133,-0.00065396,-0.05228190,-0.0163
 4392,-0.00301685,0.00617913,-0.01381272,0.00055611,0.00210034,0.000448
 99,-0.00098066,-0.00113257,-0.00254077,0.10295277,0.12518579,0.1816607
 1,-0.00014697,0.00004349,-0.00010852,-0.00017255,-0.00022426,-0.000670
 45,-0.09919183,-0.13215191,-0.16497723,-0.03042147,-0.02194704,-0.0204
 7162,-0.04333352,-0.06125652,-0.08776969,0.00667322,0.00197955,0.00816
 834,-0.01968316,0.00414915,0.01326117,0.00335720,-0.02076241,-0.123795
 35,0.00586990,-0.00377694,0.02685415,-0.08384760,0.07612125,-0.3438466
 4,0.01103734,0.01483413,0.04585432,-0.00012976,-0.00195310,0.00014397,
 -0.00998579,0.01610856,-0.00208984,0.04703956,0.00008823,-0.00260391,0
 .00353141,-0.01436059,0.00372457,0.04450424,0.04284894,0.09326076,-0.0
 0201858,-0.00318099,-0.00281201,-0.04141203,-0.04350243,-0.08285250,0.
 01154438,0.00603615,-0.00122238,-0.00014916,-0.00165714,-0.00171636,0.
 00051275,-0.00232092,0.00017891,-0.02256546,0.00591065,0.01564294,0.01
 342742,-0.00249041,-0.00298234,-0.00406915,0.00126918,-0.00164501,0.00
 719373,-0.02369527,-0.01911400,-0.00108945,0.01384005,-0.00827266,-0.0
 0083361,-0.00132912,-0.00042638,-0.00362435,-0.00461139,-0.00582648,-0
 .03451144,-0.06236635,-0.05184874,0.00097129,0.00216258,-0.00358827,-0
 .01405440,-0.00805960,-0.00274566,0.00018020,-0.00005046,-0.00057938,-
 0.00028473,0.00065746,0.00099987,0.01547523,-0.00091188,-0.00129150,-0
 .00018338,-0.01458316,0.10060924,-0.16578930,-0.00030626,0.00007838,-0
 .00069532,0.00055308,-0.00089671,0.00192044,0.01268541,-0.08838960,-0.
 00033126,0.00992614,-0.01023902,0.00416522,-0.14433825,0.15598162,-0.0
 0030838,0.00014583,-0.00079588,0.00111045,0.00226368,0.00045272,0.0025
 4866,0.14659373,-0.13630365,0.00048705,-0.00256326,-0.00296419,0.02717
 176,0.02822337,0.08193409,-0.00056157,0.00009753,-0.00017099,-0.000235
 99,0.00024802,0.00012859,-0.00244075,0.00268292,-0.00734879,-0.0246103
 5,0.00050719,0.00107537,0.00287435,0.03569179,0.01546978,0.09373056,0.
 00031855,0.00108067,-0.00067046,-0.00043812,-0.00179579,0.00008570,-0.
 00750352,-0.01011721,-0.01508923,-0.02868852,-0.00583716,-0.00621696,-
 0.00722205,-0.01057767,0.07402223,0.06917258,0.16328491,-0.00040514,-0
 .00139725,-0.00039298,0.00085547,0.00234190,-0.00002294,0.00344246,0.0
 1840620,-0.00924965,-0.07180198,-0.08129869,-0.14350817,-0.00029181,-0
 .00050211,-0.00291431,0.00017150,0.00005974,0.00036166,-0.00105317,0.0
 0043765,-0.00050217,0.01117821,0.01810037,0.03893039,0.00015317,-0.000
 12010,0.00016409,0.00018984,0.00011262,0.00010392,-0.01034772,-0.00381
 664,-0.00612654,-0.00525862,0.00007641,0.00004141,0.00025218,0.0001980
 9,0.00145513,-0.00199346,0.02152223,0.01079091,0.05246068,0.00010813,0
 .00000740,0.00049810,-0.00000004,0.00012434,-0.00000268,-0.01808817,-0
 .00629266,0.00059704,0.00564039,-0.00325587,0.00034399,0.00019734,0.00
 096435,-0.00024839,-0.00120572,-0.00058090,0.03530535,0.04120877,0.065
 94448,-0.00007769,-0.00025237,0.00015386,0.00022327,0.00036779,0.00046
 651,-0.03614358,-0.04595619,-0.06369244,-0.05542958,0.20369993,0.50899
 591,-0.00524140,0.00404244,-0.14097907,0.02090444,-0.21979821,-0.02653
 305,-0.02464849,-0.21789130,-0.49238054,-0.08915257,0.21769890,0.47966
 369,-0.02855327,-0.09542302,0.10698485,-0.00100818,0.10761479,-0.21179
 751,0.00884026,0.00722502,0.04049247,0.00113707,-0.00208137,0.00052137
 ,-0.00794560,0.01013675,-0.00493434,0.03241300,-0.00107167,-0.00516441
 ,0.00369421,-0.00777055,0.01067084,0.03740797,0.02283877,0.09300971,-0
 .00054837,0.00037389,-0.00055011,-0.03776089,-0.03045564,-0.08586147,0
 .02352104,0.01240870,-0.00653038,-0.00071518,-0.00243530,-0.00085004,-
 0.00081174,-0.00212474,0.00160033,-0.02783665,0.00916023,0.00146423,0.
 05135623,-0.00171627,-0.00452028,-0.00050750,0.00202881,-0.00339535,0.
 00961780,-0.01580322,-0.00564172,-0.00308913,0.06203775,-0.05436963,-0
 .00161169,-0.00287165,-0.00192964,-0.00279984,-0.00404006,-0.00554049,
 -0.00349136,-0.06895895,0.03988939,0.00060787,-0.00159690,-0.00144949,
 -0.00287329,-0.00132287,0.00357501,-0.00003143,0.00009568,-0.00015330,
 0.00052038,0.00061300,-0.00026637,0.00282253,-0.00146246,-0.00181437,-
 0.00123087,-0.00315619,0.01987474,-0.03517722,-0.00011782,-0.00014985,
 -0.00024527,0.00010348,0.00103832,-0.00033183,0.00448156,-0.01503633,-
 0.00159188,-0.00167295,-0.00189919,0.00551713,-0.02914884,0.04548696,0
 .00007290,0.00045681,-0.00025987,0.00027340,0.00134359,-0.00012048,-0.
 00213206,0.03281301,-0.03974483,0.00141794,-0.00148511,0.00019642,0.00
 598021,0.00548455,0.02594533,-0.00029883,0.00053272,-0.00027972,0.0001
 2763,0.00032120,-0.00006389,-0.00104059,0.00020387,-0.00214123,-0.0059
 7902,-0.00088438,-0.00477551,0.00409673,0.00724374,0.00069260,0.019190
 03,0.00060320,0.00190136,-0.00043909,0.00011031,0.00140018,-0.00107440
 ,-0.00218744,-0.00373204,-0.00372131,-0.00507654,0.00451561,-0.0004400
 1,0.00212129,-0.00185743,0.02408169,0.01340543,0.06130794,-0.00035437,
 -0.00067081,-0.00084001,0.00015951,-0.00038096,0.00097168,0.00039208,0
 .00414191,-0.00355368,-0.02377458,-0.01841854,-0.05577771,0.00013803,-
 0.00045343,-0.00093457,0.00021525,0.00054739,0.00036978,-0.00088972,0.
 00020181,-0.00026602,0.00519454,0.00539625,0.01132229,-0.00000547,-0.0
 0005244,0.00000173,-0.00020734,0.00019112,-0.00006433,-0.00444528,-0.0
 0275878,-0.00655539,-0.00152496,0.00079971,0.00183418,0.00060872,0.000
 11272,0.00107174,-0.00169046,0.00774077,0.00965463,0.01523914,-0.00008
 303,-0.00018046,-0.00007030,0.00001932,-0.00000220,-0.00019830,-0.0058
 3070,-0.00582250,0.00150771,0.00605572,-0.00088924,0.00010247,-0.00022
 104,0.00049751,-0.00017164,-0.00139750,0.00004224,0.00883854,0.0075297
 9,0.02109917,0.00003414,0.00003028,0.00009108,0.00011767,0.00036658,-0
 .00025079,-0.01042888,-0.01236384,-0.02058997,-0.00436351,0.00842282,0
 .00840070,0.00467105,0.00979471,-0.00351431,-0.00329911,-0.00220739,-0
 .00130837,-0.30821367,0.00057609,-0.00324988,0.00301713,0.27815771,0.0
 2973711,-0.00425717,-0.00613576,-0.00968867,0.89167685,0.17442574,2.07
 826526,0.00139386,-0.00347028,-0.00781224,-0.00184738,0.00039187,-0.00
 000795,-0.00143421,-0.00398377,0.00195228,-0.00998998,0.00015676,-0.00
 083649,-0.00068654,0.00334976,-0.00201288,-0.00726819,-0.00830131,-0.0
 1021773,0.00024104,0.00008642,-0.00127010,0.00746623,0.00807914,0.0112
 0795,0.00042197,0.00030570,0.00130341,0.00173548,-0.00092550,-0.000022
 69,0.00044985,0.00001324,-0.00012869,-0.00072778,0.00091167,0.00142606
 ,0.00140979,-0.00136005,-0.00285422,0.00071326,-0.00013689,-0.00001713
 ,0.00008150,-0.00026199,-0.00145686,0.00066143,-0.00058279,0.00271954,
 0.00043768,0.00214216,0.00121035,0.00003035,0.00057520,-0.00002480,-0.
 00008597,0.00002798,-0.00092959,0.00114312,-0.00360690,0.00236301,0.19
 618934,0.02882868,-0.05152340,-0.00046837,0.00093675,-0.00008520,0.000
 35571,-0.00064811,-0.00026491,-0.20678461,0.00024522,-0.00104580,0.003
 59496,0.03333925,-0.20799230,0.54456703,0.00053203,0.00099199,-0.00008
 989,-0.00031196,0.00017487,-0.00052767,-0.03248767,0.19577627,-0.00171
 779,-0.00907178,0.00554832,-0.05630179,0.52973524,-0.54375079,0.000343
 55,0.00124092,-0.00092919,-0.00062102,-0.00163300,0.00033296,0.0559886
 6,-0.54023961,0.54307488,0.00462576,0.00060456,0.00082840,0.11563282,-
 0.30673891,-0.83607978,0.00207323,-0.00045714,-0.00026570,-0.00234293,
 0.00146409,-0.00074873,0.00947410,-0.00130695,0.00236650,-0.12956476,-
 0.00586153,-0.00694198,-0.00749276,-0.30792016,0.18575991,-0.71275588,
 -0.00068403,0.00004498,0.00014104,0.00111226,0.00221983,-0.00143476,0.
 00693567,0.01199594,0.01981819,0.30577950,-0.19423323,0.00767838,0.013
 76928,0.01484070,-0.83482838,-0.70887167,-1.52543643,-0.00002535,0.000
 88712,0.00127821,-0.00037601,-0.00027784,-0.00352899,-0.00636548,-0.00
 728550,-0.00403774,0.83394828,0.70094828,1.51796156,0.00007790,-0.0000
 4851,-0.00004527,-0.00019748,-0.00028994,0.00021413,-0.00016699,-0.000
 01559,0.00004051,0.00010771,0.00003127,-0.00002986,0.00009071,-0.00000
 992,-0.00005811,0.00010179,0.00063830,-0.00003145,-0.00001365,-0.00031
 051,-0.00054138,-0.00033385,-0.00016612,-0.00056413,-0.00012785,0.0000
 1754,-0.00012275,0.00000310,0.00006825,0.00050748,-0.00020012,0.000041
 59,0.00009904,0.00015004,0.00065485,0.00115455,0.00083033,-0.00030561,
 -0.00053280,0.00023228,0.00052765,0.00031213,0.00008296,-0.00053502,0.
 00067036,0.00000541,-0.00010587,-0.00004434,-0.00006903,-0.00032171,0.
 00022056,-0.00011267,-0.00001931,-0.00023845,-0.00004898,0.00077591,-0
 .00107732,-0.00008997,-0.00032166,0.00015706,-0.15235007,0.48421298,-0
 .23800611,1.22122517,1.12424536,2.14494297,-0.00322486,0.01060062,-0.0
 0024477,-0.01435841,0.00264010,0.00699937,-0.00568882,0.00612616,-0.00
 214389,0.00818842,0.02048724,-0.00134385,0.02612039,-0.00330193,0.0651
 1246,0.16174870,-0.49033560,-1.22737912,0.00528304,0.00293186,-0.00080
 254,-0.17263330,-0.49316496,0.21973373,-1.12029564,-0.00523366,-0.0026
 2800,-0.00957076,0.49334065,-0.20845095,-1.22438171,-1.11099178,-2.156
 12034,0.00784774,0.01727926,0.01208262,1.21782443,1.09944225,2.1378466
 5,-0.00348349,-0.00441692,0.00431727,-0.00074686,-0.00078256,-0.000471
 41,0.00347571,0.00575364,0.00011661,-0.00342694,0.00587464,0.01501369,
 -0.00016159,-0.00034713,-0.00162439,0.00020706,-0.00368005,-0.00666473
 ,-0.00335967,-0.00060363,-0.01317048,-0.00658533,-0.03400266,0.0109941
 1,-0.00093268,-0.00122470,-0.00212089,0.01011041,0.02766056,0.00552920
 ,0.00029637,0.00844773,-0.01129743,0.00427388,-0.00234996,-0.00118449,
 0.00695467,0.00155788,0.00069968,-0.00262825,0.00158716,0.00042256,-0.
 00021232,-0.00000964,0.00020727,-0.00858495,-0.00269905,-0.00239098,-0
 .00063095,0.00191506,-0.01124084,0.02481593,0.00156006,0.00160260,-0.0
 0003006,0.00024835,0.00001197,0.00051557,-0.00072263,0.01249431,-0.000
 81467,0.00051681,0.00216478,0.00032131,0.02364148,-0.01774863,0.000451
 29,0.00005909,-0.00184675,-0.00006603,-0.00033276,-0.00013689,-0.00005
 316,-0.02444323,0.01738376,-0.00507175,0.00154832,0.00126041,0.0058569
 9,-0.01196445,-0.03309435,0.00393194,-0.00184638,-0.00050919,0.0000944
 0,0.00019632,-0.00025938,0.00060140,-0.00052576,-0.00001092,-0.0059723
 0,0.00161488,-0.00072264,-0.00023170,-0.01250598,0.01061268,-0.0314152
 4,-0.00134756,-0.00121249,0.00181300,0.00004589,0.00023722,0.00001615,
 -0.00030154,-0.00054837,0.00040947,0.01274312,-0.00810875,0.00118980,-
 0.00045071,-0.00156396,-0.03252061,-0.02963448,-0.05576557,-0.00103762
 ,0.00017281,0.00108668,-0.00010002,0.00051083,-0.00075998,-0.00024841,
 -0.00032783,0.00030449,0.03268766,0.02928548,0.05644198,-0.00189242,0.
 00074056,0.00200552,0.00023543,-0.00050898,-0.00064020,0.00082216,-0.0
 0043644,-0.00132046,0.00429950,-0.00143051,-0.00283667,-0.00040443,0.0
 0022397,0.00017219,0.00055933,-0.00024882,0.00002920,-0.00361957,0.001
 52140,-0.00062707,0.00276333,-0.00055505,0.00002508,-0.00122228,-0.002
 46935,-0.00238016,-0.00415300,-0.00024478,0.00619670,-0.00141264,0.000
 23874,0.00007131,0.00014913,-0.00015118,-0.00025765,0.00044391,0.00166
 022,-0.00302821,0.00117831,0.00019575,0.00092629,-0.00059139,-0.001070
 82,-0.00021615,0.00083315,0.00253170,0.00142194,-0.00409279,-0.0053115
 9,-0.00220810,0.00015655,0.00010058,-0.00012075,-0.00007423,0.00012285
 ,0.00025637,0.00259040,0.00343154,-0.00005959,-0.00371132,0.00893517,-
 0.02548037,0.03599919,0.03779512,0.06079694,-0.00459972,0.00996293,-0.
 00480295,-0.57368831,0.00682677,0.01690201,-0.00218313,0.10884207,0.53
 136362,-0.00148063,0.00812923,-0.01982947,0.46989983,-1.00130032,1.854
 23727,0.00468828,-0.01471927,-0.03874618,0.00178374,-0.00118833,-0.000
 85234,-0.00578230,-0.01563337,0.00817436,-0.03759290,-0.00148881,-0.00
 047946,-0.00181762,0.01544756,-0.00820480,-0.03777771,-0.03458688,-0.0
 6636811,-0.00053412,-0.00082975,0.00154861,0.03865658,0.03563527,0.066
 84587,0.00102252,0.00014277,0.00124670,-0.00294255,0.00032760,0.001448
 90,0.00051269,0.00007296,-0.00022690,-0.00067488,0.00169189,0.00368447
 ,0.00229288,0.00025532,-0.00346042,0.00080960,-0.00029254,-0.00010543,
 -0.00025893,-0.00044776,-0.00303347,-0.00039442,-0.00280098,0.00226780
 ,0.00152550,0.00104733,0.00041795,0.00016031,0.00094295,0.00008640,0.0
 0012507,0.00113879,-0.00136381,0.00081645,-0.00511898,0.00359188,0.522
 73638,0.05252081,-0.07566489,-0.00165513,0.00140269,0.00019032,0.00241
 131,-0.00138770,-0.00050853,-0.51954391,-0.00057644,-0.00044552,0.0000
 3133,0.05242862,-0.60748610,1.37617776,0.00087590,0.00019822,0.0003767
 1,-0.00025248,0.00164147,0.00062278,-0.04707517,0.61427714,-0.00122029
 ,-0.01490574,0.01315118,-0.07556724,1.37648097,-1.17786456,0.00074839,
 0.00210893,-0.00193819,-0.00171114,-0.00311005,0.00068109,0.07365551,-
 1.36359781,1.15997958,0.00185197,0.00081374,0.00249641,0.05673670,-0.1
 6759519,-0.39351938,0.00035883,0.00028662,-0.00023975,-0.00024390,0.00
 013766,-0.00081788,-0.00480730,-0.00511035,0.00425971,-0.05381672,-0.0
 0096253,-0.00211621,-0.00004316,-0.17008668,0.06291219,-0.38184738,-0.
 00003288,0.00044709,-0.00022219,0.00001982,0.00077775,-0.00080062,-0.0
 0017007,-0.00742546,0.00258619,0.17102734,-0.05539027,0.00437806,0.005
 79756,0.00908519,-0.39087993,-0.37365475,-0.65906087,0.00009871,0.0008
 2842,-0.00021357,-0.00069304,-0.00041309,-0.00188080,-0.00097383,-0.01
 365864,0.00681097,0.38804508,0.38065750,0.64579954,-0.00006817,-0.0000
 1637,0.00021494,-0.00002624,0.00026627,0.00016851,0.00009389,-0.000087
 65,-0.00006842,-0.00008520,0.00004313,-0.00009005,0.00004219,-0.000290
 07,-0.00016494,-0.00007958,0.00020500,0.00002495,0.00012312,-0.0002815
 0,-0.00071874,-0.00030014,0.00008655,0.00024818,-0.00015127,-0.0000904
 4,-0.00002997,-0.00011423,0.00013708,0.00049564,-0.00015025,-0.0001715
 8,-0.00075975,0.00043752,0.00044017,0.00079492,0.00044299,-0.00012029,
 -0.00003027,0.00049580,0.00057170,0.00089647,0.00035891,0.00043965,0.0
 0055106,-0.00006547,-0.00010506,0.00003899,-0.00018959,-0.00045921,-0.
 00020863,-0.00029047,0.00004787,-0.00082007,-0.00022419,-0.00033034,-0
 .00054047,-0.00008498,-0.00016462,0.00008265,0.00000585,-0.00420486,-0
 .02027198,-0.00430571,0.01047767,-0.02258802,0.00010647,0.00145252,0.0
 0328412,-0.00041837,0.00211263,0.00320297,0.00211274,-0.00090443,-0.00
 496237,0.00258474,-0.00005802,0.00720043,-0.00109363,0.00250066,-0.006
 03955,0.00401617,-0.00051925,-0.00066313,0.00061526,-0.00034516,-0.000
 23683,-0.00288337,0.00110936,0.00540669,0.00256547,-0.00019411,-0.0000
 8708,0.00030007,-0.00001772,-0.00518354,-0.00238831,-0.00278949,-0.000
 51320,-0.00039697,-0.00019682,-0.00029818,0.00173866,0.00182429,0.0003
 7807,-0.01923635,0.00393477,-0.00857006,0.00120308,-0.00118753,0.00003
 232,-0.00090551,0.00053880,-0.00080063,-0.21458991,-0.01025742,0.01129
 452,-0.06465446,-0.00020301,-0.00467826,0.00595794,0.00096963,0.003307
 51,-0.00120077,1.21503995,-0.14659375,0.00646476,-0.01798709,0.0224151
 1,-0.00101063,0.00272060,-0.00462956,-0.00125704,-0.00261741,-0.002196
 22,2.60658357,2.66885189,4.34501890,0.00002698,-0.00032683,-0.00032855
 ,-0.00017151,0.00028323,0.00012666,0.00010509,-0.00001091,0.00002184,0
 .00151036,-0.00075859,-0.00041081,-0.00016646,-0.00049832,-0.00060785,
 -0.00074870,0.00032851,0.00049500,0.00023669,0.00004089,0.00008092,0.0
 0015673,-0.00069257,-0.00053429,0.00028001,-0.00001677,-0.00029087,-0.
 00014681,-0.00018489,-0.00005490,0.00007867,0.00008785,-0.00013557,-0.
 00003303,-0.00001360,0.00000774,-0.00048075,0.00006293,0.00023219,0.00
 013778,0.00003794,0.00020997,-0.00027905,-0.00003233,0.00015159,0.0008
 6886,0.00011734,-0.00046313,-0.00089984,0.00027611,0.00026787,0.000208
 60,0.00030695,-0.00005033,0.00036325,-0.00016752,-0.00009853,-0.000555
 64,0.00024094,-0.00152409,0.00207346,-0.00016790,0.00194203,-0.0015798
 3,0.00028418,-0.00005702,-0.00013894,-0.00015177,0.00119577,-0.0016333
 8,-0.00017812,-0.00008807,-0.00001867,-0.00009633,-0.00171221,-0.00013
 798,0.00117484,-0.00201284,-0.00016092,-0.00064189,0.00112267,0.000259
 31,-0.00016545,-0.00004225,0.00043562,-0.00012500,0.00168986,-0.000087
 26,0.00001617,0.00014305,0.00022189,0.00086983,-0.00078402,0.01535994,
 -0.00030403,0.01043174,-0.00220380,-0.00007607,-0.00095013,-0.00004779
 ,-0.00170153,0.00155753,0.23180973,-1.20509751,-2.61031951,-0.00166771
 ,0.00100578,0.00054268,0.00029382,0.00006900,-0.00053066,-0.24354420,0
 .01149768,0.00249973,0.04817382,-0.00031158,0.00408772,-0.00735752,-0.
 00041258,-0.00346748,0.00234499,-1.21748167,0.13600850,-2.64961460,0.0
 0100800,0.00094515,0.00002844,-0.00040421,0.00024359,-0.00112850,1.206
 10436,-0.14031721,-0.00207070,0.00936698,-0.00444658,-0.00070063,-0.00
 658315,0.00277976,0.00019205,-0.00189338,0.00266404,-2.59720005,-2.608
 89252,-4.36253027,0.00054033,0.00002116,-0.00040247,-0.00002935,0.0004
 2752,-0.00011646,2.59926836,2.60755338,4.36205199\\@
 The archive entry for this job was punched.


 There ain't no surer way to find out whether you
 like people or hate them than to travel with them.
                                     -- Mark Twain
 Job cpu time:       0 days  8 hours 59 minutes 12.1 seconds.
 Elapsed time:       0 days  0 hours 13 minutes 52.9 seconds.
 File lengths (MBytes):  RWF=    663 Int=      0 D2E=      0 Chk=     41 Scr=      1
 Normal termination of Gaussian 16 at Fri Mar 21 11:29:27 2025.
