 Entering Gaussian System, Link 0=g16
 Input=enolt_mp2_avtz_opt_anharm.gjf
 Output=enolt_mp2_avtz_opt_anharm.log
 Initial command:
 /sw/contrib/chem-src/g16/c01/g16/l1.exe "/scr/Gau-91276.inp" -scrdir="/scr/"
 Entering Link 1 = /sw/contrib/chem-src/g16/c01/g16/l1.exe PID=     91277.
  
 Copyright (c) 1988-2019, Gaussian, Inc.  All Rights Reserved.
  
 This is part of the Gaussian(R) 16 program.  It is based on
 the Gaussian(R) 09 system (copyright 2009, Gaussian, Inc.),
 the Gaussian(R) 03 system (copyright 2003, Gaussian, Inc.),
 the Gaussian(R) 98 system (copyright 1998, Gaussian, Inc.),
 the Gaussian(R) 94 system (copyright 1995, Gaussian, Inc.),
 the Gaussian 92(TM) system (copyright 1992, Gaussian, Inc.),
 the Gaussian 90(TM) system (copyright 1990, Gaussian, Inc.),
 the Gaussian 88(TM) system (copyright 1988, Gaussian, Inc.),
 the Gaussian 86(TM) system (copyright 1986, Carnegie Mellon
 University), and the Gaussian 82(TM) system (copyright 1983,
 Carnegie Mellon University). Gaussian is a federally registered
 trademark of Gaussian, Inc.
  
 This software contains proprietary and confidential information,
 including trade secrets, belonging to Gaussian, Inc.
  
 This software is provided under written license and may be
 used, copied, transmitted, or stored only in accord with that
 written license.
  
 The following legend is applicable only to US Government
 contracts under FAR:
  
                    RESTRICTED RIGHTS LEGEND
  
 Use, reproduction and disclosure by the US Government is
 subject to restrictions as set forth in subparagraphs (a)
 and (c) of the Commercial Computer Software - Restricted
 Rights clause in FAR 52.227-19.
  
 Gaussian, Inc.
 340 Quinnipiac St., Bldg. 40, Wallingford CT 06492
  
  
 ---------------------------------------------------------------
 Warning -- This program may not be used in any manner that
 competes with the business of Gaussian, Inc. or will provide
 assistance to any competitor of Gaussian, Inc.  The licensee
 of this program is prohibited from giving any competitor of
 Gaussian, Inc. access to this program.  By using this program,
 the user acknowledges that Gaussian, Inc. is engaged in the
 business of creating and licensing software in the field of
 computational chemistry and represents and warrants to the
 licensee that it is not a competitor of Gaussian, Inc. and that
 it will not use this program in any manner prohibited above.
 ---------------------------------------------------------------
  

 Cite this work as:
 Gaussian 16, Revision C.01,
 M. J. Frisch, G. W. Trucks, H. B. Schlegel, G. E. Scuseria, 
 M. A. Robb, J. R. Cheeseman, G. Scalmani, V. Barone, 
 G. A. Petersson, H. Nakatsuji, X. Li, M. Caricato, A. V. Marenich, 
 J. Bloino, B. G. Janesko, R. Gomperts, B. Mennucci, H. P. Hratchian, 
 J. V. Ortiz, A. F. Izmaylov, J. L. Sonnenberg, D. Williams-Young, 
 F. Ding, F. Lipparini, F. Egidi, J. Goings, B. Peng, A. Petrone, 
 T. Henderson, D. Ranasinghe, V. G. Zakrzewski, J. Gao, N. Rega, 
 G. Zheng, W. Liang, M. Hada, M. Ehara, K. Toyota, R. Fukuda, 
 J. Hasegawa, M. Ishida, T. Nakajima, Y. Honda, O. Kitao, H. Nakai, 
 T. Vreven, K. Throssell, J. A. Montgomery, Jr., J. E. Peralta, 
 F. Ogliaro, M. J. Bearpark, J. J. Heyd, E. N. Brothers, K. N. Kudin, 
 V. N. Staroverov, T. A. Keith, R. Kobayashi, J. Normand, 
 K. Raghavachari, A. P. Rendell, J. C. Burant, S. S. Iyengar, 
 J. Tomasi, M. Cossi, J. M. Millam, M. Klene, C. Adamo, R. Cammi, 
 J. W. Ochterski, R. L. Martin, K. Morokuma, O. Farkas, 
 J. B. Foresman, and D. J. Fox, Gaussian, Inc., Wallingford CT, 2019.
 
 ******************************************
 Gaussian 16:  EM64L-G16RevC.01  3-Jul-2019
                21-Mar-2025 
 ******************************************
 %nprocshared=40
 Will use up to   40 processors via shared memory.
 %mem=50gb
 ----------------------------------------------
 # MP2/aug-cc-pVTZ opt freq=(vibrot,anharmonic)
 ----------------------------------------------
 1/18=20,19=15,38=1,80=1/1,3;
 2/9=110,12=2,17=6,18=5,40=1/2;
 3/5=16,6=1,7=10,11=9,25=1,30=1,71=1/1,2,3;
 4//1;
 5/5=2,38=5/2;
 8/6=4,10=1/1;
 9/15=2,16=-3/6;
 10/5=1/2;
 6/7=2,8=2,9=2,10=2/1;
 7/12=2/1,2,3,16;
 1/18=20,19=15,80=1/3(2);
 2/9=110/2;
 99//99;
 2/9=110/2;
 3/5=16,6=1,7=10,11=9,25=1,30=1,71=1/1,2,3;
 4/5=5,16=3,69=1/1;
 5/5=2,38=5/2;
 8/6=4,10=1/1;
 9/15=2,16=-3/6;
 10/5=1/2;
 7/12=2/1,2,3,16;
 1/18=20,19=15,80=1/3(-8);
 2/9=110/2;
 6/7=2,8=2,9=2,10=2/1;
 99/9=10/99;
 ----
 blah
 ----
 Symbolic Z-matrix:
 Charge =  0 Multiplicity = 1
 C                    -0.21932   1.27861   0.51616 
 C                    -0.67914   0.02917   0.52269 
 H                     0.27283   1.74303   1.36081 
 O                    -0.33836   2.08145  -0.58098 
 H                    -0.5795   -0.60024   1.39949 
 H                    -1.16534  -0.38664  -0.35369 
 H                     0.06033   2.9444   -0.37149 
 

 GradGradGradGradGradGradGradGradGradGradGradGradGradGradGradGradGradGrad
 Berny optimization.
 Initialization pass.
                           ----------------------------
                           !    Initial Parameters    !
                           ! (Angstroms and Degrees)  !
 --------------------------                            --------------------------
 ! Name  Definition              Value          Derivative Info.                !
 --------------------------------------------------------------------------------
 ! R1    R(1,2)                  1.3314         estimate D2E/DX2                !
 ! R2    R(1,3)                  1.0823         estimate D2E/DX2                !
 ! R3    R(1,4)                  1.3647         estimate D2E/DX2                !
 ! R4    R(2,5)                  1.0839         estimate D2E/DX2                !
 ! R5    R(2,6)                  1.0851         estimate D2E/DX2                !
 ! R6    R(4,7)                  0.9734         estimate D2E/DX2                !
 ! A1    A(2,1,3)              123.7749         estimate D2E/DX2                !
 ! A2    A(2,1,4)              121.7284         estimate D2E/DX2                !
 ! A3    A(3,1,4)              114.4966         estimate D2E/DX2                !
 ! A4    A(1,2,5)              121.1425         estimate D2E/DX2                !
 ! A5    A(1,2,6)              120.6931         estimate D2E/DX2                !
 ! A6    A(5,2,6)              118.1644         estimate D2E/DX2                !
 ! A7    A(1,4,7)              108.2277         estimate D2E/DX2                !
 ! D1    D(3,1,2,5)              0.0001         estimate D2E/DX2                !
 ! D2    D(3,1,2,6)            180.0            estimate D2E/DX2                !
 ! D3    D(4,1,2,5)           -179.9999         estimate D2E/DX2                !
 ! D4    D(4,1,2,6)              0.0            estimate D2E/DX2                !
 ! D5    D(2,1,4,7)            179.9975         estimate D2E/DX2                !
 ! D6    D(3,1,4,7)             -0.0025         estimate D2E/DX2                !
 --------------------------------------------------------------------------------
 Trust Radius=3.00D-01 FncErr=1.00D-07 GrdErr=1.00D-07 EigMax=2.50D+02 EigMin=1.00D-04
 Number of steps in this run=     29 maximum allowed number of steps=    100.
 GradGradGradGradGradGradGradGradGradGradGradGradGradGradGradGradGradGrad

                          Input orientation:                          
 ---------------------------------------------------------------------
 Center     Atomic      Atomic             Coordinates (Angstroms)
 Number     Number       Type             X           Y           Z
 ---------------------------------------------------------------------
      1          6           0       -0.219325    1.278608    0.516163
      2          6           0       -0.679136    0.029174    0.522686
      3          1           0        0.272835    1.743031    1.360812
      4          8           0       -0.338360    2.081447   -0.580978
      5          1           0       -0.579501   -0.600244    1.399485
      6          1           0       -1.165345   -0.386644   -0.353690
      7          1           0        0.060329    2.944403   -0.371493
 ---------------------------------------------------------------------
                    Distance matrix (angstroms):
                    1          2          3          4          5
     1  C    0.000000
     2  C    1.331373   0.000000
     3  H    1.082285   2.132137   0.000000
     4  O    1.364712   2.355000   2.063645   0.000000
     5  H    2.107148   1.083915   2.493774   3.342432   0.000000
     6  H    2.103489   1.085053   3.089238   2.612860   1.860770
     7  H    1.908144   3.137662   2.118805   0.973411   4.013761
                    6          7
     6  H    0.000000
     7  H    3.549432   0.000000
 Stoichiometry    C2H4O
 Framework group  C1[X(C2H4O)]
 Deg. of freedom    15
 Full point group                 C1      NOp   1
 Largest Abelian subgroup         C1      NOp   1
 Largest concise Abelian subgroup C1      NOp   1
                         Standard orientation:                         
 ---------------------------------------------------------------------
 Center     Atomic      Atomic             Coordinates (Angstroms)
 Number     Number       Type             X           Y           Z
 ---------------------------------------------------------------------
      1          6           0        0.032509    0.417654   -0.000003
      2          6           0        1.225039   -0.174313    0.000002
      3          1           0       -0.106422    1.490984   -0.000005
      4          8           0       -1.126445   -0.302945   -0.000004
      5          1           0        2.139632    0.407402    0.000004
      6          1           0        1.306272   -1.256321    0.000004
      7          1           0       -1.873208    0.321454    0.000033
 ---------------------------------------------------------------------
 Rotational constants (GHZ):          63.5475643          10.4838556           8.9991991
 Standard basis: Aug-CC-pVTZ (5D, 7F)
 There are   265 symmetry adapted cartesian basis functions of A   symmetry.
 There are   230 symmetry adapted basis functions of A   symmetry.
   230 basis functions,   324 primitive gaussians,   265 cartesian basis functions
    12 alpha electrons       12 beta electrons
       nuclear repulsion energy        70.1631517336 Hartrees.
 NAtoms=    7 NActive=    7 NUniq=    7 SFac= 1.00D+00 NAtFMM=   60 NAOKFM=F Big=F
 Integral buffers will be    131072 words long.
 Raffenetti 1 integral format.
 Two-electron integral symmetry is turned on.
 One-electron integrals computed using PRISM.
 NBasis=   230 RedAO= T EigKep=  9.15D-06  NBF=   230
 NBsUse=   230 1.00D-06 EigRej= -1.00D+00 NBFU=   230
 ExpMin= 2.53D-02 ExpMax= 1.53D+04 ExpMxC= 5.22D+02 IAcc=3 IRadAn=         5 AccDes= 0.00D+00
 Harris functional with IExCor=  205 and IRadAn=       5 diagonalized for initial guess.
 HarFok:  IExCor=  205 AccDes= 0.00D+00 IRadAn=         5 IDoV= 1 UseB2=F ITyADJ=14
 ICtDFT=  3500011 ScaDFX=  1.000000  1.000000  1.000000  1.000000
 FoFCou: FMM=F IPFlag=           0 FMFlag=      100000 FMFlg1=           0
         NFxFlg=           0 DoJE=T BraDBF=F KetDBF=T FulRan=T
         wScrn=  0.000000 ICntrl=       500 IOpCl=  0 I1Cent=   200000004 NGrid=           0
         NMat0=    1 NMatS0=      1 NMatT0=    0 NMatD0=    1 NMtDS0=    0 NMtDT0=    0
 Petite list used in FoFCou.
 Keep R1 ints in memory in canonical form, NReq=372737447.
 Requested convergence on RMS density matrix=1.00D-08 within 128 cycles.
 Requested convergence on MAX density matrix=1.00D-06.
 Requested convergence on             energy=1.00D-06.
 No special actions if energy rises.
 SCF Done:  E(RHF) =  -152.954948114     A.U. after   12 cycles
            NFock= 12  Conv=0.42D-08     -V/T= 2.0018
 ExpMin= 2.53D-02 ExpMax= 1.53D+04 ExpMxC= 5.22D+02 IAcc=3 IRadAn=         5 AccDes= 0.00D+00
 HarFok:  IExCor=  205 AccDes= 0.00D+00 IRadAn=         5 IDoV=-2 UseB2=F ITyADJ=14
 ICtDFT= 12500011 ScaDFX=  1.000000  1.000000  1.000000  1.000000
 Range of M.O.s used for correlation:     4   230
 NBasis=   230 NAE=    12 NBE=    12 NFC=     3 NFV=     0
 NROrb=    227 NOA=     9 NOB=     9 NVA=   218 NVB=   218

 **** Warning!!: The largest alpha MO coefficient is  0.61658450D+02

 Fully direct method using O(ONN) memory.
 JobTyp=1 Pass  1:  I=   4 to  12 NPSUse= 40 ParTrn=T ParDer=T DoDerP=T.
 Spin components of T(2) and E(2):
     alpha-alpha T2 =       0.2079722860D-01 E2=     -0.6901927418D-01
     alpha-beta  T2 =       0.1269621826D+00 E2=     -0.4426205118D+00
     beta-beta   T2 =       0.2079722860D-01 E2=     -0.6901927418D-01
 ANorm=    0.1080997983D+01
 E2 =    -0.5806590601D+00 EUMP2 =    -0.15353560717365D+03
          IDoAtm=1111111
          Differentiating once with respect to electric field.
                with respect to dipole field.
          Differentiating once with respect to nuclear coordinates.
 Keep R1 ints in memory in canonical form, NReq=372742197.
          There are     1 degrees of freedom in the 1st order CPHF.  IDoFFX=0 NUNeed=     1.
 LinEq1:  Iter=  0 NonCon=     1 RMS=3.39D-03 Max=7.32D-02 NDo=     1
 AX will form     1 AO Fock derivatives at one time.
 LinEq1:  Iter=  1 NonCon=     1 RMS=8.60D-04 Max=7.75D-03 NDo=     1
 LinEq1:  Iter=  2 NonCon=     1 RMS=2.64D-04 Max=4.22D-03 NDo=     1
 LinEq1:  Iter=  3 NonCon=     1 RMS=8.02D-05 Max=6.90D-04 NDo=     1
 LinEq1:  Iter=  4 NonCon=     1 RMS=3.39D-05 Max=4.59D-04 NDo=     1
 LinEq1:  Iter=  5 NonCon=     1 RMS=7.19D-06 Max=6.66D-05 NDo=     1
 LinEq1:  Iter=  6 NonCon=     1 RMS=2.38D-06 Max=4.54D-05 NDo=     1
 LinEq1:  Iter=  7 NonCon=     1 RMS=7.58D-07 Max=7.08D-06 NDo=     1
 LinEq1:  Iter=  8 NonCon=     1 RMS=2.22D-07 Max=4.36D-06 NDo=     1
 LinEq1:  Iter=  9 NonCon=     1 RMS=4.35D-08 Max=4.98D-07 NDo=     1
 LinEq1:  Iter= 10 NonCon=     1 RMS=7.83D-09 Max=9.88D-08 NDo=     1
 LinEq1:  Iter= 11 NonCon=     1 RMS=1.19D-09 Max=1.05D-08 NDo=     1
 LinEq1:  Iter= 12 NonCon=     1 RMS=1.96D-10 Max=1.79D-09 NDo=     1
 LinEq1:  Iter= 13 NonCon=     0 RMS=3.43D-11 Max=2.95D-10 NDo=     1
 Linear equations converged to 1.000D-10 1.000D-09 after    13 iterations.
 End of Minotr F.D. properties file   721 does not exist.
 End of Minotr F.D. properties file   722 does not exist.
 End of Minotr F.D. properties file   788 does not exist.

 **********************************************************************

            Population analysis using the SCF Density.

 **********************************************************************

 Orbital symmetries:
       Occupied  (A) (A) (A) (A) (A) (A) (A) (A) (A) (A) (A) (A)
       Virtual   (A) (A) (A) (A) (A) (A) (A) (A) (A) (A) (A) (A)
                 (A) (A) (A) (A) (A) (A) (A) (A) (A) (A) (A) (A)
                 (A) (A) (A) (A) (A) (A) (A) (A) (A) (A) (A) (A)
                 (A) (A) (A) (A) (A) (A) (A) (A) (A) (A) (A) (A)
                 (A) (A) (A) (A) (A) (A) (A) (A) (A) (A) (A) (A)
                 (A) (A) (A) (A) (A) (A) (A) (A) (A) (A) (A) (A)
                 (A) (A) (A) (A) (A) (A) (A) (A) (A) (A) (A) (A)
                 (A) (A) (A) (A) (A) (A) (A) (A) (A) (A) (A) (A)
                 (A) (A) (A) (A) (A) (A) (A) (A) (A) (A) (A) (A)
                 (A) (A) (A) (A) (A) (A) (A) (A) (A) (A) (A) (A)
                 (A) (A) (A) (A) (A) (A) (A) (A) (A) (A) (A) (A)
                 (A) (A) (A) (A) (A) (A) (A) (A) (A) (A) (A) (A)
                 (A) (A) (A) (A) (A) (A) (A) (A) (A) (A) (A) (A)
                 (A) (A) (A) (A) (A) (A) (A) (A) (A) (A) (A) (A)
                 (A) (A) (A) (A) (A) (A) (A) (A) (A) (A) (A) (A)
                 (A) (A) (A) (A) (A) (A) (A) (A) (A) (A) (A) (A)
                 (A) (A) (A) (A) (A) (A) (A) (A) (A) (A) (A) (A)
                 (A) (A) (A) (A) (A) (A) (A) (A) (A) (A) (A) (A)
                 (A) (A)
 The electronic state is 1-A.
 Alpha  occ. eigenvalues --  -20.59236 -11.29708 -11.21240  -1.40137  -1.02206
 Alpha  occ. eigenvalues --   -0.79631  -0.74045  -0.62292  -0.57786  -0.57137
 Alpha  occ. eigenvalues --   -0.52084  -0.34586
 Alpha virt. eigenvalues --    0.02518   0.03975   0.04425   0.05991   0.09233
 Alpha virt. eigenvalues --    0.09953   0.10343   0.10676   0.13251   0.14413
 Alpha virt. eigenvalues --    0.16452   0.16958   0.17248   0.18473   0.18859
 Alpha virt. eigenvalues --    0.20175   0.24898   0.25107   0.26420   0.28754
 Alpha virt. eigenvalues --    0.29691   0.30476   0.31710   0.31872   0.32928
 Alpha virt. eigenvalues --    0.34867   0.37010   0.37989   0.39199   0.40811
 Alpha virt. eigenvalues --    0.41861   0.42977   0.43055   0.43971   0.44167
 Alpha virt. eigenvalues --    0.46290   0.47919   0.48327   0.48548   0.51535
 Alpha virt. eigenvalues --    0.54983   0.55936   0.57482   0.61262   0.61733
 Alpha virt. eigenvalues --    0.68564   0.71312   0.72801   0.73194   0.75796
 Alpha virt. eigenvalues --    0.78491   0.79432   0.84389   0.85458   0.85556
 Alpha virt. eigenvalues --    0.86944   0.88080   0.88170   0.91320   0.91812
 Alpha virt. eigenvalues --    0.92681   0.93926   0.95485   0.96067   0.97441
 Alpha virt. eigenvalues --    0.99528   0.99970   1.00931   1.02698   1.02817
 Alpha virt. eigenvalues --    1.03959   1.05899   1.08106   1.08718   1.10703
 Alpha virt. eigenvalues --    1.11218   1.11702   1.12610   1.17825   1.19632
 Alpha virt. eigenvalues --    1.19744   1.23704   1.28747   1.31065   1.31400
 Alpha virt. eigenvalues --    1.35528   1.40086   1.40836   1.41075   1.48822
 Alpha virt. eigenvalues --    1.49251   1.53370   1.54806   1.55910   1.58463
 Alpha virt. eigenvalues --    1.61806   1.64751   1.65048   1.69862   1.75206
 Alpha virt. eigenvalues --    1.77084   1.77995   1.78484   1.83477   1.84349
 Alpha virt. eigenvalues --    1.87204   1.88326   1.91986   1.95756   2.02631
 Alpha virt. eigenvalues --    2.04800   2.07056   2.10368   2.13578   2.14931
 Alpha virt. eigenvalues --    2.22879   2.24376   2.29372   2.35231   2.40972
 Alpha virt. eigenvalues --    2.43575   2.46215   2.46865   2.52539   2.64896
 Alpha virt. eigenvalues --    2.68274   2.71266   2.76067   2.78535   2.90434
 Alpha virt. eigenvalues --    2.92649   2.97513   3.06298   3.09081   3.09315
 Alpha virt. eigenvalues --    3.20764   3.25285   3.26426   3.28782   3.34117
 Alpha virt. eigenvalues --    3.38135   3.39542   3.46034   3.50644   3.50846
 Alpha virt. eigenvalues --    3.56738   3.64364   3.65945   3.69191   3.74180
 Alpha virt. eigenvalues --    3.74823   3.79509   3.82456   3.86476   3.94827
 Alpha virt. eigenvalues --    3.95892   3.99607   4.02336   4.09699   4.11156
 Alpha virt. eigenvalues --    4.11876   4.16669   4.20324   4.27346   4.28438
 Alpha virt. eigenvalues --    4.31324   4.37078   4.40926   4.42744   4.47145
 Alpha virt. eigenvalues --    4.48969   4.55496   4.62211   4.63284   4.76169
 Alpha virt. eigenvalues --    4.76469   4.86425   4.87402   4.89898   4.94646
 Alpha virt. eigenvalues --    4.95285   5.01120   5.02702   5.13389   5.16028
 Alpha virt. eigenvalues --    5.22217   5.26689   5.33677   5.36010   5.40954
 Alpha virt. eigenvalues --    5.43013   5.47997   5.53332   5.53500   5.71358
 Alpha virt. eigenvalues --    5.80551   5.93606   6.22569   6.28791   6.50984
 Alpha virt. eigenvalues --    6.65540   6.71203   6.75894   6.84208   6.93717
 Alpha virt. eigenvalues --    7.06398   7.23702   7.31147   7.34677   7.57875
 Alpha virt. eigenvalues --    7.58597   7.63576   7.91388   8.23362   8.48236
 Alpha virt. eigenvalues --   15.28304  17.25823  17.48764
          Condensed to atoms (all electrons):
               1          2          3          4          5          6
     1  C    5.580440   0.288041   0.156766   0.285302   0.047677  -0.129136
     2  C    0.288041   6.092986  -0.025042  -0.118419   0.350630   0.371332
     3  H    0.156766  -0.025042   0.303712  -0.045424  -0.027531   0.015174
     4  O    0.285302  -0.118419  -0.045424   8.167134  -0.001483  -0.015606
     5  H    0.047677   0.350630  -0.027531  -0.001483   0.335182  -0.043619
     6  H   -0.129136   0.371332   0.015174  -0.015606  -0.043619   0.300215
     7  H    0.060021  -0.017209  -0.034272   0.212838   0.004147  -0.004214
               7
     1  C    0.060021
     2  C   -0.017209
     3  H   -0.034272
     4  O    0.212838
     5  H    0.004147
     6  H   -0.004214
     7  H    0.560378
 Mulliken charges:
               1
     1  C   -0.289112
     2  C   -0.942319
     3  H    0.656616
     4  O   -0.484344
     5  H    0.334995
     6  H    0.505853
     7  H    0.218310
 Sum of Mulliken charges =  -0.00000
 Mulliken charges with hydrogens summed into heavy atoms:
               1
     1  C    0.367504
     2  C   -0.101470
     4  O   -0.266034
 Electronic spatial extent (au):  <R**2>=            164.9680
 Charge=             -0.0000 electrons
 Dipole moment (field-independent basis, Debye):
    X=             -0.8080    Y=              1.7780    Z=              0.0001  Tot=              1.9530
 Quadrupole moment (field-independent basis, Debye-Ang):
   XX=            -15.0923   YY=            -17.3782   ZZ=            -21.3043
   XY=             -2.8643   XZ=             -0.0001   YZ=              0.0000
 Traceless Quadrupole moment (field-independent basis, Debye-Ang):
   XX=              2.8326   YY=              0.5467   ZZ=             -3.3793
   XY=             -2.8643   XZ=             -0.0001   YZ=              0.0000
 Octapole moment (field-independent basis, Debye-Ang**2):
  XXX=            -12.9073  YYY=              0.4115  ZZZ=              0.0000  XYY=             -1.4034
  XXY=              3.9807  XXZ=              0.0003  XZZ=             -3.9743  YZZ=             -0.3544
  YYZ=              0.0000  XYZ=             -0.0001
 Hexadecapole moment (field-independent basis, Debye-Ang**3):
 XXXX=           -118.8840 YYYY=            -40.2683 ZZZZ=            -24.5763 XXXY=             -4.0878
 XXXZ=             -0.0006 YYYX=             -2.5887 YYYZ=              0.0000 ZZZX=             -0.0001
 ZZZY=              0.0000 XXYY=            -30.4189 XXZZ=            -31.7975 YYZZ=            -12.2545
 XXYZ=              0.0001 YYXZ=             -0.0000 ZZXY=             -0.3723
 N-N= 7.016315173357D+01 E-N=-4.995086067937D+02  KE= 1.526741346976D+02
 Calling FoFJK, ICntrl=  10002127 FMM=F ISym2X=0 I1Cent= 0 IOpClX= 0 NMat=1 NMatS=1 NMatT=0.
 ***** Axes restored to original set *****
 -------------------------------------------------------------------
 Center     Atomic                   Forces (Hartrees/Bohr)
 Number     Number              X              Y              Z
 -------------------------------------------------------------------
      1        6           0.000662381   -0.000527638    0.002262974
      2        6          -0.002242909   -0.005885644   -0.000172286
      3        1          -0.000122467   -0.003139869    0.002740418
      4        8           0.004342288    0.012660518   -0.000900502
      5        1           0.000944222    0.004950625   -0.002340978
      6        1           0.001682995    0.002231689    0.002260777
      7        1          -0.005266510   -0.010289681   -0.003850404
 -------------------------------------------------------------------
 Cartesian Forces:  Max     0.012660518 RMS     0.004551932

 GradGradGradGradGradGradGradGradGradGradGradGradGradGradGradGradGradGrad
 Berny optimization.
 FormGI is forming the generalized inverse of G from B-inverse, IUseBI=4.
 Internal  Forces:  Max     0.012107771 RMS     0.003783896
 Search for a local minimum.
 Step number   1 out of a maximum of   29
 All quantities printed in internal units (Hartrees-Bohrs-Radians)
 Mixed Optimization -- RFO/linear search
 Second derivative matrix not updated -- first step.
 The second derivative matrix:
                          R1        R2        R3        R4        R5
           R1           0.59183
           R2           0.00000   0.35720
           R3           0.00000   0.00000   0.52006
           R4           0.00000   0.00000   0.00000   0.35525
           R5           0.00000   0.00000   0.00000   0.00000   0.35391
           R6           0.00000   0.00000   0.00000   0.00000   0.00000
           A1           0.00000   0.00000   0.00000   0.00000   0.00000
           A2           0.00000   0.00000   0.00000   0.00000   0.00000
           A3           0.00000   0.00000   0.00000   0.00000   0.00000
           A4           0.00000   0.00000   0.00000   0.00000   0.00000
           A5           0.00000   0.00000   0.00000   0.00000   0.00000
           A6           0.00000   0.00000   0.00000   0.00000   0.00000
           A7           0.00000   0.00000   0.00000   0.00000   0.00000
           D1           0.00000   0.00000   0.00000   0.00000   0.00000
           D2           0.00000   0.00000   0.00000   0.00000   0.00000
           D3           0.00000   0.00000   0.00000   0.00000   0.00000
           D4           0.00000   0.00000   0.00000   0.00000   0.00000
           D5           0.00000   0.00000   0.00000   0.00000   0.00000
           D6           0.00000   0.00000   0.00000   0.00000   0.00000
                          R6        A1        A2        A3        A4
           R6           0.52686
           A1           0.00000   0.16000
           A2           0.00000   0.00000   0.25000
           A3           0.00000   0.00000   0.00000   0.16000
           A4           0.00000   0.00000   0.00000   0.00000   0.16000
           A5           0.00000   0.00000   0.00000   0.00000   0.00000
           A6           0.00000   0.00000   0.00000   0.00000   0.00000
           A7           0.00000   0.00000   0.00000   0.00000   0.00000
           D1           0.00000   0.00000   0.00000   0.00000   0.00000
           D2           0.00000   0.00000   0.00000   0.00000   0.00000
           D3           0.00000   0.00000   0.00000   0.00000   0.00000
           D4           0.00000   0.00000   0.00000   0.00000   0.00000
           D5           0.00000   0.00000   0.00000   0.00000   0.00000
           D6           0.00000   0.00000   0.00000   0.00000   0.00000
                          A5        A6        A7        D1        D2
           A5           0.16000
           A6           0.00000   0.16000
           A7           0.00000   0.00000   0.16000
           D1           0.00000   0.00000   0.00000   0.02997
           D2           0.00000   0.00000   0.00000   0.00000   0.02997
           D3           0.00000   0.00000   0.00000   0.00000   0.00000
           D4           0.00000   0.00000   0.00000   0.00000   0.00000
           D5           0.00000   0.00000   0.00000   0.00000   0.00000
           D6           0.00000   0.00000   0.00000   0.00000   0.00000
                          D3        D4        D5        D6
           D3           0.02997
           D4           0.00000   0.02997
           D5           0.00000   0.00000   0.02159
           D6           0.00000   0.00000   0.00000   0.02159
 ITU=  0
     Eigenvalues ---    0.02159   0.02750   0.02997   0.02997   0.16000
     Eigenvalues ---    0.16000   0.16000   0.16000   0.22000   0.35391
     Eigenvalues ---    0.35525   0.35720   0.52006   0.52686   0.59183
 RFO step:  Lambda=-8.11477422D-04 EMin= 2.15857456D-02
 Linear search not attempted -- first point.
 Iteration  1 RMS(Cart)=  0.01868561 RMS(Int)=  0.00022058
 Iteration  2 RMS(Cart)=  0.00020752 RMS(Int)=  0.00000004
 Iteration  3 RMS(Cart)=  0.00000001 RMS(Int)=  0.00000004
 Variable       Old X    -DE/DX   Delta X   Delta X   Delta X     New X
                                 (Linear)    (Quad)   (Total)
    R1        2.51593  -0.00135   0.00000  -0.00228  -0.00228   2.51365
    R2        2.04522   0.00074   0.00000   0.00205   0.00205   2.04728
    R3        2.57893   0.00529   0.00000   0.01017   0.01017   2.58910
    R4        2.04830  -0.00468   0.00000  -0.01315  -0.01315   2.03515
    R5        2.05045  -0.00344   0.00000  -0.00968  -0.00968   2.04077
    R6        1.83948  -0.01211   0.00000  -0.02295  -0.02295   1.81654
    A1        2.16028  -0.00390   0.00000  -0.02475  -0.02475   2.13553
    A2        2.12456  -0.00060   0.00000  -0.00270  -0.00270   2.12187
    A3        1.99834   0.00449   0.00000   0.02745   0.02745   2.02579
    A4        2.11434  -0.00336   0.00000  -0.02092  -0.02092   2.09342
    A5        2.10649   0.00060   0.00000   0.00371   0.00371   2.11020
    A6        2.06236   0.00277   0.00000   0.01721   0.01721   2.07957
    A7        1.88893   0.00250   0.00000   0.01552   0.01552   1.90445
    D1        0.00000  -0.00000   0.00000  -0.00000  -0.00000  -0.00000
    D2        3.14159   0.00000   0.00000   0.00000   0.00000  -3.14159
    D3       -3.14159  -0.00000   0.00000  -0.00001  -0.00001   3.14158
    D4        0.00000  -0.00000   0.00000  -0.00001  -0.00001  -0.00001
    D5        3.14155   0.00000   0.00000   0.00001   0.00001   3.14156
    D6       -0.00004   0.00000   0.00000   0.00000   0.00000  -0.00004
         Item               Value     Threshold  Converged?
 Maximum Force            0.012108     0.000450     NO 
 RMS     Force            0.003784     0.000300     NO 
 Maximum Displacement     0.050477     0.001800     NO 
 RMS     Displacement     0.018662     0.001200     NO 
 Predicted change in Energy=-4.070688D-04
 GradGradGradGradGradGradGradGradGradGradGradGradGradGradGradGradGradGrad

                          Input orientation:                          
 ---------------------------------------------------------------------
 Center     Atomic      Atomic             Coordinates (Angstroms)
 Number     Number       Type             X           Y           Z
 ---------------------------------------------------------------------
      1          6           0       -0.218697    1.278264    0.518174
      2          6           0       -0.679955    0.030632    0.519109
      3          1           0        0.270227    1.716320    1.380006
      4          8           0       -0.337091    2.086044   -0.582110
      5          1           0       -0.572825   -0.581443    1.398725
      6          1           0       -1.163758   -0.382525   -0.353520
      7          1           0        0.053596    2.942484   -0.387398
 ---------------------------------------------------------------------
                    Distance matrix (angstroms):
                    1          2          3          4          5
     1  C    0.000000
     2  C    1.330167   0.000000
     3  H    1.083372   2.117907   0.000000
     4  O    1.370091   2.356895   2.086966   0.000000
     5  H    2.087890   1.076957   2.447611   3.330880   0.000000
     6  H    2.100288   1.079928   3.076780   2.613325   1.859874
     7  H    1.914114   3.136675   2.161973   0.961269   4.000087
                    6          7
     6  H    0.000000
     7  H    3.541014   0.000000
 Stoichiometry    C2H4O
 Framework group  C1[X(C2H4O)]
 Deg. of freedom    15
 Full point group                 C1      NOp   1
 Largest Abelian subgroup         C1      NOp   1
 Largest concise Abelian subgroup C1      NOp   1
                         Standard orientation:                         
 ---------------------------------------------------------------------
 Center     Atomic      Atomic             Coordinates (Angstroms)
 Number     Number       Type             X           Y           Z
 ---------------------------------------------------------------------
      1          6           0        0.036806    0.419290    0.000001
      2          6           0        1.223452   -0.181723    0.000002
      3          1           0       -0.066948    1.497682   -0.000006
      4          8           0       -1.130578   -0.297901   -0.000004
      5          1           0        2.124665    0.407897   -0.000005
      6          1           0        1.299613   -1.258962    0.000005
      7          1           0       -1.874253    0.311186    0.000023
 ---------------------------------------------------------------------
 Rotational constants (GHZ):          63.3397191          10.4806493           8.9926588
 Standard basis: Aug-CC-pVTZ (5D, 7F)
 There are   265 symmetry adapted cartesian basis functions of A   symmetry.
 There are   230 symmetry adapted basis functions of A   symmetry.
   230 basis functions,   324 primitive gaussians,   265 cartesian basis functions
    12 alpha electrons       12 beta electrons
       nuclear repulsion energy        70.1823468175 Hartrees.
 NAtoms=    7 NActive=    7 NUniq=    7 SFac= 1.00D+00 NAtFMM=   60 NAOKFM=F Big=F
 Integral buffers will be    131072 words long.
 Raffenetti 1 integral format.
 Two-electron integral symmetry is turned on.
 One-electron integrals computed using PRISM.
 NBasis=   230 RedAO= T EigKep=  9.41D-06  NBF=   230
 NBsUse=   230 1.00D-06 EigRej= -1.00D+00 NBFU=   230
 Initial guess from the checkpoint file:  "/scr/Gau-91277.chk"
 B after Tr=     0.000000   -0.000000   -0.000000
         Rot=    0.999997   -0.000000    0.000000    0.002382 Ang=  -0.27 deg.
 ExpMin= 2.53D-02 ExpMax= 1.53D+04 ExpMxC= 5.22D+02 IAcc=3 IRadAn=         5 AccDes= 0.00D+00
 Harris functional with IExCor=  205 and IRadAn=       5 diagonalized for initial guess.
 HarFok:  IExCor=  205 AccDes= 0.00D+00 IRadAn=         5 IDoV= 1 UseB2=F ITyADJ=14
 ICtDFT=  3500011 ScaDFX=  1.000000  1.000000  1.000000  1.000000
 FoFCou: FMM=F IPFlag=           0 FMFlag=      100000 FMFlg1=           0
         NFxFlg=           0 DoJE=T BraDBF=F KetDBF=T FulRan=T
         wScrn=  0.000000 ICntrl=       500 IOpCl=  0 I1Cent=   200000004 NGrid=           0
         NMat0=    1 NMatS0=      1 NMatT0=    0 NMatD0=    1 NMtDS0=    0 NMtDT0=    0
 Petite list used in FoFCou.
 Keep R1 ints in memory in canonical form, NReq=372737388.
 Requested convergence on RMS density matrix=1.00D-08 within 128 cycles.
 Requested convergence on MAX density matrix=1.00D-06.
 Requested convergence on             energy=1.00D-06.
 No special actions if energy rises.
 SCF Done:  E(RHF) =  -152.955973948     A.U. after   10 cycles
            NFock= 10  Conv=0.59D-08     -V/T= 2.0017
 ExpMin= 2.53D-02 ExpMax= 1.53D+04 ExpMxC= 5.22D+02 IAcc=3 IRadAn=         5 AccDes= 0.00D+00
 HarFok:  IExCor=  205 AccDes= 0.00D+00 IRadAn=         5 IDoV=-2 UseB2=F ITyADJ=14
 ICtDFT= 12500011 ScaDFX=  1.000000  1.000000  1.000000  1.000000
 Range of M.O.s used for correlation:     4   230
 NBasis=   230 NAE=    12 NBE=    12 NFC=     3 NFV=     0
 NROrb=    227 NOA=     9 NOB=     9 NVA=   218 NVB=   218

 **** Warning!!: The largest alpha MO coefficient is  0.62574513D+02

 Fully direct method using O(ONN) memory.
 JobTyp=1 Pass  1:  I=   4 to  12 NPSUse= 40 ParTrn=T ParDer=T DoDerP=T.
 Spin components of T(2) and E(2):
     alpha-alpha T2 =       0.2073501741D-01 E2=     -0.6894288108D-01
     alpha-beta  T2 =       0.1265262338D+00 E2=     -0.4421762152D+00
     beta-beta   T2 =       0.2073501741D-01 E2=     -0.6894288108D-01
 ANorm=    0.1080738761D+01
 E2 =    -0.5800619774D+00 EUMP2 =    -0.15353603592528D+03
          IDoAtm=1111111
          Differentiating once with respect to electric field.
                with respect to dipole field.
          Differentiating once with respect to nuclear coordinates.
 Keep R1 ints in memory in canonical form, NReq=372742197.
          There are     1 degrees of freedom in the 1st order CPHF.  IDoFFX=0 NUNeed=     1.
 LinEq1:  Iter=  0 NonCon=     1 RMS=3.37D-03 Max=7.29D-02 NDo=     1
 AX will form     1 AO Fock derivatives at one time.
 LinEq1:  Iter=  1 NonCon=     1 RMS=8.54D-04 Max=7.77D-03 NDo=     1
 LinEq1:  Iter=  2 NonCon=     1 RMS=2.62D-04 Max=4.24D-03 NDo=     1
 LinEq1:  Iter=  3 NonCon=     1 RMS=8.00D-05 Max=7.14D-04 NDo=     1
 LinEq1:  Iter=  4 NonCon=     1 RMS=3.33D-05 Max=4.41D-04 NDo=     1
 LinEq1:  Iter=  5 NonCon=     1 RMS=7.04D-06 Max=6.21D-05 NDo=     1
 LinEq1:  Iter=  6 NonCon=     1 RMS=2.33D-06 Max=4.49D-05 NDo=     1
 LinEq1:  Iter=  7 NonCon=     1 RMS=7.46D-07 Max=6.72D-06 NDo=     1
 LinEq1:  Iter=  8 NonCon=     1 RMS=2.14D-07 Max=4.11D-06 NDo=     1
 LinEq1:  Iter=  9 NonCon=     1 RMS=4.23D-08 Max=4.87D-07 NDo=     1
 LinEq1:  Iter= 10 NonCon=     1 RMS=7.71D-09 Max=9.84D-08 NDo=     1
 LinEq1:  Iter= 11 NonCon=     1 RMS=1.18D-09 Max=1.04D-08 NDo=     1
 LinEq1:  Iter= 12 NonCon=     1 RMS=1.95D-10 Max=1.80D-09 NDo=     1
 LinEq1:  Iter= 13 NonCon=     0 RMS=3.36D-11 Max=2.94D-10 NDo=     1
 Linear equations converged to 1.000D-10 1.000D-09 after    13 iterations.
 End of Minotr F.D. properties file   721 does not exist.
 End of Minotr F.D. properties file   722 does not exist.
 End of Minotr F.D. properties file   788 does not exist.
 Calling FoFJK, ICntrl=  10002127 FMM=F ISym2X=0 I1Cent= 0 IOpClX= 0 NMat=1 NMatS=1 NMatT=0.
 ***** Axes restored to original set *****
 -------------------------------------------------------------------
 Center     Atomic                   Forces (Hartrees/Bohr)
 Number     Number              X              Y              Z
 -------------------------------------------------------------------
      1        6           0.000387300    0.001590770   -0.000532537
      2        6          -0.001112810   -0.001871055   -0.001108940
      3        1          -0.000050116   -0.000198671    0.000062276
      4        8           0.000168823   -0.000256892    0.000696913
      5        1           0.000569556    0.000741431    0.000778951
      6        1           0.000095983    0.000284051   -0.000024077
      7        1          -0.000058735   -0.000289634    0.000127414
 -------------------------------------------------------------------
 Cartesian Forces:  Max     0.001871055 RMS     0.000731406

 GradGradGradGradGradGradGradGradGradGradGradGradGradGradGradGradGradGrad
 Berny optimization.
 Using GEDIIS/GDIIS optimizer.
 FormGI is forming the generalized inverse of G from B-inverse, IUseBI=4.
 Internal  Forces:  Max     0.001425658 RMS     0.000552143
 Search for a local minimum.
 Step number   2 out of a maximum of   29
 All quantities printed in internal units (Hartrees-Bohrs-Radians)
 Mixed Optimization -- En-DIIS/RFO-DIIS
 Update second derivatives using D2CorX and points    1    2
 DE= -4.29D-04 DEPred=-4.07D-04 R= 1.05D+00
 TightC=F SS=  1.41D+00  RLast= 5.72D-02 DXNew= 5.0454D-01 1.7149D-01
 Trust test= 1.05D+00 RLast= 5.72D-02 DXMaxT set to 3.00D-01
 The second derivative matrix:
                          R1        R2        R3        R4        R5
           R1           0.59646
           R2          -0.00114   0.35734
           R3          -0.01000   0.00166   0.53699
           R4           0.00703  -0.00085  -0.01002   0.36022
           R5           0.00417  -0.00028  -0.00464   0.00151   0.35359
           R6           0.01531  -0.00120  -0.01801   0.00661  -0.00026
           A1           0.00373   0.00005  -0.00238  -0.00061  -0.00194
           A2           0.00206  -0.00048  -0.00431   0.00297   0.00172
           A3          -0.00619   0.00066   0.00828  -0.00377  -0.00082
           A4           0.00022   0.00105   0.00601  -0.00683  -0.00585
           A5           0.00051  -0.00037  -0.00258   0.00240   0.00183
           A6          -0.00073  -0.00067  -0.00343   0.00443   0.00402
           A7          -0.00439   0.00067   0.00710  -0.00404  -0.00173
           D1           0.00000  -0.00000  -0.00000   0.00000   0.00000
           D2          -0.00000   0.00000   0.00000  -0.00000  -0.00000
           D3           0.00000  -0.00000  -0.00000   0.00000   0.00000
           D4           0.00000  -0.00000  -0.00000   0.00000   0.00000
           D5          -0.00000   0.00000   0.00000  -0.00000  -0.00000
           D6           0.00000  -0.00000  -0.00000   0.00000   0.00000
                          R6        A1        A2        A3        A4
           R6           0.52903
           A1          -0.00592   0.15613
           A2           0.00635   0.00148   0.25091
           A3          -0.00406   0.00120  -0.00260   0.16272
           A4          -0.02012  -0.00767  -0.00010   0.00677   0.15104
           A5           0.00641   0.00219   0.00027  -0.00229   0.00205
           A6           0.01371   0.00549  -0.00017  -0.00449   0.00691
           A7          -0.00686  -0.00065  -0.00188   0.00328   0.00308
           D1           0.00000   0.00000   0.00000  -0.00000  -0.00000
           D2          -0.00000  -0.00000  -0.00000   0.00000  -0.00000
           D3           0.00000   0.00000   0.00000  -0.00000   0.00000
           D4           0.00000   0.00000   0.00000  -0.00000  -0.00000
           D5          -0.00000  -0.00000  -0.00000   0.00000   0.00000
           D6           0.00000   0.00000   0.00000  -0.00000   0.00000
                          A5        A6        A7        D1        D2
           A5           0.15960
           A6          -0.00165   0.15474
           A7          -0.00123  -0.00185   0.16295
           D1           0.00000   0.00000  -0.00000   0.02997
           D2          -0.00000   0.00000   0.00000  -0.00000   0.02997
           D3           0.00000  -0.00000  -0.00000   0.00000  -0.00000
           D4           0.00000  -0.00000  -0.00000   0.00000  -0.00000
           D5          -0.00000  -0.00000   0.00000  -0.00000   0.00000
           D6          -0.00000  -0.00000  -0.00000   0.00000  -0.00000
                          D3        D4        D5        D6
           D3           0.02997
           D4           0.00000   0.02997
           D5          -0.00000  -0.00000   0.02159
           D6           0.00000   0.00000  -0.00000   0.02159
 ITU=  1  0
 Use linear search instead of GDIIS.
     Eigenvalues ---    0.02159   0.02740   0.02997   0.02997   0.13553
     Eigenvalues ---    0.16000   0.16000   0.16768   0.22139   0.35335
     Eigenvalues ---    0.35711   0.36030   0.51498   0.54758   0.60383
 RFO step:  Lambda=-2.70746747D-05 EMin= 2.15857455D-02
 Quartic linear search produced a step of  0.05584.
 Iteration  1 RMS(Cart)=  0.00494538 RMS(Int)=  0.00002367
 Iteration  2 RMS(Cart)=  0.00002241 RMS(Int)=  0.00000000
 Iteration  3 RMS(Cart)=  0.00000000 RMS(Int)=  0.00000000
 Variable       Old X    -DE/DX   Delta X   Delta X   Delta X     New X
                                 (Linear)    (Quad)   (Total)
    R1        2.51365   0.00095  -0.00013   0.00174   0.00162   2.51527
    R2        2.04728  -0.00005   0.00011  -0.00021  -0.00009   2.04719
    R3        2.58910  -0.00099   0.00057  -0.00225  -0.00168   2.58741
    R4        2.03515   0.00027  -0.00073   0.00111   0.00038   2.03553
    R5        2.04077  -0.00013  -0.00054  -0.00017  -0.00071   2.04006
    R6        1.81654  -0.00026  -0.00128   0.00001  -0.00127   1.81527
    A1        2.13553  -0.00045  -0.00138  -0.00194  -0.00332   2.13221
    A2        2.12187   0.00047  -0.00015   0.00232   0.00216   2.12403
    A3        2.02579  -0.00002   0.00153  -0.00038   0.00116   2.02694
    A4        2.09342  -0.00143  -0.00117  -0.00891  -0.01008   2.08334
    A5        2.11020   0.00044   0.00021   0.00280   0.00300   2.11320
    A6        2.07957   0.00099   0.00096   0.00611   0.00707   2.08665
    A7        1.90445  -0.00035   0.00087  -0.00270  -0.00184   1.90261
    D1       -0.00000  -0.00000  -0.00000  -0.00000  -0.00000  -0.00000
    D2       -3.14159  -0.00000   0.00000  -0.00001  -0.00001   3.14159
    D3        3.14158   0.00000  -0.00000   0.00001   0.00001   3.14159
    D4       -0.00001   0.00000  -0.00000   0.00001   0.00001  -0.00000
    D5        3.14156  -0.00000   0.00000  -0.00000  -0.00000   3.14156
    D6       -0.00004   0.00000   0.00000   0.00001   0.00001  -0.00003
         Item               Value     Threshold  Converged?
 Maximum Force            0.001426     0.000450     NO 
 RMS     Force            0.000552     0.000300     NO 
 Maximum Displacement     0.013208     0.001800     NO 
 RMS     Displacement     0.004948     0.001200     NO 
 Predicted change in Energy=-1.479724D-05
 GradGradGradGradGradGradGradGradGradGradGradGradGradGradGradGradGradGrad

                          Input orientation:                          
 ---------------------------------------------------------------------
 Center     Atomic      Atomic             Coordinates (Angstroms)
 Number     Number       Type             X           Y           Z
 ---------------------------------------------------------------------
      1          6           0       -0.219667    1.278027    0.515835
      2          6           0       -0.681279    0.029615    0.516605
      3          1           0        0.268763    1.712867    1.379514
      4          8           0       -0.336541    2.087606   -0.582178
      5          1           0       -0.569238   -0.574453    1.401373
      6          1           0       -1.165334   -0.386074   -0.354214
      7          1           0        0.054793    2.942188   -0.383950
 ---------------------------------------------------------------------
                    Distance matrix (angstroms):
                    1          2          3          4          5
     1  C    0.000000
     2  C    1.331022   0.000000
     3  H    1.083324   2.116726   0.000000
     4  O    1.369200   2.358282   2.086878   0.000000
     5  H    2.082801   1.077156   2.436095   3.327939   0.000000
     6  H    2.102499   1.079552   3.077012   2.618770   1.863572
     7  H    1.911641   3.136221   2.160281   0.960598   3.992938
                    6          7
     6  H    0.000000
     7  H    3.544985   0.000000
 Stoichiometry    C2H4O
 Framework group  C1[X(C2H4O)]
 Deg. of freedom    15
 Full point group                 C1      NOp   1
 Largest Abelian subgroup         C1      NOp   1
 Largest concise Abelian subgroup C1      NOp   1
                         Standard orientation:                         
 ---------------------------------------------------------------------
 Center     Atomic      Atomic             Coordinates (Angstroms)
 Number     Number       Type             X           Y           Z
 ---------------------------------------------------------------------
      1          6           0        0.036294    0.417805   -0.000002
      2          6           0        1.224264   -0.182484    0.000001
      3          1           0       -0.064883    1.496394   -0.000003
      4          8           0       -1.131213   -0.297484   -0.000003
      5          1           0        2.119095    0.417135    0.000001
      6          1           0        1.304638   -1.259039    0.000004
      7          1           0       -1.872497    0.313454    0.000023
 ---------------------------------------------------------------------
 Rotational constants (GHZ):          63.4174871          10.4746091           8.9897759
 Standard basis: Aug-CC-pVTZ (5D, 7F)
 There are   265 symmetry adapted cartesian basis functions of A   symmetry.
 There are   230 symmetry adapted basis functions of A   symmetry.
   230 basis functions,   324 primitive gaussians,   265 cartesian basis functions
    12 alpha electrons       12 beta electrons
       nuclear repulsion energy        70.1863526605 Hartrees.
 NAtoms=    7 NActive=    7 NUniq=    7 SFac= 1.00D+00 NAtFMM=   60 NAOKFM=F Big=F
 Integral buffers will be    131072 words long.
 Raffenetti 1 integral format.
 Two-electron integral symmetry is turned on.
 One-electron integrals computed using PRISM.
 NBasis=   230 RedAO= T EigKep=  9.34D-06  NBF=   230
 NBsUse=   230 1.00D-06 EigRej= -1.00D+00 NBFU=   230
 Initial guess from the checkpoint file:  "/scr/Gau-91277.chk"
 B after Tr=    -0.000000    0.000000    0.000000
         Rot=    1.000000    0.000000   -0.000000   -0.000161 Ang=  -0.02 deg.
 Keep R1 ints in memory in canonical form, NReq=372737388.
 Requested convergence on RMS density matrix=1.00D-08 within 128 cycles.
 Requested convergence on MAX density matrix=1.00D-06.
 Requested convergence on             energy=1.00D-06.
 No special actions if energy rises.
 SCF Done:  E(RHF) =  -152.955993582     A.U. after    9 cycles
            NFock=  9  Conv=0.28D-08     -V/T= 2.0016
 ExpMin= 2.53D-02 ExpMax= 1.53D+04 ExpMxC= 5.22D+02 IAcc=3 IRadAn=         5 AccDes= 0.00D+00
 HarFok:  IExCor=  205 AccDes= 0.00D+00 IRadAn=         5 IDoV=-2 UseB2=F ITyADJ=14
 ICtDFT= 12500011 ScaDFX=  1.000000  1.000000  1.000000  1.000000
 Range of M.O.s used for correlation:     4   230
 NBasis=   230 NAE=    12 NBE=    12 NFC=     3 NFV=     0
 NROrb=    227 NOA=     9 NOB=     9 NVA=   218 NVB=   218

 **** Warning!!: The largest alpha MO coefficient is  0.62295135D+02

 Fully direct method using O(ONN) memory.
 JobTyp=1 Pass  1:  I=   4 to  12 NPSUse= 40 ParTrn=T ParDer=T DoDerP=T.
 Spin components of T(2) and E(2):
     alpha-alpha T2 =       0.2073574121D-01 E2=     -0.6894640079D-01
     alpha-beta  T2 =       0.1265241415D+00 E2=     -0.4421685151D+00
     beta-beta   T2 =       0.2073574121D-01 E2=     -0.6894640079D-01
 ANorm=    0.1080738462D+01
 E2 =    -0.5800613167D+00 EUMP2 =    -0.15353605489883D+03
          IDoAtm=1111111
          Differentiating once with respect to electric field.
                with respect to dipole field.
          Differentiating once with respect to nuclear coordinates.
 Keep R1 ints in memory in canonical form, NReq=372742315.
          There are     1 degrees of freedom in the 1st order CPHF.  IDoFFX=0 NUNeed=     1.
 LinEq1:  Iter=  0 NonCon=     1 RMS=3.37D-03 Max=7.29D-02 NDo=     1
 AX will form     1 AO Fock derivatives at one time.
 LinEq1:  Iter=  1 NonCon=     1 RMS=8.53D-04 Max=7.77D-03 NDo=     1
 LinEq1:  Iter=  2 NonCon=     1 RMS=2.62D-04 Max=4.24D-03 NDo=     1
 LinEq1:  Iter=  3 NonCon=     1 RMS=7.99D-05 Max=7.15D-04 NDo=     1
 LinEq1:  Iter=  4 NonCon=     1 RMS=3.33D-05 Max=4.36D-04 NDo=     1
 LinEq1:  Iter=  5 NonCon=     1 RMS=7.02D-06 Max=6.22D-05 NDo=     1
 LinEq1:  Iter=  6 NonCon=     1 RMS=2.32D-06 Max=4.47D-05 NDo=     1
 LinEq1:  Iter=  7 NonCon=     1 RMS=7.43D-07 Max=6.63D-06 NDo=     1
 LinEq1:  Iter=  8 NonCon=     1 RMS=2.12D-07 Max=4.06D-06 NDo=     1
 LinEq1:  Iter=  9 NonCon=     1 RMS=4.21D-08 Max=4.88D-07 NDo=     1
 LinEq1:  Iter= 10 NonCon=     1 RMS=7.69D-09 Max=9.88D-08 NDo=     1
 LinEq1:  Iter= 11 NonCon=     1 RMS=1.18D-09 Max=1.05D-08 NDo=     1
 LinEq1:  Iter= 12 NonCon=     1 RMS=1.95D-10 Max=1.81D-09 NDo=     1
 LinEq1:  Iter= 13 NonCon=     0 RMS=3.36D-11 Max=2.95D-10 NDo=     1
 Linear equations converged to 1.000D-10 1.000D-09 after    13 iterations.
 End of Minotr F.D. properties file   721 does not exist.
 End of Minotr F.D. properties file   722 does not exist.
 End of Minotr F.D. properties file   788 does not exist.
 Calling FoFJK, ICntrl=  10002127 FMM=F ISym2X=0 I1Cent= 0 IOpClX= 0 NMat=1 NMatS=1 NMatT=0.
 ***** Axes restored to original set *****
 -------------------------------------------------------------------
 Center     Atomic                   Forces (Hartrees/Bohr)
 Number     Number              X              Y              Z
 -------------------------------------------------------------------
      1        6          -0.000032933    0.000372050   -0.000448884
      2        6          -0.000292471   -0.000490602   -0.000292696
      3        1          -0.000001781   -0.000029918    0.000024383
      4        8          -0.000040937   -0.000495668    0.000375680
      5        1           0.000174965    0.000159754    0.000305211
      6        1           0.000017974    0.000064073   -0.000015143
      7        1           0.000175183    0.000420311    0.000051449
 -------------------------------------------------------------------
 Cartesian Forces:  Max     0.000495668 RMS     0.000267870

 GradGradGradGradGradGradGradGradGradGradGradGradGradGradGradGradGradGrad
 Berny optimization.
 Using GEDIIS/GDIIS optimizer.
 FormGI is forming the generalized inverse of G from B-inverse, IUseBI=4.
 Internal  Forces:  Max     0.000455907 RMS     0.000222751
 Search for a local minimum.
 Step number   3 out of a maximum of   29
 All quantities printed in internal units (Hartrees-Bohrs-Radians)
 Mixed Optimization -- En-DIIS/RFO-DIIS
 Swapping is turned off.
 Update second derivatives using D2CorX and points    1    2    3
 DE= -1.90D-05 DEPred=-1.48D-05 R= 1.28D+00
 TightC=F SS=  1.41D+00  RLast= 1.37D-02 DXNew= 5.0454D-01 4.1216D-02
 Trust test= 1.28D+00 RLast= 1.37D-02 DXMaxT set to 3.00D-01
 The second derivative matrix:
                          R1        R2        R3        R4        R5
           R1           0.58697
           R2          -0.00124   0.35738
           R3           0.00252   0.00150   0.52263
           R4           0.00179  -0.00061  -0.00530   0.35955
           R5           0.00508  -0.00016  -0.00664   0.00282   0.35378
           R6           0.00384   0.00006  -0.01342   0.01094   0.00475
           A1           0.00827   0.00013  -0.00854   0.00206  -0.00234
           A2          -0.01027  -0.00007   0.00774   0.00044   0.00450
           A3          -0.00470   0.00041   0.00822  -0.00488  -0.00166
           A4           0.01437   0.00132  -0.01356   0.00187  -0.00691
           A5          -0.00422  -0.00042   0.00364  -0.00017   0.00231
           A6          -0.01015  -0.00090   0.00992  -0.00169   0.00460
           A7          -0.00603   0.00102   0.00636  -0.00200  -0.00046
           D1           0.00000  -0.00000  -0.00000   0.00000  -0.00000
           D2          -0.00000   0.00000   0.00000   0.00000   0.00000
           D3           0.00001  -0.00000  -0.00000  -0.00000  -0.00000
           D4           0.00000  -0.00000  -0.00000  -0.00000  -0.00000
           D5          -0.00001   0.00000   0.00001  -0.00000   0.00000
           D6          -0.00000  -0.00000  -0.00000   0.00000   0.00000
                          R6        A1        A2        A3        A4
           R6           0.56606
           A1           0.00039   0.15392
           A2           0.01175   0.00778   0.24291
           A3          -0.01154   0.00036  -0.00439   0.16416
           A4           0.00126  -0.01444   0.02007   0.00379   0.13021
           A5           0.00087   0.00448  -0.00583  -0.00158   0.00915
           A6          -0.00213   0.00996  -0.01424  -0.00221   0.02063
           A7           0.00508   0.00042   0.00146   0.00096   0.00676
           D1           0.00000  -0.00000   0.00000  -0.00000  -0.00000
           D2           0.00001   0.00000   0.00000  -0.00000   0.00000
           D3          -0.00001  -0.00000  -0.00000   0.00000  -0.00001
           D4          -0.00001  -0.00000  -0.00000   0.00000  -0.00000
           D5           0.00001   0.00000  -0.00000  -0.00000   0.00001
           D6          -0.00000   0.00000  -0.00000  -0.00000   0.00000
                          A5        A6        A7        D1        D2
           A5           0.15723
           A6          -0.00638   0.14575
           A7          -0.00202  -0.00474   0.16639
           D1           0.00000   0.00000   0.00000   0.02997
           D2          -0.00000  -0.00000   0.00000   0.00000   0.02997
           D3           0.00000   0.00001  -0.00001  -0.00000  -0.00000
           D4           0.00000   0.00000  -0.00000  -0.00000  -0.00000
           D5          -0.00000  -0.00001   0.00000   0.00000   0.00000
           D6          -0.00000  -0.00000  -0.00000   0.00000  -0.00000
                          D3        D4        D5        D6
           D3           0.02997
           D4           0.00000   0.02997
           D5          -0.00000  -0.00000   0.02159
           D6           0.00000   0.00000  -0.00000   0.02159
 ITU=  1  1  0
     Eigenvalues ---    0.02159   0.02739   0.02997   0.02997   0.09760
     Eigenvalues ---    0.16000   0.16180   0.16866   0.21912   0.35295
     Eigenvalues ---    0.35725   0.35997   0.52016   0.57098   0.58895
 En-DIIS/RFO-DIIS/Sim-DIIS IScMMF=       -3 using points:     3    2
 RFO step:  Lambda=-5.40861297D-06.
 DidBck=F Rises=F RFO-DIIS coefs:    1.45612   -0.45612
 Iteration  1 RMS(Cart)=  0.00270203 RMS(Int)=  0.00000602
 Iteration  2 RMS(Cart)=  0.00000604 RMS(Int)=  0.00000000
 Iteration  3 RMS(Cart)=  0.00000000 RMS(Int)=  0.00000000
 Variable       Old X    -DE/DX   Delta X   Delta X   Delta X     New X
                                 (Linear)    (Quad)   (Total)
    R1        2.51527   0.00028   0.00074   0.00000   0.00074   2.51601
    R2        2.04719   0.00001  -0.00004   0.00009   0.00005   2.04724
    R3        2.58741  -0.00040  -0.00077  -0.00024  -0.00101   2.58640
    R4        2.03553   0.00018   0.00017   0.00034   0.00051   2.03604
    R5        2.04006  -0.00002  -0.00032   0.00004  -0.00029   2.03977
    R6        1.81527   0.00046  -0.00058   0.00131   0.00073   1.81600
    A1        2.13221  -0.00021  -0.00151  -0.00053  -0.00204   2.13017
    A2        2.12403   0.00035   0.00099   0.00128   0.00227   2.12630
    A3        2.02694  -0.00013   0.00053  -0.00075  -0.00023   2.02672
    A4        2.08334  -0.00042  -0.00460  -0.00007  -0.00466   2.07868
    A5        2.11320   0.00014   0.00137   0.00014   0.00151   2.11471
    A6        2.08665   0.00028   0.00323  -0.00007   0.00315   2.08980
    A7        1.90261   0.00008  -0.00084   0.00168   0.00084   1.90345
    D1       -0.00000   0.00000  -0.00000   0.00000   0.00000  -0.00000
    D2        3.14159   0.00000  -0.00000   0.00001   0.00000  -3.14159
    D3        3.14159  -0.00000   0.00000  -0.00001  -0.00001   3.14158
    D4       -0.00000  -0.00000   0.00000  -0.00001  -0.00000  -0.00001
    D5        3.14156   0.00000  -0.00000   0.00001   0.00001   3.14158
    D6       -0.00003   0.00000   0.00000   0.00000   0.00000  -0.00003
         Item               Value     Threshold  Converged?
 Maximum Force            0.000456     0.000450     NO 
 RMS     Force            0.000223     0.000300     YES
 Maximum Displacement     0.005900     0.001800     NO 
 RMS     Displacement     0.002702     0.001200     NO 
 Predicted change in Energy=-2.704408D-06
 GradGradGradGradGradGradGradGradGradGradGradGradGradGradGradGradGradGrad

                          Input orientation:                          
 ---------------------------------------------------------------------
 Center     Atomic      Atomic             Coordinates (Angstroms)
 Number     Number       Type             X           Y           Z
 ---------------------------------------------------------------------
      1          6           0       -0.220386    1.277633    0.514339
      2          6           0       -0.681999    0.028804    0.515501
      3          1           0        0.267823    1.710880    1.378978
      4          8           0       -0.335980    2.088866   -0.581921
      5          1           0       -0.567479   -0.571331    1.402953
      6          1           0       -1.166249   -0.388524   -0.354237
      7          1           0        0.055767    2.943447   -0.382628
 ---------------------------------------------------------------------
                    Distance matrix (angstroms):
                    1          2          3          4          5
     1  C    0.000000
     2  C    1.331414   0.000000
     3  H    1.083352   2.115923   0.000000
     4  O    1.368665   2.359644   2.086282   0.000000
     5  H    2.080572   1.077426   2.430389   3.327156   0.000000
     6  H    2.103607   1.079400   3.077026   2.622718   1.865385
     7  H    1.912000   3.137846   2.160426   0.960985   3.991290
                    6          7
     6  H    0.000000
     7  H    3.549107   0.000000
 Stoichiometry    C2H4O
 Framework group  C1[X(C2H4O)]
 Deg. of freedom    15
 Full point group                 C1      NOp   1
 Largest Abelian subgroup         C1      NOp   1
 Largest concise Abelian subgroup C1      NOp   1
                         Standard orientation:                         
 ---------------------------------------------------------------------
 Center     Atomic      Atomic             Coordinates (Angstroms)
 Number     Number       Type             X           Y           Z
 ---------------------------------------------------------------------
      1          6           0        0.036088    0.416549    0.000001
      2          6           0        1.225056   -0.182630    0.000001
      3          1           0       -0.064055    1.495262   -0.000004
      4          8           0       -1.131811   -0.297074   -0.000003
      5          1           0        2.116652    0.422271   -0.000005
      6          1           0        1.308207   -1.258823    0.000003
      7          1           0       -1.873180    0.314370    0.000014
 ---------------------------------------------------------------------
 Rotational constants (GHZ):          63.5343308          10.4646999           8.9848164
 Standard basis: Aug-CC-pVTZ (5D, 7F)
 There are   265 symmetry adapted cartesian basis functions of A   symmetry.
 There are   230 symmetry adapted basis functions of A   symmetry.
   230 basis functions,   324 primitive gaussians,   265 cartesian basis functions
    12 alpha electrons       12 beta electrons
       nuclear repulsion energy        70.1801146080 Hartrees.
 NAtoms=    7 NActive=    7 NUniq=    7 SFac= 1.00D+00 NAtFMM=   60 NAOKFM=F Big=F
 Integral buffers will be    131072 words long.
 Raffenetti 1 integral format.
 Two-electron integral symmetry is turned on.
 One-electron integrals computed using PRISM.
 NBasis=   230 RedAO= T EigKep=  9.31D-06  NBF=   230
 NBsUse=   230 1.00D-06 EigRej= -1.00D+00 NBFU=   230
 Initial guess from the checkpoint file:  "/scr/Gau-91277.chk"
 B after Tr=     0.000000   -0.000000   -0.000000
         Rot=    1.000000    0.000000   -0.000000   -0.000127 Ang=  -0.01 deg.
 Keep R1 ints in memory in canonical form, NReq=372737388.
 Requested convergence on RMS density matrix=1.00D-08 within 128 cycles.
 Requested convergence on MAX density matrix=1.00D-06.
 Requested convergence on             energy=1.00D-06.
 No special actions if energy rises.
 SCF Done:  E(RHF) =  -152.955979289     A.U. after    8 cycles
            NFock=  8  Conv=0.66D-08     -V/T= 2.0017
 ExpMin= 2.53D-02 ExpMax= 1.53D+04 ExpMxC= 5.22D+02 IAcc=3 IRadAn=         5 AccDes= 0.00D+00
 HarFok:  IExCor=  205 AccDes= 0.00D+00 IRadAn=         5 IDoV=-2 UseB2=F ITyADJ=14
 ICtDFT= 12500011 ScaDFX=  1.000000  1.000000  1.000000  1.000000
 Range of M.O.s used for correlation:     4   230
 NBasis=   230 NAE=    12 NBE=    12 NFC=     3 NFV=     0
 NROrb=    227 NOA=     9 NOB=     9 NVA=   218 NVB=   218

 **** Warning!!: The largest alpha MO coefficient is  0.61858721D+02

 Fully direct method using O(ONN) memory.
 JobTyp=1 Pass  1:  I=   4 to  12 NPSUse= 40 ParTrn=T ParDer=T DoDerP=T.
 Spin components of T(2) and E(2):
     alpha-alpha T2 =       0.2073860210D-01 E2=     -0.6895001994D-01
     alpha-beta  T2 =       0.1265382917D+00 E2=     -0.4421782561D+00
     beta-beta   T2 =       0.2073860210D-01 E2=     -0.6895001994D-01
 ANorm=    0.1080747656D+01
 E2 =    -0.5800782960D+00 EUMP2 =    -0.15353605758454D+03
          IDoAtm=1111111
          Differentiating once with respect to electric field.
                with respect to dipole field.
          Differentiating once with respect to nuclear coordinates.
 Keep R1 ints in memory in canonical form, NReq=372742315.
          There are     1 degrees of freedom in the 1st order CPHF.  IDoFFX=0 NUNeed=     1.
 LinEq1:  Iter=  0 NonCon=     1 RMS=3.37D-03 Max=7.30D-02 NDo=     1
 AX will form     1 AO Fock derivatives at one time.
 LinEq1:  Iter=  1 NonCon=     1 RMS=8.53D-04 Max=7.78D-03 NDo=     1
 LinEq1:  Iter=  2 NonCon=     1 RMS=2.62D-04 Max=4.24D-03 NDo=     1
 LinEq1:  Iter=  3 NonCon=     1 RMS=7.98D-05 Max=7.13D-04 NDo=     1
 LinEq1:  Iter=  4 NonCon=     1 RMS=3.32D-05 Max=4.33D-04 NDo=     1
 LinEq1:  Iter=  5 NonCon=     1 RMS=7.02D-06 Max=6.23D-05 NDo=     1
 LinEq1:  Iter=  6 NonCon=     1 RMS=2.32D-06 Max=4.46D-05 NDo=     1
 LinEq1:  Iter=  7 NonCon=     1 RMS=7.42D-07 Max=6.58D-06 NDo=     1
 LinEq1:  Iter=  8 NonCon=     1 RMS=2.11D-07 Max=4.02D-06 NDo=     1
 LinEq1:  Iter=  9 NonCon=     1 RMS=4.20D-08 Max=4.88D-07 NDo=     1
 LinEq1:  Iter= 10 NonCon=     1 RMS=7.68D-09 Max=9.92D-08 NDo=     1
 LinEq1:  Iter= 11 NonCon=     1 RMS=1.18D-09 Max=1.05D-08 NDo=     1
 LinEq1:  Iter= 12 NonCon=     1 RMS=1.96D-10 Max=1.82D-09 NDo=     1
 LinEq1:  Iter= 13 NonCon=     0 RMS=3.36D-11 Max=2.95D-10 NDo=     1
 Linear equations converged to 1.000D-10 1.000D-09 after    13 iterations.
 End of Minotr F.D. properties file   721 does not exist.
 End of Minotr F.D. properties file   722 does not exist.
 End of Minotr F.D. properties file   788 does not exist.
 Calling FoFJK, ICntrl=  10002127 FMM=F ISym2X=0 I1Cent= 0 IOpClX= 0 NMat=1 NMatS=1 NMatT=0.
 ***** Axes restored to original set *****
 -------------------------------------------------------------------
 Center     Atomic                   Forces (Hartrees/Bohr)
 Number     Number              X              Y              Z
 -------------------------------------------------------------------
      1        6          -0.000024763    0.000072585   -0.000137650
      2        6           0.000041113    0.000104281    0.000006566
      3        1           0.000009081    0.000004836    0.000019688
      4        8          -0.000020259   -0.000141772    0.000085761
      5        1          -0.000011692   -0.000020228   -0.000010626
      6        1          -0.000015420   -0.000039130   -0.000002510
      7        1           0.000021940    0.000019428    0.000038772
 -------------------------------------------------------------------
 Cartesian Forces:  Max     0.000141772 RMS     0.000057978

 GradGradGradGradGradGradGradGradGradGradGradGradGradGradGradGradGradGrad
 Berny optimization.
 Using GEDIIS/GDIIS optimizer.
 FormGI is forming the generalized inverse of G from B-inverse, IUseBI=4.
 Internal  Forces:  Max     0.000172403 RMS     0.000046345
 Search for a local minimum.
 Step number   4 out of a maximum of   29
 All quantities printed in internal units (Hartrees-Bohrs-Radians)
 Mixed Optimization -- En-DIIS/RFO-DIIS
 Swapping is turned off.
 Update second derivatives using D2CorX and points    1    2    3    4
 DE= -2.69D-06 DEPred=-2.70D-06 R= 9.93D-01
 TightC=F SS=  1.41D+00  RLast= 6.82D-03 DXNew= 5.0454D-01 2.0456D-02
 Trust test= 9.93D-01 RLast= 6.82D-03 DXMaxT set to 3.00D-01
 The second derivative matrix:
                          R1        R2        R3        R4        R5
           R1           0.59366
           R2          -0.00299   0.35757
           R3           0.00892   0.00282   0.50533
           R4           0.00358  -0.00138  -0.00007   0.35791
           R5           0.00377  -0.00008  -0.00697   0.00145   0.35391
           R6           0.00282  -0.00048   0.00373   0.00152  -0.00090
           A1           0.00530   0.00076  -0.01327   0.00065  -0.00136
           A2          -0.01093  -0.00086   0.02276  -0.00339   0.00171
           A3          -0.00844   0.00094   0.00733  -0.00440  -0.00011
           A4           0.00923   0.00341  -0.02603  -0.00019  -0.00592
           A5          -0.00468  -0.00098   0.00908  -0.00059   0.00226
           A6          -0.00455  -0.00243   0.01695   0.00078   0.00366
           A7          -0.00400   0.00138   0.00912  -0.00293  -0.00316
           D1          -0.00000   0.00000   0.00000  -0.00000   0.00000
           D2           0.00000   0.00000   0.00000   0.00000  -0.00000
           D3          -0.00001  -0.00000  -0.00000  -0.00000   0.00001
           D4          -0.00000  -0.00000  -0.00000  -0.00000   0.00000
           D5          -0.00000   0.00000   0.00001  -0.00000  -0.00000
           D6          -0.00001  -0.00000   0.00001  -0.00000   0.00000
                          R6        A1        A2        A3        A4
           R6           0.53241
           A1          -0.00453   0.15626
           A2           0.00072   0.00535   0.23775
           A3          -0.00499   0.00304  -0.00380   0.16377
           A4          -0.00214  -0.01237   0.02140   0.00946   0.13088
           A5          -0.00031   0.00501  -0.00830  -0.00262   0.01166
           A6           0.00245   0.00736  -0.01310  -0.00684   0.01746
           A7           0.00458  -0.00427   0.00559   0.00179   0.00131
           D1          -0.00000   0.00000  -0.00000   0.00000   0.00000
           D2           0.00001  -0.00001   0.00001  -0.00000  -0.00001
           D3          -0.00001   0.00001  -0.00001   0.00000   0.00002
           D4          -0.00001   0.00001  -0.00001   0.00000   0.00001
           D5           0.00001  -0.00001   0.00000  -0.00000  -0.00000
           D6          -0.00001   0.00001  -0.00001   0.00000   0.00002
                          A5        A6        A7        D1        D2
           A5           0.15570
           A6          -0.00737   0.14991
           A7          -0.00098  -0.00033   0.17151
           D1          -0.00000  -0.00000  -0.00000   0.02997
           D2           0.00000   0.00001   0.00001  -0.00000   0.02997
           D3          -0.00000  -0.00001  -0.00001   0.00000  -0.00000
           D4          -0.00000  -0.00001  -0.00001   0.00000  -0.00000
           D5          -0.00000   0.00000   0.00001  -0.00000   0.00000
           D6          -0.00001  -0.00001  -0.00001  -0.00000  -0.00000
                          D3        D4        D5        D6
           D3           0.02997
           D4           0.00000   0.02997
           D5          -0.00000  -0.00000   0.02159
           D6           0.00000   0.00000  -0.00000   0.02159
 ITU=  1  1  1  0
     Eigenvalues ---    0.02159   0.02738   0.02997   0.02997   0.09822
     Eigenvalues ---    0.16005   0.16282   0.17264   0.21708   0.35345
     Eigenvalues ---    0.35664   0.35939   0.50895   0.53314   0.59521
 En-DIIS/RFO-DIIS/Sim-DIIS IScMMF=       -3 using points:     4    3    2
 RFO step:  Lambda=-9.49661462D-08.
 DidBck=F Rises=F RFO-DIIS coefs:    0.93032    0.10186   -0.03219
 Iteration  1 RMS(Cart)=  0.00018043 RMS(Int)=  0.00000002
 Iteration  2 RMS(Cart)=  0.00000002 RMS(Int)=  0.00000000
 Variable       Old X    -DE/DX   Delta X   Delta X   Delta X     New X
                                 (Linear)    (Quad)   (Total)
    R1        2.51601  -0.00005   0.00000  -0.00007  -0.00007   2.51594
    R2        2.04724   0.00002  -0.00001   0.00007   0.00006   2.04730
    R3        2.58640  -0.00017   0.00002  -0.00033  -0.00031   2.58609
    R4        2.03604   0.00000  -0.00002   0.00003   0.00001   2.03605
    R5        2.03977   0.00002  -0.00000   0.00006   0.00006   2.03983
    R6        1.81600   0.00003  -0.00009   0.00017   0.00008   1.81607
    A1        2.13017  -0.00000   0.00004  -0.00008  -0.00004   2.13012
    A2        2.12630  -0.00000  -0.00009   0.00010   0.00002   2.12631
    A3        2.02672   0.00001   0.00005  -0.00002   0.00003   2.02675
    A4        2.07868   0.00001   0.00000   0.00004   0.00004   2.07872
    A5        2.11471   0.00003  -0.00001   0.00019   0.00018   2.11489
    A6        2.08980  -0.00004   0.00001  -0.00023  -0.00022   2.08958
    A7        1.90345  -0.00006  -0.00012  -0.00022  -0.00033   1.90312
    D1       -0.00000   0.00000  -0.00000  -0.00000  -0.00000  -0.00000
    D2       -3.14159  -0.00000  -0.00000  -0.00000  -0.00000   3.14159
    D3        3.14158   0.00000   0.00000   0.00001   0.00001   3.14159
    D4       -0.00001   0.00000   0.00000   0.00000   0.00000  -0.00000
    D5        3.14158  -0.00000  -0.00000  -0.00000  -0.00000   3.14157
    D6       -0.00003   0.00000  -0.00000   0.00001   0.00001  -0.00002
         Item               Value     Threshold  Converged?
 Maximum Force            0.000172     0.000450     YES
 RMS     Force            0.000046     0.000300     YES
 Maximum Displacement     0.000502     0.001800     YES
 RMS     Displacement     0.000180     0.001200     YES
 Predicted change in Energy=-5.173282D-08
 Optimization completed.
    -- Stationary point found.
                           ----------------------------
                           !   Optimized Parameters   !
                           ! (Angstroms and Degrees)  !
 --------------------------                            --------------------------
 ! Name  Definition              Value          Derivative Info.                !
 --------------------------------------------------------------------------------
 ! R1    R(1,2)                  1.3314         -DE/DX =    0.0                 !
 ! R2    R(1,3)                  1.0834         -DE/DX =    0.0                 !
 ! R3    R(1,4)                  1.3687         -DE/DX =   -0.0002              !
 ! R4    R(2,5)                  1.0774         -DE/DX =    0.0                 !
 ! R5    R(2,6)                  1.0794         -DE/DX =    0.0                 !
 ! R6    R(4,7)                  0.961          -DE/DX =    0.0                 !
 ! A1    A(2,1,3)              122.0496         -DE/DX =    0.0                 !
 ! A2    A(2,1,4)              121.828          -DE/DX =    0.0                 !
 ! A3    A(3,1,4)              116.1224         -DE/DX =    0.0                 !
 ! A4    A(1,2,5)              119.0994         -DE/DX =    0.0                 !
 ! A5    A(1,2,6)              121.1639         -DE/DX =    0.0                 !
 ! A6    A(5,2,6)              119.7368         -DE/DX =    0.0                 !
 ! A7    A(1,4,7)              109.0597         -DE/DX =   -0.0001              !
 ! D1    D(3,1,2,5)              0.0            -DE/DX =    0.0                 !
 ! D2    D(3,1,2,6)            180.0002         -DE/DX =    0.0                 !
 ! D3    D(4,1,2,5)            179.9995         -DE/DX =    0.0                 !
 ! D4    D(4,1,2,6)             -0.0003         -DE/DX =    0.0                 !
 ! D5    D(2,1,4,7)            179.999          -DE/DX =    0.0                 !
 ! D6    D(3,1,4,7)             -0.0015         -DE/DX =    0.0                 !
 --------------------------------------------------------------------------------
 GradGradGradGradGradGradGradGradGradGradGradGradGradGradGradGradGradGrad

                          Input orientation:                          
 ---------------------------------------------------------------------
 Center     Atomic      Atomic             Coordinates (Angstroms)
 Number     Number       Type             X           Y           Z
 ---------------------------------------------------------------------
      1          6           0       -0.220386    1.277633    0.514339
      2          6           0       -0.681999    0.028804    0.515501
      3          1           0        0.267823    1.710880    1.378978
      4          8           0       -0.335980    2.088866   -0.581921
      5          1           0       -0.567479   -0.571331    1.402953
      6          1           0       -1.166249   -0.388524   -0.354237
      7          1           0        0.055767    2.943447   -0.382628
 ---------------------------------------------------------------------
                    Distance matrix (angstroms):
                    1          2          3          4          5
     1  C    0.000000
     2  C    1.331414   0.000000
     3  H    1.083352   2.115923   0.000000
     4  O    1.368665   2.359644   2.086282   0.000000
     5  H    2.080572   1.077426   2.430389   3.327156   0.000000
     6  H    2.103607   1.079400   3.077026   2.622718   1.865385
     7  H    1.912000   3.137846   2.160426   0.960985   3.991290
                    6          7
     6  H    0.000000
     7  H    3.549107   0.000000
 Stoichiometry    C2H4O
 Framework group  C1[X(C2H4O)]
 Deg. of freedom    15
 Full point group                 C1      NOp   1
 Largest Abelian subgroup         C1      NOp   1
 Largest concise Abelian subgroup C1      NOp   1
                         Standard orientation:                         
 ---------------------------------------------------------------------
 Center     Atomic      Atomic             Coordinates (Angstroms)
 Number     Number       Type             X           Y           Z
 ---------------------------------------------------------------------
      1          6           0        0.036088    0.416549    0.000001
      2          6           0        1.225056   -0.182630    0.000001
      3          1           0       -0.064055    1.495262   -0.000004
      4          8           0       -1.131811   -0.297074   -0.000003
      5          1           0        2.116652    0.422271   -0.000005
      6          1           0        1.308207   -1.258823    0.000003
      7          1           0       -1.873180    0.314370    0.000014
 ---------------------------------------------------------------------
 Rotational constants (GHZ):          63.5343308          10.4646999           8.9848164

 **********************************************************************

            Population analysis using the SCF Density.

 **********************************************************************

 Orbital symmetries:
       Occupied  (A) (A) (A) (A) (A) (A) (A) (A) (A) (A) (A) (A)
       Virtual   (A) (A) (A) (A) (A) (A) (A) (A) (A) (A) (A) (A)
                 (A) (A) (A) (A) (A) (A) (A) (A) (A) (A) (A) (A)
                 (A) (A) (A) (A) (A) (A) (A) (A) (A) (A) (A) (A)
                 (A) (A) (A) (A) (A) (A) (A) (A) (A) (A) (A) (A)
                 (A) (A) (A) (A) (A) (A) (A) (A) (A) (A) (A) (A)
                 (A) (A) (A) (A) (A) (A) (A) (A) (A) (A) (A) (A)
                 (A) (A) (A) (A) (A) (A) (A) (A) (A) (A) (A) (A)
                 (A) (A) (A) (A) (A) (A) (A) (A) (A) (A) (A) (A)
                 (A) (A) (A) (A) (A) (A) (A) (A) (A) (A) (A) (A)
                 (A) (A) (A) (A) (A) (A) (A) (A) (A) (A) (A) (A)
                 (A) (A) (A) (A) (A) (A) (A) (A) (A) (A) (A) (A)
                 (A) (A) (A) (A) (A) (A) (A) (A) (A) (A) (A) (A)
                 (A) (A) (A) (A) (A) (A) (A) (A) (A) (A) (A) (A)
                 (A) (A) (A) (A) (A) (A) (A) (A) (A) (A) (A) (A)
                 (A) (A) (A) (A) (A) (A) (A) (A) (A) (A) (A) (A)
                 (A) (A) (A) (A) (A) (A) (A) (A) (A) (A) (A) (A)
                 (A) (A) (A) (A) (A) (A) (A) (A) (A) (A) (A) (A)
                 (A) (A) (A) (A) (A) (A) (A) (A) (A) (A) (A) (A)
                 (A) (A)
 The electronic state is 1-A.
 Alpha  occ. eigenvalues --  -20.59130 -11.29683 -11.21118  -1.40161  -1.02447
 Alpha  occ. eigenvalues --   -0.79680  -0.74201  -0.62162  -0.57710  -0.57377
 Alpha  occ. eigenvalues --   -0.52237  -0.34644
 Alpha virt. eigenvalues --    0.02546   0.03985   0.04413   0.05992   0.09245
 Alpha virt. eigenvalues --    0.09952   0.10353   0.10727   0.13248   0.14424
 Alpha virt. eigenvalues --    0.16372   0.16898   0.17225   0.18520   0.18845
 Alpha virt. eigenvalues --    0.20131   0.24968   0.25161   0.26466   0.28641
 Alpha virt. eigenvalues --    0.29784   0.30520   0.31782   0.31872   0.33016
 Alpha virt. eigenvalues --    0.34779   0.36958   0.38008   0.39223   0.40881
 Alpha virt. eigenvalues --    0.41921   0.43009   0.43045   0.44124   0.44344
 Alpha virt. eigenvalues --    0.46252   0.47739   0.48202   0.48624   0.51490
 Alpha virt. eigenvalues --    0.54604   0.55867   0.57833   0.61587   0.61741
 Alpha virt. eigenvalues --    0.68662   0.71194   0.72856   0.73548   0.75737
 Alpha virt. eigenvalues --    0.78433   0.79167   0.84119   0.85383   0.86065
 Alpha virt. eigenvalues --    0.86893   0.88289   0.88312   0.91685   0.92012
 Alpha virt. eigenvalues --    0.92641   0.93960   0.95494   0.96228   0.97551
 Alpha virt. eigenvalues --    0.99396   0.99461   1.00414   1.02704   1.02749
 Alpha virt. eigenvalues --    1.03989   1.05975   1.07990   1.08606   1.10560
 Alpha virt. eigenvalues --    1.11235   1.12120   1.12619   1.17991   1.19784
 Alpha virt. eigenvalues --    1.19893   1.23898   1.28743   1.31035   1.31669
 Alpha virt. eigenvalues --    1.36269   1.40258   1.40676   1.41454   1.48285
[...]
 267558,0.00075508,0.15263392,0.14416914,0.23227291,-0.01091390,-0.0094
 5157,-0.01579315,-0.13800705,-0.14184105,-0.20075490,0.01126956,0.0075
 4157,-0.00056288,-0.00047075,-0.00054356,-0.00003198,-0.00409203,-0.00
 824946,-0.00164607,-0.01168923,-0.00137851,0.00950319,-0.00442564,0.00
 012732,-0.00028466,0.00036218,0.00014315,-0.00641922,0.00623453,-0.021
 25690,-0.04438851,0.00813960,0.01909516,0.01152616,-0.00068649,-0.0014
 0680,-0.00069516,-0.00983395,-0.01589518,-0.01083831,-0.00267359,-0.01
 549122,0.00525144,-0.00209067,-0.00178899,-0.00055211,0.00119026,0.004
 18716,-0.00182260,0.00064118,-0.00224901,0.00107196,0.00086763,0.00004
 930,-0.00010786,-0.00001524,-0.00198902,-0.00435727,-0.00218332,0.0012
 4657,0.00838611,-0.00457024,-0.00054394,-0.00324170,0.00276910,-0.0000
 0539,0.00058812,0.00028058,0.00184513,0.00067842,-0.00035690,-0.001655
 99,-0.00054491,0.00104617,0.00318363,-0.00001523,-0.00059148,-0.001726
 81,0.00119191,-0.00005455,0.00042479,0.00033202,0.00163787,0.00291637,
 0.00015461,0.00201899,-0.00440157,-0.00344210,0.01651500,0.01845887,0.
 04285788,-0.00193990,0.00007728,-0.00081219,-0.00048880,0.00037914,0.0
 0048411,-0.00034791,-0.00061987,-0.00181814,-0.01582414,-0.00202285,-0
 .00325770,0.00267641,0.01785724,0.00393244,0.03684205,0.00002213,0.001
 79222,-0.00331015,0.00022453,-0.00032863,0.00011983,-0.00220017,-0.002
 04802,-0.00324639,-0.01390453,-0.00005215,-0.00576275,-0.00359592,-0.0
 0673427,0.04344482,0.03842831,0.07049767,-0.00075845,-0.00316464,-0.00
 057287,0.00063499,0.00052754,0.00034699,-0.00027639,0.00092062,-0.0010
 5600,-0.03720983,-0.03326473,-0.06223091,-0.00221255,-0.00005854,-0.00
 102061,0.00049584,-0.00047134,-0.00003337,0.00184587,0.00190223,-0.002
 32679,0.00460359,0.02193650,0.00467818,-0.00024524,0.00006659,0.000137
 02,0.00006678,0.00002361,-0.00007232,-0.00455427,0.00177602,0.00186537
 ,0.00110359,-0.00050109,-0.00053397,-0.00013422,-0.00033248,-0.0003397
 5,0.00142986,0.02228922,0.04132968,0.01329766,0.00015665,-0.00000551,0
 .00010449,0.00001074,-0.00003815,0.00014893,-0.02339905,-0.04227764,-0
 .00281030,-0.00373402,-0.00557165,-0.00000429,-0.00005562,0.00072588,-
 0.00014674,0.00732229,-0.00550578,0.00433407,0.01236783,-0.00592318,0.
 00004909,-0.00013308,-0.00006251,-0.00005975,0.00018286,-0.00025052,-0
 .00136208,-0.01595029,0.01658780,-0.03700259,-0.03165971,-0.02666567,-
 0.04866798,-0.06413089,-0.07259323,0.00463776,0.00440838,0.01231951,-0
 .02384495,0.00815622,0.01772397,0.00259015,-0.02076670,-0.12562637,0.0
 0866305,-0.00729240,0.02829165,-0.11647049,0.09512696,-0.37190572,0.01
 926021,0.02206302,0.05309091,-0.00005859,-0.00300349,-0.00082672,-0.01
 754969,0.02396395,0.00172391,0.05269003,-0.00032104,-0.00274098,0.0031
 6045,-0.02083210,0.00077284,0.05123630,0.04767750,0.07954905,-0.003443
 83,-0.00391282,-0.00389710,-0.04782007,-0.04759331,-0.07136713,0.01019
 958,0.00777691,-0.00647678,0.00053354,-0.00185049,-0.00158615,-0.00149
 917,-0.00206309,0.00009544,-0.01312712,0.00257507,0.00782090,0.0086999
 8,-0.00295567,-0.00351389,-0.00258996,0.00142746,-0.00011432,0.0031223
 7,-0.01829093,-0.02711711,-0.00140179,0.02241690,-0.01578805,-0.000507
 98,0.00032399,0.00016422,-0.00331005,-0.00608179,-0.00356655,0.0001460
 4,-0.02803614,0.02132129,0.00105202,0.00323628,-0.00736905,-0.01999682
 ,-0.02355048,0.02114036,0.00034757,-0.00025773,0.00011347,0.00042089,0
 .00089919,0.00085050,0.02011569,-0.00216511,-0.00017270,-0.00295598,-0
 .03055679,0.08430589,-0.18164983,0.00011797,0.00013090,0.00057360,0.00
 065032,-0.00037430,0.00185134,0.02915772,-0.07179785,-0.00209939,0.011
 28642,-0.01389737,0.02797556,-0.16317528,0.21365679,-0.00025309,-0.000
 41704,0.00013952,0.00109326,0.00250754,0.00020202,-0.01724897,0.162410
 19,-0.18805779,0.00181505,-0.00339928,-0.00357990,0.03843872,0.0413443
 0,0.08892860,-0.00077263,-0.00019435,0.00009162,-0.00101000,0.00063925
 ,0.00033866,-0.00173458,0.00263099,-0.00967746,-0.03682315,-0.00028002
 ,0.00115033,0.00246147,0.05068075,0.03075418,0.09330709,0.00029764,0.0
 0077417,-0.00068790,0.00005924,-0.00145482,0.00023418,-0.00978169,-0.0
 1204663,-0.01310131,-0.04103657,-0.01906314,-0.00662300,-0.00576317,-0
 .00741064,0.07982015,0.06868848,0.13287543,-0.00038845,-0.00198532,0.0
 0017716,0.00090452,0.00176349,-0.00071040,0.00243221,0.01962873,-0.011
 77408,-0.07601122,-0.08259701,-0.11266029,0.00003793,-0.00242562,0.000
 68323,0.00029035,-0.00032931,0.00015144,0.00027231,-0.00029563,-0.0002
 7295,0.00448226,0.01570562,0.00388461,-0.00020476,0.00016494,0.0002100
 6,0.00008659,0.00006056,-0.00013415,-0.00496467,-0.00059042,-0.0015807
 4,0.00064519,-0.00048897,-0.00090295,-0.00006230,-0.00007055,-0.000546
 47,0.00082041,0.01371807,0.02475355,0.00929155,0.00029676,-0.00004519,
 0.00048955,0.00001567,-0.00011412,0.00026490,-0.01288055,-0.02156406,-
 0.00110725,-0.00419441,0.00184847,0.00030725,0.00035878,0.00081490,-0.
 00049249,0.00022697,-0.00103489,0.00582364,0.01453268,-0.00162261,0.00
 008143,0.00014197,-0.00026922,-0.00009035,0.00038328,-0.00049712,-0.00
 452222,-0.01144929,0.00076049,-0.05474343,0.20612288,0.47971658,-0.024
 32250,-0.04331207,-0.14365940,0.01518823,-0.22908118,-0.00168628,-0.02
 550535,-0.22799534,-0.49061659,-0.02440852,0.22758538,0.48630814,-0.00
 274565,-0.02727161,0.11995159,-0.03335706,0.03097071,-0.21523002,0.015
 77704,0.01145660,0.04552697,0.00156941,-0.00249883,0.00054716,-0.01449
 099,0.01461032,-0.00183895,0.03473122,-0.00106187,-0.00531917,0.004620
 01,-0.01215534,0.00751289,0.04245018,0.02641532,0.08043477,-0.00085481
 ,0.00083103,-0.00077824,-0.04263419,-0.03335654,-0.07370068,0.02139269
 ,0.01959770,-0.02010768,-0.00053611,-0.00208961,0.00029380,-0.00240011
 ,-0.00181989,0.00170736,-0.02649344,0.00996670,0.02293894,0.02513814,-
 0.00185819,-0.00540949,0.00050030,0.00252918,-0.00181219,0.00612066,-0
 .03124042,-0.04723947,-0.01071153,0.05053463,-0.05577969,0.00006800,-0
 .00011009,0.00041243,-0.00253569,-0.00534730,-0.00384351,0.00779965,-0
 .05374889,0.05511079,0.00012244,-0.00207762,-0.00165779,-0.00093356,-0
 .00264578,0.00808821,-0.00008056,0.00017161,-0.00000420,0.00019607,0.0
 0061669,-0.00027860,0.00166484,-0.00178039,-0.00186899,-0.00138840,-0.
 00443093,0.01360819,-0.02790773,-0.00009111,-0.00015882,-0.00022421,0.
 00004020,0.00077234,-0.00057579,0.00620064,-0.00893628,-0.00194773,-0.
 00217236,-0.00149664,0.00982978,-0.02320052,0.04553117,0.00025206,0.00
 046849,0.00006522,0.00028385,0.00094452,-0.00009946,-0.00611324,0.0267
 1575,-0.04049378,0.00191885,-0.00144202,0.00018167,0.00977810,0.008130
 50,0.02733725,-0.00050383,0.00052180,-0.00029864,-0.00029926,0.0001971
 8,-0.00004636,-0.00114442,0.00007604,-0.00219012,-0.00971303,-0.000668
 19,-0.00441198,0.00486772,0.00955956,0.00326428,0.01851254,0.00065153,
 0.00202924,-0.00083119,0.00021480,0.00072125,-0.00048325,-0.00227780,-
 0.00352424,-0.00290152,-0.00763599,0.00166703,-0.00057325,0.00282740,-
 0.00188647,0.02594309,0.01474426,0.05042523,-0.00042524,-0.00117323,-0
 .00056025,-0.00006355,-0.00052977,-0.00000543,0.00010627,0.00330517,-0
 .00328622,-0.02514372,-0.01917797,-0.04494179,0.00034415,-0.00457651,0
 .00206555,0.00043930,-0.00048633,-0.00016358,0.00012904,-0.00026648,-0
 .00036575,0.00814013,0.01978882,0.00570450,0.00017520,-0.00001438,-0.0
 0011457,-0.00003641,0.00015602,0.00015640,-0.00919139,-0.00025605,-0.0
 0391922,0.00437195,-0.00071278,-0.00183540,0.00057578,0.00010802,-0.00
 041288,0.00104491,0.01529720,0.03002860,0.00973069,0.00001230,0.000107
 88,0.00014565,0.00015246,0.00025444,0.00000410,-0.01460113,-0.02422340
 ,-0.00214964,-0.00702144,0.00243568,0.00005742,0.00117313,-0.00031182,
 -0.00073105,0.00005759,-0.00161752,0.01008652,0.02157498,0.00420478,-0
 .00014060,0.00007531,-0.00022028,0.00015987,0.00001350,0.00025497,-0.0
 0728253,-0.01587308,-0.00474577,0.08172093,0.47818520,-0.04944599,0.96
 394457,0.85959072,1.24234654,-0.00840742,0.01825747,-0.00618860,-0.093
 09867,0.01004148,0.03001184,-0.01530497,0.04902853,0.03473739,0.001826
 79,0.00635922,-0.01420230,0.29169433,-0.12105480,0.66538105,-0.0728544
 2,-0.48721184,-0.96687636,0.00772280,0.00252476,0.00060562,0.06273976,
 -0.48686160,0.02600469,-0.84660600,-0.00408531,-0.00054756,-0.00383909
 ,0.48481388,-0.02855018,-0.96721769,-0.84752952,-1.24942718,0.00705423
 ,0.01359050,0.01190094,0.96011047,0.83719072,1.23411154,-0.00402216,-0
 .00648212,0.00658893,-0.00007597,-0.00065603,-0.00053561,0.00370968,0.
 00578290,-0.00090633,-0.00270246,0.00085172,0.00064871,-0.00240938,-0.
 00089709,-0.00245469,0.00039025,-0.00205914,0.00049683,-0.00404705,0.0
 0299615,0.00117348,-0.00056623,-0.02174702,0.01560170,-0.00030042,0.00
 102587,-0.00142315,0.00674456,0.01663103,0.00347223,-0.00494658,0.0048
 6736,-0.01972708,0.00430901,-0.00352694,0.00073318,0.10620058,0.038379
 27,-0.06620464,-0.00258554,0.00180861,0.00054882,-0.00044319,-0.000178
 06,0.00023514,-0.11121783,-0.00232871,-0.00293204,0.00192573,0.0403267
 4,-0.08420660,0.30273405,0.00284088,0.00282711,0.00135448,0.00024394,-
 0.00037764,0.00055652,-0.03906416,0.07981608,-0.00043581,-0.00123381,0
 .00539037,-0.06810451,0.29759901,-0.35280327,-0.00045827,-0.00136742,-
 0.00333704,-0.00017655,-0.00055621,-0.00038940,0.06685436,-0.30000953,
 0.34684813,-0.00166512,0.00072660,0.00087596,-0.01216074,-0.09933904,-
 0.22709629,0.00229406,-0.00060141,0.00006649,0.00092678,0.00022627,-0.
 00077496,0.00330887,-0.00181899,0.00246455,0.00804421,-0.00102313,-0.0
 0350298,-0.00149111,-0.10245938,0.02240141,-0.18400566,-0.00005626,0.0
 0058579,0.00171064,-0.00003087,0.00122489,-0.00016716,0.00278114,0.004
 80712,0.00561643,0.10061188,-0.02536421,0.00258304,0.00312250,0.001498
 49,-0.22405217,-0.17577793,-0.30857955,-0.00046540,0.00027322,0.000997
 72,-0.00052412,0.00051094,-0.00074354,-0.00202323,-0.00651324,0.004066
 53,0.22419168,0.17862374,0.30268524,0.00091919,0.00005155,0.00092233,-
 0.00018057,0.00002100,-0.00029010,-0.00102641,-0.00085699,0.00034395,0
 .00260730,-0.00093985,-0.00039151,0.00042810,-0.00019968,-0.00014381,-
 0.00074804,0.00017662,0.00029023,-0.00199955,0.00113500,-0.00078430,0.
 00429502,-0.00017102,0.00005787,-0.00058384,-0.00085223,-0.00081652,-0
 .00226985,-0.00185395,-0.00071157,-0.00116658,-0.00019986,0.00006609,-
 0.00004858,0.00019473,-0.00015195,-0.00023916,0.00174734,0.00234042,-0
 .00013468,0.00143784,-0.00120760,-0.00010272,-0.00007746,-0.00027361,0
 .00033933,-0.00228248,0.00228162,0.00050025,0.00124410,0.00320915,-0.0
 0014365,-0.00004808,0.00022470,0.00027254,-0.00028696,0.00007512,-0.00
 073107,0.00001299,-0.00430933,0.02693370,0.23143511,-0.00787470,0.4565
 6881,0.39174337,0.58985285,-0.00015593,0.00107613,0.00326661,-0.103166
 28,0.00154355,-0.00917984,0.01127644,0.23489914,0.04590986,0.00281054,
 0.01004380,-0.00418066,0.73177664,0.11841514,1.34643754,-0.03071925,-0
 .22680931,-0.46774580,0.00143528,-0.00032617,0.00144640,0.02676379,-0.
 22895558,0.02517172,-0.40330712,-0.00226816,-0.00283157,-0.00223549,0.
 22765727,-0.02423041,-0.46565180,-0.39764803,-0.60930152,0.00334097,0.
 00288532,0.00700206,0.46270783,0.39666435,0.60013976,-0.00141315,-0.00
 171190,0.00489241,0.00067535,-0.00275795,-0.00080094,0.00163498,0.0025
 0103,-0.00058278,-0.00132979,0.00152320,0.00090451,0.00056275,-0.00180
 556,-0.00340004,0.00050696,-0.00134671,0.00038377,-0.00301739,0.001225
 46,-0.00012076,0.00173615,-0.00796722,0.00971634,-0.00173010,-0.002004
 55,-0.00060693,0.00317116,0.00712830,0.00233771,-0.00312867,0.00276682
 ,-0.01154610,0.00400910,-0.00430874,0.00116009,0.13723524,0.05013102,-
 0.09571958,-0.00276811,0.00154823,0.00055489,-0.00001413,-0.00032442,-
 0.00008177,-0.14474138,-0.00186920,-0.00278066,0.00282133,0.05607299,-
 0.09460661,0.39135525,0.00125685,0.00082618,-0.00095653,0.00015469,0.0
 0036008,0.00019017,-0.05331296,0.08738933,-0.00121981,-0.00361121,0.00
 546994,-0.10151649,0.37568735,-0.47920596,0.00083909,-0.00018832,-0.00
 115503,-0.00054918,-0.00107313,-0.00026429,0.09652442,-0.38350872,0.46
 703905,0.00065000,0.00031436,0.00165698,-0.03622391,-0.28362536,-0.639
 39734,0.00434315,-0.00020058,-0.00071289,-0.00087081,0.00110213,0.0001
 4701,0.00614473,-0.00211155,0.00597553,0.02648999,-0.00428155,-0.00599
 187,-0.00553647,-0.28770689,0.06437608,-0.51783051,-0.00013824,0.00103
 883,0.00319523,0.00127421,0.00188667,0.00021751,0.00644555,0.00894754,
 0.01281272,0.28433818,-0.07040888,0.00614070,0.00658220,0.00967565,-0.
 63541550,-0.50706833,-0.86958374,-0.00077367,0.00303098,-0.00030927,-0
 .00002088,-0.00023633,-0.00115888,-0.00237264,-0.00975078,0.00791626,0
 .63236289,0.50768238,0.85360572,0.00069552,0.00000432,0.00020090,0.000
 20025,0.00013571,-0.00011564,-0.00068983,-0.00028211,0.00034374,0.0013
 1752,-0.00037410,-0.00011377,0.00013456,-0.00019079,-0.00005363,-0.000
 53315,0.00006871,0.00007915,-0.00112487,0.00060447,-0.00024930,0.00243
 985,-0.00026774,-0.00026812,-0.00025523,-0.00029365,-0.00035834,-0.001
 12303,-0.00068552,-0.00001422,-0.00033101,-0.00017866,-0.00013577,-0.0
 0011870,0.00018285,0.00015171,-0.00024009,0.00063825,0.00087403,-0.000
 38463,0.00085717,-0.00123280,0.00027801,0.00080868,0.00013797,0.000355
 02,-0.00109262,0.00128626,0.00019001,0.00049028,0.00152210,-0.00006546
 ,-0.00015070,0.00019988,-0.00003222,-0.00054105,-0.00014565,-0.0003407
 4,-0.00037179,-0.00176773,0.00252276,-0.00893153,-0.02981530,0.0056640
 2,0.00912694,0.00970976,-0.00799918,0.01594793,-0.00363304,-0.39579330
 ,0.01362007,0.02427518,0.00001397,0.16289470,0.32915892,-0.00136205,0.
 00615196,-0.02211531,0.82851106,-0.64306206,2.04172031,-0.00189798,-0.
 00324154,-0.01050483,0.00149492,-0.00278472,-0.00044315,0.00090520,-0.
 00485827,0.00175206,-0.01131436,-0.00173267,-0.00135603,-0.00061829,0.
 00495908,-0.00189727,-0.00892765,-0.00705161,-0.01337554,-0.00146954,-
 0.00339218,0.00212784,0.01078860,0.01002839,0.01364254,-0.00003633,0.0
 0012859,0.00195507,-0.00114250,0.00033860,0.00124186,0.00079560,-0.000
 16199,-0.00038230,-0.00028050,0.00178337,0.00251697,0.00144133,-0.0002
 0468,-0.00200105,-0.00028376,-0.00042807,0.00007885,-0.00022951,-0.000
 11193,-0.00168570,0.00034066,-0.00292197,0.00292388,0.00177201,0.00114
 882,0.00181286,-0.00012276,0.00047202,0.00021631,-0.00054966,0.0013194
 1,-0.00276767,0.00248773,-0.00569368,0.00385000,0.44142832,0.14216391,
 -0.21158830,-0.00207033,0.00140787,0.00042933,0.00145055,-0.00149829,-
 0.00095615,-0.43998258,-0.00062180,0.00185337,-0.00038990,0.14006749,-
 0.37344465,1.19127938,0.00174158,0.00115432,0.00077933,-0.00050544,0.0
 0009470,0.00088453,-0.13603349,0.37742133,-0.00109799,-0.01376339,0.01
 366644,-0.20954309,1.19680702,-1.25103844,0.00010370,-0.00010065,-0.00
 238228,-0.00192471,-0.00173331,-0.00101666,0.20698500,-1.18362139,1.23
 235275,0.00448325,0.00166737,0.00293703,-0.03736339,-0.31612832,-0.616
 35803,0.00094656,0.00036823,-0.00050116,-0.00082230,0.00064649,-0.0005
 4622,-0.00385715,-0.00455283,0.00550222,0.03670266,-0.00114562,-0.0009
 2909,0.00057092,-0.31681639,0.02431630,-0.55340890,-0.00025479,0.00033
 117,-0.00001900,0.00041365,0.00103188,-0.00074946,-0.00016136,-0.00743
 404,0.00267177,0.31787146,-0.01754863,0.00568141,0.00798843,0.00993986
 ,-0.61568685,-0.55159475,-0.77197468,0.00010664,0.00162382,-0.00030256
 ,-0.00031903,-0.00013556,-0.00156344,0.00121799,-0.00890771,0.00764240
 ,0.60893256,0.55106197,0.75619519,0.00043973,0.00012280,-0.00026828,-0
 .00062488,-0.00010423,-0.00000139,-0.00017398,0.00001782,0.00006270,0.
 00003547,-0.00018690,0.00006212,0.00054347,-0.00009546,-0.00002521,-0.
 00008960,0.00009297,0.00006741,-0.00013021,0.00015375,0.00034666,0.000
 55119,-0.00015648,-0.00094877,-0.00005850,0.00000851,-0.00006300,-0.00
 011540,-0.00010147,-0.00003566,-0.00015331,-0.00018495,0.00035508,-0.0
 0026010,0.00012766,0.00023243,-0.00003607,0.00015299,0.00011329,-0.000
 29846,0.00046966,-0.00074926,0.00004956,0.00007929,-0.00053241,0.00007
 180,-0.00009089,0.00007364,-0.00002126,-0.00037861,0.00039468,0.000062
 11,-0.00002418,0.00077566,0.00003359,-0.00012750,0.00006340,0.00010266
 ,0.00007218,-0.00002567,0.00029495,0.00026888,-0.00751982,-0.00238902,
 0.00911968,-0.01409542,-0.00078400,0.00264171,-0.00031164,-0.00095395,
 -0.00004598,0.00253308,-0.00419640,-0.00104372,-0.00414561,0.00231039,
 0.00289036,0.00162945,-0.00053234,0.00093598,-0.00268264,0.00010790,0.
 00057187,-0.00224698,0.00075719,-0.00067144,0.00004952,0.00113416,-0.0
 0032818,0.00159310,-0.00168903,-0.00042187,-0.00069737,0.00053067,0.00
 067312,-0.00098988,-0.00136884,0.00068441,-0.00352875,-0.00019399,-0.0
 0012725,0.00059950,0.00069263,0.00334758,-0.00081708,-0.01019570,-0.01
 989092,0.00391086,0.00132578,0.00010839,0.00052168,-0.00066218,0.00212
 940,-0.00115791,-0.05234697,-0.00334678,0.00362537,-0.01657621,-0.0017
 0215,-0.00075149,-0.00269318,-0.00034970,-0.00051979,-0.00140152,3.032
 88955,5.09350519,-0.01222966,-0.06020174,0.02216478,0.00228806,0.00208
 029,0.00509091,0.00126079,0.00513560,-0.00269656,0.75027329,1.60503583
 ,-1.04638211,0.00080299,-0.00103197,-0.00048146,0.00108293,0.00017749,
 -0.00017069,-0.00060815,0.00026695,0.00027034,-0.00201194,0.00098111,0
 .00017127,-0.00071115,-0.00114546,-0.00121934,-0.00049684,0.00042174,0
 .00122791,0.00096981,0.00031827,0.00000268,0.00004695,0.00039484,0.000
 17957,-0.00151461,0.00006111,-0.00071581,-0.00037058,-0.00019709,0.000
 58247,-0.00040911,0.00032566,-0.00031443,0.00022027,-0.00008833,-0.000
 14235,0.00074334,0.00003098,-0.00051010,0.00038205,0.00000218,0.000126
 54,-0.00015303,-0.00024519,0.00046020,-0.00084519,0.00041887,0.0001526
 1,0.00026889,0.00001537,-0.00006050,0.00021237,0.00002869,-0.00019731,
 0.00028977,-0.00018412,-0.00009544,0.00025157,0.00013793,-0.00041485,0
 .00053737,0.00029876,-0.00011499,-0.00013211,0.00003603,0.00023206,0.0
 0014770,-0.00012930,0.00011764,-0.00018582,-0.00014705,0.00001222,-0.0
 0001518,0.00030089,0.00116376,0.00008643,-0.00047287,0.00045235,0.0002
 6975,0.00018436,-0.00052662,-0.00008073,0.00009323,-0.00001755,-0.0000
 4316,0.00023094,-0.00006259,-0.00013154,-0.00011286,0.00015729,-0.0000
 4967,-0.00018691,0.00021048,0.00992685,0.01768560,0.00105800,-0.000582
 73,0.00105639,-0.00233115,-0.00099779,-0.00233474,0.00181830,0.0636786
 1,-3.02850072,-0.74156645,0.00115557,0.00013359,-0.00047062,-0.0000244
 2,-0.00049729,-0.00005099,-0.07315609,0.00445959,0.00140248,0.01330139
 ,-0.00019452,0.00194831,-0.00250150,-0.00057812,0.00037925,-0.00269782
 ,-3.01550196,-5.09615652,-1.55034955,-0.00030767,0.00051283,-0.0000582
 6,-0.00033447,-0.00099584,0.00026415,3.01245716,5.09290953,0.01396124,
 0.04817718,-0.00720491,-0.00111064,0.00079757,-0.00379613,0.00010453,-
 0.00732963,0.00660282,-0.75424812,-1.58462685,1.02239562,-0.00004007,0
 .00110533,0.00010045,-0.00020986,-0.00016519,-0.00021321,0.74154292,1.
 54204157,-1.01788464\\@
 The archive entry for this job was punched.


          EVOLUTION
 IN THE BEGINNING GOD MADE MAN.
 HE WORKED THE DIRT WITH HIS HANDS.
 THEN GOD DECIDED TO GIVE MAN SCIENCE,
 MAN SHOULD BE USEFUL (LIKE AN APPLIANCE.)
 BUT SOON MAN'S KNOWLEDGE GREW TOO GREAT,
 TO THE HEADING SCIENCE HE COULDN'T RELATE
 SO GOD SAID "LETS HAVE DIFFERENT FIELDS,
 WE'LL DIVIDE THEM UP, SEE WHAT IT YIELDS."
 ENTER PHYSICS, CHEMISTRY, BIO
 THEY SPRANG UP AROUND THE NILE.
 BUT CHEMISTRY SURPASSED THE REST
 FAR AND AWAY IT WAS THE BEST.
 EXPERIMENT WAS GOD'S DECREE
 EXPERIMENT DID CHEMISTS WITH LOTS OF GLEE
 BUT SOON THEIR TESTS BEGAN TO BOG,
 THEY FOUND THEMSELVES DEEP IN A FOG.
 "GIVE US SOME HELP" THEY CRIED TO GOD.
 GOD LOOKED AROUND, THEN GAVE THE NOD.
 ENTER EINSTEIN, HEISENBERG, BOHR,
 REACTION PATHS WERE CLEAR ONCE MORE.
 WITH THEORISTS GOD SEND DIRECTION
 AND THEN HE STOPPED, HE'D MADE PERFECTION.
          -- THOMAS A. HOLME, 1981
 Job cpu time:       5 days  8 hours 57 minutes 49.8 seconds.
 Elapsed time:       0 days  3 hours 16 minutes 56.9 seconds.
 File lengths (MBytes):  RWF=   7246 Int=      0 D2E=      0 Chk=     47 Scr=      1
 Normal termination of Gaussian 16 at Fri Mar 21 19:12:46 2025.
