 Entering Gaussian System, Link 0=g16
 Input=fme_mp2_avdz_opt_anharm.gjf
 Output=fme_mp2_avdz_opt_anharm.log
 Initial command:
 /sw/contrib/gaussian/g16/A03/g16/l1.exe "/gscratch/scrubbed/gds001/Gau-4216.inp" -scrdir="/gscratch/scrubbed/gds001/"
 Entering Link 1 = /sw/contrib/gaussian/g16/A03/g16/l1.exe PID=      4217.
  
 Copyright (c) 1988,1990,1992,1993,1995,1998,2003,2009,2016,
            Gaussian, Inc.  All Rights Reserved.
  
 This is part of the Gaussian(R) 16 program.  It is based on
 the Gaussian(R) 09 system (copyright 2009, Gaussian, Inc.),
 the Gaussian(R) 03 system (copyright 2003, Gaussian, Inc.),
 the Gaussian(R) 98 system (copyright 1998, Gaussian, Inc.),
 the Gaussian(R) 94 system (copyright 1995, Gaussian, Inc.),
 the Gaussian 92(TM) system (copyright 1992, Gaussian, Inc.),
 the Gaussian 90(TM) system (copyright 1990, Gaussian, Inc.),
 the Gaussian 88(TM) system (copyright 1988, Gaussian, Inc.),
 the Gaussian 86(TM) system (copyright 1986, Carnegie Mellon
 University), and the Gaussian 82(TM) system (copyright 1983,
 Carnegie Mellon University). Gaussian is a federally registered
 trademark of Gaussian, Inc.
  
 This software contains proprietary and confidential information,
 including trade secrets, belonging to Gaussian, Inc.
  
 This software is provided under written license and may be
 used, copied, transmitted, or stored only in accord with that
 written license.
  
 The following legend is applicable only to US Government
 contracts under FAR:
  
                    RESTRICTED RIGHTS LEGEND
  
 Use, reproduction and disclosure by the US Government is
 subject to restrictions as set forth in subparagraphs (a)
 and (c) of the Commercial Computer Software - Restricted
 Rights clause in FAR 52.227-19.
  
 Gaussian, Inc.
 340 Quinnipiac St., Bldg. 40, Wallingford CT 06492
  
  
 ---------------------------------------------------------------
 Warning -- This program may not be used in any manner that
 competes with the business of Gaussian, Inc. or will provide
 assistance to any competitor of Gaussian, Inc.  The licensee
 of this program is prohibited from giving any competitor of
 Gaussian, Inc. access to this program.  By using this program,
 the user acknowledges that Gaussian, Inc. is engaged in the
 business of creating and licensing software in the field of
 computational chemistry and represents and warrants to the
 licensee that it is not a competitor of Gaussian, Inc. and that
 it will not use this program in any manner prohibited above.
 ---------------------------------------------------------------
  

 Cite this work as:
 Gaussian 16, Revision A.03,
 M. J. Frisch, G. W. Trucks, H. B. Schlegel, G. E. Scuseria, 
 M. A. Robb, J. R. Cheeseman, G. Scalmani, V. Barone, 
 G. A. Petersson, H. Nakatsuji, X. Li, M. Caricato, A. V. Marenich, 
 J. Bloino, B. G. Janesko, R. Gomperts, B. Mennucci, H. P. Hratchian, 
 J. V. Ortiz, A. F. Izmaylov, J. L. Sonnenberg, D. Williams-Young, 
 F. Ding, F. Lipparini, F. Egidi, J. Goings, B. Peng, A. Petrone, 
 T. Henderson, D. Ranasinghe, V. G. Zakrzewski, J. Gao, N. Rega, 
 G. Zheng, W. Liang, M. Hada, M. Ehara, K. Toyota, R. Fukuda, 
 J. Hasegawa, M. Ishida, T. Nakajima, Y. Honda, O. Kitao, H. Nakai, 
 T. Vreven, K. Throssell, J. A. Montgomery, Jr., J. E. Peralta, 
 F. Ogliaro, M. J. Bearpark, J. J. Heyd, E. N. Brothers, K. N. Kudin, 
 V. N. Staroverov, T. A. Keith, R. Kobayashi, J. Normand, 
 K. Raghavachari, A. P. Rendell, J. C. Burant, S. S. Iyengar, 
 J. Tomasi, M. Cossi, J. M. Millam, M. Klene, C. Adamo, R. Cammi, 
 J. W. Ochterski, R. L. Martin, K. Morokuma, O. Farkas, 
 J. B. Foresman, and D. J. Fox, Gaussian, Inc., Wallingford CT, 2016.
 
 ******************************************
 Gaussian 16:  ES64L-G16RevA.03 25-Dec-2016
                24-Nov-2021 
 ******************************************
 %nprocshared=28
 Will use up to   28 processors via shared memory.
 %mem=41GB
 ----------------------------------------------
 # mp2/aug-cc-pVDZ opt freq=(vibrot,anharmonic)
 ----------------------------------------------
 1/18=20,19=15,38=1,80=1/1,3;
 2/9=110,12=2,17=6,18=5,40=1/2;
 3/5=16,7=10,11=9,25=1,30=1,71=1/1,2,3;
 4//1;
 5/5=2,38=5/2;
 8/6=4,10=1/1;
 9/15=2,16=-3/6;
 10/5=1/2;
 6/7=2,8=2,9=2,10=2/1;
 7/12=2/1,2,3,16;
 1/18=20,19=15,80=1/3(2);
 2/9=110/2;
 99//99;
 2/9=110/2;
 3/5=16,7=10,11=9,25=1,30=1,71=1/1,2,3;
 4/5=5,16=3,69=1/1;
 5/5=2,38=5/2;
 8/6=4,10=1/1;
 9/15=2,16=-3/6;
 10/5=1/2;
 7/12=2/1,2,3,16;
 1/18=20,19=15,80=1/3(-8);
 2/9=110/2;
 6/7=2,8=2,9=2,10=2/1;
 99//99;
 ----
 bleh
 ----
 Symbolic Z-matrix:
 Charge =  0 Multiplicity = 1
 F                     0.51346   3.28241  -0.46399 
 C                     1.78979   3.45247  -0.02837 
 H                     2.38977   3.84981  -0.84942 
 H                     2.18172   2.48529   0.29246 
 H                     1.78308   4.15368   0.80845 
 

 GradGradGradGradGradGradGradGradGradGradGradGradGradGradGradGradGradGrad
 Berny optimization.
 Initialization pass.
                           ----------------------------
                           !    Initial Parameters    !
                           ! (Angstroms and Degrees)  !
 --------------------------                            --------------------------
 ! Name  Definition              Value          Derivative Info.                !
 --------------------------------------------------------------------------------
 ! R1    R(1,2)                  1.3593         estimate D2E/DX2                !
 ! R2    R(2,3)                  1.0918         estimate D2E/DX2                !
 ! R3    R(2,4)                  1.0918         estimate D2E/DX2                !
 ! R4    R(2,5)                  1.0918         estimate D2E/DX2                !
 ! A1    A(1,2,3)              108.6946         estimate D2E/DX2                !
 ! A2    A(1,2,4)              108.6876         estimate D2E/DX2                !
 ! A3    A(1,2,5)              108.676          estimate D2E/DX2                !
 ! A4    A(3,2,4)              110.25           estimate D2E/DX2                !
 ! A5    A(3,2,5)              110.2456         estimate D2E/DX2                !
 ! A6    A(4,2,5)              110.2389         estimate D2E/DX2                !
 ! D1    D(3,2,5,4)           -121.9496         estimate D2E/DX2                !
 --------------------------------------------------------------------------------
 Trust Radius=3.00D-01 FncErr=1.00D-07 GrdErr=1.00D-07 EigMax=2.50D+02 EigMin=1.00D-04
 Number of steps in this run=     21 maximum allowed number of steps=    100.
 GradGradGradGradGradGradGradGradGradGradGradGradGradGradGradGradGradGrad

                          Input orientation:                          
 ---------------------------------------------------------------------
 Center     Atomic      Atomic             Coordinates (Angstroms)
 Number     Number       Type             X           Y           Z
 ---------------------------------------------------------------------
      1          9           0        0.513457    3.282409   -0.463989
      2          6           0        1.789788    3.452471   -0.028368
      3          1           0        2.389769    3.849806   -0.849423
      4          1           0        2.181715    2.485285    0.292460
      5          1           0        1.783082    4.153680    0.808451
 ---------------------------------------------------------------------
                    Distance matrix (angstroms):
                    1          2          3          4          5
     1  F    0.000000
     2  C    1.359304   0.000000
     3  H    1.997760   1.091780   0.000000
     4  H    1.997675   1.091781   1.791396   0.000000
     5  H    1.997539   1.091790   1.791355   1.791283   0.000000
 Stoichiometry    CH3F
 Framework group  C1[X(CH3F)]
 Deg. of freedom     9
 Full point group                 C1      NOp   1
 Largest Abelian subgroup         C1      NOp   1
 Largest concise Abelian subgroup C1      NOp   1
                         Standard orientation:                         
 ---------------------------------------------------------------------
 Center     Atomic      Atomic             Coordinates (Angstroms)
 Number     Number       Type             X           Y           Z
 ---------------------------------------------------------------------
      1          9           0       -0.737950    0.000011   -0.000013
      2          6           0        0.621354    0.000015   -0.000012
      3          1           0        0.971292    1.017211   -0.186665
      4          1           0        0.971173   -0.670422   -0.787492
      5          1           0        0.970963   -0.346975    0.974347
 ---------------------------------------------------------------------
 Rotational constants (GHZ):         156.2692852          26.5143563          26.5140254
 Standard basis: Aug-CC-pVDZ (5D, 7F)
 There are    77 symmetry adapted cartesian basis functions of A   symmetry.
 There are    73 symmetry adapted basis functions of A   symmetry.
    73 basis functions,   119 primitive gaussians,    77 cartesian basis functions
     9 alpha electrons        9 beta electrons
       nuclear repulsion energy        37.7851227866 Hartrees.
 NAtoms=    5 NActive=    5 NUniq=    5 SFac= 1.00D+00 NAtFMM=   60 NAOKFM=F Big=F
 Integral buffers will be    131072 words long.
 Raffenetti 1 integral format.
 Two-electron integral symmetry is turned on.
 One-electron integrals computed using PRISM.
 NBasis=    73 RedAO= T EigKep=  8.14D-04  NBF=    73
 NBsUse=    73 1.00D-06 EigRej= -1.00D+00 NBFU=    73
 ExpMin= 2.97D-02 ExpMax= 1.47D+04 ExpMxC= 5.03D+02 IAcc=3 IRadAn=         5 AccDes= 0.00D+00
 Harris functional with IExCor=  205 and IRadAn=       5 diagonalized for initial guess.
 HarFok:  IExCor=  205 AccDes= 0.00D+00 IRadAn=         5 IDoV= 1 UseB2=F ITyADJ=14
 ICtDFT=  3500011 ScaDFX=  1.000000  1.000000  1.000000  1.000000
 FoFCou: FMM=F IPFlag=           0 FMFlag=      100000 FMFlg1=           0
         NFxFlg=           0 DoJE=T BraDBF=F KetDBF=T FulRan=T
         wScrn=  0.000000 ICntrl=       500 IOpCl=  0 I1Cent=   200000004 NGrid=           0
         NMat0=    1 NMatS0=      1 NMatT0=    0 NMatD0=    1 NMtDS0=    0 NMtDT0=    0
 Petite list used in FoFCou.
 Keep R1 ints in memory in canonical form, NReq=9496179.
 Requested convergence on RMS density matrix=1.00D-08 within 128 cycles.
 Requested convergence on MAX density matrix=1.00D-06.
 Requested convergence on             energy=1.00D-06.
 No special actions if energy rises.
 SCF Done:  E(RHF) =  -139.057416572     A.U. after   10 cycles
            NFock= 10  Conv=0.60D-08     -V/T= 2.0008
 ExpMin= 2.97D-02 ExpMax= 1.47D+04 ExpMxC= 5.03D+02 IAcc=3 IRadAn=         5 AccDes= 0.00D+00
 HarFok:  IExCor=  205 AccDes= 0.00D+00 IRadAn=         5 IDoV=-2 UseB2=F ITyADJ=14
 ICtDFT= 12500011 ScaDFX=  1.000000  1.000000  1.000000  1.000000
 Range of M.O.s used for correlation:     3    73
 NBasis=    73 NAE=     9 NBE=     9 NFC=     2 NFV=     0
 NROrb=     71 NOA=     7 NOB=     7 NVA=    64 NVB=    64

 **** Warning!!: The largest alpha MO coefficient is  0.16302527D+02

 Fully direct method using O(ONN) memory.
 JobTyp=1 Pass  1:  I=   3 to   9 NPSUse= 28 ParTrn=T ParDer=T DoDerP=T.
 Spin components of T(2) and E(2):
     alpha-alpha T2 =       0.1120296666D-01 E2=     -0.4361759464D-01
     alpha-beta  T2 =       0.7032932426D-01 E2=     -0.2708272028D+00
     beta-beta   T2 =       0.1120296666D-01 E2=     -0.4361759464D-01
 ANorm=    0.1045339781D+01
 E2 =    -0.3580623921D+00 EUMP2 =    -0.13941547896407D+03
          IDoAtm=11111
          Differentiating once with respect to electric field.
                with respect to dipole field.
          Differentiating once with respect to nuclear coordinates.
 Keep R1 ints in memory in canonical form, NReq=9497596.
          There are     1 degrees of freedom in the 1st order CPHF.  IDoFFX=0 NUNeed=     1.
 LinEq1:  Iter=  0 NonCon=     1 RMS=5.76D-03 Max=4.38D-02 NDo=     1
 AX will form     1 AO Fock derivatives at one time.
 LinEq1:  Iter=  1 NonCon=     1 RMS=1.65D-03 Max=1.08D-02 NDo=     1
 LinEq1:  Iter=  2 NonCon=     1 RMS=2.71D-04 Max=1.69D-03 NDo=     1
 LinEq1:  Iter=  3 NonCon=     1 RMS=6.13D-05 Max=3.17D-04 NDo=     1
 LinEq1:  Iter=  4 NonCon=     1 RMS=1.89D-05 Max=1.34D-04 NDo=     1
 LinEq1:  Iter=  5 NonCon=     1 RMS=2.95D-06 Max=3.01D-05 NDo=     1
 LinEq1:  Iter=  6 NonCon=     1 RMS=4.35D-07 Max=2.72D-06 NDo=     1
 LinEq1:  Iter=  7 NonCon=     1 RMS=5.54D-08 Max=3.59D-07 NDo=     1
 LinEq1:  Iter=  8 NonCon=     1 RMS=5.77D-09 Max=3.32D-08 NDo=     1
 LinEq1:  Iter=  9 NonCon=     1 RMS=7.08D-10 Max=5.25D-09 NDo=     1
 LinEq1:  Iter= 10 NonCon=     0 RMS=7.01D-11 Max=4.26D-10 NDo=     1
 Linear equations converged to 1.000D-10 1.000D-09 after    10 iterations.
 End of Minotr F.D. properties file   721 does not exist.
 End of Minotr F.D. properties file   722 does not exist.
 End of Minotr F.D. properties file   788 does not exist.

 **********************************************************************

            Population analysis using the SCF density.

 **********************************************************************

 Orbital symmetries:
       Occupied  (A) (A) (A) (A) (A) (A) (A) (A) (A)
       Virtual   (A) (A) (A) (A) (A) (A) (A) (A) (A) (A) (A) (A)
                 (A) (A) (A) (A) (A) (A) (A) (A) (A) (A) (A) (A)
                 (A) (A) (A) (A) (A) (A) (A) (A) (A) (A) (A) (A)
                 (A) (A) (A) (A) (A) (A) (A) (A) (A) (A) (A) (A)
                 (A) (A) (A) (A) (A) (A) (A) (A) (A) (A) (A) (A)
                 (A) (A) (A) (A)
 The electronic state is 1-A.
 Alpha  occ. eigenvalues --  -26.29247 -11.31362  -1.60345  -0.95587  -0.70267
 Alpha  occ. eigenvalues --   -0.70266  -0.68213  -0.52661  -0.52658
 Alpha virt. eigenvalues --    0.03512   0.05834   0.05835   0.08771   0.14497
 Alpha virt. eigenvalues --    0.14498   0.17064   0.24941   0.27482   0.27484
 Alpha virt. eigenvalues --    0.29135   0.29135   0.29778   0.38044   0.41379
 Alpha virt. eigenvalues --    0.41379   0.45460   0.45460   0.50783   0.52321
 Alpha virt. eigenvalues --    0.54621   0.58669   0.58672   0.63271   0.63311
 Alpha virt. eigenvalues --    0.63313   0.71123   0.74377   0.74378   0.93903
 Alpha virt. eigenvalues --    0.93906   0.99625   1.07821   1.30932   1.30934
 Alpha virt. eigenvalues --    1.47804   1.47805   1.58765   1.58771   1.71982
 Alpha virt. eigenvalues --    1.78665   1.78670   1.84509   1.85571   1.93257
 Alpha virt. eigenvalues --    1.93262   2.08914   2.22612   2.22619   2.25541
 Alpha virt. eigenvalues --    2.25561   2.30590   2.41403   2.68986   2.68989
 Alpha virt. eigenvalues --    2.80775   2.88616   2.88617   3.52214   4.98365
 Alpha virt. eigenvalues --    4.98366   5.07014   5.07015   5.11180
          Condensed to atoms (all electrons):
               1          2          3          4          5
     1  F    9.597461   0.026243  -0.023843  -0.023836  -0.023830
     2  C    0.026243   3.856025   0.406550   0.406560   0.406584
     3  H   -0.023843   0.406550   0.948205  -0.107843  -0.107821
     4  H   -0.023836   0.406560  -0.107843   0.948196  -0.107795
     5  H   -0.023830   0.406584  -0.107821  -0.107795   0.948174
 Mulliken charges:
               1
     1  F   -0.552195
     2  C    0.898038
     3  H   -0.115248
     4  H   -0.115282
     5  H   -0.115312
 Sum of Mulliken charges =  -0.00000
 Mulliken charges with hydrogens summed into heavy atoms:
               1
     1  F   -0.552195
     2  C    0.552195
 Electronic spatial extent (au):  <R**2>=             74.3171
 Charge=             -0.0000 electrons
 Dipole moment (field-independent basis, Debye):
    X=              1.9297    Y=             -0.0000    Z=             -0.0000  Tot=              1.9297
 Quadrupole moment (field-independent basis, Debye-Ang):
   XX=            -12.7482   YY=            -11.7698   ZZ=            -11.7703
   XY=              0.0002   XZ=             -0.0002   YZ=              0.0000
 Traceless Quadrupole moment (field-independent basis, Debye-Ang):
   XX=             -0.6521   YY=              0.3263   ZZ=              0.3258
   XY=              0.0002   XZ=             -0.0002   YZ=              0.0000
 Octapole moment (field-independent basis, Debye-Ang**2):
  XXX=             -4.2875  YYY=              0.5711  ZZZ=              0.3460  XYY=             -1.1523
  XXY=              0.0003  XXZ=             -0.0003  XZZ=             -1.1532  YZZ=             -0.5712
  YYZ=             -0.3460  XYZ=              0.0001
 Hexadecapole moment (field-independent basis, Debye-Ang**3):
 XXXX=            -50.9919 YYYY=            -16.5666 ZZZZ=            -16.5666 XXXY=              0.0005
 XXXZ=             -0.0007 YYYX=              0.6438 YYYZ=              0.0002 ZZZX=              0.3898
 ZZZY=             -0.0002 XXYY=            -11.2203 XXZZ=            -11.2215 YYZZ=             -5.5221
 XXYZ=              0.0001 YYXZ=             -0.3900 ZZXY=             -0.6436
 N-N= 3.778512278665D+01 E-N=-4.060139365627D+02  KE= 1.389409913613D+02
 Calling FoFJK, ICntrl=  10002127 FMM=F ISym2X=0 I1Cent= 0 IOpClX= 0 NMat=1 NMatS=1 NMatT=0.
 ***** Axes restored to original set *****
 -------------------------------------------------------------------
 Center     Atomic                   Forces (Hartrees/Bohr)
 Number     Number              X              Y              Z
 -------------------------------------------------------------------
      1        9          -0.034363050   -0.004587291   -0.011753734
      2        6           0.024020182    0.003216521    0.008248426
      3        1           0.004722386    0.002129663   -0.003255838
      4        1           0.003747953   -0.004338453    0.002153502
      5        1           0.001872530    0.003579560    0.004607645
 -------------------------------------------------------------------
 Cartesian Forces:  Max     0.034363050 RMS     0.011854277

 GradGradGradGradGradGradGradGradGradGradGradGradGradGradGradGradGradGrad
 Berny optimization.
 FormGI is forming the generalized inverse of G from B-inverse, IUseBI=4.
 Internal  Forces:  Max     0.036606175 RMS     0.011498239
 Search for a local minimum.
 Step number   1 out of a maximum of   21
 All quantities printed in internal units (Hartrees-Bohrs-Radians)
 Mixed Optimization -- RFO/linear search
 Second derivative matrix not updated -- first step.
 The second derivative matrix:
                          R1        R2        R3        R4        A1
           R1           0.53088
           R2           0.00000   0.34608
           R3           0.00000   0.00000   0.34608
           R4           0.00000   0.00000   0.00000   0.34607
           A1           0.00000   0.00000   0.00000   0.00000   0.16000
           A2           0.00000   0.00000   0.00000   0.00000   0.00000
           A3           0.00000   0.00000   0.00000   0.00000   0.00000
           A4           0.00000   0.00000   0.00000   0.00000   0.00000
           A5           0.00000   0.00000   0.00000   0.00000   0.00000
           A6           0.00000   0.00000   0.00000   0.00000   0.00000
           D1           0.00000   0.00000   0.00000   0.00000   0.00000
                          A2        A3        A4        A5        A6
           A2           0.16000
           A3           0.00000   0.16000
           A4           0.00000   0.00000   0.16000
           A5           0.00000   0.00000   0.00000   0.16000
           A6           0.00000   0.00000   0.00000   0.00000   0.16000
           D1           0.00000   0.00000   0.00000   0.00000   0.00000
                          D1
           D1           0.00230
 ITU=  0
     Eigenvalues ---    0.07046   0.16000   0.16000   0.16000   0.16000
     Eigenvalues ---    0.34607   0.34608   0.34608   0.53088
 RFO step:  Lambda=-2.94286982D-03 EMin= 7.04618447D-02
 Linear search not attempted -- first point.
 Iteration  1 RMS(Cart)=  0.02578499 RMS(Int)=  0.00019346
 Iteration  2 RMS(Cart)=  0.00013093 RMS(Int)=  0.00011765
 Iteration  3 RMS(Cart)=  0.00000003 RMS(Int)=  0.00011765
 Variable       Old X    -DE/DX   Delta X   Delta X   Delta X     New X
                                 (Linear)    (Quad)   (Total)
    R1        2.56871   0.03661   0.00000   0.06857   0.06857   2.63729
    R2        2.06316   0.00582   0.00000   0.01667   0.01667   2.07984
    R3        2.06317   0.00582   0.00000   0.01668   0.01668   2.07985
    R4        2.06318   0.00582   0.00000   0.01667   0.01667   2.07986
    A1        1.89708   0.00104   0.00000   0.01180   0.01181   1.90889
    A2        1.89696   0.00107   0.00000   0.01197   0.01198   1.90894
    A3        1.89675   0.00112   0.00000   0.01225   0.01226   1.90902
    A4        1.92422  -0.00019   0.00000  -0.01136  -0.01162   1.91260
    A5        1.92415  -0.00148   0.00000  -0.01185  -0.01197   1.91217
    A6        1.92403  -0.00146   0.00000  -0.01174  -0.01187   1.91216
    D1       -2.12842   0.00220   0.00000   0.02994   0.02972  -2.09870
         Item               Value     Threshold  Converged?
 Maximum Force            0.036606     0.000450     NO 
 RMS     Force            0.011498     0.000300     NO 
 Maximum Displacement     0.067741     0.001800     NO 
 RMS     Displacement     0.025812     0.001200     NO 
 Predicted change in Energy=-1.481078D-03
 GradGradGradGradGradGradGradGradGradGradGradGradGradGradGradGradGradGrad

                          Input orientation:                          
 ---------------------------------------------------------------------
 Center     Atomic      Atomic             Coordinates (Angstroms)
 Number     Number       Type             X           Y           Z
 ---------------------------------------------------------------------
      1          9           0        0.477610    3.277576   -0.476364
      2          6           0        1.787956    3.452208   -0.028957
      3          1           0        2.403277    3.852951   -0.848780
      4          1           0        2.194477    2.482978    0.297647
      5          1           0        1.794491    4.157938    0.815585
 ---------------------------------------------------------------------
                    Distance matrix (angstroms):
                    1          2          3          4          5
     1  F    0.000000
     2  C    1.395592   0.000000
     3  H    2.044002   1.100602   0.000000
     4  H    2.044043   1.100607   1.798532   0.000000
     5  H    2.044100   1.100613   1.798263   1.798260   0.000000
 Stoichiometry    CH3F
 Framework group  C1[X(CH3F)]
 Deg. of freedom     9
 Full point group                 C1      NOp   1
 Largest Abelian subgroup         C1      NOp   1
 Largest concise Abelian subgroup C1      NOp   1
                         Standard orientation:                         
 ---------------------------------------------------------------------
 Center     Atomic      Atomic             Coordinates (Angstroms)
 Number     Number       Type             X           Y           Z
 ---------------------------------------------------------------------
      1          9           0       -0.758649   -0.000004    0.000017
      2          6           0        0.636942    0.000001   -0.000040
      3          1           0        1.001976    0.901210   -0.515692
      4          1           0        1.002037   -0.897309   -0.522417
      5          1           0        1.002178   -0.003875    1.038197
 ---------------------------------------------------------------------
 Rotational constants (GHZ):         155.0539419          25.1971045          25.1962837
 Standard basis: Aug-CC-pVDZ (5D, 7F)
 There are    77 symmetry adapted cartesian basis functions of A   symmetry.
 There are    73 symmetry adapted basis functions of A   symmetry.
    73 basis functions,   119 primitive gaussians,    77 cartesian basis functions
     9 alpha electrons        9 beta electrons
       nuclear repulsion energy        37.0027933574 Hartrees.
 NAtoms=    5 NActive=    5 NUniq=    5 SFac= 1.00D+00 NAtFMM=   60 NAOKFM=F Big=F
 Integral buffers will be    131072 words long.
 Raffenetti 1 integral format.
 Two-electron integral symmetry is turned on.
 One-electron integrals computed using PRISM.
 NBasis=    73 RedAO= T EigKep=  8.31D-04  NBF=    73
 NBsUse=    73 1.00D-06 EigRej= -1.00D+00 NBFU=    73
 Initial guess from the checkpoint file:  "/gscratch/scrubbed/gds001/Gau-4217.chk"
 B after Tr=     0.000000   -0.000000   -0.000000
         Rot=    0.985727    0.168349   -0.000035   -0.000020 Ang=  19.38 deg.
 ExpMin= 2.97D-02 ExpMax= 1.47D+04 ExpMxC= 5.03D+02 IAcc=3 IRadAn=         5 AccDes= 0.00D+00
 Harris functional with IExCor=  205 and IRadAn=       5 diagonalized for initial guess.
 HarFok:  IExCor=  205 AccDes= 0.00D+00 IRadAn=         5 IDoV= 1 UseB2=F ITyADJ=14
 ICtDFT=  3500011 ScaDFX=  1.000000  1.000000  1.000000  1.000000
 FoFCou: FMM=F IPFlag=           0 FMFlag=      100000 FMFlg1=           0
         NFxFlg=           0 DoJE=T BraDBF=F KetDBF=T FulRan=T
         wScrn=  0.000000 ICntrl=       500 IOpCl=  0 I1Cent=   200000004 NGrid=           0
         NMat0=    1 NMatS0=      1 NMatT0=    0 NMatD0=    1 NMtDS0=    0 NMtDT0=    0
 Petite list used in FoFCou.
 Keep R1 ints in memory in canonical form, NReq=9496047.
 Requested convergence on RMS density matrix=1.00D-08 within 128 cycles.
 Requested convergence on MAX density matrix=1.00D-06.
 Requested convergence on             energy=1.00D-06.
 No special actions if energy rises.
 SCF Done:  E(RHF) =  -139.056738268     A.U. after    9 cycles
            NFock=  9  Conv=0.53D-08     -V/T= 2.0018
 ExpMin= 2.97D-02 ExpMax= 1.47D+04 ExpMxC= 5.03D+02 IAcc=3 IRadAn=         5 AccDes= 0.00D+00
 HarFok:  IExCor=  205 AccDes= 0.00D+00 IRadAn=         5 IDoV=-2 UseB2=F ITyADJ=14
 ICtDFT= 12500011 ScaDFX=  1.000000  1.000000  1.000000  1.000000
 Range of M.O.s used for correlation:     3    73
 NBasis=    73 NAE=     9 NBE=     9 NFC=     2 NFV=     0
 NROrb=     71 NOA=     7 NOB=     7 NVA=    64 NVB=    64

 **** Warning!!: The largest alpha MO coefficient is  0.15906053D+02

 Fully direct method using O(ONN) memory.
 JobTyp=1 Pass  1:  I=   3 to   9 NPSUse= 28 ParTrn=T ParDer=T DoDerP=T.
 Spin components of T(2) and E(2):
     alpha-alpha T2 =       0.1141609798D-01 E2=     -0.4381706696D-01
     alpha-beta  T2 =       0.7183364357D-01 E2=     -0.2726238516D+00
     beta-beta   T2 =       0.1141609798D-01 E2=     -0.4381706696D-01
 ANorm=    0.1046262797D+01
 E2 =    -0.3602579855D+00 EUMP2 =    -0.13941699625376D+03
          IDoAtm=11111
          Differentiating once with respect to electric field.
                with respect to dipole field.
          Differentiating once with respect to nuclear coordinates.
 Keep R1 ints in memory in canonical form, NReq=9497420.
          There are     1 degrees of freedom in the 1st order CPHF.  IDoFFX=0 NUNeed=     1.
 LinEq1:  Iter=  0 NonCon=     1 RMS=5.97D-03 Max=4.66D-02 NDo=     1
 AX will form     1 AO Fock derivatives at one time.
 LinEq1:  Iter=  1 NonCon=     1 RMS=1.74D-03 Max=1.15D-02 NDo=     1
 LinEq1:  Iter=  2 NonCon=     1 RMS=2.82D-04 Max=1.88D-03 NDo=     1
 LinEq1:  Iter=  3 NonCon=     1 RMS=6.63D-05 Max=3.46D-04 NDo=     1
 LinEq1:  Iter=  4 NonCon=     1 RMS=2.05D-05 Max=1.52D-04 NDo=     1
 LinEq1:  Iter=  5 NonCon=     1 RMS=3.25D-06 Max=3.27D-05 NDo=     1
 LinEq1:  Iter=  6 NonCon=     1 RMS=4.84D-07 Max=2.87D-06 NDo=     1
 LinEq1:  Iter=  7 NonCon=     1 RMS=6.17D-08 Max=4.11D-07 NDo=     1
 LinEq1:  Iter=  8 NonCon=     1 RMS=6.40D-09 Max=3.71D-08 NDo=     1
 LinEq1:  Iter=  9 NonCon=     1 RMS=7.79D-10 Max=5.58D-09 NDo=     1
 LinEq1:  Iter= 10 NonCon=     0 RMS=7.77D-11 Max=5.15D-10 NDo=     1
 Linear equations converged to 1.000D-10 1.000D-09 after    10 iterations.
 End of Minotr F.D. properties file   721 does not exist.
 End of Minotr F.D. properties file   722 does not exist.
 End of Minotr F.D. properties file   788 does not exist.
 Calling FoFJK, ICntrl=  10002127 FMM=F ISym2X=0 I1Cent= 0 IOpClX= 0 NMat=1 NMatS=1 NMatT=0.
 ***** Axes restored to original set *****
 -------------------------------------------------------------------
 Center     Atomic                   Forces (Hartrees/Bohr)
 Number     Number              X              Y              Z
 -------------------------------------------------------------------
      1        9          -0.005066233   -0.000673666   -0.001722602
      2        6           0.011342295    0.001530264    0.003892372
      3        1          -0.002125770   -0.000358084   -0.000567100
      4        1          -0.002094825   -0.000116343   -0.000771184
      5        1          -0.002055468   -0.000382171   -0.000831487
 -------------------------------------------------------------------
 Cartesian Forces:  Max     0.011342295 RMS     0.003561418

 GradGradGradGradGradGradGradGradGradGradGradGradGradGradGradGradGradGrad
 Berny optimization.
 Using GEDIIS/GDIIS optimizer.
 FormGI is forming the generalized inverse of G from B-inverse, IUseBI=4.
 Internal  Forces:  Max     0.005393316 RMS     0.002061516
 Search for a local minimum.
 Step number   2 out of a maximum of   21
 All quantities printed in internal units (Hartrees-Bohrs-Radians)
 Mixed Optimization -- RFO/linear search
 Update second derivatives using D2CorX and points    1    2
 DE= -1.52D-03 DEPred=-1.48D-03 R= 1.02D+00
 TightC=F SS=  1.41D+00  RLast= 8.53D-02 DXNew= 5.0454D-01 2.5584D-01
 Trust test= 1.02D+00 RLast= 8.53D-02 DXMaxT set to 3.00D-01
 The second derivative matrix:
                          R1        R2        R3        R4        A1
           R1           0.42905
           R2           0.00377   0.35096
           R3           0.00381   0.00489   0.35098
           R4           0.00376   0.00488   0.00489   0.35094
           A1           0.00146   0.00165   0.00165   0.00165   0.16056
           A2           0.00156   0.00169   0.00169   0.00169   0.00057
           A3           0.00163   0.00173   0.00174   0.00173   0.00059
           A4           0.01870   0.00271   0.00271   0.00271   0.00089
           A5          -0.01165  -0.00386  -0.00386  -0.00386  -0.00129
           A6          -0.01167  -0.00385  -0.00386  -0.00385  -0.00128
           D1           0.05001   0.01081   0.01082   0.01081   0.00357
                          A2        A3        A4        A5        A6
           A2           0.16058
           A3           0.00060   0.16062
           A4           0.00090   0.00092   0.15887
           A5          -0.00131  -0.00135  -0.00077   0.16233
           A6          -0.00131  -0.00134  -0.00076   0.00232   0.16232
           D1           0.00364   0.00373  -0.00060  -0.00509  -0.00507
                          D1
           D1           0.00966
 ITU=  1  0
 Use linear search instead of GDIIS.
     Eigenvalues ---    0.07835   0.16000   0.16000   0.16000   0.16307
     Eigenvalues ---    0.34607   0.34608   0.36102   0.43535
 RFO step:  Lambda=-2.42418966D-04 EMin= 7.83539704D-02
 Quartic linear search produced a step of  0.06780.
 Iteration  1 RMS(Cart)=  0.00771535 RMS(Int)=  0.00017063
 Iteration  2 RMS(Cart)=  0.00009316 RMS(Int)=  0.00013992
 Iteration  3 RMS(Cart)=  0.00000001 RMS(Int)=  0.00013992
 Variable       Old X    -DE/DX   Delta X   Delta X   Delta X     New X
                                 (Linear)    (Quad)   (Total)
    R1        2.63729   0.00539   0.00465   0.01223   0.01688   2.65416
    R2        2.07984  -0.00090   0.00113  -0.00239  -0.00126   2.07857
    R3        2.07985  -0.00090   0.00113  -0.00241  -0.00127   2.07857
    R4        2.07986  -0.00090   0.00113  -0.00239  -0.00126   2.07860
    A1        1.90889  -0.00118   0.00080  -0.01345  -0.01263   1.89626
    A2        1.90894  -0.00119   0.00081  -0.01352  -0.01268   1.89626
    A3        1.90902  -0.00120   0.00083  -0.01358  -0.01272   1.89629
    A4        1.91260   0.00020  -0.00079   0.01285   0.01175   1.92436
    A5        1.91217   0.00167  -0.00081   0.01378   0.01281   1.92498
    A6        1.91216   0.00167  -0.00080   0.01378   0.01282   1.92499
    D1       -2.09870  -0.00232   0.00201  -0.03283  -0.03108  -2.12978
         Item               Value     Threshold  Converged?
 Maximum Force            0.005393     0.000450     NO 
 RMS     Force            0.002062     0.000300     NO 
 Maximum Displacement     0.017355     0.001800     NO 
 RMS     Displacement     0.007687     0.001200     NO 
 Predicted change in Energy=-1.310531D-04
 GradGradGradGradGradGradGradGradGradGradGradGradGradGradGradGradGradGrad

                          Input orientation:                          
 ---------------------------------------------------------------------
 Center     Atomic      Atomic             Coordinates (Angstroms)
 Number     Number       Type             X           Y           Z
 ---------------------------------------------------------------------
      1          9           0        0.478433    3.277718   -0.476020
      2          6           0        1.797139    3.453537   -0.025704
      3          1           0        2.401049    3.853552   -0.853433
      4          1           0        2.191486    2.478757    0.297014
      5          1           0        1.789704    4.160087    0.817274
 ---------------------------------------------------------------------
                    Distance matrix (angstroms):
                    1          2          3          4          5
     1  F    0.000000
     2  C    1.404523   0.000000
     3  H    2.042175   1.099933   0.000000
     4  H    2.042173   1.099933   1.804856   0.000000
     5  H    2.042209   1.099946   1.805261   1.805263   0.000000
 Stoichiometry    CH3F
 Framework group  C1[X(CH3F)]
 Deg. of freedom     9
 Full point group                 C1      NOp   1
 Largest Abelian subgroup         C1      NOp   1
 Largest concise Abelian subgroup C1      NOp   1
                         Standard orientation:                         
 ---------------------------------------------------------------------
 Center     Atomic      Atomic             Coordinates (Angstroms)
 Number     Number       Type             X           Y           Z
 ---------------------------------------------------------------------
      1          9           0       -0.760880    0.000010    0.000000
      2          6           0        0.643643   -0.000056   -0.000000
      3          1           0        0.995367    0.519460    0.903463
      4          1           0        0.995365    0.523051   -0.901389
      5          1           0        0.995333   -1.042261   -0.002073
 ---------------------------------------------------------------------
 Rotational constants (GHZ):         153.8922940          25.0188837          25.0176641
 Standard basis: Aug-CC-pVDZ (5D, 7F)
 There are    77 symmetry adapted cartesian basis functions of A   symmetry.
 There are    73 symmetry adapted basis functions of A   symmetry.
    73 basis functions,   119 primitive gaussians,    77 cartesian basis functions
     9 alpha electrons        9 beta electrons
       nuclear repulsion energy        36.8809282722 Hartrees.
 NAtoms=    5 NActive=    5 NUniq=    5 SFac= 1.00D+00 NAtFMM=   60 NAOKFM=F Big=F
 Integral buffers will be    131072 words long.
 Raffenetti 1 integral format.
 Two-electron integral symmetry is turned on.
 One-electron integrals computed using PRISM.
 NBasis=    73 RedAO= T EigKep=  8.39D-04  NBF=    73
 NBsUse=    73 1.00D-06 EigRej= -1.00D+00 NBFU=    73
 Initial guess from the checkpoint file:  "/gscratch/scrubbed/gds001/Gau-4217.chk"
 B after Tr=    -0.000000    0.000000   -0.000000
         Rot=    0.707725   -0.706488    0.000009    0.000016 Ang= -89.90 deg.
 Keep R1 ints in memory in canonical form, NReq=9496003.
 Requested convergence on RMS density matrix=1.00D-08 within 128 cycles.
 Requested convergence on MAX density matrix=1.00D-06.
 Requested convergence on             energy=1.00D-06.
 No special actions if energy rises.
 SCF Done:  E(RHF) =  -139.056643525     A.U. after    9 cycles
            NFock=  9  Conv=0.31D-08     -V/T= 2.0019
 ExpMin= 2.97D-02 ExpMax= 1.47D+04 ExpMxC= 5.03D+02 IAcc=3 IRadAn=         5 AccDes= 0.00D+00
 HarFok:  IExCor=  205 AccDes= 0.00D+00 IRadAn=         5 IDoV=-2 UseB2=F ITyADJ=14
 ICtDFT= 12500011 ScaDFX=  1.000000  1.000000  1.000000  1.000000
 Range of M.O.s used for correlation:     3    73
 NBasis=    73 NAE=     9 NBE=     9 NFC=     2 NFV=     0
 NROrb=     71 NOA=     7 NOB=     7 NVA=    64 NVB=    64

 **** Warning!!: The largest alpha MO coefficient is  0.16268841D+02

 Fully direct method using O(ONN) memory.
 JobTyp=1 Pass  1:  I=   3 to   9 NPSUse= 28 ParTrn=T ParDer=T DoDerP=T.
 Spin components of T(2) and E(2):
     alpha-alpha T2 =       0.1144325379D-01 E2=     -0.4383517968D-01
     alpha-beta  T2 =       0.7202126954D-01 E2=     -0.2728497379D+00
     beta-beta   T2 =       0.1144325379D-01 E2=     -0.4383517968D-01
 ANorm=    0.1046378410D+01
 E2 =    -0.3605200972D+00 EUMP2 =    -0.13941716362210D+03
          IDoAtm=11111
          Differentiating once with respect to electric field.
                with respect to dipole field.
          Differentiating once with respect to nuclear coordinates.
 Keep R1 ints in memory in canonical form, NReq=9497420.
          There are     1 degrees of freedom in the 1st order CPHF.  IDoFFX=0 NUNeed=     1.
 LinEq1:  Iter=  0 NonCon=     1 RMS=6.02D-03 Max=4.71D-02 NDo=     1
 AX will form     1 AO Fock derivatives at one time.
 LinEq1:  Iter=  1 NonCon=     1 RMS=1.76D-03 Max=1.20D-02 NDo=     1
 LinEq1:  Iter=  2 NonCon=     1 RMS=2.81D-04 Max=1.84D-03 NDo=     1
 LinEq1:  Iter=  3 NonCon=     1 RMS=6.62D-05 Max=3.72D-04 NDo=     1
 LinEq1:  Iter=  4 NonCon=     1 RMS=2.01D-05 Max=1.48D-04 NDo=     1
 LinEq1:  Iter=  5 NonCon=     1 RMS=3.30D-06 Max=3.37D-05 NDo=     1
 LinEq1:  Iter=  6 NonCon=     1 RMS=4.95D-07 Max=2.84D-06 NDo=     1
 LinEq1:  Iter=  7 NonCon=     1 RMS=6.30D-08 Max=4.19D-07 NDo=     1
 LinEq1:  Iter=  8 NonCon=     1 RMS=6.58D-09 Max=3.86D-08 NDo=     1
 LinEq1:  Iter=  9 NonCon=     1 RMS=7.94D-10 Max=5.61D-09 NDo=     1
 LinEq1:  Iter= 10 NonCon=     0 RMS=7.80D-11 Max=5.30D-10 NDo=     1
 Linear equations converged to 1.000D-10 1.000D-09 after    10 iterations.
 End of Minotr F.D. properties file   721 does not exist.
 End of Minotr F.D. properties file   722 does not exist.
 End of Minotr F.D. properties file   788 does not exist.
 Calling FoFJK, ICntrl=  10002127 FMM=F ISym2X=0 I1Cent= 0 IOpClX= 0 NMat=1 NMatS=1 NMatT=0.
 ***** Axes restored to original set *****
 -------------------------------------------------------------------
 Center     Atomic                   Forces (Hartrees/Bohr)
 Number     Number              X              Y              Z
 -------------------------------------------------------------------
      1        9          -0.001610171   -0.000210878   -0.000545477
      2        6           0.003980990    0.000501445    0.001324075
      3        1          -0.000956237   -0.000280691    0.000292577
      4        1          -0.000837277    0.000498298   -0.000359018
      5        1          -0.000577304   -0.000508174   -0.000712157
 -------------------------------------------------------------------
 Cartesian Forces:  Max     0.003980990 RMS     0.001266051

 GradGradGradGradGradGradGradGradGradGradGradGradGradGradGradGradGradGrad
 Berny optimization.
 Using GEDIIS/GDIIS optimizer.
 FormGI is forming the generalized inverse of G from B-inverse, IUseBI=4.
 Internal  Forces:  Max     0.001713078 RMS     0.000759357
 Search for a local minimum.
 Step number   3 out of a maximum of   21
 All quantities printed in internal units (Hartrees-Bohrs-Radians)
 Mixed Optimization -- En-DIIS/RFO-DIIS
 Update second derivatives using D2CorX and points    1    2    3
 DE= -1.67D-04 DEPred=-1.31D-04 R= 1.28D+00
 TightC=F SS=  1.41D+00  RLast= 4.70D-02 DXNew= 5.0454D-01 1.4086D-01
 Trust test= 1.28D+00 RLast= 4.70D-02 DXMaxT set to 3.00D-01
 The second derivative matrix:
                          R1        R2        R3        R4        A1
           R1           0.38672
           R2           0.02774   0.35121
           R3           0.02777   0.00513   0.35121
           R4           0.02834   0.00518   0.00518   0.35130
           A1           0.03777  -0.00288  -0.00289  -0.00295   0.14799
           A2           0.03784  -0.00287  -0.00288  -0.00294  -0.01202
           A3           0.03832  -0.00282  -0.00283  -0.00289  -0.01208
           A4          -0.03843   0.00604   0.00607   0.00602   0.01629
           A5          -0.03588   0.00125   0.00125   0.00136   0.00949
           A6          -0.03589   0.00126   0.00126   0.00137   0.00950
           D1          -0.00243   0.00876   0.00880   0.00858   0.01185
                          A2        A3        A4        A5        A6
           A2           0.14796
           A3          -0.01209   0.14785
           A4           0.01636   0.01642   0.14309
           A5           0.00947   0.00952  -0.01567   0.15402
           A6           0.00948   0.00953  -0.01568  -0.00599   0.15400
           D1           0.01200   0.01203  -0.00370  -0.01604  -0.01603
                          D1
           D1           0.02021
 ITU=  1  1  0
 Use linear search instead of GDIIS.
     Eigenvalues ---    0.06438   0.15694   0.16000   0.16000   0.16000
     Eigenvalues ---    0.32993   0.34607   0.34608   0.43309
 RFO step:  Lambda=-6.13785337D-06 EMin= 6.43804656D-02
 Quartic linear search produced a step of  0.45914.
 Iteration  1 RMS(Cart)=  0.00316482 RMS(Int)=  0.00008852
 Iteration  2 RMS(Cart)=  0.00002093 RMS(Int)=  0.00008584
 Iteration  3 RMS(Cart)=  0.00000000 RMS(Int)=  0.00008584
 Variable       Old X    -DE/DX   Delta X   Delta X   Delta X     New X
                                 (Linear)    (Quad)   (Total)
    R1        2.65416   0.00171   0.00775   0.00050   0.00825   2.66241
    R2        2.07857  -0.00085  -0.00058  -0.00232  -0.00291   2.07567
    R3        2.07857  -0.00085  -0.00059  -0.00232  -0.00290   2.07567
    R4        2.07860  -0.00087  -0.00058  -0.00241  -0.00299   2.07560
    A1        1.89626  -0.00033  -0.00580   0.00023  -0.00555   1.89071
    A2        1.89626  -0.00033  -0.00582   0.00027  -0.00554   1.89071
    A3        1.89629  -0.00034  -0.00584   0.00016  -0.00567   1.89063
    A4        1.92436   0.00010   0.00540   0.00057   0.00577   1.93013
    A5        1.92498   0.00043   0.00588  -0.00060   0.00518   1.93017
    A6        1.92499   0.00043   0.00589  -0.00061   0.00518   1.93017
    D1       -2.12978  -0.00071  -0.01427   0.00010  -0.01433  -2.14411
         Item               Value     Threshold  Converged?
 Maximum Force            0.001713     0.000450     NO 
 RMS     Force            0.000759     0.000300     NO 
 Maximum Displacement     0.008334     0.001800     NO 
 RMS     Displacement     0.003162     0.001200     NO 
 Predicted change in Energy=-2.063158D-05
 GradGradGradGradGradGradGradGradGradGradGradGradGradGradGradGradGradGrad

                          Input orientation:                          
 ---------------------------------------------------------------------
 Center     Atomic      Atomic             Coordinates (Angstroms)
 Number     Number       Type             X           Y           Z
 ---------------------------------------------------------------------
      1          9           0        0.478705    3.277771   -0.475910
      2          6           0        1.801550    3.454056   -0.024278
      3          1           0        2.399602    3.853677   -0.854405
      4          1           0        2.189917    2.478048    0.296740
      5          1           0        1.788037    4.160099    0.816983
 ---------------------------------------------------------------------
                    Distance matrix (angstroms):
                    1          2          3          4          5
     1  F    0.000000
     2  C    1.408888   0.000000
     3  H    2.040777   1.098396   0.000000
     4  H    2.040781   1.098396   1.805950   0.000000
     5  H    2.040693   1.098362   1.805947   1.805950   0.000000
 Stoichiometry    CH3F
 Framework group  C1[X(CH3F)]
 Deg. of freedom     9
 Full point group                 C1      NOp   1
 Largest Abelian subgroup         C1      NOp   1
 Largest concise Abelian subgroup C1      NOp   1
                         Standard orientation:                         
 ---------------------------------------------------------------------
 Center     Atomic      Atomic             Coordinates (Angstroms)
 Number     Number       Type             X           Y           Z
 ---------------------------------------------------------------------
      1          9           0       -0.762010    0.000005    0.000008
      2          6           0        0.646878   -0.000003   -0.000007
      3          1           0        0.992309   -0.537647    0.893352
      4          1           0        0.992316    1.042488    0.018920
      5          1           0        0.992195   -0.504861   -0.912297
 ---------------------------------------------------------------------
 Rotational constants (GHZ):         153.7521125          24.9349117          24.9349021
 Standard basis: Aug-CC-pVDZ (5D, 7F)
 There are    77 symmetry adapted cartesian basis functions of A   symmetry.
 There are    73 symmetry adapted basis functions of A   symmetry.
    73 basis functions,   119 primitive gaussians,    77 cartesian basis functions
     9 alpha electrons        9 beta electrons
       nuclear repulsion energy        36.8346476746 Hartrees.
 NAtoms=    5 NActive=    5 NUniq=    5 SFac= 1.00D+00 NAtFMM=   60 NAOKFM=F Big=F
 Integral buffers will be    131072 words long.
 Raffenetti 1 integral format.
 Two-electron integral symmetry is turned on.
 One-electron integrals computed using PRISM.
 NBasis=    73 RedAO= T EigKep=  8.39D-04  NBF=    73
 NBsUse=    73 1.00D-06 EigRej= -1.00D+00 NBFU=    73
 Initial guess from the checkpoint file:  "/gscratch/scrubbed/gds001/Gau-4217.chk"
 B after Tr=     0.000000    0.000000    0.000000
         Rot=    0.861956   -0.506984   -0.000003    0.000006 Ang= -60.93 deg.
 Keep R1 ints in memory in canonical form, NReq=9496003.
 Requested convergence on RMS density matrix=1.00D-08 within 128 cycles.
 Requested convergence on MAX density matrix=1.00D-06.
 Requested convergence on             energy=1.00D-06.
 No special actions if energy rises.
 SCF Done:  E(RHF) =  -139.056587596     A.U. after    8 cycles
            NFock=  8  Conv=0.76D-08     -V/T= 2.0019
 ExpMin= 2.97D-02 ExpMax= 1.47D+04 ExpMxC= 5.03D+02 IAcc=3 IRadAn=         5 AccDes= 0.00D+00
 HarFok:  IExCor=  205 AccDes= 0.00D+00 IRadAn=         5 IDoV=-2 UseB2=F ITyADJ=14
 ICtDFT= 12500011 ScaDFX=  1.000000  1.000000  1.000000  1.000000
 Range of M.O.s used for correlation:     3    73
 NBasis=    73 NAE=     9 NBE=     9 NFC=     2 NFV=     0
 NROrb=     71 NOA=     7 NOB=     7 NVA=    64 NVB=    64

 **** Warning!!: The largest alpha MO coefficient is  0.16283585D+02

 Fully direct method using O(ONN) memory.
 JobTyp=1 Pass  1:  I=   3 to   9 NPSUse= 28 ParTrn=T ParDer=T DoDerP=T.
 Spin components of T(2) and E(2):
     alpha-alpha T2 =       0.1145271005D-01 E2=     -0.4384254702D-01
     alpha-beta  T2 =       0.7206217409D-01 E2=     -0.2729120672D+00
     beta-beta   T2 =       0.1145271005D-01 E2=     -0.4384254702D-01
 ANorm=    0.1046406993D+01
 E2 =    -0.3605971612D+00 EUMP2 =    -0.13941718475705D+03
          IDoAtm=11111
          Differentiating once with respect to electric field.
                with respect to dipole field.
          Differentiating once with respect to nuclear coordinates.
 Keep R1 ints in memory in canonical form, NReq=9497420.
          There are     1 degrees of freedom in the 1st order CPHF.  IDoFFX=0 NUNeed=     1.
 LinEq1:  Iter=  0 NonCon=     1 RMS=6.05D-03 Max=4.69D-02 NDo=     1
 AX will form     1 AO Fock derivatives at one time.
 LinEq1:  Iter=  1 NonCon=     1 RMS=1.77D-03 Max=1.21D-02 NDo=     1
 LinEq1:  Iter=  2 NonCon=     1 RMS=2.80D-04 Max=1.82D-03 NDo=     1
 LinEq1:  Iter=  3 NonCon=     1 RMS=6.59D-05 Max=3.42D-04 NDo=     1
 LinEq1:  Iter=  4 NonCon=     1 RMS=1.98D-05 Max=1.45D-04 NDo=     1
 LinEq1:  Iter=  5 NonCon=     1 RMS=3.31D-06 Max=3.41D-05 NDo=     1
 LinEq1:  Iter=  6 NonCon=     1 RMS=4.99D-07 Max=2.89D-06 NDo=     1
 LinEq1:  Iter=  7 NonCon=     1 RMS=6.35D-08 Max=4.21D-07 NDo=     1
 LinEq1:  Iter=  8 NonCon=     1 RMS=6.66D-09 Max=3.93D-08 NDo=     1
 LinEq1:  Iter=  9 NonCon=     1 RMS=7.99D-10 Max=5.59D-09 NDo=     1
 LinEq1:  Iter= 10 NonCon=     0 RMS=7.79D-11 Max=5.33D-10 NDo=     1
 Linear equations converged to 1.000D-10 1.000D-09 after    10 iterations.
 End of Minotr F.D. properties file   721 does not exist.
 End of Minotr F.D. properties file   722 does not exist.
 End of Minotr F.D. properties file   788 does not exist.
 Calling FoFJK, ICntrl=  10002127 FMM=F ISym2X=0 I1Cent= 0 IOpClX= 0 NMat=1 NMatS=1 NMatT=0.
 ***** Axes restored to original set *****
 -------------------------------------------------------------------
 Center     Atomic                   Forces (Hartrees/Bohr)
 Number     Number              X              Y              Z
 -------------------------------------------------------------------
      1        9           0.000024032   -0.000001505    0.000003269
      2        6          -0.000008981   -0.000010358   -0.000015507
      3        1          -0.000007119    0.000000898   -0.000004100
      4        1          -0.000008255   -0.000002924   -0.000000808
      5        1           0.000000323    0.000013888    0.000017145
 -------------------------------------------------------------------
 Cartesian Forces:  Max     0.000024032 RMS     0.000010493

 GradGradGradGradGradGradGradGradGradGradGradGradGradGradGradGradGradGrad
 Berny optimization.
 Using GEDIIS/GDIIS optimizer.
 FormGI is forming the generalized inverse of G from B-inverse, IUseBI=4.
 Internal  Forces:  Max     0.000023424 RMS     0.000010980
 Search for a local minimum.
 Step number   4 out of a maximum of   21
 All quantities printed in internal units (Hartrees-Bohrs-Radians)
 Mixed Optimization -- En-DIIS/RFO-DIIS
 Swapping is turned off.
 Update second derivatives using D2CorX and points    1    2    3    4
 DE= -2.11D-05 DEPred=-2.06D-05 R= 1.02D+00
 TightC=F SS=  1.41D+00  RLast= 2.19D-02 DXNew= 5.0454D-01 6.5732D-02
 Trust test= 1.02D+00 RLast= 2.19D-02 DXMaxT set to 3.00D-01
 The second derivative matrix:
                          R1        R2        R3        R4        A1
           R1           0.37603
           R2           0.01766   0.34708
           R3           0.01771   0.00100   0.34708
           R4           0.01688   0.00131   0.00130   0.34771
           A1           0.02622  -0.00674  -0.00675  -0.00668   0.14523
           A2           0.02639  -0.00675  -0.00676  -0.00669  -0.01481
           A3           0.02582  -0.00650  -0.00651  -0.00641  -0.01478
           A4          -0.01519   0.01183   0.01187   0.01179   0.01961
           A5          -0.03020   0.00378   0.00378   0.00370   0.01178
           A6          -0.03019   0.00377   0.00377   0.00370   0.01178
           D1           0.02606   0.01371   0.01376   0.01383   0.01333
                          A2        A3        A4        A5        A6
           A2           0.14515
           A3          -0.01481   0.14524
           A4           0.01972   0.01980   0.13998
           A5           0.01178   0.01169  -0.01901   0.15248
           A6           0.01178   0.01168  -0.01900  -0.00752   0.15248
           D1           0.01349   0.01383  -0.00335  -0.01871  -0.01870
                          D1
           D1           0.02461
 ITU=  1  1  1  0
     Eigenvalues ---    0.06244   0.15719   0.16000   0.16000   0.16003
     Eigenvalues ---    0.33508   0.34608   0.34613   0.40619
 En-DIIS/RFO-DIIS/Sim-DIIS IScMMF=       -3 using points:     4    3
 RFO step:  Lambda= 0.00000000D+00.
 DidBck=F Rises=F RFO-DIIS coefs:    1.00214   -0.00214
 Iteration  1 RMS(Cart)=  0.00005147 RMS(Int)=  0.00000005
 Iteration  2 RMS(Cart)=  0.00000000 RMS(Int)=  0.00000005
 Variable       Old X    -DE/DX   Delta X   Delta X   Delta X     New X
                                 (Linear)    (Quad)   (Total)
    R1        2.66241  -0.00002   0.00002  -0.00007  -0.00005   2.66236
    R2        2.07567  -0.00000  -0.00001   0.00001   0.00000   2.07567
    R3        2.07567  -0.00000  -0.00001   0.00001   0.00000   2.07567
    R4        2.07560   0.00002  -0.00001   0.00007   0.00007   2.07567
    A1        1.89071  -0.00001  -0.00001  -0.00004  -0.00005   1.89065
    A2        1.89071  -0.00001  -0.00001  -0.00005  -0.00006   1.89065
    A3        1.89063   0.00001  -0.00001   0.00006   0.00005   1.89067
    A4        1.93013   0.00000   0.00001   0.00002   0.00004   1.93016
    A5        1.93017   0.00000   0.00001   0.00001   0.00002   1.93018
    A6        1.93017   0.00000   0.00001   0.00000   0.00001   1.93018
    D1       -2.14411  -0.00001  -0.00003  -0.00003  -0.00007  -2.14418
         Item               Value     Threshold  Converged?
 Maximum Force            0.000023     0.000450     YES
 RMS     Force            0.000011     0.000300     YES
 Maximum Displacement     0.000085     0.001800     YES
 RMS     Displacement     0.000051     0.001200     YES
 Predicted change in Energy=-2.353730D-09
 Optimization completed.
    -- Stationary point found.
                           ----------------------------
                           !   Optimized Parameters   !
                           ! (Angstroms and Degrees)  !
 --------------------------                            --------------------------
 ! Name  Definition              Value          Derivative Info.                !
 --------------------------------------------------------------------------------
 ! R1    R(1,2)                  1.4089         -DE/DX =    0.0                 !
 ! R2    R(2,3)                  1.0984         -DE/DX =    0.0                 !
 ! R3    R(2,4)                  1.0984         -DE/DX =    0.0                 !
 ! R4    R(2,5)                  1.0984         -DE/DX =    0.0                 !
 ! A1    A(1,2,3)              108.3295         -DE/DX =    0.0                 !
 ! A2    A(1,2,4)              108.3299         -DE/DX =    0.0                 !
 ! A3    A(1,2,5)              108.3248         -DE/DX =    0.0                 !
 ! A4    A(3,2,4)              110.5882         -DE/DX =    0.0                 !
 ! A5    A(3,2,5)              110.5904         -DE/DX =    0.0                 !
 ! A6    A(4,2,5)              110.5907         -DE/DX =    0.0                 !
 ! D1    D(3,2,5,4)           -122.8487         -DE/DX =    0.0                 !
 --------------------------------------------------------------------------------
 GradGradGradGradGradGradGradGradGradGradGradGradGradGradGradGradGradGrad

                          Input orientation:                          
 ---------------------------------------------------------------------
 Center     Atomic      Atomic             Coordinates (Angstroms)
 Number     Number       Type             X           Y           Z
 ---------------------------------------------------------------------
      1          9           0        0.478705    3.277771   -0.475910
      2          6           0        1.801550    3.454056   -0.024278
      3          1           0        2.399602    3.853677   -0.854405
      4          1           0        2.189917    2.478048    0.296740
      5          1           0        1.788037    4.160099    0.816983
 ---------------------------------------------------------------------
                    Distance matrix (angstroms):
                    1          2          3          4          5
     1  F    0.000000
     2  C    1.408888   0.000000
     3  H    2.040777   1.098396   0.000000
     4  H    2.040781   1.098396   1.805950   0.000000
     5  H    2.040693   1.098362   1.805947   1.805950   0.000000
 Stoichiometry    CH3F
 Framework group  C1[X(CH3F)]
 Deg. of freedom     9
 Full point group                 C1      NOp   1
 Largest Abelian subgroup         C1      NOp   1
 Largest concise Abelian subgroup C1      NOp   1
                         Standard orientation:                         
 ---------------------------------------------------------------------
 Center     Atomic      Atomic             Coordinates (Angstroms)
 Number     Number       Type             X           Y           Z
 ---------------------------------------------------------------------
      1          9           0       -0.762010    0.000005    0.000008
      2          6           0        0.646878   -0.000003   -0.000007
      3          1           0        0.992309   -0.537647    0.893352
      4          1           0        0.992316    1.042488    0.018920
      5          1           0        0.992195   -0.504861   -0.912297
 ---------------------------------------------------------------------
 Rotational constants (GHZ):         153.7521125          24.9349117          24.9349021

 **********************************************************************

            Population analysis using the SCF density.

 **********************************************************************

 Orbital symmetries:
       Occupied  (A) (A) (A) (A) (A) (A) (A) (A) (A)
       Virtual   (A) (A) (A) (A) (A) (A) (A) (A) (A) (A) (A) (A)
                 (A) (A) (A) (A) (A) (A) (A) (A) (A) (A) (A) (A)
                 (A) (A) (A) (A) (A) (A) (A) (A) (A) (A) (A) (A)
                 (A) (A) (A) (A) (A) (A) (A) (A) (A) (A) (A) (A)
                 (A) (A) (A) (A) (A) (A) (A) (A) (A) (A) (A) (A)
                 (A) (A) (A) (A)
 The electronic state is 1-A.
 Alpha  occ. eigenvalues --  -26.28798 -11.32156  -1.58149  -0.95439  -0.68848
 Alpha  occ. eigenvalues --   -0.68848  -0.66533  -0.53270  -0.53269
 Alpha virt. eigenvalues --    0.03437   0.05788   0.05788   0.08715   0.14498
 Alpha virt. eigenvalues --    0.14498   0.16960   0.25010   0.27393   0.27393
 Alpha virt. eigenvalues --    0.28621   0.28912   0.28912   0.37661   0.41309
 Alpha virt. eigenvalues --    0.41309   0.45195   0.45195   0.50496   0.51119
 Alpha virt. eigenvalues --    0.54080   0.58494   0.58494   0.62558   0.62962
 Alpha virt. eigenvalues --    0.62963   0.69551   0.73909   0.73910   0.93792
 Alpha virt. eigenvalues --    0.93793   0.99942   1.07320   1.30402   1.30402
 Alpha virt. eigenvalues --    1.48022   1.48022   1.59223   1.59224   1.71716
 Alpha virt. eigenvalues --    1.77158   1.77161   1.84671   1.85569   1.91146
 Alpha virt. eigenvalues --    1.91148   2.06441   2.20381   2.20386   2.24232
 Alpha virt. eigenvalues --    2.24237   2.27085   2.36970   2.66113   2.66118
 Alpha virt. eigenvalues --    2.78894   2.86823   2.86825   3.46588   4.98433
 Alpha virt. eigenvalues --    4.98433   5.08214   5.08215   5.11598
          Condensed to atoms (all electrons):
               1          2          3          4          5
     1  F    9.605233   0.040774  -0.024153  -0.024153  -0.024153
     2  C    0.040774   3.894903   0.408813   0.408812   0.408808
     3  H   -0.024153   0.408813   0.907685  -0.102122  -0.102138
     4  H   -0.024153   0.408812  -0.102122   0.907685  -0.102140
     5  H   -0.024153   0.408808  -0.102138  -0.102140   0.907800
 Mulliken charges:
               1
     1  F   -0.573547
     2  C    0.837891
     3  H   -0.088084
     4  H   -0.088083
     5  H   -0.088177
 Sum of Mulliken charges =  -0.00000
 Mulliken charges with hydrogens summed into heavy atoms:
               1
     1  F   -0.573547
     2  C    0.573547
 Electronic spatial extent (au):  <R**2>=             76.7505
 Charge=             -0.0000 electrons
 Dipole moment (field-independent basis, Debye):
    X=              2.1791    Y=             -0.0000    Z=             -0.0000  Tot=              2.1791
 Quadrupole moment (field-independent basis, Debye-Ang):
   XX=            -12.7000   YY=            -11.7591   ZZ=            -11.7591
   XY=              0.0001   XZ=              0.0001   YZ=              0.0000
 Traceless Quadrupole moment (field-independent basis, Debye-Ang):
   XX=             -0.6273   YY=              0.3136   ZZ=              0.3136
   XY=              0.0001   XZ=              0.0001   YZ=              0.0000
 Octapole moment (field-independent basis, Debye-Ang**2):
  XXX=             -4.0688  YYY=              0.7344  ZZZ=             -0.0401  XYY=             -1.0254
  XXY=              0.0001  XXZ=              0.0001  XZZ=             -1.0255  YZZ=             -0.7345
  YYZ=              0.0400  XYZ=             -0.0000
 Hexadecapole moment (field-independent basis, Debye-Ang**3):
 XXXX=            -53.5184 YYYY=            -16.5589 ZZZZ=            -16.5586 XXXY=              0.0001
 XXXZ=              0.0002 YYYX=              0.8369 YYYZ=              0.0001 ZZZX=             -0.0456
 ZZZY=              0.0001 XXYY=            -11.5668 XXZZ=            -11.5670 YYZZ=             -5.5196
 XXYZ=             -0.0001 YYXZ=              0.0456 ZZXY=             -0.8369
 N-N= 3.683464767455D+01 E-N=-4.040751372947D+02  KE= 1.387988647812D+02
 1\1\GINC-N2184\FOpt\RMP2-FC\Aug-CC-pVDZ\C1H3F1\GDS001\24-Nov-2021\0\\#
  mp2/aug-cc-pVDZ opt freq=(vibrot,anharmonic)\\bleh\\0,1\F,0.478705215
 9,3.2777705118,-0.4759101857\C,1.8015498549,3.4540564037,-0.0242775767
 \H,2.3996020012,3.8536766505,-0.8544045564\H,2.1899166045,2.4780480157
 ,0.2967399912\H,1.7880369423,4.1600988218,0.8169834232\\Version=ES64L-
 G16RevA.03\State=1-A\HF=-139.0565876\MP2=-139.4171848\RMSD=7.552e-09\R
 MSF=1.049e-05\Dipole=0.7244473,0.0965438,0.2473355\PG=C01 [X(C1H3F1)]\
 \@


 SACRED COWS MAKE GREAT HAMBURGERS -- ROBERT REISNER
 Job cpu time:       0 days  0 hours  6 minutes 41.7 seconds.
 Elapsed time:       0 days  0 hours  0 minutes 19.6 seconds.
 File lengths (MBytes):  RWF=     72 Int=      0 D2E=      0 Chk=      8 Scr=      8
 Normal termination of Gaussian 16 at Wed Nov 24 20:50:19 2021.
 Link1:  Proceeding to internal job step number  2.
 ----------------------------------------------------------------------
 #N Geom=AllCheck Guess=TCheck SCRF=Check GenChk RMP2(FC)/Aug-CC-pVDZ F
 req
 ----------------------------------------------------------------------
 1/10=4,29=7,30=1,38=21,40=1,80=1/1,6,3;
 2/12=2,40=1/2;
 3/5=16,7=10,11=1,14=-4,25=1,30=1,70=2,71=2,116=1,140=1/1,2,3;
 4/5=101,69=2/1;
 5/5=2,38=6,98=1/2;
 8/6=3,8=1,10=1,19=11,30=-1/1;
 9/15=3,16=-3/6;
 11/6=1,8=1,15=11,17=12,24=-1,27=1,28=-2,29=300,32=6,42=3/1,2,10;
 10/6=2,21=1,60=-2/2;
 8/6=4,8=1,10=1,19=11,30=-1/11,4;
 10/5=1,20=4,60=-2/2;
 11/12=2,14=11,16=1,17=2,28=-2,42=3/2,10,12;
 6/7=2,8=2,9=2,10=2,22=-1/1;
 7/10=1,12=2,25=1,44=2,70=1,71=2/1,2,3,16;
 1/38=20,80=1/6(3);
 7/8=1,25=202,44=-1,70=1,71=1,92=10/16,17;
 1/10=4,30=1,38=20,80=1/3;
 99//99;
 3/5=16,7=10,11=1,14=-2,25=1,30=1,70=5,71=2,116=1,140=1/1,2,3;
 4/5=5,16=3,69=2/1;
 5/5=2,38=5,98=1/2;
 8/6=3,8=1,10=1,19=11,30=-1/1;
 9/15=3,16=-3/6;
 11/6=1,8=1,15=11,17=12,24=-1,27=1,28=-2,29=300,32=6,42=3/1,2,10;
 10/6=2,21=1,60=-2/2;
 8/6=4,8=1,10=1,19=11,30=-1/11,4;
 10/5=1,20=4,60=-2/2;
 11/12=2,14=11,16=1,17=2,28=-2,42=3/2,10,12;
 6/7=2,8=2,9=2,10=2,22=-1/1;
 7/7=1,10=1,12=2,25=1,44=2,70=1,71=1/1,2,3,16;
 1/38=20,80=1/6(-12);
 7/8=1,25=202,44=-1,70=1,71=1,92=10/16,17;
 1/10=4,30=1,38=20,80=1/3;
 99//99;
 Structure from the checkpoint file:  "/gscratch/scrubbed/gds001/Gau-4217.chk"
 ----
 bleh
 ----
 Charge =  0 Multiplicity = 1
 Redundant internal coordinates found in file.  (old form).
 F,0,0.4787052159,3.2777705118,-0.4759101857
 C,0,1.8015498549,3.4540564037,-0.0242775767
 H,0,2.3996020012,3.8536766505,-0.8544045564
 H,0,2.1899166045,2.4780480157,0.2967399912
 H,0,1.7880369423,4.1600988218,0.8169834232
 Recover connectivity data from disk.
 Numerical evaluation of third derivatives.
 Nuclear step= 0.010000 Angstroms, electric field step= 0.000333 atomic units, NStep=1.

 GradGradGradGradGradGradGradGradGradGradGradGradGradGradGradGradGradGrad
 Berny optimization.
 Initialization pass.
                           ----------------------------
                           !    Initial Parameters    !
                           ! (Angstroms and Degrees)  !
 --------------------------                            --------------------------
 ! Name  Definition              Value          Derivative Info.                !
 --------------------------------------------------------------------------------
 ! R1    R(1,2)                  1.4089         calculate D2E/DX2 analytically  !
 ! R2    R(2,3)                  1.0984         calculate D2E/DX2 analytically  !
 ! R3    R(2,4)                  1.0984         calculate D2E/DX2 analytically  !
 ! R4    R(2,5)                  1.0984         calculate D2E/DX2 analytically  !
 ! A1    A(1,2,3)              108.3295         calculate D2E/DX2 analytically  !
 ! A2    A(1,2,4)              108.3299         calculate D2E/DX2 analytically  !
 ! A3    A(1,2,5)              108.3248         calculate D2E/DX2 analytically  !
 ! A4    A(3,2,4)              110.5882         calculate D2E/DX2 analytically  !
 ! A5    A(3,2,5)              110.5904         calculate D2E/DX2 analytically  !
 ! A6    A(4,2,5)              110.5907         calculate D2E/DX2 analytically  !
 ! D1    D(3,2,5,4)           -122.8487         calculate D2E/DX2 analytically  !
 --------------------------------------------------------------------------------
 Trust Radius=3.00D-01 FncErr=1.00D-07 GrdErr=1.00D-07 EigMax=2.50D+02 EigMin=1.00D-04
 Number of steps in this run=      2 maximum allowed number of steps=      2.
 GradGradGradGradGradGradGradGradGradGradGradGradGradGradGradGradGradGrad

                          Input orientation:                          
 ---------------------------------------------------------------------
 Center     Atomic      Atomic             Coordinates (Angstroms)
 Number     Number       Type             X           Y           Z
 ---------------------------------------------------------------------
      1          9           0        0.478705    3.277771   -0.475910
      2          6           0        1.801550    3.454056   -0.024278
      3          1           0        2.399602    3.853677   -0.854405
      4          1           0        2.189917    2.478048    0.296740
      5          1           0        1.788037    4.160099    0.816983
 ---------------------------------------------------------------------
                    Distance matrix (angstroms):
                    1          2          3          4          5
     1  F    0.000000
     2  C    1.408888   0.000000
     3  H    2.040777   1.098396   0.000000
     4  H    2.040781   1.098396   1.805950   0.000000
     5  H    2.040693   1.098362   1.805947   1.805950   0.000000
 Stoichiometry    CH3F
 Framework group  C1[X(CH3F)]
 Deg. of freedom     9
 Full point group                 C1      NOp   1
 Largest Abelian subgroup         C1      NOp   1
 Largest concise Abelian subgroup C1      NOp   1
                         Standard orientation:                         
 ---------------------------------------------------------------------
 Center     Atomic      Atomic             Coordinates (Angstroms)
 Number     Number       Type             X           Y           Z
 ---------------------------------------------------------------------
      1          9           0       -0.762010    0.000005    0.000008
      2          6           0        0.646878   -0.000003   -0.000007
      3          1           0        0.992309   -0.537647    0.893352
      4          1           0        0.992316    1.042488    0.018920
      5          1           0        0.992195   -0.504861   -0.912297
 ---------------------------------------------------------------------
 Rotational constants (GHZ):         153.7521125          24.9349117          24.9349021
 Standard basis: Aug-CC-pVDZ (5D, 7F)
 There are    77 symmetry adapted cartesian basis functions of A   symmetry.
 There are    73 symmetry adapted basis functions of A   symmetry.
    73 basis functions,   119 primitive gaussians,    77 cartesian basis functions
     9 alpha electrons        9 beta electrons
       nuclear repulsion energy        36.8346476746 Hartrees.
 NAtoms=    5 NActive=    5 NUniq=    5 SFac= 1.00D+00 NAtFMM=   60 NAOKFM=F Big=F
 Integral buffers will be    131072 words long.
 Raffenetti 1 integral format.
 Two-electron integral symmetry is turned on.
 One-electron integrals computed using PRISM.
 NBasis=    73 RedAO= T EigKep=  8.39D-04  NBF=    73
 NBsUse=    73 1.00D-06 EigRej= -1.00D+00 NBFU=    73
 Initial guess from the checkpoint file:  "/gscratch/scrubbed/gds001/Gau-4217.chk"
 B after Tr=    -0.000000    0.000000   -0.000000
         Rot=    1.000000   -0.000000   -0.000000   -0.000000 Ang=   0.00 deg.
 Keep R1 ints in memory in canonical form, NReq=9496003.
 Requested convergence on RMS density matrix=1.00D-08 within 128 cycles.
 Requested convergence on MAX density matrix=1.00D-06.
 Requested convergence on             energy=1.00D-06.
 No special actions if energy rises.
 SCF Done:  E(RHF) =  -139.056587596     A.U. after    1 cycles
            NFock=  1  Conv=0.14D-08     -V/T= 2.0019
 ExpMin= 2.97D-02 ExpMax= 1.47D+04 ExpMxC= 5.03D+02 IAcc=3 IRadAn=         5 AccDes= 0.00D+00
 HarFok:  IExCor=  205 AccDes= 0.00D+00 IRadAn=         5 IDoV=-2 UseB2=F ITyADJ=14
 ICtDFT= 12500011 ScaDFX=  1.000000  1.000000  1.000000  1.000000
 Range of M.O.s used for correlation:     3    73
 NBasis=    73 NAE=     9 NBE=     9 NFC=     2 NFV=     0
 NROrb=     71 NOA=     7 NOB=     7 NVA=    64 NVB=    64

 **** Warning!!: The largest alpha MO coefficient is  0.16283585D+02

 Disk-based method using ON**2 memory for  7 occupieds at a time.
 Permanent disk used for amplitudes=      404352 words.
 Estimated scratch disk usage=     5735935 words.
 Actual    scratch disk usage=     5735935 words.
 JobTyp=1 Pass  1:  I=   3 to   9 NPSUse= 28 ParTrn=T ParDer=T DoDerP=T.
 (rs|ai) integrals will be sorted in core.
 Spin components of T(2) and E(2):
     alpha-alpha T2 =       0.1145271006D-01 E2=     -0.4384254704D-01
     alpha-beta  T2 =       0.7206217419D-01 E2=     -0.2729120675D+00
     beta-beta   T2 =       0.1145271006D-01 E2=     -0.4384254704D-01
 ANorm=    0.1046406993D+01
 E2 =    -0.3605971616D+00 EUMP2 =    -0.13941718475742D+03
 G2DrvN: will do     6 centers at a time, making    1 passes.
 Calling FoFCou, ICntrl=  3107 FMM=F I1Cent=   0 AccDes= 0.00D+00.
 End of G2Drv F.D. properties file   721 does not exist.
 End of G2Drv F.D. properties file   722 does not exist.
 End of G2Drv F.D. properties file   788 does not exist.
          IDoAtm=11111
          Differentiating once with respect to electric field.
                with respect to dipole field.
          Differentiating once with respect to nuclear coordinates.
 Keep R1 ints in memory in canonical form, NReq=9496804.
          There are    18 degrees of freedom in the 1st order CPHF.  IDoFFX=6 NUNeed=    18.
     15 vectors produced by pass  0 Test12= 3.20D-15 5.56D-09 XBig12= 3.43D+00 9.51D-01.
 AX will form    15 AO Fock derivatives at one time.
     15 vectors produced by pass  1 Test12= 3.20D-15 5.56D-09 XBig12= 1.78D-01 1.43D-01.
     15 vectors produced by pass  2 Test12= 3.20D-15 5.56D-09 XBig12= 1.32D-02 3.00D-02.
     15 vectors produced by pass  3 Test12= 3.20D-15 5.56D-09 XBig12= 2.96D-04 4.06D-03.
     15 vectors produced by pass  4 Test12= 3.20D-15 5.56D-09 XBig12= 2.73D-06 4.33D-04.
     15 vectors produced by pass  5 Test12= 3.20D-15 5.56D-09 XBig12= 1.31D-08 3.47D-05.
     11 vectors produced by pass  6 Test12= 3.20D-15 5.56D-09 XBig12= 4.23D-11 1.51D-06.
      3 vectors produced by pass  7 Test12= 3.20D-15 5.56D-09 XBig12= 2.96D-13 1.36D-07.
      1 vectors produced by pass  8 Test12= 3.20D-15 5.56D-09 XBig12= 2.02D-15 9.07D-09.
 InvSVY:  IOpt=1 It=  1 EMax= 1.78D-15
 Solved reduced A of dimension   105 with    15 vectors.
 End of Minotr F.D. properties file   721 does not exist.
 End of Minotr F.D. properties file   722 does not exist.
 End of Minotr F.D. properties file   788 does not exist.
 MDV=  5502926848.
 Form MO integral derivatives with frozen-active canonical formalism.
 Discarding MO integrals.
 Reordered first order wavefunction length =       663552
 In DefCFB: NBatch=  1 ICI=  9 ICA= 64 LFMax= 64
            Large arrays: LIAPS=    12950784 LIARS=     7761600 words.
 Semi-Direct transformation.
 ModeAB=           2 MOrb=             9 LenV=    5502649123
 LASXX=      1586970 LTotXX=     1586970 LenRXX=     1586970
 LTotAB=     1651401 MaxLAS=     1972971 LenRXY=     1972971
 NonZer=     3173940 LenScr=     5242880 LnRSAI=           0
 LnScr1=           0 LExtra=           0 Total=      8802821
 MaxDsk=          -1 SrtSym=           F ITran=            4
 JobTyp=0 Pass  1:  I=   1 to   9.
 (rs|ai) integrals will be sorted in core.
 SymMOI:  orbitals are not symmetric.
 Spin components of T(2) and E(2):
     alpha-alpha T2 =       0.1145271006D-01 E2=     -0.4384254704D-01
     alpha-beta  T2 =       0.7206217419D-01 E2=     -0.2729120675D+00
     beta-beta   T2 =       0.1145271006D-01 E2=     -0.4384254704D-01
 ANorm=    0.1479842961D+01
 E2 =    -0.3605971616D+00 EUMP2 =    -0.13941718475742D+03
          IDoAtm=11111
          Differentiating once with respect to electric field.
                with respect to dipole field.
          Differentiating once with respect to nuclear coordinates.
          There are     1 degrees of freedom in the 1st order CPHF.  IDoFFX=0 NUNeed=     1.
 LinEq1:  Iter=  0 NonCon=     1 RMS=6.05D-03 Max=4.69D-02 NDo=     1
 LinEq1:  Iter=  1 NonCon=     1 RMS=1.77D-03 Max=1.21D-02 NDo=     1
 LinEq1:  Iter=  2 NonCon=     1 RMS=2.80D-04 Max=1.82D-03 NDo=     1
 LinEq1:  Iter=  3 NonCon=     1 RMS=6.59D-05 Max=3.42D-04 NDo=     1
 LinEq1:  Iter=  4 NonCon=     1 RMS=1.98D-05 Max=1.45D-04 NDo=     1
 LinEq1:  Iter=  5 NonCon=     1 RMS=3.31D-06 Max=3.41D-05 NDo=     1
 LinEq1:  Iter=  6 NonCon=     1 RMS=4.99D-07 Max=2.89D-06 NDo=     1
 LinEq1:  Iter=  7 NonCon=     1 RMS=6.35D-08 Max=4.21D-07 NDo=     1
 LinEq1:  Iter=  8 NonCon=     1 RMS=6.66D-09 Max=3.93D-08 NDo=     1
 LinEq1:  Iter=  9 NonCon=     1 RMS=7.99D-10 Max=5.59D-09 NDo=     1
 LinEq1:  Iter= 10 NonCon=     0 RMS=7.79D-11 Max=5.33D-10 NDo=     1
 Linear equations converged to 1.000D-10 1.000D-09 after    10 iterations.
 End of Minotr F.D. properties file   721 does not exist.
 End of Minotr F.D. properties file   722 does not exist.
 End of Minotr F.D. properties file   788 does not exist.
 Symmetrizing basis deriv contribution to polar:
 IMax=3 JMax=2 DiffMx= 0.00D+00
 G2DrvN: will do     6 centers at a time, making    1 passes.
 Calling FoFCou, ICntrl=  3107 FMM=F I1Cent=   0 AccDes= 0.00D+00.
 End of G2Drv F.D. properties file   721 does not exist.
 End of G2Drv F.D. properties file   722 does not exist.
 End of G2Drv F.D. properties file   788 does not exist.
 R2 and R3 integrals will be kept in memory, NReq=     9841012.
 DD1Dir will call FoFMem   1 times, MxPair=        90
 NAB=    45 NAA=     0 NBB=     0.
 Discarding MO integrals.

 **********************************************************************

            Population analysis using the MP2 density.

 **********************************************************************

 Orbital symmetries:
       Occupied  (A) (A) (A) (A) (A) (A) (A) (A) (A)
       Virtual   (A) (A) (A) (A) (A) (A) (A) (A) (A) (A) (A) (A)
                 (A) (A) (A) (A) (A) (A) (A) (A) (A) (A) (A) (A)
                 (A) (A) (A) (A) (A) (A) (A) (A) (A) (A) (A) (A)
                 (A) (A) (A) (A) (A) (A) (A) (A) (A) (A) (A) (A)
                 (A) (A) (A) (A) (A) (A) (A) (A) (A) (A) (A) (A)
                 (A) (A) (A) (A)
 The electronic state is 1-A.
 Alpha  occ. eigenvalues --  -26.28798 -11.32156  -1.58149  -0.95439  -0.68848
 Alpha  occ. eigenvalues --   -0.68848  -0.66533  -0.53270  -0.53269
 Alpha virt. eigenvalues --    0.03437   0.05788   0.05788   0.08715   0.14498
 Alpha virt. eigenvalues --    0.14498   0.16960   0.25010   0.27393   0.27393
 Alpha virt. eigenvalues --    0.28621   0.28912   0.28912   0.37661   0.41309
 Alpha virt. eigenvalues --    0.41309   0.45195   0.45195   0.50496   0.51119
 Alpha virt. eigenvalues --    0.54080   0.58494   0.58494   0.62558   0.62962
 Alpha virt. eigenvalues --    0.62963   0.69551   0.73909   0.73910   0.93792
 Alpha virt. eigenvalues --    0.93793   0.99942   1.07320   1.30402   1.30402
 Alpha virt. eigenvalues --    1.48022   1.48022   1.59223   1.59224   1.71716
 Alpha virt. eigenvalues --    1.77158   1.77161   1.84671   1.85569   1.91146
 Alpha virt. eigenvalues --    1.91148   2.06441   2.20381   2.20386   2.24232
 Alpha virt. eigenvalues --    2.24237   2.27085   2.36970   2.66113   2.66118
 Alpha virt. eigenvalues --    2.78894   2.86823   2.86825   3.46588   4.98433
 Alpha virt. eigenvalues --    4.98433   5.08214   5.08215   5.11598
          Condensed to atoms (all electrons):
               1          2          3          4          5
     1  F    9.515832   0.048292  -0.030226  -0.030226  -0.030228
     2  C    0.048292   4.124129   0.335548   0.335548   0.335528
     3  H   -0.030226   0.335548   1.073370  -0.131434  -0.131451
     4  H   -0.030226   0.335548  -0.131434   1.073370  -0.131452
     5  H   -0.030228   0.335528  -0.131451  -0.131452   1.073501
 Mulliken charges:
               1
     1  F   -0.473444
     2  C    0.820954
     3  H   -0.115807
     4  H   -0.115805
     5  H   -0.115897
 Sum of Mulliken charges =  -0.00000
 Mulliken charges with hydrogens summed into heavy atoms:
               1
     1  F   -0.473444
     2  C    0.473444
 APT charges:
               1
     1  F   -0.504345
     2  C    0.554953
     3  H   -0.016871
     4  H   -0.016871
     5  H   -0.016865
 Sum of APT charges =  -0.00000
 APT charges with hydrogens summed into heavy atoms:
               1
     1  F   -0.504345
     2  C    0.504345
 Electronic spatial extent (au):  <R**2>=             77.4323
 Charge=              0.0000 electrons
 Dipole moment (field-independent basis, Debye):
    X=              1.9611    Y=             -0.0000    Z=             -0.0000  Tot=              1.9611
 Quadrupole moment (field-independent basis, Debye-Ang):
   XX=            -12.9216   YY=            -12.1068   ZZ=            -12.1068
   XY=              0.0001   XZ=              0.0001   YZ=              0.0000
 Traceless Quadrupole moment (field-independent basis, Debye-Ang):
   XX=             -0.5432   YY=              0.2716   ZZ=              0.2716
   XY=              0.0001   XZ=              0.0001   YZ=              0.0000
 Octapole moment (field-independent basis, Debye-Ang**2):
  XXX=             -4.4372  YYY=              0.7065  ZZZ=             -0.0386  XYY=             -1.0636
  XXY=              0.0001  XXZ=              0.0001  XZZ=             -1.0637  YZZ=             -0.7066
  YYZ=              0.0385  XYZ=             -0.0000
 Hexadecapole moment (field-independent basis, Debye-Ang**3):
 XXXX=            -55.2855 YYYY=            -17.7166 ZZZZ=            -17.7163 XXXY=              0.0001
 XXXZ=              0.0002 YYYX=              0.7788 YYYZ=              0.0001 ZZZX=             -0.0424
 ZZZY=              0.0001 XXYY=            -12.1677 XXZZ=            -12.1678 YYZZ=             -5.9055
 XXYZ=             -0.0001 YYXZ=              0.0425 ZZXY=             -0.7787
 N-N= 3.683464767455D+01 E-N=-4.036752672707D+02  KE= 1.389436535694D+02
  Exact polarizability:  18.152   0.000  16.173   0.000  -0.000  16.173
 Approx polarizability:  13.881   0.000  12.916   0.000  -0.000  12.916
[...]
 0.00421182,-0.01700369,-0.02417668,0.01791399,0.01455497,0.03059807,0.
 00003013,-0.00317187,0.00405564,-0.02418372,0.01387194,0.06744782,0.01
 408555,-0.00578550,-0.05038098,-0.00952303,0.00064559,-0.00366113,0.01
 155267,0.01397544,0.01225749,0.00018676,0.00029543,-0.00098680,0.00139
 526,0.00118634,-0.00529502,0.00287582,0.01313160,-0.06494184,-0.031971
 78,0.00098582,-0.00224054,0.00019064,-0.00696150,0.04880112,-0.0050350
 5,0.00419914,0.00044159,0.01436598,-0.03668267,0.02232801,-0.00026322,
 0.00013496,0.00140785,-0.00965321,0.02270438,-0.03118022,-0.00061975,-
 0.00146565,0.00178942,0.00414193,0.00589485,-0.01901840,-0.00023067,-0
 .00194808,0.01105484,-0.00361166,-0.00834226,0.00058550,0.00032015,-0.
 00089273,0.00270699,0.00190652,0.00678742,-0.09491050,-0.01993522,-0.0
 0380087,-0.00366095,-0.00510521,-0.00795496,0.02367628,0.00964420,0.00
 586114,0.07218818,0.00075235,-0.00169091,-0.00243877,-0.01825756,-0.00
 994810,0.09001083,0.00987293,-0.00805163,-0.02253033,0.00204365,0.0062
 0094,0.00700276,0.00558863,0.01348970,-0.07204450,0.00576892,-0.003511
 86,0.00009735,-0.00446939,-0.01227579,-0.00588734,-0.00410011,0.003993
 21,0.00472824,-0.03698983,0.00148799,0.00012318,0.00747425,0.07318187,
 0.04235548,0.00185254,0.00794641,0.00403015,0.04732807,-0.16586382,-0.
 00536503,-0.00615085,-0.00338542,0.00047142,0.02579720,-0.02085278,-0.
 02012293,-0.02136382,-0.00081074,0.00224239,-0.00186910,-0.02605977,-0
 .05934344,0.06952022,0.02949141,0.04028689,0.00095153,0.00017620,-0.00
 419871,-0.01975980,0.06241768,0.01603745,0.01984569,-0.04607958,-0.008
 20189,-0.00527653,0.00178785,-0.00452798,0.02229745,-0.03274341,-0.001
 59181,0.00203076,-0.00015640,-0.00817857,-0.02112887,0.00149108,-0.004
 41896,0.00011217,-0.03039681,-0.00335142,0.06900835,-0.00274635,0.0182
 3951,-0.01571957,0.02693421,0.00389204,-0.00236803,-0.00229087,0.00097
 992,-0.00524863,0.07643567,-0.03777089,-0.00642287,-0.01859942,0.01061
 744,0.01543724,-0.05194439,0.02876368,0.00975857,0.00111622,0.00379771
 ,-0.00700470,-0.02107368,-0.02746587,-0.00031328,-0.00246449,0.0071411
 6,0.00207720,0.00471786,-0.00139770,-0.00451779,0.00134352,0.00195604,
 0.00655847,-0.02071850,0.02021620,0.01938885,-0.00250686,-0.00142535,-
 0.00079474,0.00417775,-0.01436117,-0.00360098,0.01770409,-0.00638572,0
 .00403336,0.00644406,0.00507598,-0.02704787,0.01953622,0.02306832,0.00
 622870,-0.00297212,-0.01425429,-0.00113888,-0.00145656,-0.00259015,0.0
 1792470,-0.02155159,-0.01129987,0.01748799,0.00256005,-0.00146284,0.00
 657250,0.00086824,0.00043557,0.01195051,0.00230191,0.00591040,0.075815
 79,0.00234014,-0.00507230,0.00081132,-0.09226026,0.75485196,0.00595628
 ,0.00080438,-0.00334825,-0.23632972,-0.03247140,0.68610614,-0.01020039
 ,-0.00376950,0.00530149,-0.13411721,-0.13317857,0.28446606,0.13433566,
 0.00205142,-0.00066515,-0.00043273,-0.13244672,-0.03523805,0.18948253,
 0.13344721,0.03011591,-0.01351505,-0.00492713,0.00420138,0.28216753,0.
 18895293,-0.33785032,-0.28030823,-0.19252086,0.34454768,-0.01033323,0.
 00854781,-0.00487706,-0.01806646,0.21453458,-0.06607446,0.00780607,-0.
 01349408,0.00304994,0.01908071,-0.01014970,0.00582260,-0.00501743,0.21
 224359,-0.48751006,0.17715022,0.00345697,-0.00344583,-0.00153612,-0.20
 927890,0.49373214,-0.00144838,0.00182250,-0.00215332,-0.06563882,0.177
 96370,-0.00162803,-0.00831182,0.01698439,-0.00192324,0.06778590,-0.178
 35287,-0.00381497,-0.00890488,-0.00964028,-0.01290734,0.06441736,0.008
 56412,0.01198183,0.00217587,0.01044215,0.00860580,0.00151292,0.0037280
 5,0.00761312,-0.05920128,0.00319808,0.00137770,0.00377060,0.01016148,-
 0.22703155,-0.33496574,0.00004388,0.00923312,0.01003118,-0.00030941,-0
 .00859885,-0.01841772,-0.01309404,0.22501958,0.00243464,0.00143201,0.0
 0086463,0.01389061,-0.33525656,-0.34327953,-0.00114751,-0.01351332,-0.
 00897550,0.00011567,0.00775619,0.00951956,-0.01529342,0.33958167,0.341
 87085,-0.00370868,-0.01202835,-0.00020986,0.00975615,-0.00220402,0.003
 91821,0.00509307,-0.00129046,0.00189308,-0.16944501,0.03342973,-0.0060
 6458,0.00991607,-0.50329718,0.64556087,-0.02987001,-0.00617146,0.00097
 179,0.50664987,0.01835813,-0.47610805,0.00848979,0.00392263,-0.0072051
 6,0.18550734,0.17895268,-0.37378889,-0.18760252,-0.00399739,-0.0012997
 8,-0.00112681,0.19348801,0.01507191,-0.24890904,-0.17605688,-0.0195366
 9,0.02051345,0.00584072,-0.00448726,-0.38995115,-0.24343132,0.43602223
 ,0.36932252,0.23717914,-0.42945597,-0.00966405,0.01012265,-0.00511317,
 -0.02432056,0.28390507,-0.09633804,-0.00210823,-0.00716023,0.00508418,
 0.03294643,-0.01712172,0.00699221,-0.00727874,0.30309361,-0.63300228,0
 .22760549,-0.00511370,0.00904302,0.00056084,-0.28370312,0.61937291,-0.
 00066725,0.00319274,-0.00001851,-0.10697960,0.23240261,0.02359649,0.00
 762877,0.00014126,-0.00694705,0.09521080,-0.22039132,-0.01859953,-0.00
 021013,-0.00072646,0.00066910,0.00316515,0.00700969,-0.00665294,-0.004
 28638,-0.00627351,-0.00496900,0.00314640,0.00284493,0.00480728,-0.0018
 1505,-0.00028227,0.00058202,0.00069351,0.00800602,-0.02156591,0.009116
 88,-0.00170474,-0.00327846,-0.00014938,-0.00316436,-0.00240585,-0.0153
 4529,-0.00285465,0.02666820,0.00026767,-0.00065798,-0.00038424,-0.0116
 1220,-0.01724549,0.01551754,0.00404276,0.01271545,0.00486805,0.0011562
 3,-0.00049626,0.00196859,0.00614556,0.00568428,-0.02196994,0.00933192,
 -0.00801327,-0.00200975,-0.00830620,-0.00732085,-0.00734707,-0.0110328
 6,-0.00789946,-0.00959642,0.23835757,0.02393974,0.00132834,0.01808487,
 -0.05884134,0.05564321,0.02816416,0.01224667,0.00969973,-0.16193068,-0
 .86203521,-0.29608590,-0.00468800,-0.00333158,0.00409500,-0.10543420,-
 0.11236794,0.20690517,0.10260514,0.00263370,0.00110877,-0.00057084,-0.
 09900822,-0.02333187,0.15184871,0.10772993,0.03067080,-0.01149928,-0.0
 0369105,0.00204112,0.21760206,0.17072796,-0.23478680,-0.20218186,-0.15
 661613,0.23027077,-0.00526979,0.00617000,-0.00408304,-0.01681493,0.160
 08378,-0.06002969,0.00615320,-0.00926929,0.00402482,0.01628830,-0.0098
 4348,0.00377763,-0.00447819,0.16532386,-0.35944969,0.16796063,0.003854
 72,-0.00220482,0.00077981,-0.15449604,0.35038445,-0.00020533,0.0005157
 4,-0.00006692,-0.04876295,0.14575782,0.00772283,-0.00548907,0.01030214
 ,-0.00083025,0.05700217,-0.15369481,0.00186269,0.01165873,0.01307431,0
 .01789066,-0.10507559,-0.01281425,-0.01310896,0.00136387,-0.00208612,-
 0.00794574,-0.00035678,-0.00483906,-0.00254482,0.09240977,-0.00871669,
 -0.00420499,-0.00571499,0.00042516,0.32581002,0.52997920,0.00411486,-0
 .00624288,-0.01120059,-0.00248846,0.00749243,-0.00288089,0.00666513,-0
 .32285459,-0.00815335,-0.00175051,-0.00432688,0.00268800,0.52746457,0.
 51345013,-0.00332924,-0.00496389,0.00330516,0.00308574,-0.01056744,-0.
 00868835,0.00570885,-0.51018273,-0.50374006,0.30526578,0.04674697,-0.0
 3928332,0.11976074,0.01595943,-0.00462543,-0.29620005,-0.04512311,-0.1
 1559786,0.29316486,-0.04512191,0.03636447,-0.01540763,0.04602747,-0.04
 611830,-0.11559657,-0.01540787,0.00291008,0.11792396,0.01570579,-0.011
 99572,-0.00620416,-0.00293821,0.00297001,0.00538558,0.00414076,-0.0081
 3411,0.00060609,-0.00339585,0.00132993,0.00035515,0.00419049,0.0004619
 6,-0.00282483,-0.00089913,-0.00127543,0.00444721,0.00070834,0.00339571
 ,-0.00829341,-0.00286315,0.00144111,0.00370598,0.00203136,-0.00413877,
 -0.00362758,0.00455830,-0.00298626,0.00149405,-0.00813684,0.00255612,-
 0.00000376,0.00049941,0.00011174,0.00171407,0.00602619,0.00142260,0.00
 235666,-0.00829513,0.00548307,-0.00429857,-0.00010605,-0.00038938,0.00
 042783,0.00238360,-0.00587315,-0.00325610,0.00181945,0.00072629,0.0025
 8560,-0.00424050,0.00031092,0.00064356,0.00059333,-0.00010776,0.000347
 43,0.00186937,-0.00064829,0.00076602,-0.00324395,-0.00414662,-0.003844
 43,0.00309053,0.00325060,0.00021625,-0.00039492,0.00002848,0.00042322,
 -0.00000862,-0.00032048,0.00243895,-0.00425539,0.00016632,-0.00326361,
 0.00320028,0.00380879,0.00682548,-0.00019737,-0.00012708,-0.00030439,0
 .00069553,-0.00064314,-0.00004165,0.00055695,-0.00320489,-0.00535527,-
 0.00307936,-0.00240666,0.00338171,0.00680549,0.00733360,0.00081456,-0.
 00015502,-0.00059030,-0.00002902,-0.00035529,-0.00028116,0.00118802,-0
 .00321583,-0.00405547,0.01722379,-0.00179611,-0.01476094,0.01618994,0.
 00013474,-0.01041974,-0.00173358,0.00322342,-0.01064219,0.01561432,-0.
 01120143,0.02671738,-0.00393293,0.08621070,-0.35678590,0.00001137,0.00
 241158,0.01210049,0.04080008,0.01729408,-0.16982072,-0.00024688,0.0003
 6331,-0.00111908,0.01895799,0.02883414,-0.04474746,-0.01261364,-0.0022
 8996,-0.00174982,-0.00010566,0.02873898,0.01186832,-0.02922016,-0.0285
 9257,-0.00611271,0.00100260,0.00007039,0.00057215,-0.04529120,-0.02773
 921,0.05554270,0.04437636,0.03188644,-0.05511682,-0.01297930,-0.003239
 24,-0.00543813,-0.00487943,-0.11138822,0.01917976,-0.00570561,0.005558
 68,-0.00157852,0.02831402,0.02431410,-0.00643098,0.01047297,-0.1295296
 1,0.23977823,-0.09487257,0.00048951,0.00034441,0.00011543,0.10812042,-
 0.23979059,-0.00920088,-0.00015762,0.00044676,0.02291518,-0.08709861,0
 .00305733,0.00160891,-0.00514290,0.00089918,-0.00966846,0.08497802,-0.
 00014658,-0.00226404,0.00144863,0.00100946,-0.02795929,0.00754481,-0.0
 1524374,-0.00039185,-0.00341512,0.00149077,-0.00474969,-0.00339442,-0.
 00565474,0.03536486,-0.00902659,-0.00377567,-0.00656912,0.01135650,0.0
 7842197,0.10438707,-0.00109438,-0.00435020,-0.00433306,0.00094837,0.00
 609892,0.00742111,-0.00218390,-0.07639502,-0.00800302,-0.00245908,-0.0
 0269967,-0.00778187,0.10147666,0.09912021,-0.00011872,0.00258228,-0.00
 189720,-0.00249464,-0.00069386,-0.00425669,0.01839826,-0.10090601,-0.0
 9026665,0.02001537,0.01091825,-0.01519714,0.00717365,0.00298394,-0.012
 77470,-0.00056156,-0.00901473,-0.00419292,-0.01536160,0.00541558,0.013
 66043,0.00195703,-0.01314686,-0.18140017,-0.01483941,-0.00438841,0.023
 98523,0.14634376,0.00755186,-0.31423316,-0.01766002,-0.00310369,-0.005
 66928,0.05464493,0.05286986,-0.14414686,-0.02584179,-0.00938752,0.0014
 7313,-0.00040525,0.05846710,0.02137994,-0.08793479,-0.04673076,-0.0200
 9087,0.02110330,0.00631867,-0.00180282,-0.16139484,-0.09365982,0.15351
 301,0.14695972,0.08875147,-0.15803899,0.00052355,-0.00085833,0.0007708
 7,0.00038769,-0.03038274,0.01388957,-0.00567571,0.00335081,0.00045887,
 0.00451179,0.00030031,0.00074700,0.00000563,-0.02992118,0.07042498,-0.
 02469910,-0.00089451,0.00099924,0.00075117,0.02871635,-0.07068614,-0.0
 0072990,0.00013400,-0.00172116,0.01339359,-0.02601068,0.00714370,0.003
 40014,-0.00491757,-0.00019973,-0.01406071,0.02734187,-0.00002274,-0.00
 231734,0.00205851,0.00191767,-0.03910946,-0.01475585,-0.00124705,-0.00
 546741,-0.00569962,-0.00712704,0.00025268,0.00179902,-0.00200312,0.046
 64153,-0.00724663,-0.00068345,-0.00454134,-0.00638433,0.07593482,0.109
 47044,-0.00214090,-0.00376144,-0.00216148,-0.00082609,-0.00148508,0.00
 345237,0.01659795,-0.07000486,-0.01270764,-0.00504820,-0.00768655,0.00
 585042,0.11016161,0.12959123,-0.00054371,0.00450615,0.00652853,-0.0010
 5861,-0.00339956,-0.00520007,0.00845954,-0.10621999,-0.12323314,0.0262
 8385,0.00541770,-0.01368277,0.01388608,0.00185102,-0.00966434,-0.02250
 500,-0.00653957,-0.01675310,-0.01206661,-0.00653422,0.02570122,-0.0022
 2158,0.04235619,-0.32433001,-0.01674760,-0.00222267,0.02085776,0.10851
 208,0.01434401,-0.29297248,-0.00308519,0.00063553,-0.00348081,0.062673
 14,0.05557540,-0.12742703,-0.05273609,-0.00409925,-0.00219245,-0.00006
 775,0.05402128,0.02833159,-0.06626290,-0.05133649,-0.02227374,0.011846
 59,0.00359479,-0.00371775,-0.12236158,-0.06503688,0.11072219,0.1178975
 5,0.06329220,-0.10396349,-0.00136221,-0.00396588,0.00068079,0.01124893
 ,-0.10532517,0.02526069,-0.00466805,0.00703489,-0.00256625,-0.00458677
 ,0.01126250,-0.00574335,0.00494382,-0.10029612,0.17356446,-0.06943276,
 -0.00359398,-0.00176869,0.00262908,0.09584521,-0.16338980,-0.00210573,
 -0.00063008,-0.00188956,0.02434702,-0.07129139,0.01690832,0.00615702,0
 .00150618,-0.00043877,-0.02273543,0.06678517,-0.01099189,0.00066856,0.
 00445223,0.00566704,-0.03935046,0.01392780,0.01040186,-0.00218382,-0.0
 0562043,-0.00481632,-0.00063190,-0.00321762,-0.00566288,0.04149762,-0.
 00604673,-0.00408265,-0.00450551,0.01045822,0.09673273,0.12357432,-0.0
 0128046,-0.00209672,-0.00447918,0.00641094,-0.00266263,0.00363013,-0.0
 0954198,-0.08789073,-0.00687935,-0.00259305,-0.00558608,0.00625558,0.1
 2420583,0.14448421,0.00685327,0.00153228,-0.00260217,-0.00063980,-0.00
 492531,-0.00358809,-0.00558970,-0.11821976,-0.13270787,-0.00514398,-0.
 00427684,-0.00458395,-0.00605370,-0.00326158,-0.00762647,0.00305166,-0
 .00218223,-0.00343684,-0.05185906,0.00208273,0.01462506,0.00694246,0.0
 3564230,-0.28975822,0.00209173,0.00622316,0.01653628,0.06052763,-0.116
 30272,-0.30700598,-0.00072800,0.00304219,0.00094829,0.04179651,0.01856
 509,-0.05973990,-0.03652818,-0.00115062,-0.00021834,0.00023811,0.03471
 367,0.03407551,-0.06199109,-0.03131359,-0.02261463,0.00598890,0.000614
 25,-0.00064892,-0.05322293,-0.03286994,0.06077450,0.04708015,0.0541372
 5,-0.05310490,-0.00011226,0.00024573,0.00337107,0.01940503,-0.04573024
 ,0.00486234,-0.00221951,0.00051443,0.00020756,-0.01550471,0.00601663,-
 0.00232943,0.00089051,-0.04673684,0.10498069,-0.03750928,0.00014877,-0
 .00297304,-0.00098870,0.03745223,-0.09477737,-0.00009898,0.00027035,0.
 00030253,0.01700184,-0.07098504,0.02147055,0.00027483,-0.00305602,-0.0
 0293639,-0.01745913,0.05970312,-0.01030694,0.00293256,0.00317115,0.005
 17118,-0.01239413,-0.01055988,-0.00774179,-0.00232083,-0.00276389,-0.0
 0005367,-0.00156855,0.00311921,0.00028144,0.01335095,-0.00267189,-0.00
 749337,-0.00480950,-0.02143690,0.13607697,0.20957994,0.00955754,-0.008
 26951,-0.02089285,0.00751785,-0.00490085,0.01406759,0.00703341,-0.1154
 1324,-0.00192795,-0.00384617,-0.00856343,-0.02086969,0.21321525,0.2082
 2465,0.01143663,0.01067175,-0.00408429,0.00901817,-0.02209565,-0.00852
 975,0.00234284,-0.19794519,-0.18704718,-0.01385400,0.00268839,-0.00268
 018,0.00197923,0.00271878,-0.00081650,0.00878102,-0.00016929,-0.002589
 84,-0.10119311,-0.00443960,0.01454488,-0.00775808,0.02427449,-0.304538
 52,-0.00812515,-0.00703772,0.01088396,0.09290940,0.13682332,-0.2428512
 0,0.00030759,-0.00273352,0.00065661,0.07599380,0.07598141,-0.13940295,
 -0.07826613,-0.00265202,-0.00479706,0.00077175,0.05336516,0.00747759,-
 0.06919992,-0.06103807,0.01039582,0.00888761,0.00356406,-0.00515650,-0
 .12505687,-0.09334887,0.18952017,0.12546248,0.07037493,-0.16787634,0.0
 0226931,-0.00046301,-0.00115437,0.01985152,-0.10736116,0.04492585,0.00
 105017,0.01536368,-0.00604421,-0.02343530,0.00695512,-0.00702571,0.004
 87757,-0.08561841,0.24591110,-0.07893375,-0.01360976,-0.00972526,0.020
 19905,0.09589628,-0.22082147,-0.00010782,0.00067550,-0.00434582,0.0289
 7319,-0.05302894,-0.00197884,0.01300951,-0.01335904,-0.00839881,-0.038
 93719,0.05579884,0.01685034,0.00249609,0.00067743,0.00110836,-0.003433
 23,0.01154485,0.00969285,0.00091457,-0.00503875,-0.00324901,0.00026430
 ,-0.00362323,-0.00293769,-0.00024173,-0.00255189,-0.00004194,-0.000610
 03,0.00814805,0.03660496,0.01834808,0.00139993,-0.00335108,-0.00078917
 ,-0.00343580,-0.00833865,0.00991365,-0.00356029,-0.02487329,-0.0026338
 8,0.00007938,-0.00056513,0.00576412,0.01731258,0.04442592,0.00027435,0
 .01141228,-0.00808851,0.00120992,-0.00194172,-0.00212687,-0.00461451,-
 0.02686252,-0.03364541,-0.00863517,-0.00105566,-0.00077815,-0.00271743
 ,-0.00035438,-0.00156097,0.00972692,0.00104497,0.00271201,-0.12006299,
 0.00108511,0.00183570,0.00036776,-0.15561652,1.02441473,0.00276020,0.0
 0036048,0.00262680,-0.39871509,-0.05641103,0.90785690,0.00139904,-0.00
 018320,0.00375160,-0.14051974,-0.22884460,0.48883873,0.12683241,0.0040
 4557,-0.00181540,0.00026547,-0.22530818,0.02907980,0.32799982,0.224401
 77,-0.03948436,-0.00990339,-0.00299527,-0.00065570,0.47752934,0.325341
 29,-0.49842447,-0.47707029,-0.32851260,0.49874202,-0.00022576,0.003598
 21,0.00024394,0.05718920,0.36737154,-0.11390101,0.00888165,-0.01460954
 ,0.00276064,-0.06768884,-0.00997131,0.00097035,-0.00431799,0.35612001,
 -0.75430860,0.30246525,0.00493164,0.00189432,-0.00682291,-0.35332902,0
 .75223395,0.00273637,0.00064418,-0.00181642,-0.11181096,0.30652887,0.0
 8725819,-0.01048165,0.01358036,0.00166380,0.11126844,-0.30294256,-0.09
 845838,-0.00226503,-0.00340433,-0.00399011,0.19366662,0.01600446,0.021
 01717,0.00340665,0.01147039,0.00668370,0.00184375,0.00224868,0.0082877
 9,-0.19665199,0.00589630,-0.00021251,0.00403913,0.02375972,-0.30102163
 ,-0.57441452,-0.00030562,0.01032565,0.01298949,-0.00303119,-0.00079002
 ,-0.01781085,-0.02631921,0.29169852,0.00712425,0.00234499,0.00140628,0
 .03028470,-0.57582689,-0.49931741,-0.00503838,-0.01333305,-0.00132565,
 -0.00037201,0.01161821,0.01135281,-0.03199855,0.57519675,0.48788397,-0
 .02768382,-0.00231089,0.00398865,-0.00815024,0.00170813,0.00275423,0.0
 3020270,-0.00205800,0.00431510,0.20049508,0.01086424,-0.00831152,0.001
 32872,-0.26497769,1.11317256,0.01999385,-0.00099369,-0.00535891,-0.643
 42256,-1.02522872,0.59775158,0.00009081,0.00011449,0.00362772,-0.28783
 203,-0.40238782,0.84623643,0.28984059,0.00536610,0.00172540,0.00313416
 ,-0.39908100,0.11352333,0.51994656,0.39309194,-0.11875309,-0.01465303,
 -0.00299565,-0.00028302,0.84631244,0.52747066,-0.78403828,-0.83989201,
 -0.51098063,0.78090797,-0.00239128,0.00344081,-0.00049354,0.06738804,0
 .66025939,-0.21896900,-0.00744351,-0.00163574,0.00610655,-0.06199213,-
 0.01420948,0.00179282,-0.00556584,0.65842142,-1.21126218,0.49607315,0.
 01017792,0.00248554,-0.01275224,-0.65610639,1.20179549,0.00272451,0.00
 280705,0.00213011,-0.21702943,0.48823748,0.19398545,-0.00225753,-0.002
 64402,0.00079205,0.21482976,-0.47816641,-0.19638461,-0.00021843,0.0008
 1359,0.00070097,-0.01025378,-0.00375812,-0.00383872,0.00534414,0.00225
 869,0.00212604,0.00443887,0.00171654,0.00173269,0.00068919,0.00029003,
 0.00080463,-0.00060517,0.00769526,-0.00712218,0.01020270,-0.00099653,0
 .00101883,-0.00074214,-0.00595807,0.00518833,-0.01023409,-0.00103070,0
 .00011040,0.00008491,-0.00052584,0.00075758,0.00982445,0.00819186,-0.0
 0233984,-0.00771462,-0.00945606,0.00262127,-0.00147376,0.00041133,-0.0
 0052300,-0.00072098,0.00137871,-0.00051601,-0.02309727,-0.00558853,0.0
 0338974,-0.01207652,-0.00440943,-0.00123202,0.02818637,0.01223727,0.02
 172309,-0.42953407,-0.00073159,-0.00811200,0.00213213,-0.05690422,1.03
 145324,0.00598922,0.00446306,-0.00353730,-0.18082746,0.91917069,1.3096
 6328,0.00111569,-0.00169383,0.00059264,-0.08729283,-0.14116792,0.26247
 489,0.08315944,0.00049488,0.00136642,-0.00097695,-0.14134087,-0.001684
 29,0.20443526,0.14693590,0.00036585,-0.00520108,-0.00060037,-0.0010738
 1,0.25212731,0.19441082,-0.23687217,-0.25541571,-0.20765543,0.22718377
 ,0.00064993,0.00089654,-0.00180080,0.02516744,0.20596298,-0.07605428,0
 .00603730,-0.00572499,0.00373783,-0.03023997,-0.00537357,0.00007613,-0
 .00151177,0.19760917,-0.39548194,0.19681321,0.00381438,0.00329161,0.00
 191628,-0.19972137,0.38827359,-0.00063880,-0.00112943,0.00068413,-0.07
 615611,0.20843443,0.03600535,-0.00393563,0.00382014,0.00409300,0.08012
 203,-0.21246770,-0.03874672,-0.00685472,-0.00585144,-0.00843841,0.4634
 7309,-0.00715925,-0.01158237,-0.00301961,-0.00036492,0.00475164,-0.001
 61470,0.00367140,0.00060851,-0.45198407,0.01119882,0.00327970,0.004766
 02,-0.01160136,-0.62617501,-1.32488221,-0.00788853,-0.00333959,0.01192
 870,-0.00141316,0.00384062,0.00134255,0.00970422,0.62239427,0.01192718
 ,0.00167618,0.00515901,-0.01686684,-1.32414808,-1.10525916,-0.00371619
 ,0.00037698,0.00666922,-0.00600479,0.01524999,-0.00203576,0.01466063,1
 .30684493,1.09546670\\@


 TRUTH, IN SCIENCE, CAN BE DEFINED AS THE WORKING HYPOTHESIS 
 BEST FITTED TO OPEN THE WAY TO THE NEXT BETTER ONE.

                              -- KONRAD LORENZ
 Job cpu time:       0 days  2 hours 28 minutes 36.0 seconds.
 Elapsed time:       0 days  0 hours  5 minutes 40.3 seconds.
 File lengths (MBytes):  RWF=    280 Int=      0 D2E=      0 Chk=     44 Scr=      8
 Normal termination of Gaussian 16 at Wed Nov 24 20:56:09 2021.
