 Entering Gaussian System, Link 0=g16
 Input=fme_mp2_avtz_opt_anharm.gjf
 Output=fme_mp2_avtz_opt_anharm.log
 Initial command:
 /sw/contrib/gaussian/g16/A03/g16/l1.exe "/gscratch/scrubbed/gds001/Gau-24071.inp" -scrdir="/gscratch/scrubbed/gds001/"
 Entering Link 1 = /sw/contrib/gaussian/g16/A03/g16/l1.exe PID=     24072.
  
 Copyright (c) 1988,1990,1992,1993,1995,1998,2003,2009,2016,
            Gaussian, Inc.  All Rights Reserved.
  
 This is part of the Gaussian(R) 16 program.  It is based on
 the Gaussian(R) 09 system (copyright 2009, Gaussian, Inc.),
 the Gaussian(R) 03 system (copyright 2003, Gaussian, Inc.),
 the Gaussian(R) 98 system (copyright 1998, Gaussian, Inc.),
 the Gaussian(R) 94 system (copyright 1995, Gaussian, Inc.),
 the Gaussian 92(TM) system (copyright 1992, Gaussian, Inc.),
 the Gaussian 90(TM) system (copyright 1990, Gaussian, Inc.),
 the Gaussian 88(TM) system (copyright 1988, Gaussian, Inc.),
 the Gaussian 86(TM) system (copyright 1986, Carnegie Mellon
 University), and the Gaussian 82(TM) system (copyright 1983,
 Carnegie Mellon University). Gaussian is a federally registered
 trademark of Gaussian, Inc.
  
 This software contains proprietary and confidential information,
 including trade secrets, belonging to Gaussian, Inc.
  
 This software is provided under written license and may be
 used, copied, transmitted, or stored only in accord with that
 written license.
  
 The following legend is applicable only to US Government
 contracts under FAR:
  
                    RESTRICTED RIGHTS LEGEND
  
 Use, reproduction and disclosure by the US Government is
 subject to restrictions as set forth in subparagraphs (a)
 and (c) of the Commercial Computer Software - Restricted
 Rights clause in FAR 52.227-19.
  
 Gaussian, Inc.
 340 Quinnipiac St., Bldg. 40, Wallingford CT 06492
  
  
 ---------------------------------------------------------------
 Warning -- This program may not be used in any manner that
 competes with the business of Gaussian, Inc. or will provide
 assistance to any competitor of Gaussian, Inc.  The licensee
 of this program is prohibited from giving any competitor of
 Gaussian, Inc. access to this program.  By using this program,
 the user acknowledges that Gaussian, Inc. is engaged in the
 business of creating and licensing software in the field of
 computational chemistry and represents and warrants to the
 licensee that it is not a competitor of Gaussian, Inc. and that
 it will not use this program in any manner prohibited above.
 ---------------------------------------------------------------
  

 Cite this work as:
 Gaussian 16, Revision A.03,
 M. J. Frisch, G. W. Trucks, H. B. Schlegel, G. E. Scuseria, 
 M. A. Robb, J. R. Cheeseman, G. Scalmani, V. Barone, 
 G. A. Petersson, H. Nakatsuji, X. Li, M. Caricato, A. V. Marenich, 
 J. Bloino, B. G. Janesko, R. Gomperts, B. Mennucci, H. P. Hratchian, 
 J. V. Ortiz, A. F. Izmaylov, J. L. Sonnenberg, D. Williams-Young, 
 F. Ding, F. Lipparini, F. Egidi, J. Goings, B. Peng, A. Petrone, 
 T. Henderson, D. Ranasinghe, V. G. Zakrzewski, J. Gao, N. Rega, 
 G. Zheng, W. Liang, M. Hada, M. Ehara, K. Toyota, R. Fukuda, 
 J. Hasegawa, M. Ishida, T. Nakajima, Y. Honda, O. Kitao, H. Nakai, 
 T. Vreven, K. Throssell, J. A. Montgomery, Jr., J. E. Peralta, 
 F. Ogliaro, M. J. Bearpark, J. J. Heyd, E. N. Brothers, K. N. Kudin, 
 V. N. Staroverov, T. A. Keith, R. Kobayashi, J. Normand, 
 K. Raghavachari, A. P. Rendell, J. C. Burant, S. S. Iyengar, 
 J. Tomasi, M. Cossi, J. M. Millam, M. Klene, C. Adamo, R. Cammi, 
 J. W. Ochterski, R. L. Martin, K. Morokuma, O. Farkas, 
 J. B. Foresman, and D. J. Fox, Gaussian, Inc., Wallingford CT, 2016.
 
 ******************************************
 Gaussian 16:  ES64L-G16RevA.03 25-Dec-2016
                20-Dec-2021 
 ******************************************
 %nprocshared=28
 Will use up to   28 processors via shared memory.
 %mem=41GB
 ----------------------------------------------
 # MP2/aug-cc-pVTZ opt freq=(vibrot,anharmonic)
 ----------------------------------------------
 1/18=20,19=15,38=1,80=1/1,3;
 2/9=110,12=2,17=6,18=5,40=1/2;
 3/5=16,6=1,7=10,11=9,25=1,30=1,71=1/1,2,3;
 4//1;
 5/5=2,38=5/2;
 8/6=4,10=1/1;
 9/15=2,16=-3/6;
 10/5=1/2;
 6/7=2,8=2,9=2,10=2/1;
 7/12=2/1,2,3,16;
 1/18=20,19=15,80=1/3(2);
 2/9=110/2;
 99//99;
 2/9=110/2;
 3/5=16,6=1,7=10,11=9,25=1,30=1,71=1/1,2,3;
 4/5=5,16=3,69=1/1;
 5/5=2,38=5/2;
 8/6=4,10=1/1;
 9/15=2,16=-3/6;
 10/5=1/2;
 7/12=2/1,2,3,16;
 1/18=20,19=15,80=1/3(-8);
 2/9=110/2;
 6/7=2,8=2,9=2,10=2/1;
 99//99;
 ----
 bleh
 ----
 Symbolic Z-matrix:
 Charge =  0 Multiplicity = 1
 F
 C                    1    R1
 H                    2    R2       1    A1
 H                    2    R2       1    A1       3     120.     0
 H                    2    R2       1    A1       3    -120.     0
       Variables:
  R1                    1.5                      
  R2                    1.                       
  A1                  110.                       
 

 GradGradGradGradGradGradGradGradGradGradGradGradGradGradGradGradGradGrad
 Berny optimization.
 Initialization pass.
                           ----------------------------
                           !    Initial Parameters    !
                           ! (Angstroms and Degrees)  !
 --------------------------                            --------------------------
 ! Name  Definition              Value          Derivative Info.                !
 --------------------------------------------------------------------------------
 ! R1    R(1,2)                  1.5            estimate D2E/DX2                !
 ! R2    R(2,3)                  1.0            estimate D2E/DX2                !
 ! R3    R(2,4)                  1.0            estimate D2E/DX2                !
 ! R4    R(2,5)                  1.0            estimate D2E/DX2                !
 ! A1    A(1,2,3)              110.0            estimate D2E/DX2                !
 ! A2    A(1,2,4)              110.0            estimate D2E/DX2                !
 ! A3    A(1,2,5)              110.0            estimate D2E/DX2                !
 ! A4    A(3,2,4)              108.9373         estimate D2E/DX2                !
 ! A5    A(3,2,5)              108.9373         estimate D2E/DX2                !
 ! A6    A(4,2,5)              108.9373         estimate D2E/DX2                !
 ! D1    D(3,2,5,4)            118.7153         estimate D2E/DX2                !
 --------------------------------------------------------------------------------
 Trust Radius=3.00D-01 FncErr=1.00D-07 GrdErr=1.00D-07 EigMax=2.50D+02 EigMin=1.00D-04
 Number of steps in this run=     21 maximum allowed number of steps=    100.
 GradGradGradGradGradGradGradGradGradGradGradGradGradGradGradGradGradGrad

                          Input orientation:                          
 ---------------------------------------------------------------------
 Center     Atomic      Atomic             Coordinates (Angstroms)
 Number     Number       Type             X           Y           Z
 ---------------------------------------------------------------------
      1          9           0        0.000000    0.000000    0.000000
      2          6           0        0.000000    0.000000    1.500000
      3          1           0        0.939693    0.000000    1.842020
      4          1           0       -0.469846    0.813798    1.842020
      5          1           0       -0.469846   -0.813798    1.842020
 ---------------------------------------------------------------------
                    Distance matrix (angstroms):
                    1          2          3          4          5
     1  F    0.000000
     2  C    1.500000   0.000000
     3  H    2.067864   1.000000   0.000000
     4  H    2.067864   1.000000   1.627595   0.000000
     5  H    2.067864   1.000000   1.627595   1.627595   0.000000
 Stoichiometry    CH3F
 Framework group  C3V[C3(CF),3SGV(H)]
 Deg. of freedom     3
 Full point group                 C3V     NOp   6
 Largest Abelian subgroup         CS      NOp   2
 Largest concise Abelian subgroup CS      NOp   2
                         Standard orientation:                         
 ---------------------------------------------------------------------
 Center     Atomic      Atomic             Coordinates (Angstroms)
 Number     Number       Type             X           Y           Z
 ---------------------------------------------------------------------
      1          9           0        0.000000    0.000000    0.807003
      2          6           0        0.000000    0.000000   -0.692997
      3          1           0        0.000000    0.939693   -1.035017
      4          1           0        0.813798   -0.469846   -1.035017
      5          1           0       -0.813798   -0.469846   -1.035017
 ---------------------------------------------------------------------
 Rotational constants (GHZ):         189.2950114          22.6977667          22.6977667
 Standard basis: Aug-CC-pVTZ (5D, 7F)
 There are   117 symmetry adapted cartesian basis functions of A'  symmetry.
 There are    68 symmetry adapted cartesian basis functions of A"  symmetry.
 There are    99 symmetry adapted basis functions of A'  symmetry.
 There are    62 symmetry adapted basis functions of A"  symmetry.
   161 basis functions,   225 primitive gaussians,   185 cartesian basis functions
     9 alpha electrons        9 beta electrons
       nuclear repulsion energy        36.4603961725 Hartrees.
 NAtoms=    5 NActive=    5 NUniq=    3 SFac= 2.78D+00 NAtFMM=   60 NAOKFM=F Big=F
 Integral buffers will be    131072 words long.
 Raffenetti 1 integral format.
 Two-electron integral symmetry is turned on.
 One-electron integrals computed using PRISM.
 NBasis=   161 RedAO= T EigKep=  6.48D-05  NBF=    99    62
 NBsUse=   161 1.00D-06 EigRej= -1.00D+00 NBFU=    99    62
 ExpMin= 2.53D-02 ExpMax= 1.95D+04 ExpMxC= 6.65D+02 IAcc=3 IRadAn=         5 AccDes= 0.00D+00
 Harris functional with IExCor=  205 and IRadAn=       5 diagonalized for initial guess.
 HarFok:  IExCor=  205 AccDes= 0.00D+00 IRadAn=         5 IDoV= 1 UseB2=F ITyADJ=14
 ICtDFT=  3500011 ScaDFX=  1.000000  1.000000  1.000000  1.000000
 FoFCou: FMM=F IPFlag=           0 FMFlag=      100000 FMFlg1=           0
         NFxFlg=           0 DoJE=T BraDBF=F KetDBF=T FulRan=T
         wScrn=  0.000000 ICntrl=       500 IOpCl=  0 I1Cent=   200000004 NGrid=           0
         NMat0=    1 NMatS0=      1 NMatT0=    0 NMatD0=    1 NMtDS0=    0 NMtDT0=    0
 Petite list used in FoFCou.
 Initial guess orbital symmetries:
       Occupied  (A1) (A1) (A1) (A1) (E) (E) (A1) (E) (E)
       Virtual   (A1) (A1) (E) (E) (A1) (E) (E) (A1) (E) (E) (A1)
                 (E) (E) (A1) (E) (E) (A1) (E) (E) (A2) (A1) (E)
                 (E) (A1) (E) (E) (A1) (E) (E) (E) (E) (A1) (A1)
                 (E) (E) (E) (E) (A2) (A1) (E) (E) (A1) (E) (E)
                 (E) (E) (A1) (E) (E) (A2) (E) (E) (A1) (E) (E)
                 (A1) (E) (E) (A1) (A1) (E) (E) (E) (E) (A1) (A2)
                 (E) (E) (A1) (E) (E) (E) (E) (A2) (E) (E) (A1)
                 (E) (E) (A1) (A1) (A1) (A1) (E) (E) (E) (E) (A1)
                 (A2) (E) (E) (E) (E) (E) (E) (A1) (E) (E) (A1)
                 (A2) (E) (E) (E) (E) (E) (E) (A1) (E) (E) (A2)
                 (A1) (E) (E) (A1) (A1) (E) (E) (E) (E) (A1) (A2)
                 (E) (E) (E) (E) (A1) (E) (E) (A1) (A2) (E) (E)
                 (A1) (E) (E) (E) (E) (A1) (A1) (A2) (E) (E) (E)
                 (E) (A1) (E) (E) (E) (E) (A1) (A1) (A1)
 The electronic state of the initial guess is 1-A1.
 Keep R1 ints in memory in symmetry-blocked form, NReq=127739619.
 Requested convergence on RMS density matrix=1.00D-08 within 128 cycles.
 Requested convergence on MAX density matrix=1.00D-06.
 Requested convergence on             energy=1.00D-06.
 No special actions if energy rises.
 SCF Done:  E(RHF) =  -139.070959438     A.U. after   10 cycles
            NFock= 10  Conv=0.55D-08     -V/T= 1.9992
 ExpMin= 2.53D-02 ExpMax= 1.95D+04 ExpMxC= 6.65D+02 IAcc=3 IRadAn=         5 AccDes= 0.00D+00
 HarFok:  IExCor=  205 AccDes= 0.00D+00 IRadAn=         5 IDoV=-2 UseB2=F ITyADJ=14
 ICtDFT= 12500011 ScaDFX=  1.000000  1.000000  1.000000  1.000000
 Range of M.O.s used for correlation:     3   161
 NBasis=   161 NAE=     9 NBE=     9 NFC=     2 NFV=     0
 NROrb=    159 NOA=     7 NOB=     7 NVA=   152 NVB=   152

 **** Warning!!: The largest alpha MO coefficient is  0.41567643D+02

 Fully direct method using O(ONN) memory.
 JobTyp=1 Pass  1:  I=   3 to   9 NPSUse= 28 ParTrn=T ParDer=T DoDerP=T.
 Spin components of T(2) and E(2):
     alpha-alpha T2 =       0.1225447741D-01 E2=     -0.5223139726D-01
     alpha-beta  T2 =       0.7703720832D-01 E2=     -0.3418882770D+00
     beta-beta   T2 =       0.1225447741D-01 E2=     -0.5223139726D-01
 ANorm=    0.1049545694D+01
 E2 =    -0.4463510715D+00 EUMP2 =    -0.13951731050956D+03
          IDoAtm=11111
          Differentiating once with respect to electric field.
                with respect to dipole field.
          Differentiating once with respect to nuclear coordinates.
 Keep R1 ints in memory in symmetry-blocked form, NReq=127740709.
          There are     1 degrees of freedom in the 1st order CPHF.  IDoFFX=0 NUNeed=     1.
 LinEq1:  Iter=  0 NonCon=     1 RMS=4.00D-03 Max=4.06D-02 NDo=     1
 AX will form     1 AO Fock derivatives at one time.
 LinEq1:  Iter=  1 NonCon=     1 RMS=1.01D-03 Max=9.96D-03 NDo=     1
 LinEq1:  Iter=  2 NonCon=     1 RMS=2.27D-04 Max=2.03D-03 NDo=     1
 LinEq1:  Iter=  3 NonCon=     1 RMS=8.51D-05 Max=6.94D-04 NDo=     1
 LinEq1:  Iter=  4 NonCon=     1 RMS=1.36D-05 Max=1.10D-04 NDo=     1
 LinEq1:  Iter=  5 NonCon=     1 RMS=1.72D-06 Max=1.48D-05 NDo=     1
 LinEq1:  Iter=  6 NonCon=     1 RMS=2.67D-07 Max=2.47D-06 NDo=     1
 LinEq1:  Iter=  7 NonCon=     1 RMS=3.60D-08 Max=3.23D-07 NDo=     1
 LinEq1:  Iter=  8 NonCon=     1 RMS=7.06D-09 Max=8.46D-08 NDo=     1
 LinEq1:  Iter=  9 NonCon=     1 RMS=1.07D-09 Max=1.04D-08 NDo=     1
 LinEq1:  Iter= 10 NonCon=     1 RMS=1.13D-10 Max=8.36D-10 NDo=     1
 LinEq1:  Iter= 11 NonCon=     0 RMS=9.63D-12 Max=9.29D-11 NDo=     1
 Linear equations converged to 1.000D-10 1.000D-09 after    11 iterations.
 End of Minotr F.D. properties file   721 does not exist.
 End of Minotr F.D. properties file   722 does not exist.
 End of Minotr F.D. properties file   788 does not exist.

 **********************************************************************

            Population analysis using the SCF density.

 **********************************************************************

 Orbital symmetries:
       Occupied  (A1) (A1) (A1) (A1) (E) (E) (A1) (E) (E)
       Virtual   (A1) (E) (E) (A1) (E) (E) (A1) (A1) (E) (E) (A1)
                 (E) (E) (A1) (E) (E) (E) (E) (A2) (A1) (E) (E)
                 (A1) (A1) (E) (E) (A1) (E) (E) (E) (E) (A1) (A1)
                 (E) (E) (E) (E) (A2) (A1) (E) (E) (A1) (E) (E)
                 (E) (E) (E) (E) (A1) (A2) (E) (E) (A1) (E) (E)
                 (A1) (E) (E) (A1) (E) (E) (A1) (A2) (E) (E) (E)
                 (E) (A1) (A1) (E) (E) (E) (E) (A2) (E) (E) (A1)
                 (E) (E) (A1) (A1) (A1) (E) (E) (A1) (E) (E) (A2)
                 (A1) (E) (E) (E) (E) (E) (E) (A1) (E) (E) (A1)
                 (A2) (E) (E) (E) (E) (E) (E) (A1) (E) (E) (A2)
                 (A1) (E) (E) (A1) (A1) (E) (E) (E) (E) (A1) (A2)
                 (E) (E) (E) (E) (A1) (E) (E) (A2) (A1) (E) (E)
                 (A1) (E) (E) (E) (E) (A1) (A1) (A2) (E) (E) (A1)
                 (E) (E) (E) (E) (E) (E) (A1) (A1) (A1)
 The electronic state is 1-A1.
 Alpha  occ. eigenvalues --  -26.26561 -11.28871  -1.54054  -0.99658  -0.68023
 Alpha  occ. eigenvalues --   -0.68023  -0.64293  -0.55999  -0.55999
 Alpha virt. eigenvalues --    0.02677   0.04511   0.04511   0.07364   0.12460
 Alpha virt. eigenvalues --    0.12460   0.13702   0.19561   0.21014   0.21014
 Alpha virt. eigenvalues --    0.21938   0.22438   0.22438   0.32216   0.32296
 Alpha virt. eigenvalues --    0.32296   0.33306   0.33306   0.34942   0.38092
 Alpha virt. eigenvalues --    0.38897   0.38897   0.39390   0.42243   0.45654
 Alpha virt. eigenvalues --    0.45654   0.48221   0.52523   0.52523   0.66647
 Alpha virt. eigenvalues --    0.66647   0.72125   0.78863   0.81404   0.81404
 Alpha virt. eigenvalues --    0.86241   0.86241   0.89080   0.93545   0.95310
 Alpha virt. eigenvalues --    0.95310   0.98666   1.02465   1.02465   1.03603
 Alpha virt. eigenvalues --    1.03603   1.06522   1.06522   1.06732   1.08709
 Alpha virt. eigenvalues --    1.18457   1.18457   1.22908   1.25200   1.25200
 Alpha virt. eigenvalues --    1.26128   1.26872   1.26872   1.36564   1.54748
 Alpha virt. eigenvalues --    1.54748   1.55473   1.63039   1.63958   1.63958
 Alpha virt. eigenvalues --    1.68115   1.68115   1.69719   1.71627   1.74061
 Alpha virt. eigenvalues --    1.74061   1.92524   1.92524   1.92754   2.05906
 Alpha virt. eigenvalues --    2.05906   2.16151   2.20194   2.20194   2.60152
 Alpha virt. eigenvalues --    2.76838   2.84968   2.94623   2.94623   2.96996
 Alpha virt. eigenvalues --    3.05267   3.05267   3.14175   3.14675   3.20610
 Alpha virt. eigenvalues --    3.20610   3.41782   3.41782   3.44347   3.44347
 Alpha virt. eigenvalues --    3.51697   3.56576   3.56576   3.58101   3.61465
 Alpha virt. eigenvalues --    3.70228   3.70228   3.93473   3.93473   4.01041
 Alpha virt. eigenvalues --    4.01041   4.12754   4.15381   4.15381   4.17058
 Alpha virt. eigenvalues --    4.35529   4.39535   4.39535   4.57595   4.76597
 Alpha virt. eigenvalues --    4.78632   4.78632   4.82717   4.82717   4.96792
 Alpha virt. eigenvalues --    5.03734   5.15221   5.15221   5.35095   5.35095
 Alpha virt. eigenvalues --    5.46133   5.70700   5.70700   5.77019   5.81427
 Alpha virt. eigenvalues --    5.92903   5.92903   6.22915   6.44641   6.44641
 Alpha virt. eigenvalues --    6.65109   6.65109   6.87684   8.94459   8.96995
 Alpha virt. eigenvalues --    9.18324   9.18324   9.35063   9.43592   9.43592
 Alpha virt. eigenvalues --    9.45185   9.45185   9.71067   9.71067   9.85963
 Alpha virt. eigenvalues --   14.80781  18.55423
          Condensed to atoms (all electrons):
               1          2          3          4          5
     1  F    9.365936  -0.045399   0.046265   0.046265   0.046265
     2  C   -0.045399   5.518666   0.345020   0.345020   0.345020
     3  H    0.046265   0.345020   0.322203  -0.018021  -0.018021
     4  H    0.046265   0.345020  -0.018021   0.322203  -0.018021
     5  H    0.046265   0.345020  -0.018021  -0.018021   0.322203
 Mulliken charges:
               1
     1  F   -0.459331
     2  C   -0.508329
     3  H    0.322553
     4  H    0.322553
     5  H    0.322553
 Sum of Mulliken charges =  -0.00000
 Mulliken charges with hydrogens summed into heavy atoms:
               1
     1  F   -0.459331
     2  C    0.459331
 Electronic spatial extent (au):  <R**2>=             78.3747
 Charge=              0.0000 electrons
 Dipole moment (field-independent basis, Debye):
    X=             -0.0000    Y=              0.0000    Z=             -2.7267  Tot=              2.7267
 Quadrupole moment (field-independent basis, Debye-Ang):
   XX=            -11.5956   YY=            -11.5956   ZZ=            -12.0718
   XY=             -0.0000   XZ=              0.0000   YZ=             -0.0000
 Traceless Quadrupole moment (field-independent basis, Debye-Ang):
   XX=              0.1587   YY=              0.1587   ZZ=             -0.3175
   XY=             -0.0000   XZ=              0.0000   YZ=             -0.0000
 Octapole moment (field-independent basis, Debye-Ang**2):
  XXX=              0.0000  YYY=              0.5319  ZZZ=              2.1961  XYY=              0.0000
  XXY=             -0.5319  XXZ=              0.7483  XZZ=             -0.0000  YZZ=              0.0000
  YYZ=              0.7483  XYZ=              0.0000
 Hexadecapole moment (field-independent basis, Debye-Ang**3):
 XXXX=            -14.4679 YYYY=            -14.4679 ZZZZ=            -55.1329 XXXY=              0.0000
 XXXZ=              0.0000 YYYX=              0.0000 YYYZ=             -0.6324 ZZZX=             -0.0000
 ZZZY=              0.0000 XXYY=             -4.8226 XXZZ=            -11.6114 YYZZ=            -11.6114
 XXYZ=              0.6324 YYXZ=             -0.0000 ZZXY=              0.0000
 N-N= 3.646039617252D+01 E-N=-4.038156853175D+02  KE= 1.391825895045D+02
 Symmetry A'   KE= 1.306932507791D+02
 Symmetry A"   KE= 8.489338725417D+00
 Calling FoFJK, ICntrl=  10002127 FMM=F ISym2X=1 I1Cent= 0 IOpClX= 0 NMat=1 NMatS=1 NMatT=0.
 ***** Axes restored to original set *****
 -------------------------------------------------------------------
 Center     Atomic                   Forces (Hartrees/Bohr)
 Number     Number              X              Y              Z
 -------------------------------------------------------------------
      1        9           0.000000000    0.000000000    0.057900458
      2        6           0.000000001    0.000000000   -0.099592546
      3        1           0.073809986   -0.000000000    0.013897363
      4        1          -0.036904994    0.063921324    0.013897363
      5        1          -0.036904994   -0.063921324    0.013897363
 -------------------------------------------------------------------
 Cartesian Forces:  Max     0.099592546 RMS     0.044865942

 GradGradGradGradGradGradGradGradGradGradGradGradGradGradGradGradGradGrad
 Berny optimization.
 FormGI is forming the generalized inverse of G from B-inverse, IUseBI=4.
 Internal  Forces:  Max     0.074111879 RMS     0.042932654
 Search for a local minimum.
 Step number   1 out of a maximum of   21
 All quantities printed in internal units (Hartrees-Bohrs-Radians)
 Mixed Optimization -- RFO/linear search
 Second derivative matrix not updated -- first step.
 The second derivative matrix:
                          R1        R2        R3        R4        A1
           R1           0.32377
           R2           0.00000   0.47688
           R3           0.00000   0.00000   0.47688
           R4           0.00000   0.00000   0.00000   0.47688
           A1           0.00000   0.00000   0.00000   0.00000   0.16000
           A2           0.00000   0.00000   0.00000   0.00000   0.00000
           A3           0.00000   0.00000   0.00000   0.00000   0.00000
           A4           0.00000   0.00000   0.00000   0.00000   0.00000
           A5           0.00000   0.00000   0.00000   0.00000   0.00000
           A6           0.00000   0.00000   0.00000   0.00000   0.00000
           D1           0.00000   0.00000   0.00000   0.00000   0.00000
                          A2        A3        A4        A5        A6
           A2           0.16000
           A3           0.00000   0.16000
           A4           0.00000   0.00000   0.16000
           A5           0.00000   0.00000   0.00000   0.16000
           A6           0.00000   0.00000   0.00000   0.00000   0.16000
           D1           0.00000   0.00000   0.00000   0.00000   0.00000
                          D1
           D1           0.01425
 ITU=  0
     Eigenvalues ---    0.08018   0.16000   0.16000   0.16000   0.16000
     Eigenvalues ---    0.32377   0.47688   0.47688   0.47688
 RFO step:  Lambda=-4.38226866D-02 EMin= 8.01832897D-02
 Linear search not attempted -- first point.
 Maximum step size (   0.300) exceeded in Quadratic search.
    -- Step size scaled by   0.959
 Iteration  1 RMS(Cart)=  0.09407296 RMS(Int)=  0.00306580
 Iteration  2 RMS(Cart)=  0.00185312 RMS(Int)=  0.00157002
 Iteration  3 RMS(Cart)=  0.00000955 RMS(Int)=  0.00156999
 Iteration  4 RMS(Cart)=  0.00000003 RMS(Int)=  0.00156999
 ClnCor:  largest displacement from symmetrization is 1.00D-02 for atom     5.
 Variable       Old X    -DE/DX   Delta X   Delta X   Delta X     New X
                                 (Linear)    (Quad)   (Total)
    R1        2.83459  -0.05790   0.00000  -0.15104  -0.15104   2.68355
    R2        1.88973   0.07411   0.00000   0.13648   0.13398   2.02371
    R3        1.88973   0.07411   0.00000   0.13648   0.13398   2.02371
    R4        1.88973   0.07411   0.00000   0.13648   0.13398   2.02371
    A1        1.91986  -0.00644   0.00000  -0.04245  -0.04091   1.87895
    A2        1.91986  -0.00644   0.00000  -0.04245  -0.04091   1.87895
    A3        1.91986  -0.00644   0.00000  -0.04245  -0.04091   1.87895
    A4        1.90131   0.00143   0.00000   0.03194   0.03991   1.94122
    A5        1.90131   0.00914   0.00000   0.04893   0.03991   1.94122
    A6        1.90131   0.00914   0.00000   0.04893   0.03991   1.94122
    D1        2.07197   0.01231   0.00000   0.09518   0.10221   2.17418
         Item               Value     Threshold  Converged?
 Maximum Force            0.074112     0.000450     NO 
 RMS     Force            0.042933     0.000300     NO 
 Maximum Displacement     0.152621     0.001800     NO 
 RMS     Displacement     0.093079     0.001200     NO 
 Predicted change in Energy=-2.397733D-02
 GradGradGradGradGradGradGradGradGradGradGradGradGradGradGradGradGradGrad

                          Input orientation:                          
 ---------------------------------------------------------------------
 Center     Atomic      Atomic             Coordinates (Angstroms)
 Number     Number       Type             X           Y           Z
 ---------------------------------------------------------------------
      1          9           0        0.000000    0.000000    0.074720
      2          6           0        0.000000    0.000000    1.494791
      3          1           0        1.020456    0.000000    1.819595
      4          1           0       -0.510228    0.883741    1.819595
      5          1           0       -0.510228   -0.883741    1.819595
 ---------------------------------------------------------------------
                    Distance matrix (angstroms):
                    1          2          3          4          5
     1  F    0.000000
     2  C    1.420071   0.000000
     3  H    2.021365   1.070900   0.000000
     4  H    2.021365   1.070900   1.767482   0.000000
     5  H    2.021365   1.070900   1.767482   1.767482   0.000000
 Stoichiometry    CH3F
 Framework group  C3V[C3(CF),3SGV(H)]
 Deg. of freedom     3
 Full point group                 C3V     NOp   6
 Largest Abelian subgroup         CS      NOp   2
 Largest concise Abelian subgroup CS      NOp   2
                         Standard orientation:                         
 ---------------------------------------------------------------------
 Center     Atomic      Atomic             Coordinates (Angstroms)
 Number     Number       Type             X           Y           Z
 ---------------------------------------------------------------------
      1          9           0        0.000000    0.000000    0.764169
      2          6           0        0.000000    0.000000   -0.655902
      3          1           0        0.000000    1.020456   -0.980705
      4          1           0        0.883741   -0.510228   -0.980705
      5          1           0       -0.883741   -0.510228   -0.980705
 ---------------------------------------------------------------------
 Rotational constants (GHZ):         160.5174072          24.8461346          24.8461346
 Standard basis: Aug-CC-pVTZ (5D, 7F)
 There are   117 symmetry adapted cartesian basis functions of A'  symmetry.
 There are    68 symmetry adapted cartesian basis functions of A"  symmetry.
 There are    99 symmetry adapted basis functions of A'  symmetry.
 There are    62 symmetry adapted basis functions of A"  symmetry.
   161 basis functions,   225 primitive gaussians,   185 cartesian basis functions
     9 alpha electrons        9 beta electrons
       nuclear repulsion energy        36.9837654387 Hartrees.
 NAtoms=    5 NActive=    5 NUniq=    3 SFac= 2.78D+00 NAtFMM=   60 NAOKFM=F Big=F
 Integral buffers will be    131072 words long.
 Raffenetti 1 integral format.
 Two-electron integral symmetry is turned on.
 One-electron integrals computed using PRISM.
 NBasis=   161 RedAO= T EigKep=  7.63D-05  NBF=    99    62
 NBsUse=   161 1.00D-06 EigRej= -1.00D+00 NBFU=    99    62
 Initial guess from the checkpoint file:  "/gscratch/scrubbed/gds001/Gau-24072.chk"
 B after Tr=    -0.000000   -0.000000    0.000000
         Rot=    1.000000    0.000000   -0.000000   -0.000000 Ang=   0.00 deg.
 Initial guess orbital symmetries:
       Occupied  (A1) (A1) (A1) (A1) (E) (E) (A1) (E) (E)
       Virtual   (A1) (E) (E) (A1) (E) (E) (A1) (A1) (E) (E) (A1)
                 (E) (E) (A1) (E) (E) (E) (E) (A2) (A1) (E) (E)
                 (A1) (A1) (E) (E) (A1) (E) (E) (E) (E) (A1) (A1)
                 (E) (E) (E) (E) (A2) (A1) (E) (E) (A1) (E) (E)
                 (E) (E) (E) (E) (A1) (A2) (E) (E) (A1) (E) (E)
                 (A1) (E) (E) (A1) (E) (E) (A1) (A2) (E) (E) (E)
                 (E) (A1) (A1) (E) (E) (E) (E) (A2) (E) (E) (A1)
                 (E) (E) (A1) (A1) (A1) (E) (E) (A1) (E) (E) (A2)
                 (A1) (E) (E) (E) (E) (E) (E) (A1) (E) (E) (A1)
                 (A2) (E) (E) (E) (E) (E) (E) (A1) (E) (E) (A2)
                 (A1) (E) (E) (A1) (A1) (E) (E) (E) (E) (A1) (A2)
                 (E) (E) (E) (E) (A1) (E) (E) (A2) (A1) (E) (E)
                 (A1) (E) (E) (E) (E) (A1) (A1) (A2) (E) (E) (A1)
                 (E) (E) (E) (E) (E) (E) (A1) (A1) (A1)
 ExpMin= 2.53D-02 ExpMax= 1.95D+04 ExpMxC= 6.65D+02 IAcc=3 IRadAn=         5 AccDes= 0.00D+00
 Harris functional with IExCor=  205 and IRadAn=       5 diagonalized for initial guess.
 HarFok:  IExCor=  205 AccDes= 0.00D+00 IRadAn=         5 IDoV= 1 UseB2=F ITyADJ=14
 ICtDFT=  3500011 ScaDFX=  1.000000  1.000000  1.000000  1.000000
 FoFCou: FMM=F IPFlag=           0 FMFlag=      100000 FMFlg1=           0
         NFxFlg=           0 DoJE=T BraDBF=F KetDBF=T FulRan=T
         wScrn=  0.000000 ICntrl=       500 IOpCl=  0 I1Cent=   200000004 NGrid=           0
         NMat0=    1 NMatS0=      1 NMatT0=    0 NMatD0=    1 NMtDS0=    0 NMtDT0=    0
 Petite list used in FoFCou.
 Keep R1 ints in memory in symmetry-blocked form, NReq=127739619.
 Requested convergence on RMS density matrix=1.00D-08 within 128 cycles.
 Requested convergence on MAX density matrix=1.00D-06.
 Requested convergence on             energy=1.00D-06.
 No special actions if energy rises.
 SCF Done:  E(RHF) =  -139.095675709     A.U. after    9 cycles
            NFock=  9  Conv=0.81D-08     -V/T= 2.0009
 ExpMin= 2.53D-02 ExpMax= 1.95D+04 ExpMxC= 6.65D+02 IAcc=3 IRadAn=         5 AccDes= 0.00D+00
 HarFok:  IExCor=  205 AccDes= 0.00D+00 IRadAn=         5 IDoV=-2 UseB2=F ITyADJ=14
 ICtDFT= 12500011 ScaDFX=  1.000000  1.000000  1.000000  1.000000
 Range of M.O.s used for correlation:     3   161
 NBasis=   161 NAE=     9 NBE=     9 NFC=     2 NFV=     0
 NROrb=    159 NOA=     7 NOB=     7 NVA=   152 NVB=   152

 **** Warning!!: The largest alpha MO coefficient is  0.40338355D+02

 Fully direct method using O(ONN) memory.
 JobTyp=1 Pass  1:  I=   3 to   9 NPSUse= 28 ParTrn=T ParDer=T DoDerP=T.
 Spin components of T(2) and E(2):
     alpha-alpha T2 =       0.1210736469D-01 E2=     -0.5199695941D-01
     alpha-beta  T2 =       0.7723409734D-01 E2=     -0.3408640375D+00
     beta-beta   T2 =       0.1210736469D-01 E2=     -0.5199695941D-01
 ANorm=    0.1049499322D+01
 E2 =    -0.4448579564D+00 EUMP2 =    -0.13954053366492D+03
          IDoAtm=11111
          Differentiating once with respect to electric field.
                with respect to dipole field.
          Differentiating once with respect to nuclear coordinates.
 Keep R1 ints in memory in symmetry-blocked form, NReq=127740709.
          There are     1 degrees of freedom in the 1st order CPHF.  IDoFFX=0 NUNeed=     1.
 LinEq1:  Iter=  0 NonCon=     1 RMS=3.72D-03 Max=3.95D-02 NDo=     1
 AX will form     1 AO Fock derivatives at one time.
 LinEq1:  Iter=  1 NonCon=     1 RMS=9.38D-04 Max=1.09D-02 NDo=     1
 LinEq1:  Iter=  2 NonCon=     1 RMS=2.05D-04 Max=1.89D-03 NDo=     1
 LinEq1:  Iter=  3 NonCon=     1 RMS=8.63D-05 Max=8.20D-04 NDo=     1
 LinEq1:  Iter=  4 NonCon=     1 RMS=1.77D-05 Max=1.68D-04 NDo=     1
 LinEq1:  Iter=  5 NonCon=     1 RMS=3.23D-06 Max=5.21D-05 NDo=     1
 LinEq1:  Iter=  6 NonCon=     1 RMS=5.56D-07 Max=5.42D-06 NDo=     1
 LinEq1:  Iter=  7 NonCon=     1 RMS=7.70D-08 Max=6.62D-07 NDo=     1
 LinEq1:  Iter=  8 NonCon=     1 RMS=8.91D-09 Max=6.07D-08 NDo=     1
 LinEq1:  Iter=  9 NonCon=     1 RMS=1.05D-09 Max=1.09D-08 NDo=     1
 LinEq1:  Iter= 10 NonCon=     1 RMS=1.09D-10 Max=1.08D-09 NDo=     1
 LinEq1:  Iter= 11 NonCon=     0 RMS=1.00D-11 Max=9.31D-11 NDo=     1
 Linear equations converged to 1.000D-10 1.000D-09 after    11 iterations.
 End of Minotr F.D. properties file   721 does not exist.
 End of Minotr F.D. properties file   722 does not exist.
 End of Minotr F.D. properties file   788 does not exist.
 Calling FoFJK, ICntrl=  10002127 FMM=F ISym2X=1 I1Cent= 0 IOpClX= 0 NMat=1 NMatS=1 NMatT=0.
 ***** Axes restored to original set *****
 -------------------------------------------------------------------
 Center     Atomic                   Forces (Hartrees/Bohr)
 Number     Number              X              Y              Z
 -------------------------------------------------------------------
      1        9           0.000000000   -0.000000000    0.015958922
      2        6           0.000000001   -0.000000000   -0.027515203
      3        1           0.009647313   -0.000000000    0.003852094
      4        1          -0.004823657    0.008354819    0.003852094
      5        1          -0.004823657   -0.008354819    0.003852094
 -------------------------------------------------------------------
 Cartesian Forces:  Max     0.027515203 RMS     0.009435753

 GradGradGradGradGradGradGradGradGradGradGradGradGradGradGradGradGradGrad
 Berny optimization.
 Using GEDIIS/GDIIS optimizer.
 FormGI is forming the generalized inverse of G from B-inverse, IUseBI=4.
 Internal  Forces:  Max     0.015958922 RMS     0.007252521
 Search for a local minimum.
 Step number   2 out of a maximum of   21
 All quantities printed in internal units (Hartrees-Bohrs-Radians)
 Mixed Optimization -- RFO/linear search
 Update second derivatives using D2CorX and points    1    2
 DE= -2.32D-02 DEPred=-2.40D-02 R= 9.69D-01
 TightC=F SS=  1.41D+00  RLast= 3.11D-01 DXNew= 5.0454D-01 9.3393D-01
 Trust test= 9.69D-01 RLast= 3.11D-01 DXMaxT set to 5.05D-01
 The second derivative matrix:
                          R1        R2        R3        R4        A1
           R1           0.30531
           R2           0.01339   0.47571
           R3           0.01339  -0.00117   0.47571
           R4           0.01339  -0.00117  -0.00117   0.47571
           A1          -0.00099  -0.00046  -0.00046  -0.00046   0.16011
           A2          -0.00099  -0.00046  -0.00046  -0.00046   0.00011
           A3          -0.00099  -0.00046  -0.00046  -0.00046   0.00011
           A4           0.00720  -0.00903  -0.00903  -0.00903   0.00091
           A5          -0.00263   0.00591   0.00591   0.00591  -0.00069
           A6          -0.00263   0.00591   0.00591   0.00591  -0.00069
           D1          -0.01375   0.02134   0.02134   0.02134  -0.00231
                          A2        A3        A4        A5        A6
           A2           0.16011
           A3           0.00011   0.16011
           A4           0.00091   0.00091   0.15889
           A5          -0.00069  -0.00069  -0.00076   0.16151
           A6          -0.00069  -0.00069  -0.00076   0.00151   0.16151
           D1          -0.00231  -0.00231   0.00029   0.00338   0.00338
                          D1
           D1           0.01916
 ITU=  1  0
 Use linear search instead of GDIIS.
     Eigenvalues ---    0.07930   0.16000   0.16000   0.16000   0.16179
     Eigenvalues ---    0.30329   0.47688   0.47688   0.47915
 RFO step:  Lambda=-4.81653439D-04 EMin= 7.92961569D-02
 Quartic linear search produced a step of  0.21072.
 Iteration  1 RMS(Cart)=  0.01802717 RMS(Int)=  0.00033527
 Iteration  2 RMS(Cart)=  0.00007184 RMS(Int)=  0.00032319
 Iteration  3 RMS(Cart)=  0.00000005 RMS(Int)=  0.00032319
 ClnCor:  largest displacement from symmetrization is 3.35D-03 for atom     5.
 Variable       Old X    -DE/DX   Delta X   Delta X   Delta X     New X
                                 (Linear)    (Quad)   (Total)
    R1        2.68355  -0.01596  -0.03183  -0.02963  -0.06146   2.62208
    R2        2.02371   0.01036   0.02823  -0.00096   0.02809   2.05180
    R3        2.02371   0.01036   0.02823  -0.00096   0.02809   2.05180
    R4        2.02371   0.01036   0.02823  -0.00096   0.02809   2.05180
    A1        1.87895   0.00041  -0.00862   0.01440   0.00547   1.88442
    A2        1.87895   0.00041  -0.00862   0.01440   0.00547   1.88442
    A3        1.87895   0.00041  -0.00862   0.01440   0.00547   1.88442
    A4        1.94122  -0.00005   0.00841  -0.00904  -0.00512   1.93610
    A5        1.94122  -0.00054   0.00841  -0.01558  -0.00512   1.93610
    A6        1.94122  -0.00054   0.00841  -0.01558  -0.00512   1.93610
    D1        2.17418  -0.00087   0.02154  -0.03480  -0.01409   2.16010
         Item               Value     Threshold  Converged?
 Maximum Force            0.015959     0.000450     NO 
 RMS     Force            0.007253     0.000300     NO 
 Maximum Displacement     0.037369     0.001800     NO 
 RMS     Displacement     0.018295     0.001200     NO 
 Predicted change in Energy=-8.320929D-04
 GradGradGradGradGradGradGradGradGradGradGradGradGradGradGradGradGradGrad

                          Input orientation:                          
 ---------------------------------------------------------------------
 Center     Atomic      Atomic             Coordinates (Angstroms)
 Number     Number       Type             X           Y           Z
 ---------------------------------------------------------------------
      1          9           0        0.000000   -0.000000    0.094495
      2          6           0       -0.000000   -0.000000    1.482042
      3          1           0        1.032804    0.000000    1.817008
      4          1           0       -0.516402    0.894434    1.817008
      5          1           0       -0.516402   -0.894434    1.817008
 ---------------------------------------------------------------------
                    Distance matrix (angstroms):
                    1          2          3          4          5
     1  F    0.000000
     2  C    1.387547   0.000000
     3  H    2.008416   1.085765   0.000000
     4  H    2.008416   1.085765   1.788868   0.000000
     5  H    2.008416   1.085765   1.788868   1.788868   0.000000
 Stoichiometry    CH3F
 Framework group  C3V[C3(CF),3SGV(H)]
 Deg. of freedom     3
 Full point group                 C3V     NOp   6
 Largest Abelian subgroup         CS      NOp   2
 Largest concise Abelian subgroup CS      NOp   2
                         Standard orientation:                         
 ---------------------------------------------------------------------
 Center     Atomic      Atomic             Coordinates (Angstroms)
 Number     Number       Type             X           Y           Z
 ---------------------------------------------------------------------
      1          9           0        0.000000    0.000000    0.749601
      2          6           0        0.000000    0.000000   -0.637946
      3          1           0        0.000000    1.032804   -0.972912
      4          1           0        0.894434   -0.516402   -0.972912
      5          1           0       -0.894434   -0.516402   -0.972912
 ---------------------------------------------------------------------
 Rotational constants (GHZ):         156.7022577          25.7281848          25.7281848
 Standard basis: Aug-CC-pVTZ (5D, 7F)
 There are   117 symmetry adapted cartesian basis functions of A'  symmetry.
 There are    68 symmetry adapted cartesian basis functions of A"  symmetry.
 There are    99 symmetry adapted basis functions of A'  symmetry.
 There are    62 symmetry adapted basis functions of A"  symmetry.
   161 basis functions,   225 primitive gaussians,   185 cartesian basis functions
     9 alpha electrons        9 beta electrons
       nuclear repulsion energy        37.3685064800 Hartrees.
 NAtoms=    5 NActive=    5 NUniq=    3 SFac= 2.78D+00 NAtFMM=   60 NAOKFM=F Big=F
 Integral buffers will be    131072 words long.
 Raffenetti 1 integral format.
 Two-electron integral symmetry is turned on.
 One-electron integrals computed using PRISM.
 NBasis=   161 RedAO= T EigKep=  7.92D-05  NBF=    99    62
 NBsUse=   161 1.00D-06 EigRej= -1.00D+00 NBFU=    99    62
 Initial guess from the checkpoint file:  "/gscratch/scrubbed/gds001/Gau-24072.chk"
 B after Tr=    -0.000000    0.000000   -0.000000
         Rot=    1.000000    0.000000   -0.000000    0.000000 Ang=   0.00 deg.
 Initial guess orbital symmetries:
       Occupied  (A1) (A1) (A1) (A1) (E) (E) (A1) (E) (E)
       Virtual   (A1) (E) (E) (A1) (E) (E) (A1) (A1) (E) (E) (E)
                 (E) (A1) (A1) (E) (E) (E) (E) (A2) (A1) (E) (E)
                 (A1) (E) (E) (A1) (A1) (E) (E) (E) (E) (A1) (A1)
                 (E) (E) (A2) (E) (E) (A1) (E) (E) (A1) (E) (E)
                 (E) (E) (A1) (A2) (E) (E) (E) (E) (A1) (E) (E)
                 (E) (E) (A1) (A1) (E) (E) (A1) (A2) (E) (E) (A1)
                 (E) (E) (E) (E) (A1) (E) (E) (A2) (E) (E) (A1)
                 (E) (E) (A1) (A1) (A1) (E) (E) (A1) (E) (E) (A2)
                 (A1) (E) (E) (E) (E) (E) (E) (A1) (E) (E) (A2)
                 (A1) (E) (E) (E) (E) (E) (E) (A2) (E) (E) (A1)
                 (A1) (E) (E) (A1) (A1) (E) (E) (E) (E) (A1) (A2)
                 (E) (E) (E) (E) (A1) (A1) (E) (E) (E) (E) (A2)
                 (A1) (E) (E) (E) (E) (A1) (A1) (A2) (E) (E) (A1)
                 (E) (E) (E) (E) (E) (E) (A1) (A1) (A1)
 ExpMin= 2.53D-02 ExpMax= 1.95D+04 ExpMxC= 6.65D+02 IAcc=3 IRadAn=         5 AccDes= 0.00D+00
 Harris functional with IExCor=  205 and IRadAn=       5 diagonalized for initial guess.
 HarFok:  IExCor=  205 AccDes= 0.00D+00 IRadAn=         5 IDoV= 1 UseB2=F ITyADJ=14
 ICtDFT=  3500011 ScaDFX=  1.000000  1.000000  1.000000  1.000000
 FoFCou: FMM=F IPFlag=           0 FMFlag=      100000 FMFlg1=           0
         NFxFlg=           0 DoJE=T BraDBF=F KetDBF=T FulRan=T
         wScrn=  0.000000 ICntrl=       500 IOpCl=  0 I1Cent=   200000004 NGrid=           0
         NMat0=    1 NMatS0=      1 NMatT0=    0 NMatD0=    1 NMtDS0=    0 NMtDT0=    0
 Petite list used in FoFCou.
 Keep R1 ints in memory in symmetry-blocked form, NReq=127739619.
 Requested convergence on RMS density matrix=1.00D-08 within 128 cycles.
 Requested convergence on MAX density matrix=1.00D-06.
 Requested convergence on             energy=1.00D-06.
 No special actions if energy rises.
 SCF Done:  E(RHF) =  -139.097366966     A.U. after    9 cycles
            NFock=  9  Conv=0.22D-08     -V/T= 2.0010
 ExpMin= 2.53D-02 ExpMax= 1.95D+04 ExpMxC= 6.65D+02 IAcc=3 IRadAn=         5 AccDes= 0.00D+00
 HarFok:  IExCor=  205 AccDes= 0.00D+00 IRadAn=         5 IDoV=-2 UseB2=F ITyADJ=14
 ICtDFT= 12500011 ScaDFX=  1.000000  1.000000  1.000000  1.000000
 Range of M.O.s used for correlation:     3   161
 NBasis=   161 NAE=     9 NBE=     9 NFC=     2 NFV=     0
 NROrb=    159 NOA=     7 NOB=     7 NVA=   152 NVB=   152

 **** Warning!!: The largest alpha MO coefficient is  0.42178665D+02

 Fully direct method using O(ONN) memory.
 JobTyp=1 Pass  1:  I=   3 to   9 NPSUse= 28 ParTrn=T ParDer=T DoDerP=T.
 Spin components of T(2) and E(2):
     alpha-alpha T2 =       0.1201528478D-01 E2=     -0.5191978160D-01
     alpha-beta  T2 =       0.7690978389D-01 E2=     -0.3402427074D+00
     beta-beta   T2 =       0.1201528478D-01 E2=     -0.5191978160D-01
 ANorm=    0.1049257048D+01
 E2 =    -0.4440822706D+00 EUMP2 =    -0.13954144923705D+03
          IDoAtm=11111
          Differentiating once with respect to electric field.
                with respect to dipole field.
          Differentiating once with respect to nuclear coordinates.
 Keep R1 ints in memory in symmetry-blocked form, NReq=127740709.
          There are     1 degrees of freedom in the 1st order CPHF.  IDoFFX=0 NUNeed=     1.
 LinEq1:  Iter=  0 NonCon=     1 RMS=3.61D-03 Max=3.79D-02 NDo=     1
 AX will form     1 AO Fock derivatives at one time.
 LinEq1:  Iter=  1 NonCon=     1 RMS=9.06D-04 Max=1.01D-02 NDo=     1
 LinEq1:  Iter=  2 NonCon=     1 RMS=1.98D-04 Max=1.72D-03 NDo=     1
 LinEq1:  Iter=  3 NonCon=     1 RMS=8.57D-05 Max=9.63D-04 NDo=     1
 LinEq1:  Iter=  4 NonCon=     1 RMS=1.93D-05 Max=1.80D-04 NDo=     1
 LinEq1:  Iter=  5 NonCon=     1 RMS=3.33D-06 Max=5.25D-05 NDo=     1
 LinEq1:  Iter=  6 NonCon=     1 RMS=5.37D-07 Max=5.17D-06 NDo=     1
 LinEq1:  Iter=  7 NonCon=     1 RMS=7.38D-08 Max=6.60D-07 NDo=     1
 LinEq1:  Iter=  8 NonCon=     1 RMS=8.58D-09 Max=5.93D-08 NDo=     1
 LinEq1:  Iter=  9 NonCon=     1 RMS=1.01D-09 Max=1.04D-08 NDo=     1
 LinEq1:  Iter= 10 NonCon=     1 RMS=1.07D-10 Max=1.06D-09 NDo=     1
 LinEq1:  Iter= 11 NonCon=     0 RMS=9.79D-12 Max=8.30D-11 NDo=     1
 Linear equations converged to 1.000D-10 1.000D-09 after    11 iterations.
 End of Minotr F.D. properties file   721 does not exist.
 End of Minotr F.D. properties file   722 does not exist.
 End of Minotr F.D. properties file   788 does not exist.
 Calling FoFJK, ICntrl=  10002127 FMM=F ISym2X=1 I1Cent= 0 IOpClX= 0 NMat=1 NMatS=1 NMatT=0.
 ***** Axes restored to original set *****
 -------------------------------------------------------------------
 Center     Atomic                   Forces (Hartrees/Bohr)
 Number     Number              X              Y              Z
 -------------------------------------------------------------------
      1        9          -0.000000000   -0.000000000   -0.003148660
      2        6          -0.000000000   -0.000000000   -0.003274626
      3        1           0.000006166    0.000000000    0.002141095
      4        1          -0.000003083    0.000005339    0.002141095
      5        1          -0.000003083   -0.000005339    0.002141095
 -------------------------------------------------------------------
 Cartesian Forces:  Max     0.003274626 RMS     0.001514160

 GradGradGradGradGradGradGradGradGradGradGradGradGradGradGradGradGradGrad
 Berny optimization.
 Using GEDIIS/GDIIS optimizer.
 FormGI is forming the generalized inverse of G from B-inverse, IUseBI=4.
 Internal  Forces:  Max     0.003148660 RMS     0.001520509
 Search for a local minimum.
 Step number   3 out of a maximum of   21
 All quantities printed in internal units (Hartrees-Bohrs-Radians)
 Mixed Optimization -- RFO/linear search
 Update second derivatives using D2CorX and points    1    2    3
 DE= -9.16D-04 DEPred=-8.32D-04 R= 1.10D+00
 TightC=F SS=  1.41D+00  RLast= 8.07D-02 DXNew= 8.4853D-01 2.4208D-01
 Trust test= 1.10D+00 RLast= 8.07D-02 DXMaxT set to 5.05D-01
 The second derivative matrix:
                          R1        R2        R3        R4        A1
           R1           0.34477
           R2           0.01802   0.45227
           R3           0.01802  -0.02461   0.45227
           R4           0.01802  -0.02461  -0.02461   0.45227
           A1           0.01381  -0.00983  -0.00983  -0.00983   0.16063
           A2           0.01381  -0.00983  -0.00983  -0.00983   0.00063
           A3           0.01381  -0.00983  -0.00983  -0.00983   0.00063
           A4          -0.01018   0.00362   0.00362   0.00362   0.00107
           A5          -0.01423   0.01231   0.01231   0.01231  -0.00155
           A6          -0.01423   0.01231   0.01231   0.01231  -0.00155
           D1          -0.00992   0.01516   0.01516   0.01516  -0.00393
                          A2        A3        A4        A5        A6
           A2           0.16063
           A3           0.00063   0.16063
           A4           0.00107   0.00107   0.15768
           A5          -0.00155  -0.00155  -0.00030   0.16249
           A6          -0.00155  -0.00155  -0.00030   0.00249   0.16249
           D1          -0.00393  -0.00393   0.00266   0.00439   0.00439
                          D1
           D1           0.01770
 ITU=  1  1  0
 Use linear search instead of GDIIS.
     Eigenvalues ---    0.07683   0.15962   0.16000   0.16000   0.16000
     Eigenvalues ---    0.34101   0.42065   0.47688   0.47688
 RFO step:  Lambda=-1.64377102D-04 EMin= 7.68309128D-02
 Quartic linear search produced a step of -0.03424.
 Iteration  1 RMS(Cart)=  0.00881787 RMS(Int)=  0.00014151
 Iteration  2 RMS(Cart)=  0.00008532 RMS(Int)=  0.00010837
 Iteration  3 RMS(Cart)=  0.00000001 RMS(Int)=  0.00010837
 ClnCor:  largest displacement from symmetrization is 6.99D-04 for atom     5.
 Variable       Old X    -DE/DX   Delta X   Delta X   Delta X     New X
                                 (Linear)    (Quad)   (Total)
    R1        2.62208   0.00315   0.00210   0.00292   0.00503   2.62711
    R2        2.05180   0.00067  -0.00096   0.00509   0.00430   2.05610
    R3        2.05180   0.00067  -0.00096   0.00509   0.00430   2.05610
    R4        2.05180   0.00067  -0.00096   0.00509   0.00430   2.05610
    A1        1.88442   0.00113  -0.00019   0.01155   0.01130   1.89572
    A2        1.88442   0.00113  -0.00019   0.01155   0.01130   1.89572
    A3        1.88442   0.00113  -0.00019   0.01155   0.01130   1.89572
    A4        1.93610  -0.00016   0.00018  -0.00995  -0.01080   1.92530
    A5        1.93610  -0.00152   0.00018  -0.01136  -0.01080   1.92530
    A6        1.93610  -0.00152   0.00018  -0.01136  -0.01080   1.92530
    D1        2.16010  -0.00238   0.00048  -0.02908  -0.02870   2.13140
         Item               Value     Threshold  Converged?
 Maximum Force            0.003149     0.000450     NO 
 RMS     Force            0.001521     0.000300     NO 
 Maximum Displacement     0.018115     0.001800     NO 
 RMS     Displacement     0.008785     0.001200     NO 
 Predicted change in Energy=-8.227515D-05
 GradGradGradGradGradGradGradGradGradGradGradGradGradGradGradGradGradGrad

                          Input orientation:                          
 ---------------------------------------------------------------------
 Center     Atomic      Atomic             Coordinates (Angstroms)
 Number     Number       Type             X           Y           Z
 ---------------------------------------------------------------------
      1          9           0       -0.000000   -0.000000    0.084909
      2          6           0       -0.000000   -0.000000    1.475116
      3          1           0        1.031106    0.000000    1.822462
      4          1           0       -0.515553    0.892964    1.822462
      5          1           0       -0.515553   -0.892964    1.822462
 ---------------------------------------------------------------------
                    Distance matrix (angstroms):
                    1          2          3          4          5
     1  F    0.000000
     2  C    1.390207   0.000000
     3  H    2.020463   1.088039   0.000000
     4  H    2.020463   1.088039   1.785928   0.000000
     5  H    2.020463   1.088039   1.785928   1.785928   0.000000
 Stoichiometry    CH3F
 Framework group  C3V[C3(CF),3SGV(H)]
 Deg. of freedom     3
 Full point group                 C3V     NOp   6
 Largest Abelian subgroup         CS      NOp   2
 Largest concise Abelian subgroup CS      NOp   2
                         Standard orientation:                         
 ---------------------------------------------------------------------
 Center     Atomic      Atomic             Coordinates (Angstroms)
 Number     Number       Type             X           Y           Z
 ---------------------------------------------------------------------
      1          9           0        0.000000    0.000000    0.752994
      2          6           0        0.000000    0.000000   -0.637212
      3          1           0        0.000000    1.031106   -0.984558
      4          1           0        0.892964   -0.515553   -0.984558
      5          1           0       -0.892964   -0.515553   -0.984558
 ---------------------------------------------------------------------
 Rotational constants (GHZ):         157.2186040          25.5447224          25.5447224
 Standard basis: Aug-CC-pVTZ (5D, 7F)
 There are   117 symmetry adapted cartesian basis functions of A'  symmetry.
 There are    68 symmetry adapted cartesian basis functions of A"  symmetry.
 There are    99 symmetry adapted basis functions of A'  symmetry.
 There are    62 symmetry adapted basis functions of A"  symmetry.
   161 basis functions,   225 primitive gaussians,   185 cartesian basis functions
     9 alpha electrons        9 beta electrons
       nuclear repulsion energy        37.2698155152 Hartrees.
 NAtoms=    5 NActive=    5 NUniq=    3 SFac= 2.78D+00 NAtFMM=   60 NAOKFM=F Big=F
 Integral buffers will be    131072 words long.
 Raffenetti 1 integral format.
 Two-electron integral symmetry is turned on.
 One-electron integrals computed using PRISM.
 NBasis=   161 RedAO= T EigKep=  8.02D-05  NBF=    99    62
 NBsUse=   161 1.00D-06 EigRej= -1.00D+00 NBFU=    99    62
 Initial guess from the checkpoint file:  "/gscratch/scrubbed/gds001/Gau-24072.chk"
 B after Tr=     0.000000    0.000000    0.000000
         Rot=    1.000000    0.000000   -0.000000    0.000000 Ang=   0.00 deg.
 Initial guess orbital symmetries:
       Occupied  (A1) (A1) (A1) (A1) (E) (E) (A1) (E) (E)
       Virtual   (A1) (E) (E) (A1) (E) (E) (A1) (A1) (E) (E) (E)
                 (E) (A1) (A1) (E) (E) (E) (E) (A2) (A1) (E) (E)
                 (A1) (E) (E) (A1) (A1) (E) (E) (E) (E) (A1) (A1)
                 (E) (E) (A2) (E) (E) (A1) (E) (E) (A1) (E) (E)
                 (E) (E) (A1) (A2) (E) (E) (E) (E) (A1) (E) (E)
                 (E) (E) (A1) (A1) (E) (E) (A1) (A2) (E) (E) (A1)
                 (E) (E) (E) (E) (A1) (E) (E) (A2) (E) (E) (A1)
                 (E) (E) (A1) (A1) (A1) (E) (E) (A1) (E) (E) (A2)
                 (A1) (E) (E) (E) (E) (E) (E) (A1) (E) (E) (A2)
                 (A1) (E) (E) (E) (E) (E) (E) (A2) (E) (E) (A1)
                 (A1) (E) (E) (A1) (A1) (E) (E) (E) (E) (A1) (A2)
                 (E) (E) (E) (E) (A1) (A1) (E) (E) (A2) (E) (E)
                 (A1) (E) (E) (E) (E) (A1) (A1) (A2) (E) (E) (A1)
                 (E) (E) (E) (E) (E) (E) (A1) (A1) (A1)
 Keep R1 ints in memory in symmetry-blocked form, NReq=127739619.
 Requested convergence on RMS density matrix=1.00D-08 within 128 cycles.
 Requested convergence on MAX density matrix=1.00D-06.
 Requested convergence on             energy=1.00D-06.
 No special actions if energy rises.
 SCF Done:  E(RHF) =  -139.097214050     A.U. after    8 cycles
            NFock=  8  Conv=0.53D-08     -V/T= 2.0012
 ExpMin= 2.53D-02 ExpMax= 1.95D+04 ExpMxC= 6.65D+02 IAcc=3 IRadAn=         5 AccDes= 0.00D+00
 HarFok:  IExCor=  205 AccDes= 0.00D+00 IRadAn=         5 IDoV=-2 UseB2=F ITyADJ=14
 ICtDFT= 12500011 ScaDFX=  1.000000  1.000000  1.000000  1.000000
 Range of M.O.s used for correlation:     3   161
 NBasis=   161 NAE=     9 NBE=     9 NFC=     2 NFV=     0
 NROrb=    159 NOA=     7 NOB=     7 NVA=   152 NVB=   152

 **** Warning!!: The largest alpha MO coefficient is  0.41840091D+02

 Fully direct method using O(ONN) memory.
 JobTyp=1 Pass  1:  I=   3 to   9 NPSUse= 28 ParTrn=T ParDer=T DoDerP=T.
 Spin components of T(2) and E(2):
     alpha-alpha T2 =       0.1204526444D-01 E2=     -0.5194211493D-01
     alpha-beta  T2 =       0.7712518190D-01 E2=     -0.3404299092D+00
     beta-beta   T2 =       0.1204526444D-01 E2=     -0.5194211493D-01
 ANorm=    0.1049388255D+01
 E2 =    -0.4443141391D+00 EUMP2 =    -0.13954152818888D+03
          IDoAtm=11111
          Differentiating once with respect to electric field.
                with respect to dipole field.
          Differentiating once with respect to nuclear coordinates.
 Keep R1 ints in memory in symmetry-blocked form, NReq=127740709.
          There are     1 degrees of freedom in the 1st order CPHF.  IDoFFX=0 NUNeed=     1.
 LinEq1:  Iter=  0 NonCon=     1 RMS=3.62D-03 Max=3.76D-02 NDo=     1
 AX will form     1 AO Fock derivatives at one time.
 LinEq1:  Iter=  1 NonCon=     1 RMS=9.13D-04 Max=1.04D-02 NDo=     1
 LinEq1:  Iter=  2 NonCon=     1 RMS=2.00D-04 Max=1.68D-03 NDo=     1
 LinEq1:  Iter=  3 NonCon=     1 RMS=8.69D-05 Max=9.87D-04 NDo=     1
 LinEq1:  Iter=  4 NonCon=     1 RMS=1.98D-05 Max=1.81D-04 NDo=     1
 LinEq1:  Iter=  5 NonCon=     1 RMS=3.38D-06 Max=5.30D-05 NDo=     1
 LinEq1:  Iter=  6 NonCon=     1 RMS=5.44D-07 Max=5.22D-06 NDo=     1
 LinEq1:  Iter=  7 NonCon=     1 RMS=7.47D-08 Max=6.68D-07 NDo=     1
 LinEq1:  Iter=  8 NonCon=     1 RMS=8.67D-09 Max=5.97D-08 NDo=     1
 LinEq1:  Iter=  9 NonCon=     1 RMS=1.02D-09 Max=1.05D-08 NDo=     1
 LinEq1:  Iter= 10 NonCon=     1 RMS=1.08D-10 Max=1.10D-09 NDo=     1
 LinEq1:  Iter= 11 NonCon=     0 RMS=9.92D-12 Max=8.40D-11 NDo=     1
 Linear equations converged to 1.000D-10 1.000D-09 after    11 iterations.
 End of Minotr F.D. properties file   721 does not exist.
 End of Minotr F.D. properties file   722 does not exist.
 End of Minotr F.D. properties file   788 does not exist.
 Calling FoFJK, ICntrl=  10002127 FMM=F ISym2X=1 I1Cent= 0 IOpClX= 0 NMat=1 NMatS=1 NMatT=0.
 ***** Axes restored to original set *****
 -------------------------------------------------------------------
 Center     Atomic                   Forces (Hartrees/Bohr)
 Number     Number              X              Y              Z
 -------------------------------------------------------------------
      1        9           0.000000000    0.000000000    0.001092321
      2        6           0.000000000    0.000000000   -0.000673382
      3        1          -0.000740047    0.000000000   -0.000139646
      4        1           0.000370023   -0.000640899   -0.000139646
      5        1           0.000370023    0.000640899   -0.000139646
 -------------------------------------------------------------------
 Cartesian Forces:  Max     0.001092321 RMS     0.000472449

 GradGradGradGradGradGradGradGradGradGradGradGradGradGradGradGradGradGrad
 Berny optimization.
 Using GEDIIS/GDIIS optimizer.
 FormGI is forming the generalized inverse of G from B-inverse, IUseBI=4.
 Internal  Forces:  Max     0.001092321 RMS     0.000513440
 Search for a local minimum.
 Step number   4 out of a maximum of   21
 All quantities printed in internal units (Hartrees-Bohrs-Radians)
 Mixed Optimization -- En-DIIS/RFO-DIIS
 Update second derivatives using D2CorX and points    1    2    3    4
 DE= -7.90D-05 DEPred=-8.23D-05 R= 9.60D-01
 TightC=F SS=  1.41D+00  RLast= 4.05D-02 DXNew= 8.4853D-01 1.2140D-01
 Trust test= 9.60D-01 RLast= 4.05D-02 DXMaxT set to 5.05D-01
 The second derivative matrix:
                          R1        R2        R3        R4        A1
           R1           0.37880
           R2           0.04180   0.46877
           R3           0.04180  -0.00812   0.46877
           R4           0.04180  -0.00812  -0.00812   0.46877
           A1           0.01146  -0.01444  -0.01444  -0.01444   0.14582
           A2           0.01146  -0.01444  -0.01444  -0.01444  -0.01418
           A3           0.01146  -0.01444  -0.01444  -0.01444  -0.01418
           A4           0.00429   0.01816   0.01816   0.01816   0.01973
           A5          -0.01744   0.01226   0.01226   0.01226   0.01050
           A6          -0.01744   0.01226   0.01226   0.01226   0.01050
           D1          -0.03761  -0.00725  -0.00725  -0.00725  -0.01096
                          A2        A3        A4        A5        A6
           A2           0.14582
           A3          -0.01418   0.14582
           A4           0.01973   0.01973   0.13984
           A5           0.01050   0.01050  -0.01816   0.15396
           A6           0.01050   0.01050  -0.01816  -0.00604   0.15396
           D1          -0.01096  -0.01096  -0.00154   0.01628   0.01628
                          D1
           D1           0.04441
 ITU=  1  1  1  0
 Use linear search instead of GDIIS.
     Eigenvalues ---    0.06830   0.15916   0.16000   0.16000   0.16000
     Eigenvalues ---    0.34915   0.47688   0.47688   0.49696
 RFO step:  Lambda=-6.04620244D-06 EMin= 6.82955275D-02
 Quartic linear search produced a step of -0.04525.
 Iteration  1 RMS(Cart)=  0.00108297 RMS(Int)=  0.00000426
 Iteration  2 RMS(Cart)=  0.00000043 RMS(Int)=  0.00000423
 ClnCor:  largest displacement from symmetrization is 3.24D-05 for atom     5.
 Variable       Old X    -DE/DX   Delta X   Delta X   Delta X     New X
                                 (Linear)    (Quad)   (Total)
    R1        2.62711  -0.00109  -0.00023  -0.00256  -0.00279   2.62432
    R2        2.05610  -0.00075  -0.00019  -0.00108  -0.00127   2.05483
    R3        2.05610  -0.00075  -0.00019  -0.00108  -0.00127   2.05483
    R4        2.05610  -0.00075  -0.00019  -0.00108  -0.00127   2.05483
    A1        1.89572   0.00006  -0.00051   0.00130   0.00078   1.89651
    A2        1.89572   0.00006  -0.00051   0.00130   0.00078   1.89651
    A3        1.89572   0.00006  -0.00051   0.00130   0.00078   1.89651
    A4        1.92530  -0.00001   0.00049  -0.00122  -0.00076   1.92454
    A5        1.92530  -0.00008   0.00049  -0.00128  -0.00076   1.92454
    A6        1.92530  -0.00008   0.00049  -0.00128  -0.00076   1.92454
    D1        2.13140  -0.00012   0.00130  -0.00325  -0.00197   2.12943
         Item               Value     Threshold  Converged?
 Maximum Force            0.001092     0.000450     NO 
 RMS     Force            0.000513     0.000300     NO 
 Maximum Displacement     0.001715     0.001800     YES
 RMS     Displacement     0.001079     0.001200     YES
 Predicted change in Energy=-3.203095D-06
 GradGradGradGradGradGradGradGradGradGradGradGradGradGradGradGradGradGrad

                          Input orientation:                          
 ---------------------------------------------------------------------
 Center     Atomic      Atomic             Coordinates (Angstroms)
 Number     Number       Type             X           Y           Z
 ---------------------------------------------------------------------
      1          9           0       -0.000000   -0.000000    0.085733
      2          6           0       -0.000000   -0.000000    1.474463
      3          1           0        1.030199    0.000000    1.822402
      4          1           0       -0.515099    0.892178    1.822402
      5          1           0       -0.515099   -0.892178    1.822402
 ---------------------------------------------------------------------
                    Distance matrix (angstroms):
                    1          2          3          4          5
     1  F    0.000000
     2  C    1.388730   0.000000
     3  H    2.019240   1.087369   0.000000
     4  H    2.019240   1.087369   1.784357   0.000000
     5  H    2.019240   1.087369   1.784357   1.784357   0.000000
 Stoichiometry    CH3F
 Framework group  C3V[C3(CF),3SGV(H)]
 Deg. of freedom     3
 Full point group                 C3V     NOp   6
 Largest Abelian subgroup         CS      NOp   2
 Largest concise Abelian subgroup CS      NOp   2
                         Standard orientation:                         
 ---------------------------------------------------------------------
 Center     Atomic      Atomic             Coordinates (Angstroms)
 Number     Number       Type             X           Y           Z
 ---------------------------------------------------------------------
      1          9           0        0.000000    0.000000    0.752355
      2          6           0        0.000000    0.000000   -0.636375
      3          1           0        0.000000    1.030199   -0.984314
      4          1           0        0.892178   -0.515099   -0.984314
      5          1           0       -0.892178   -0.515099   -0.984314
 ---------------------------------------------------------------------
 Rotational constants (GHZ):         157.4956843          25.5900834          25.5900834
 Standard basis: Aug-CC-pVTZ (5D, 7F)
 There are   117 symmetry adapted cartesian basis functions of A'  symmetry.
 There are    68 symmetry adapted cartesian basis functions of A"  symmetry.
 There are    99 symmetry adapted basis functions of A'  symmetry.
 There are    62 symmetry adapted basis functions of A"  symmetry.
   161 basis functions,   225 primitive gaussians,   185 cartesian basis functions
     9 alpha electrons        9 beta electrons
       nuclear repulsion energy        37.3021341088 Hartrees.
 NAtoms=    5 NActive=    5 NUniq=    3 SFac= 2.78D+00 NAtFMM=   60 NAOKFM=F Big=F
 Integral buffers will be    131072 words long.
 Raffenetti 1 integral format.
 Two-electron integral symmetry is turned on.
 One-electron integrals computed using PRISM.
 NBasis=   161 RedAO= T EigKep=  8.00D-05  NBF=    99    62
 NBsUse=   161 1.00D-06 EigRej= -1.00D+00 NBFU=    99    62
 Initial guess from the checkpoint file:  "/gscratch/scrubbed/gds001/Gau-24072.chk"
 B after Tr=     0.000000    0.000000   -0.000000
         Rot=    1.000000    0.000000   -0.000000    0.000000 Ang=   0.00 deg.
 Initial guess orbital symmetries:
       Occupied  (A1) (A1) (A1) (A1) (E) (E) (A1) (E) (E)
       Virtual   (A1) (E) (E) (A1) (E) (E) (A1) (A1) (E) (E) (E)
                 (E) (A1) (A1) (E) (E) (E) (E) (A2) (A1) (E) (E)
                 (A1) (E) (E) (A1) (A1) (E) (E) (E) (E) (A1) (A1)
                 (E) (E) (A2) (E) (E) (A1) (E) (E) (A1) (E) (E)
                 (E) (E) (A1) (A2) (E) (E) (E) (E) (A1) (E) (E)
                 (A1) (E) (E) (A1) (E) (E) (A1) (A2) (E) (E) (A1)
                 (E) (E) (E) (E) (A1) (E) (E) (A2) (E) (E) (A1)
                 (E) (E) (A1) (A1) (A1) (E) (E) (A1) (E) (E) (A2)
                 (A1) (E) (E) (E) (E) (E) (E) (A1) (E) (E) (A2)
                 (A1) (E) (E) (E) (E) (E) (E) (A2) (E) (E) (A1)
                 (A1) (E) (E) (A1) (A1) (E) (E) (E) (E) (A1) (A2)
                 (E) (E) (E) (E) (A1) (A1) (E) (E) (A2) (E) (E)
                 (A1) (E) (E) (E) (E) (A1) (A1) (A2) (E) (E) (A1)
                 (E) (E) (E) (E) (E) (E) (A1) (A1) (A1)
 Keep R1 ints in memory in symmetry-blocked form, NReq=127739619.
 Requested convergence on RMS density matrix=1.00D-08 within 128 cycles.
 Requested convergence on MAX density matrix=1.00D-06.
 Requested convergence on             energy=1.00D-06.
 No special actions if energy rises.
 SCF Done:  E(RHF) =  -139.097289578     A.U. after    7 cycles
            NFock=  7  Conv=0.27D-08     -V/T= 2.0011
 ExpMin= 2.53D-02 ExpMax= 1.95D+04 ExpMxC= 6.65D+02 IAcc=3 IRadAn=         5 AccDes= 0.00D+00
 HarFok:  IExCor=  205 AccDes= 0.00D+00 IRadAn=         5 IDoV=-2 UseB2=F ITyADJ=14
 ICtDFT= 12500011 ScaDFX=  1.000000  1.000000  1.000000  1.000000
 Range of M.O.s used for correlation:     3   161
 NBasis=   161 NAE=     9 NBE=     9 NFC=     2 NFV=     0
 NROrb=    159 NOA=     7 NOB=     7 NVA=   152 NVB=   152

 **** Warning!!: The largest alpha MO coefficient is  0.41950066D+02

 Fully direct method using O(ONN) memory.
 JobTyp=1 Pass  1:  I=   3 to   9 NPSUse= 28 ParTrn=T ParDer=T DoDerP=T.
 Spin components of T(2) and E(2):
     alpha-alpha T2 =       0.1203655999D-01 E2=     -0.5193785067D-01
     alpha-beta  T2 =       0.7705361497D-01 E2=     -0.3403669386D+00
     beta-beta   T2 =       0.1203655999D-01 E2=     -0.5193785067D-01
 ANorm=    0.1049345861D+01
 E2 =    -0.4442426399D+00 EUMP2 =    -0.13954153221753D+03
          IDoAtm=11111
          Differentiating once with respect to electric field.
                with respect to dipole field.
          Differentiating once with respect to nuclear coordinates.
 Keep R1 ints in memory in symmetry-blocked form, NReq=127740709.
          There are     1 degrees of freedom in the 1st order CPHF.  IDoFFX=0 NUNeed=     1.
 LinEq1:  Iter=  0 NonCon=     1 RMS=3.61D-03 Max=3.75D-02 NDo=     1
 AX will form     1 AO Fock derivatives at one time.
 LinEq1:  Iter=  1 NonCon=     1 RMS=9.10D-04 Max=1.04D-02 NDo=     1
 LinEq1:  Iter=  2 NonCon=     1 RMS=1.99D-04 Max=1.67D-03 NDo=     1
 LinEq1:  Iter=  3 NonCon=     1 RMS=8.66D-05 Max=9.87D-04 NDo=     1
 LinEq1:  Iter=  4 NonCon=     1 RMS=1.97D-05 Max=1.81D-04 NDo=     1
 LinEq1:  Iter=  5 NonCon=     1 RMS=3.37D-06 Max=5.28D-05 NDo=     1
 LinEq1:  Iter=  6 NonCon=     1 RMS=5.42D-07 Max=5.20D-06 NDo=     1
 LinEq1:  Iter=  7 NonCon=     1 RMS=7.44D-08 Max=6.68D-07 NDo=     1
 LinEq1:  Iter=  8 NonCon=     1 RMS=8.63D-09 Max=5.95D-08 NDo=     1
 LinEq1:  Iter=  9 NonCon=     1 RMS=1.01D-09 Max=1.04D-08 NDo=     1
 LinEq1:  Iter= 10 NonCon=     1 RMS=1.08D-10 Max=1.09D-09 NDo=     1
 LinEq1:  Iter= 11 NonCon=     0 RMS=9.88D-12 Max=8.33D-11 NDo=     1
 Linear equations converged to 1.000D-10 1.000D-09 after    11 iterations.
 End of Minotr F.D. properties file   721 does not exist.
 End of Minotr F.D. properties file   722 does not exist.
 End of Minotr F.D. properties file   788 does not exist.
 Calling FoFJK, ICntrl=  10002127 FMM=F ISym2X=1 I1Cent= 0 IOpClX= 0 NMat=1 NMatS=1 NMatT=0.
 ***** Axes restored to original set *****
 -------------------------------------------------------------------
 Center     Atomic                   Forces (Hartrees/Bohr)
 Number     Number              X              Y              Z
 -------------------------------------------------------------------
      1        9           0.000000000   -0.000000000    0.000166181
      2        6           0.000000000    0.000000000   -0.000086711
      3        1          -0.000252193    0.000000000   -0.000026490
      4        1           0.000126096   -0.000218405   -0.000026490
      5        1           0.000126096    0.000218405   -0.000026490
 -------------------------------------------------------------------
 Cartesian Forces:  Max     0.000252193 RMS     0.000123300

 GradGradGradGradGradGradGradGradGradGradGradGradGradGradGradGradGradGrad
 Berny optimization.
 Using GEDIIS/GDIIS optimizer.
 FormGI is forming the generalized inverse of G from B-inverse, IUseBI=4.
 Internal  Forces:  Max     0.000247410 RMS     0.000142061
 Search for a local minimum.
 Step number   5 out of a maximum of   21
 All quantities printed in internal units (Hartrees-Bohrs-Radians)
 Mixed Optimization -- En-DIIS/RFO-DIIS
 Swapping is turned off.
 Update second derivatives using D2CorX and points    1    2    3    4    5
 DE= -4.03D-06 DEPred=-3.20D-06 R= 1.26D+00
 TightC=F SS=  1.41D+00  RLast= 4.48D-03 DXNew= 8.4853D-01 1.3432D-02
 Trust test= 1.26D+00 RLast= 4.48D-03 DXMaxT set to 5.05D-01
 The second derivative matrix:
                          R1        R2        R3        R4        A1
           R1           0.37034
           R2           0.01254   0.43578
           R3           0.01254  -0.04110   0.43578
           R4           0.01254  -0.04110  -0.04110   0.43578
           A1           0.01851  -0.00213  -0.00213  -0.00213   0.14309
           A2           0.01851  -0.00213  -0.00213  -0.00213  -0.01691
           A3           0.01851  -0.00213  -0.00213  -0.00213  -0.01691
           A4          -0.00388   0.00055   0.00055   0.00055   0.02278
           A5          -0.02452   0.00256   0.00256   0.00256   0.01305
           A6          -0.02452   0.00256   0.00256   0.00256   0.01305
           D1          -0.03623   0.00327   0.00327   0.00327  -0.01132
                          A2        A3        A4        A5        A6
           A2           0.14309
           A3          -0.01691   0.14309
           A4           0.02278   0.02278   0.13704
           A5           0.01305   0.01305  -0.02127   0.15170
           A6           0.01305   0.01305  -0.02127  -0.00830   0.15170
           D1          -0.01132  -0.01132  -0.00252   0.01723   0.01723
                          D1
           D1           0.04753
 ITU=  1  1  1  1  0
     Eigenvalues ---    0.06452   0.15800   0.16000   0.16000   0.16000
     Eigenvalues ---    0.34513   0.39273   0.47688   0.47688
 En-DIIS/RFO-DIIS/Sim-DIIS IScMMF=       -3 using points:     5    4
 RFO step:  Lambda=-7.34138997D-07.
 DidBck=F Rises=F RFO-DIIS coefs:    1.41261   -0.41261
 Iteration  1 RMS(Cart)=  0.00050011 RMS(Int)=  0.00000039
 Iteration  2 RMS(Cart)=  0.00000012 RMS(Int)=  0.00000036
 ClnCor:  largest displacement from symmetrization is 2.43D-06 for atom     5.
 Variable       Old X    -DE/DX   Delta X   Delta X   Delta X     New X
                                 (Linear)    (Quad)   (Total)
    R1        2.62432  -0.00017  -0.00115   0.00054  -0.00061   2.62371
    R2        2.05483  -0.00025  -0.00052  -0.00013  -0.00065   2.05418
    R3        2.05483  -0.00025  -0.00052  -0.00013  -0.00065   2.05418
    R4        2.05483  -0.00025  -0.00052  -0.00013  -0.00065   2.05418
    A1        1.89651   0.00003   0.00032   0.00011   0.00043   1.89694
    A2        1.89651   0.00003   0.00032   0.00011   0.00043   1.89694
    A3        1.89651   0.00003   0.00032   0.00011   0.00043   1.89694
    A4        1.92454  -0.00001  -0.00031  -0.00010  -0.00042   1.92413
    A5        1.92454  -0.00004  -0.00031  -0.00010  -0.00042   1.92413
    A6        1.92454  -0.00004  -0.00031  -0.00010  -0.00042   1.92413
    D1        2.12943  -0.00006  -0.00081  -0.00027  -0.00108   2.12835
         Item               Value     Threshold  Converged?
 Maximum Force            0.000247     0.000450     YES
 RMS     Force            0.000142     0.000300     YES
 Maximum Displacement     0.000901     0.001800     YES
 RMS     Displacement     0.000500     0.001200     YES
 Predicted change in Energy=-3.670678D-07
 Optimization completed.
    -- Stationary point found.
                           ----------------------------
                           !   Optimized Parameters   !
                           ! (Angstroms and Degrees)  !
 --------------------------                            --------------------------
 ! Name  Definition              Value          Derivative Info.                !
 --------------------------------------------------------------------------------
 ! R1    R(1,2)                  1.3887         -DE/DX =   -0.0002              !
 ! R2    R(2,3)                  1.0874         -DE/DX =   -0.0002              !
 ! R3    R(2,4)                  1.0874         -DE/DX =   -0.0002              !
 ! R4    R(2,5)                  1.0874         -DE/DX =   -0.0002              !
 ! A1    A(1,2,3)              108.6619         -DE/DX =    0.0                 !
 ! A2    A(1,2,4)              108.6619         -DE/DX =    0.0                 !
 ! A3    A(1,2,5)              108.6619         -DE/DX =    0.0                 !
 ! A4    A(3,2,4)              110.2683         -DE/DX =    0.0                 !
 ! A5    A(3,2,5)              110.2683         -DE/DX =    0.0                 !
 ! A6    A(4,2,5)              110.2683         -DE/DX =    0.0                 !
 ! D1    D(3,2,5,4)            122.0072         -DE/DX =   -0.0001              !
 --------------------------------------------------------------------------------
 GradGradGradGradGradGradGradGradGradGradGradGradGradGradGradGradGradGrad

                          Input orientation:                          
 ---------------------------------------------------------------------
 Center     Atomic      Atomic             Coordinates (Angstroms)
 Number     Number       Type             X           Y           Z
 ---------------------------------------------------------------------
      1          9           0       -0.000000   -0.000000    0.085733
      2          6           0       -0.000000   -0.000000    1.474463
      3          1           0        1.030199    0.000000    1.822402
      4          1           0       -0.515099    0.892178    1.822402
      5          1           0       -0.515099   -0.892178    1.822402
 ---------------------------------------------------------------------
                    Distance matrix (angstroms):
                    1          2          3          4          5
     1  F    0.000000
     2  C    1.388730   0.000000
     3  H    2.019240   1.087369   0.000000
     4  H    2.019240   1.087369   1.784357   0.000000
     5  H    2.019240   1.087369   1.784357   1.784357   0.000000
 Stoichiometry    CH3F
 Framework group  C3V[C3(CF),3SGV(H)]
 Deg. of freedom     3
 Full point group                 C3V     NOp   6
 Largest Abelian subgroup         CS      NOp   2
 Largest concise Abelian subgroup CS      NOp   2
                         Standard orientation:                         
 ---------------------------------------------------------------------
 Center     Atomic      Atomic             Coordinates (Angstroms)
 Number     Number       Type             X           Y           Z
 ---------------------------------------------------------------------
      1          9           0        0.000000    0.000000    0.752355
      2          6           0        0.000000    0.000000   -0.636375
      3          1           0        0.000000    1.030199   -0.984314
      4          1           0        0.892178   -0.515099   -0.984314
      5          1           0       -0.892178   -0.515099   -0.984314
 ---------------------------------------------------------------------
 Rotational constants (GHZ):         157.4956843          25.5900834          25.5900834

 **********************************************************************

            Population analysis using the SCF density.

 **********************************************************************

 Orbital symmetries:
       Occupied  (A1) (A1) (A1) (A1) (E) (E) (A1) (E) (E)
       Virtual   (A1) (E) (E) (A1) (E) (E) (A1) (A1) (E) (E) (E)
                 (E) (A1) (A1) (E) (E) (E) (E) (A2) (A1) (E) (E)
                 (A1) (E) (E) (A1) (A1) (E) (E) (E) (E) (A1) (A1)
                 (E) (E) (A2) (E) (E) (A1) (E) (E) (A1) (E) (E)
                 (E) (E) (A1) (A2) (E) (E) (E) (E) (A1) (E) (E)
                 (A1) (E) (E) (A1) (E) (E) (A1) (A2) (E) (E) (A1)
                 (E) (E) (E) (E) (A1) (E) (E) (A2) (E) (E) (A1)
                 (E) (E) (A1) (A1) (A1) (E) (E) (A1) (E) (E) (A2)
                 (A1) (E) (E) (E) (E) (E) (E) (A1) (E) (E) (A2)
                 (A1) (E) (E) (E) (E) (E) (E) (A2) (E) (E) (A1)
                 (A1) (E) (E) (A1) (A1) (E) (E) (E) (E) (A1) (A2)
                 (E) (E) (E) (E) (A1) (A1) (E) (E) (A2) (E) (E)
                 (A1) (E) (E) (E) (E) (A1) (A1) (A2) (E) (E) (A1)
                 (E) (E) (E) (E) (E) (E) (A1) (A1) (A1)
 The electronic state is 1-A1.
 Alpha  occ. eigenvalues --  -26.27764 -11.30620  -1.58450  -0.95583  -0.69436
 Alpha  occ. eigenvalues --   -0.69436  -0.67212  -0.53233  -0.53233
 Alpha virt. eigenvalues --    0.02871   0.04654   0.04654   0.07443   0.12347
 Alpha virt. eigenvalues --    0.12347   0.13932   0.19360   0.20524   0.20524
 Alpha virt. eigenvalues --    0.22541   0.22541   0.23581   0.31749   0.32416
 Alpha virt. eigenvalues --    0.32416   0.33199   0.33199   0.34541   0.38409
 Alpha virt. eigenvalues --    0.38964   0.38964   0.39512   0.44717   0.44717
 Alpha virt. eigenvalues --    0.46549   0.47625   0.52082   0.52082   0.65601
 Alpha virt. eigenvalues --    0.65601   0.73212   0.76268   0.80391   0.80391
 Alpha virt. eigenvalues --    0.87309   0.88303   0.88303   0.93322   0.94072
 Alpha virt. eigenvalues --    0.94072   0.99517   1.01863   1.01863   1.03590
 Alpha virt. eigenvalues --    1.03590   1.05045   1.06573   1.06942   1.06942
 Alpha virt. eigenvalues --    1.18465   1.18465   1.21843   1.23605   1.23605
 Alpha virt. eigenvalues --    1.25646   1.25772   1.25772   1.36711   1.55477
 Alpha virt. eigenvalues --    1.55477   1.56110   1.59411   1.61876   1.61876
 Alpha virt. eigenvalues --    1.66025   1.67863   1.67863   1.74218   1.74218
 Alpha virt. eigenvalues --    1.78278   1.88711   1.88711   1.90458   2.01542
[...]
 .04792816,-0.03915457,0.00269476,-0.00494415,-0.00201428,0.01963694,-0
 .03568545,-0.00513929,0.00890152,0.01835534,0.02649458,-0.04588997,-0.
 05157212,-0.00202123,-0.00052765,0.00089328,-0.02080161,0.03602952,0.0
 3143023,-0.00166407,0.00648349,-0.00382547,0.02728891,0.01787438,0.022
 60589,-0.01039541,-0.00674707,0.00055364,-0.00221851,0.00202613,0.0014
 6755,-0.01301092,0.00648350,0.00582243,-0.00662590,0.01787434,0.047928
 16,0.03915458,-0.00269476,-0.00494415,0.00201427,-0.00202613,-0.013120
 99,0.00148658,-0.01963694,-0.03568546,-0.00513929,-0.00890151,0.018355
 33,0.02649458,0.04588997,-0.05157212,-0.00202123,0.00052765,0.00089328
 ,0.00146755,-0.00148658,0.00089328,-0.02080161,-0.03602953,0.03143024,
 -0.01027726,0.,0.01027729,-0.01189728,0.,-0.00000094,0.00597668,0.,0.0
 0696351,-0.18561694,0.,-0.00597679,0.,0.,0.18560716,0.00977272,0.,0.00
 000059,0.02831088,0.,0.00000203,0.00831088,0.,0.00323183,0.05802929,0.
 ,-0.00974576,-0.04429900,0.,-0.00357487,0.,0.,0.00241707,0.,0.,0.01393
 307,0.00339233,0.,0.01260793,-0.01159878,0.,-0.02259277,0.01022910,0.,
 0.00689493,-0.00200515,0.00548613,0.00085096,0.06080548,-0.03268778,-0
 .01416892,-0.01102058,0.00905846,-0.00101133,-0.04910169,0.00232440,-0
 .00036282,-0.00137475,-0.02286962,-0.09102372,-0.00255406,0.00683916,-
 0.00638764,-0.00357969,0.01592463,0.06428267,-0.00063389,-0.00232414,-
 0.00630379,-0.01183781,-0.00013931,0.01129507,-0.00185759,-0.00261946,
 0.00154495,0.02113139,0.00629571,-0.00344585,-0.00200515,-0.00548613,0
 .00085097,0.06080549,0.03268778,-0.01416892,-0.01102059,-0.00905846,-0
 .00101133,0.00132194,-0.00221856,-0.00680211,-0.04910169,-0.00232440,-
 0.00036282,0.00137475,0.02286962,-0.09102372,0.00255406,-0.00683916,-0
 .00638764,0.00357969,0.00221856,0.03349150,-0.00121279,-0.01592462,0.0
 6428267,-0.00063388,0.00232414,-0.00630378,-0.01183781,0.00013932,0.01
 129508,-0.00185759,0.00261946,0.00154495,-0.00680211,0.00121279,-0.003
 09039,0.02113139,-0.00629571,-0.00344586,0.,-0.01027727,0.,0.,0.011897
 27,0.,0.,0.00597699,0.,0.00000001,0.00597648,0.,-0.00696352,-0.1856122
 0,0.,0.,-0.00977270,0.,0.,-0.02831091,0.,0.,-0.00125054,0.,0.,0.086279
 33,0.,0.,-0.00490121,0.,-0.00005717,0.09761616,0.,0.01564229,-0.065881
 48,0.,0.,0.00197571,0.,0.,0.01191637,0.,0.,-0.02476489,0.,0.00185450,0
 .00277541,0.00137458,-0.05395397,0.04667820,0.00255492,0.02302422,-0.0
 1341673,0.00213066,0.02907526,0.00460100,-0.00595600,-0.00243829,0.041
 00953,0.00160882,0.01122066,-0.00957366,0.00712591,0.00543641,-0.03830
 945,-0.00277873,0.00232436,-0.00205014,-0.01091867,0.00014033,0.011679
 03,0.01956514,0.00406759,0.00458989,-0.00267623,-0.00629622,-0.0138635
 2,-0.00597025,-0.00185450,0.00277541,-0.00137458,0.05395397,0.04667820
 ,-0.00255493,-0.02302421,-0.01341673,-0.00213065,0.,0.00227257,-0.0002
 3606,-0.02907526,0.00460100,0.00595600,-0.00243829,0.04100953,-0.00160
 882,0.01122066,-0.00957365,-0.00712591,0.00543641,0.00227257,0.,-0.000
 35525,-0.03830945,0.00277873,-0.00232436,-0.00205014,0.01091867,-0.000
 14033,0.01167903,-0.01956514,-0.00406759,0.00458989,0.00267623,0.00023
 607,-0.00035525,0.,0.00629622,-0.01386352,0.00597025,0.00202782,0.,0.0
 0202781,0.,0.,-0.02278036,0.00621885,0.,-0.00000001,-0.75385096,0.,0.0
 0621887,0.,0.,-0.75385138,0.,0.,-0.01337312,0.00000013,0.,0.00759077,-
 0.00655647,0.,-0.00919151,0.55058456,0.,0.19722822,-0.55499735,0.,0.00
 105869,0.,0.,-0.05216322,0.,0.,0.05982748,0.01195328,0.,0.01205116,0.2
 0086036,0.,0.00192744,-0.19515611,0.,-0.00446601,-0.00084510,0.0032974
 6,0.00459576,0.09852377,-0.26099762,-0.09861418,0.00548463,-0.02132187
 ,-0.00882877,-0.09387877,0.00329745,-0.00465268,-0.00796009,-0.2609975
 9,0.39989786,0.17080474,0.00426792,-0.00436147,-0.00098690,0.26622711,
 -0.40129138,-0.00597664,0.01035186,0.01205116,-0.10043024,0.17395030,0
 .00192745,0.00355970,-0.00813940,-0.00475629,0.09757811,-0.16901025,-0
 .00446598,-0.00084510,-0.00329746,0.00459576,0.09852377,0.26099761,-0.
 09861418,0.00548463,0.02132187,-0.00882877,-0.00928452,-0.01279491,0.0
 0526908,-0.09387878,-0.00329745,-0.00465268,0.00796009,0.26099758,0.39
 989788,-0.17080474,-0.00426792,-0.00436147,0.00098690,0.01279491,0.010
 40767,-0.00715250,-0.26622711,-0.40129140,-0.00597664,-0.01035186,0.01
 205116,-0.10043024,-0.17395030,0.00192746,0.00355970,0.00813940,-0.004
 75629,0.00526907,0.00715250,-0.00475635,0.09757811,0.16901025,-0.00446
 598,-0.00330926,0.,0.00330895,-0.01727364,0.,0.00000121,0.01103603,0.,
 0.04685367,-0.75249912,0.,-0.01103542,0.,0.,0.75235391,-0.00569622,0.,
 -0.00000142,-0.50744700,0.,0.00002992,-0.00981018,0.,-0.01934514,0.830
 48806,0.,0.32959571,-0.80820701,0.,-0.00088174,0.,0.,-0.11494242,0.,0.
 ,0.10236557,0.01631775,0.,0.01364577,0.30827504,0.,0.00778745,-0.30685
 675,0.,-0.01649358,0.00104170,-0.00118467,-0.00511745,-0.04451248,0.20
 622772,0.09177376,-0.00623544,-0.01148318,-0.00886802,0.04337288,-0.00
 208639,0.00430411,0.00821420,0.18433391,-0.31318803,-0.13724650,-0.003
 88422,0.00672930,0.00177894,-0.18596158,0.30947480,0.00332605,-0.00750
 054,-0.00682278,0.07615915,-0.13395172,-0.00390797,-0.00169691,0.00118
 389,-0.00246982,-0.07507150,0.13376087,0.00826011,0.00104170,0.0011846
 7,-0.00511744,-0.04451249,-0.20622771,0.09177375,-0.00623543,0.0114831
 8,-0.00886801,0.00633333,0.00759829,-0.00271679,0.04337289,0.00208639,
 0.00430411,-0.00821420,-0.18433391,-0.31318804,0.13724650,0.00388423,0
 .00672929,-0.00177894,-0.00759829,-0.00732018,0.00650751,0.18596158,0.
 30947481,0.00332605,0.00750055,-0.00682278,0.07615915,0.13395172,-0.00
 390798,-0.00169691,-0.00118389,-0.00246982,-0.00271679,-0.00650751,0.0
 0494045,-0.07507150,-0.13376087,0.00826013,0.,-0.00330911,0.,0.,0.0172
 7363,0.,0.,0.01103573,0.,0.,0.01103577,0.,-0.04685366,-0.75242671,0.00
 000001,0.,0.00569618,0.,0.,0.50744713,0.,0.,-0.00016630,0.,0.,0.034227
 83,0.,0.,-0.00120752,0.,0.00037492,0.00894704,-0.00000002,-0.01253605,
 -0.02568066,0.00000002,0.,0.00100434,0.,0.,0.00117626,-0.00000001,0.,-
 0.00215406,0.00000002,0.00299414,-0.00378016,-0.00821424,-0.11450230,0
 .35358156,0.13727786,-0.00811166,0.00897056,0.00295594,0.11961982,-0.0
 0325957,0.00626526,0.01460255,0.36622197,-0.50513689,-0.25030363,-0.00
 419044,0.00725678,-0.00001327,-0.34785383,0.49161485,0.00750071,-0.011
 98708,-0.01181751,0.13398337,-0.23088487,-0.00675232,-0.00591922,0.007
 15760,0.00427824,-0.13379221,0.22957694,0.01429158,-0.00299414,-0.0037
 8016,0.00821424,0.11450231,0.35358156,-0.13727786,0.00811167,0.0089705
 7,-0.00295593,0.,-0.01091813,-0.00177265,-0.11961984,-0.00325957,-0.00
 626526,0.01460255,0.36622196,0.50513689,-0.25030363,-0.00419043,-0.007
 25678,-0.00001327,-0.01091813,0.,0.00613741,-0.34785383,-0.49161485,-0
 .00750071,-0.01198708,0.01181751,-0.13398337,-0.23088487,0.00675233,0.
 00591922,0.00715759,-0.00427825,0.00177265,0.00613741,0.,0.13379220,0.
 22957694,-0.01429159,-0.05155970,-0.00000002,-0.05155998,0.00000076,0.
 00000001,0.40547588,0.04820013,0.00000003,0.00000045,-0.05768486,-0.00
 000004,0.04820044,0.00000045,0.00000032,-0.05768421,-0.00000050,0.0000
 0015,-0.39115601,-0.00000038,-0.00000064,0.38615166,-0.00030104,-0.000
 00007,-0.00799852,0.00754218,0.00000039,0.00889350,-0.00597969,0.,0.00
 254076,-0.00000006,0.00000006,-0.00122107,-0.00000007,0.00000025,-0.00
 082531,-0.00626550,-0.00000008,-0.00477291,0.00865958,-0.00000003,0.00
 166697,-0.00117192,0.00000005,0.00246008,0.00183028,0.00123051,0.00399
 882,0.00097046,-0.00379503,-0.00444648,-0.00063043,0.00025853,-0.00061
 097,-0.00211508,0.00123031,0.00040941,-0.00693210,-0.00379426,0.005352
 19,0.00770755,0.00040538,-0.00024723,-0.00019334,0.00223203,-0.0046911
 6,0.00313272,-0.00542609,-0.00477377,-0.00432978,0.00749966,0.00166825
 ,0.00013821,-0.00062573,0.00032272,0.00058610,-0.00101494,0.00245953,0
 .00183033,-0.00123045,0.00399849,0.00097210,0.00379437,-0.00444616,-0.
 00063104,-0.00025885,-0.00061117,-0.00005523,-0.00007346,0.00047276,-0
 .00211614,-0.00123025,0.00040937,0.00693170,0.00379384,0.00535264,-0.0
 0770698,-0.00040595,-0.00024716,0.00019339,0.00007397,-0.00082321,-0.0
 0043290,-0.00223161,-0.00469163,0.00313253,0.00542601,-0.00477322,-0.0
 0432987,-0.00749945,0.00166912,0.00013874,0.00062581,0.00032315,0.0004
 7252,0.00043282,0.00032327,0.00058608,0.00101480,0.00245769,-0.0137409
 9,-0.00000006,-0.01822699,0.00929630,-0.00000007,0.02600054,0.02944176
 ,0.00000022,0.01038365,-0.37235599,0.,0.01455329,0.00000006,0.00000023
 ,-0.17724493,-0.01003242,0.00000009,-0.00079498,-0.04413520,0.,0.02446
 174,-0.01160008,-0.00000011,-0.03168503,0.28496376,-0.00000022,0.12470
 696,-0.27911964,-0.00000004,0.00427229,-0.00000003,-0.00000002,-0.0173
 9079,-0.00000004,0.00000005,0.01480114,0.00175424,-0.00000009,-0.01725
 441,0.10224030,-0.00000002,-0.01951951,-0.09386177,0.00000004,0.049177
 12,-0.00205041,0.00226882,0.00600248,0.02897547,-0.05986633,-0.0352696
 1,0.00287779,-0.00844073,-0.00506646,-0.02597957,0.00094913,-0.0002993
 5,-0.00495565,-0.05780817,0.09004101,0.03689678,-0.00107499,-0.0008413
 3,-0.00107445,0.06198617,-0.08584514,-0.00050908,0.00103128,-0.0039754
 8,-0.03424439,0.03358742,-0.00207378,0.00041992,-0.00404590,-0.0062015
 5,0.03117300,-0.03071966,0.01272171,-0.00205027,-0.00226887,0.00600260
 ,0.02897500,0.05986632,-0.03526973,0.00287815,0.00844074,-0.00506632,-
 0.00382327,-0.00405214,0.00316056,-0.02597960,-0.00094902,-0.00029924,
 0.00495569,0.05780773,0.09004142,-0.03689683,0.00107527,-0.00084132,0.
 00107452,0.00405208,-0.00305519,0.00014687,-0.06198605,-0.08584567,-0.
 00050903,-0.00103122,-0.00397568,-0.03424437,-0.03358745,-0.00207348,0
 .00041993,0.00404592,-0.00620164,0.00316059,-0.00014701,-0.00047088,0.
 03117288,0.03071975,0.01272168,-0.01822637,0.,-0.01374246,-0.00929554,
 -0.00000015,0.02600069,0.01455336,-0.00000008,-0.01038269,-0.17723832,
 0.00000005,0.02943859,-0.00000011,0.00000002,-0.37235814,0.01004100,0.
 00000019,-0.00079730,0.04412633,0.00000026,0.02445625,0.00102093,0.000
 00006,0.00084582,0.07265980,-0.00000020,0.02456408,-0.07303682,0.,-0.0
 0167491,0.00000010,-0.00000015,-0.00318110,-0.00000017,0.00000024,0.01
 190135,0.00094158,-0.00000001,0.00045141,0.02753583,-0.00000022,0.0037
 4803,-0.02498053,0.,0.00056620,0.00132599,0.00343635,0.00941608,0.0450
 1225,-0.10390490,-0.03936552,-0.00032191,-0.00527041,-0.00174850,-0.04
 194161,0.00473251,-0.00701066,-0.02176075,-0.10592682,0.17305039,0.092
 35566,0.00263567,-0.00352259,-0.00262614,0.10214880,-0.17158835,-0.000
 84356,0.00127922,-0.01282723,-0.03063958,0.07880752,-0.01370370,-0.000
 21484,-0.00359668,-0.00238282,0.02828025,-0.07222946,0.03694540,0.0013
 2608,-0.00343633,0.00941633,0.04501290,0.10390505,-0.03936591,-0.00032
 202,0.00527032,-0.00174837,-0.00407472,-0.00359016,0.00341772,-0.04194
 223,-0.00473255,-0.00701057,0.02176092,0.10592703,0.17305028,-0.092355
 94,-0.00263577,-0.00352276,0.00262637,0.00359017,0.00907119,-0.0042605
 9,-0.10214888,-0.17158817,-0.00084349,-0.00127924,-0.01282763,-0.03063
 989,-0.07880744,-0.01370329,-0.00021454,0.00359675,-0.00238282,0.00341
 769,0.00426069,-0.00803165,0.02828024,0.07222925,0.03694539,-0.0154517
 3,-0.00000001,-0.01545196,-0.00000027,0.00000011,0.03778384,0.02915591
 ,-0.00000007,0.00000095,-0.33535656,0.00000010,0.02915613,0.00000011,-
 0.00000008,-0.33535442,0.00000042,-0.00000008,-0.03199205,-0.00000138,
 0.00000002,-0.00181977,-0.00802711,0.00000008,-0.01344985,0.20478176,0
 .00000015,0.09499156,-0.19111906,0.,-0.00110903,-0.00000001,-0.0000000
 9,-0.00065141,0.,0.00000012,0.00575266,0.00498524,0.00000005,-0.001930
 55,0.10375064,0.00000002,0.01126894,-0.09097505,0.00000007,0.00011001,
 -0.00283850,0.00299562,0.00672455,0.05070897,-0.08895478,-0.04749537,-
 0.00281755,-0.00326760,-0.00888033,-0.04346810,0.00299549,-0.00629757,
 -0.01164780,-0.08895388,0.15342437,0.08226438,0.00469078,-0.00199622,0
 .00031865,0.08524739,-0.14190181,-0.00249269,0.00431725,-0.00193063,-0
 .05187524,0.08985018,0.01127096,0.00471665,-0.00753131,-0.00472430,0.0
 4548739,-0.07878589,0.00010790,-0.00283856,-0.00299562,0.00672463,0.05
 070993,0.08895460,-0.04749523,-0.00281805,0.00326757,-0.00888051,-0.00
 158481,-0.00397978,0.00416389,-0.04346851,-0.00299558,-0.00629756,0.01
 164760,0.08895412,0.15342535,-0.08226431,-0.00469113,-0.00199601,-0.00
 031879,0.00397938,-0.00322878,-0.00785022,-0.08524679,-0.14190300,-0.0
 0249270,-0.00431732,-0.00193064,-0.05187497,-0.08985033,0.01127192,0.0
 0471670,0.00753127,-0.00472409,0.00416376,0.00785065,-0.00472393,0.045
 48722,0.07878573,0.00010674,-0.00293822,0.00000004,-0.00550345,0.00739
 403,0.00000007,-0.01280104,0.01006696,-0.00000004,-0.00856373,-0.20789
 567,-0.00000008,0.02274490,0.00000009,0.00000033,-0.42747973,-0.002158
 08,0.,0.00680287,0.06387570,0.00000008,-0.06549028,0.00001372,-0.00000
 004,-0.00434439,0.04584342,-0.00000013,0.02576509,-0.04756249,0.,-0.00
 011466,0.00000001,-0.00000017,0.02782533,0.00000004,0.00000019,-0.0050
 0300,0.00101943,-0.00000008,0.00150878,0.03393045,-0.00000010,0.014866
 57,-0.02186142,-0.00000003,-0.01297399,-0.00357119,0.00286234,0.002757
 10,0.07599209,-0.15353676,-0.04374124,0.00085260,-0.00546847,-0.006544
 31,-0.06310711,0.00136105,-0.00856333,-0.00705818,-0.11450955,0.188454
 52,0.06450713,0.00910606,-0.01135383,0.00205998,0.13009267,-0.15630125
 ,-0.00312765,-0.00005149,0.00224460,-0.04462120,0.08673205,0.02190988,
 0.00022028,0.00043968,-0.00170065,0.04477592,-0.07331466,-0.02411339,-
 0.00357128,-0.00286230,0.00275699,0.07599319,0.15353662,-0.04374148,0.
 00085276,0.00546844,-0.00654414,-0.01016639,-0.02605022,0.00275265,-0.
 06310827,-0.00136102,-0.00856348,0.00705802,0.11450943,0.18845500,-0.0
 6450725,-0.00910608,-0.01135385,-0.00205976,0.02605022,-0.01223610,-0.
 01380559,-0.13009255,-0.15630158,-0.00312773,0.00005150,0.00224473,-0.
 04462122,-0.08673212,0.02191094,0.00022046,-0.00043970,-0.00170070,0.0
 0275253,0.01380574,0.00165957,0.04477597,0.07331458,-0.02411454,-0.005
 50283,0.00000004,-0.00293532,-0.00739404,-0.00000006,-0.01280049,0.022
 74384,-0.00000006,0.00856566,-0.42747641,-0.00000009,0.01005736,0.0000
 0017,0.00000013,-0.20792697,0.00215847,0.00000009,0.00680310,-0.063863
 79,0.00000001,-0.06547195,-0.01219725,0.00000002,-0.00854116,0.3532583
 5,-0.00000011,0.09504967,-0.31168826,0.00000003,-0.00391680,0.00000018
 ,-0.00000021,-0.02522011,-0.00000013,0.00000021,0.03654179,0.00168605,
 0.00000005,0.00248923,0.11858275,-0.00000007,0.02423887,-0.10721444,0.
 00000003,-0.02782494,-0.00252183,0.00066464,0.00368472,0.02573738,-0.0
 1816023,-0.01667212,-0.01468630,-0.02275586,-0.00652715,-0.00295964,0.
 00215418,-0.00160255,-0.00409991,-0.05718422,0.11154488,0.04013176,0.0
 1687187,-0.00370249,0.00259975,0.03920477,-0.10525621,0.00177472,0.002
 36970,0.00175409,-0.03164223,0.04536276,0.01721513,0.01035296,-0.00932
 776,0.00054842,0.01979162,-0.03851813,-0.01677172,-0.00252192,-0.00066
 464,0.00368483,0.02573685,0.01816032,-0.01667223,-0.01468657,0.0227558
 3,-0.00652721,-0.00556959,-0.00104661,-0.00027707,-0.00295878,-0.00215
 415,-0.00160269,0.00409962,0.05718437,0.11154482,-0.04013172,-0.016871
 99,-0.00370241,-0.00259976,0.00104667,-0.00098363,0.00011343,-0.039204
 90,-0.10525608,0.00177480,-0.00236977,0.00175404,-0.03164237,-0.045362
 88,0.01721483,0.01035298,0.00932768,0.00054844,-0.00027708,-0.00011347
 ,-0.00274591,0.01979167,0.03851843,-0.01677139,-0.00071301,0.,-0.00071
 314,-0.00000006,0.00000014,-0.00918324,-0.00121341,0.00000004,-0.00000
 004,1.06799236,0.00000003,-0.00121319,-0.00000006,-0.00000033,1.067994
 07,-0.00000005,-0.00000021,0.01101750,-0.00000015,0.,-0.25309675,0.003
 27858,-0.00000005,0.00961936,-0.88843464,-0.00000017,-0.33385911,0.876
 08965,-0.00000001,-0.00199445,0.00000008,-0.00000019,0.17724811,-0.000
 00016,0.00000029,-0.19115612,-0.00396121,-0.00000003,-0.00061119,-0.35
 188939,0.00000003,0.08069296,0.33446125,0.00000008,-0.09045885,-0.0006
 7610,-0.00228322,-0.00480961,-0.08917242,0.46145468,0.16692950,0.00453
 323,0.01857225,0.01069473,0.07565509,-0.00228324,0.00196040,0.00833014
 ,0.46145476,-0.62201491,-0.28913027,-0.01265249,0.00795133,0.00027306,
 -0.46213125,0.60927874,0.00198062,-0.00343062,-0.00061162,0.17594479,-
 0.30474544,0.08069318,-0.00511080,0.00939850,0.00518850,-0.16723059,0.
 28965225,-0.09045882,-0.00067607,0.00228324,-0.00480965,-0.08917190,-0
 .46145422,0.16692979,0.00453317,-0.01857234,0.01069463,0.00966019,0.01
 561221,-0.00558402,0.07565461,0.00228323,0.00196040,-0.00833029,-0.461
 45429,-0.62201405,0.28913065,0.01265242,0.00795111,-0.00027314,-0.0156
 1246,0.00282444,0.00912531,0.46213110,0.60927808,0.00198069,0.00343072
 ,-0.00061148,0.17594480,0.30474548,0.08069310,-0.00511069,-0.00939850,
 0.00518858,-0.00558404,-0.00912518,0.00518876,-0.16723076,-0.28965252,
 -0.09045895,0.00254332,0.00000002,0.00641774,-0.00421633,-0.00000001,-
 0.03109927,-0.01346752,-0.00000001,-0.00699180,1.95643166,-0.00000002,
 -0.01251609,-0.00000011,-0.00000013,0.25963378,0.01237022,-0.00000007,
 0.03705039,0.65094668,0.00000002,-0.25710862,0.00850230,0.00000006,0.0
 1821320,-1.92657762,0.00000010,-0.85581085,1.90004566,0.,0.00143290,0.
 00000007,0.00000010,0.47681468,0.,-0.00000008,-0.46595043,-0.00660547,
 0.00000004,-0.00443965,-0.84505475,0.,0.15261156,0.83970651,-0.0000000
 2,-0.14369274,0.00121093,0.00111387,-0.00350251,-0.00819306,0.23413820
 ,0.09624695,0.00901489,0.00188850,0.00597689,-0.00942758,-0.00094547,0
 .00233275,0.00314961,0.23602063,-0.36196612,-0.17412367,-0.00559750,-0
 .00614856,-0.00547873,-0.23330909,0.36272799,-0.00077419,-0.00136749,-
 0.00075584,0.10055003,-0.18501767,0.03372352,-0.00105449,-0.00322439,-
 0.00223956,-0.09831189,0.18303124,-0.03662561,0.00121097,-0.00111393,-
 0.00350255,-0.00819345,-0.23413815,0.09624700,0.00901475,-0.00188852,0
 .00597683,0.00739482,0.00383143,-0.00040945,-0.00942709,0.00094548,0.0
 0233270,-0.00314955,-0.23602059,-0.36196622,0.17412372,0.00559742,-0.0
 0614861,0.00547872,-0.00383146,0.00305392,0.00657831,0.23330916,0.3627
 2819,-0.00077422,0.00136753,-0.00075565,0.10054983,0.18501778,0.033723
 14,-0.00105436,0.00322435,-0.00223961,-0.00040943,-0.00657845,0.005897
 49,-0.09831182,-0.18303119,-0.03662535,0.00641812,0.00000011,0.0025458
 8,0.00421752,-0.00000016,-0.03109922,-0.01251759,-0.00000015,0.0069967
 1,0.25978064,-0.00000017,-0.01347803,0.00000005,0.00000034,1.95642186,
 -0.01236815,-0.00000001,0.03705268,-0.65087954,-0.00000005,-0.25708209
 ,-0.00019475,0.00000007,-0.00010314,0.00594876,-0.00000042,0.01999613,
 -0.00426092,-0.00000002,0.00164110,0.00000006,-0.00000016,-0.01631895,
 0.00000006,0.00000015,-0.00277064,0.00113740,0.00000015,0.00046915,0.0
 0096562,-0.00000030,-0.00589394,-0.00296427,0.00000002,-0.00095531,0.0
 0314706,-0.00338308,-0.00555559,-0.12660602,0.79684416,0.32162583,-0.0
 0074648,0.00064835,0.00043061,0.13196065,-0.00133527,0.00464547,0.0125
 3867,0.79495898,-0.96331218,-0.54964732,-0.00692296,0.00872417,-0.0018
 1264,-0.79040492,0.94186386,0.00350669,-0.00339115,-0.00321129,0.32145
 867,-0.54592414,0.11296150,-0.00846437,0.00522847,0.00319003,-0.320000
 17,0.54150415,-0.10804354,0.00314715,0.00338305,-0.00555551,-0.1266057
 9,-0.79684392,0.32162572,-0.00074662,-0.00064831,0.00043064,-0.0077552
 1,0.00370417,0.00349917,0.13196047,0.00133535,0.00464558,-0.01253861,-
 0.79495901,-0.96331263,0.54964732,0.00692315,0.00872430,0.00181277,-0.
 00370451,0.00807865,0.00258266,0.79040502,0.94186409,0.00350653,0.0033
 9117,-0.00321135,0.32145853,0.54592444,0.11296186,-0.00846435,-0.00522
 861,0.00319008,0.00349932,-0.00258286,-0.00489669,-0.32000002,-0.54150
 415,-0.10804389\\@


 DON'T WORRY CHARLIE BROWN...WE LEARN MORE FROM LOSING 
 THAN WE DO FROM WINNING.
 THEN THAT MAKES ME THE SMARTEST PERSON IN THE WORLD...
 CHARLES SCHULZ 'PEANUTS'
 Job cpu time:       0 days 15 hours 39 minutes 10.8 seconds.
 Elapsed time:       0 days  0 hours 34 minutes 12.0 seconds.
 File lengths (MBytes):  RWF=   2184 Int=      0 D2E=      0 Chk=     48 Scr=      8
 Normal termination of Gaussian 16 at Mon Dec 20 13:11:18 2021.
