 Entering Gaussian System, Link 0=g16
 Input=foh_mp2_avtz_opt_anharm.gjf
 Output=foh_mp2_avtz_opt_anharm.log
 Initial command:
 /sw/contrib/gaussian/g16/A03/g16/l1.exe "/gscratch/scrubbed/gds001/Gau-15898.inp" -scrdir="/gscratch/scrubbed/gds001/"
 Entering Link 1 = /sw/contrib/gaussian/g16/A03/g16/l1.exe PID=     15899.
  
 Copyright (c) 1988,1990,1992,1993,1995,1998,2003,2009,2016,
            Gaussian, Inc.  All Rights Reserved.
  
 This is part of the Gaussian(R) 16 program.  It is based on
 the Gaussian(R) 09 system (copyright 2009, Gaussian, Inc.),
 the Gaussian(R) 03 system (copyright 2003, Gaussian, Inc.),
 the Gaussian(R) 98 system (copyright 1998, Gaussian, Inc.),
 the Gaussian(R) 94 system (copyright 1995, Gaussian, Inc.),
 the Gaussian 92(TM) system (copyright 1992, Gaussian, Inc.),
 the Gaussian 90(TM) system (copyright 1990, Gaussian, Inc.),
 the Gaussian 88(TM) system (copyright 1988, Gaussian, Inc.),
 the Gaussian 86(TM) system (copyright 1986, Carnegie Mellon
 University), and the Gaussian 82(TM) system (copyright 1983,
 Carnegie Mellon University). Gaussian is a federally registered
 trademark of Gaussian, Inc.
  
 This software contains proprietary and confidential information,
 including trade secrets, belonging to Gaussian, Inc.
  
 This software is provided under written license and may be
 used, copied, transmitted, or stored only in accord with that
 written license.
  
 The following legend is applicable only to US Government
 contracts under FAR:
  
                    RESTRICTED RIGHTS LEGEND
  
 Use, reproduction and disclosure by the US Government is
 subject to restrictions as set forth in subparagraphs (a)
 and (c) of the Commercial Computer Software - Restricted
 Rights clause in FAR 52.227-19.
  
 Gaussian, Inc.
 340 Quinnipiac St., Bldg. 40, Wallingford CT 06492
  
  
 ---------------------------------------------------------------
 Warning -- This program may not be used in any manner that
 competes with the business of Gaussian, Inc. or will provide
 assistance to any competitor of Gaussian, Inc.  The licensee
 of this program is prohibited from giving any competitor of
 Gaussian, Inc. access to this program.  By using this program,
 the user acknowledges that Gaussian, Inc. is engaged in the
 business of creating and licensing software in the field of
 computational chemistry and represents and warrants to the
 licensee that it is not a competitor of Gaussian, Inc. and that
 it will not use this program in any manner prohibited above.
 ---------------------------------------------------------------
  

 Cite this work as:
 Gaussian 16, Revision A.03,
 M. J. Frisch, G. W. Trucks, H. B. Schlegel, G. E. Scuseria, 
 M. A. Robb, J. R. Cheeseman, G. Scalmani, V. Barone, 
 G. A. Petersson, H. Nakatsuji, X. Li, M. Caricato, A. V. Marenich, 
 J. Bloino, B. G. Janesko, R. Gomperts, B. Mennucci, H. P. Hratchian, 
 J. V. Ortiz, A. F. Izmaylov, J. L. Sonnenberg, D. Williams-Young, 
 F. Ding, F. Lipparini, F. Egidi, J. Goings, B. Peng, A. Petrone, 
 T. Henderson, D. Ranasinghe, V. G. Zakrzewski, J. Gao, N. Rega, 
 G. Zheng, W. Liang, M. Hada, M. Ehara, K. Toyota, R. Fukuda, 
 J. Hasegawa, M. Ishida, T. Nakajima, Y. Honda, O. Kitao, H. Nakai, 
 T. Vreven, K. Throssell, J. A. Montgomery, Jr., J. E. Peralta, 
 F. Ogliaro, M. J. Bearpark, J. J. Heyd, E. N. Brothers, K. N. Kudin, 
 V. N. Staroverov, T. A. Keith, R. Kobayashi, J. Normand, 
 K. Raghavachari, A. P. Rendell, J. C. Burant, S. S. Iyengar, 
 J. Tomasi, M. Cossi, J. M. Millam, M. Klene, C. Adamo, R. Cammi, 
 J. W. Ochterski, R. L. Martin, K. Morokuma, O. Farkas, 
 J. B. Foresman, and D. J. Fox, Gaussian, Inc., Wallingford CT, 2016.
 
 ******************************************
 Gaussian 16:  ES64L-G16RevA.03 25-Dec-2016
                20-Dec-2021 
 ******************************************
 %nprocshared=28
 Will use up to   28 processors via shared memory.
 %mem=41GB
 ----------------------------------------------
 # MP2/aug-cc-pVTZ opt freq=(vibrot,anharmonic)
 ----------------------------------------------
 1/18=20,19=15,38=1,80=1/1,3;
 2/9=110,12=2,17=6,18=5,40=1/2;
 3/5=16,6=1,7=10,11=9,25=1,30=1,71=1/1,2,3;
 4//1;
 5/5=2,38=5/2;
 8/6=4,10=1/1;
 9/15=2,16=-3/6;
 10/5=1/2;
 6/7=2,8=2,9=2,10=2/1;
 7/12=2/1,2,3,16;
 1/18=20,19=15,80=1/3(2);
 2/9=110/2;
 99//99;
 2/9=110/2;
 3/5=16,6=1,7=10,11=9,25=1,30=1,71=1/1,2,3;
 4/5=5,16=3,69=1/1;
 5/5=2,38=5/2;
 8/6=4,10=1/1;
 9/15=2,16=-3/6;
 10/5=1/2;
 7/12=2/1,2,3,16;
 1/18=20,19=15,80=1/3(-8);
 2/9=110/2;
 6/7=2,8=2,9=2,10=2/1;
 99//99;
 ----
 bleh
 ----
 Symbolic Z-matrix:
 Charge =  0 Multiplicity = 1
 O
 F                    1    R1
 H                    1    R2       2    A1
       Variables:
  R1                    1.5                      
  R2                    1.                       
  A1                  105.                       
 

 GradGradGradGradGradGradGradGradGradGradGradGradGradGradGradGradGradGrad
 Berny optimization.
 Initialization pass.
                           ----------------------------
                           !    Initial Parameters    !
                           ! (Angstroms and Degrees)  !
 --------------------------                            --------------------------
 ! Name  Definition              Value          Derivative Info.                !
 --------------------------------------------------------------------------------
 ! R1    R(1,2)                  1.5            estimate D2E/DX2                !
 ! R2    R(1,3)                  1.0            estimate D2E/DX2                !
 ! A1    A(2,1,3)              105.0            estimate D2E/DX2                !
 --------------------------------------------------------------------------------
 Trust Radius=3.00D-01 FncErr=1.00D-07 GrdErr=1.00D-07 EigMax=2.50D+02 EigMin=1.00D-04
 Number of steps in this run=     20 maximum allowed number of steps=    100.
 GradGradGradGradGradGradGradGradGradGradGradGradGradGradGradGradGradGrad

                          Input orientation:                          
 ---------------------------------------------------------------------
 Center     Atomic      Atomic             Coordinates (Angstroms)
 Number     Number       Type             X           Y           Z
 ---------------------------------------------------------------------
      1          8           0        0.000000    0.000000    0.000000
      2          9           0        0.000000    0.000000    1.500000
      3          1           0        0.965926    0.000000   -0.258819
 ---------------------------------------------------------------------
                    Distance matrix (angstroms):
                    1          2          3
     1  O    0.000000
     2  F    1.500000   0.000000
     3  H    1.000000   2.006603   0.000000
 Stoichiometry    FHO
 Framework group  CS[SG(FHO)]
 Deg. of freedom     3
 Full point group                 CS      NOp   2
 Largest Abelian subgroup         CS      NOp   2
 Largest concise Abelian subgroup C1      NOp   1
                         Standard orientation:                         
 ---------------------------------------------------------------------
 Center     Atomic      Atomic             Coordinates (Angstroms)
 Number     Number       Type             X           Y           Z
 ---------------------------------------------------------------------
      1          8           0        0.053663    0.735621   -0.000000
      2          9           0        0.053663   -0.764379   -0.000000
      3          1           0       -0.912263    0.994440    0.000000
 ---------------------------------------------------------------------
 Rotational constants (GHZ):         586.3397198          24.3919840          23.4177938
 Standard basis: Aug-CC-pVTZ (5D, 7F)
 There are    92 symmetry adapted cartesian basis functions of A'  symmetry.
 There are    43 symmetry adapted cartesian basis functions of A"  symmetry.
 There are    76 symmetry adapted basis functions of A'  symmetry.
 There are    39 symmetry adapted basis functions of A"  symmetry.
   115 basis functions,   171 primitive gaussians,   135 cartesian basis functions
     9 alpha electrons        9 beta electrons
       nuclear repulsion energy        32.0073848250 Hartrees.
 NAtoms=    3 NActive=    3 NUniq=    3 SFac= 1.00D+00 NAtFMM=   60 NAOKFM=F Big=F
 Integral buffers will be    131072 words long.
 Raffenetti 1 integral format.
 Two-electron integral symmetry is turned on.
 One-electron integrals computed using PRISM.
 NBasis=   115 RedAO= T EigKep=  4.10D-04  NBF=    76    39
 NBsUse=   115 1.00D-06 EigRej= -1.00D+00 NBFU=    76    39
 ExpMin= 2.53D-02 ExpMax= 1.95D+04 ExpMxC= 6.65D+02 IAcc=3 IRadAn=         5 AccDes= 0.00D+00
 Harris functional with IExCor=  205 and IRadAn=       5 diagonalized for initial guess.
 HarFok:  IExCor=  205 AccDes= 0.00D+00 IRadAn=         5 IDoV= 1 UseB2=F ITyADJ=14
 ICtDFT=  3500011 ScaDFX=  1.000000  1.000000  1.000000  1.000000
 FoFCou: FMM=F IPFlag=           0 FMFlag=      100000 FMFlg1=           0
         NFxFlg=           0 DoJE=T BraDBF=F KetDBF=T FulRan=T
         wScrn=  0.000000 ICntrl=       500 IOpCl=  0 I1Cent=   200000004 NGrid=           0
         NMat0=    1 NMatS0=      1 NMatT0=    0 NMatD0=    1 NMtDS0=    0 NMtDT0=    0
 Petite list used in FoFCou.
 Initial guess orbital symmetries:
       Occupied  (A') (A') (A') (A') (A') (A') (A") (A') (A")
       Virtual   (A') (A') (A') (A') (A") (A') (A') (A') (A") (A')
                 (A") (A') (A') (A') (A') (A") (A') (A") (A') (A')
                 (A") (A") (A') (A') (A') (A") (A') (A") (A') (A')
                 (A') (A") (A') (A") (A') (A") (A') (A') (A') (A')
                 (A") (A') (A') (A") (A") (A') (A') (A") (A') (A')
                 (A') (A") (A') (A") (A') (A") (A') (A") (A') (A")
                 (A') (A') (A') (A') (A") (A') (A") (A") (A") (A')
                 (A') (A') (A') (A") (A') (A") (A') (A') (A') (A')
                 (A") (A') (A") (A') (A") (A") (A') (A') (A") (A')
                 (A') (A') (A") (A') (A") (A') (A") (A") (A') (A')
                 (A') (A") (A') (A') (A') (A')
 The electronic state of the initial guess is 1-A'.
 Keep R1 ints in memory in symmetry-blocked form, NReq=35947685.
 Requested convergence on RMS density matrix=1.00D-08 within 128 cycles.
 Requested convergence on MAX density matrix=1.00D-06.
 Requested convergence on             energy=1.00D-06.
 No special actions if energy rises.
 SCF Done:  E(RHF) =  -174.794438383     A.U. after   13 cycles
            NFock= 13  Conv=0.16D-08     -V/T= 2.0024
 ExpMin= 2.53D-02 ExpMax= 1.95D+04 ExpMxC= 6.65D+02 IAcc=3 IRadAn=         5 AccDes= 0.00D+00
 HarFok:  IExCor=  205 AccDes= 0.00D+00 IRadAn=         5 IDoV=-2 UseB2=F ITyADJ=14
 ICtDFT= 12500011 ScaDFX=  1.000000  1.000000  1.000000  1.000000
 Range of M.O.s used for correlation:     3   115
 NBasis=   115 NAE=     9 NBE=     9 NFC=     2 NFV=     0
 NROrb=    113 NOA=     7 NOB=     7 NVA=   106 NVB=   106

 **** Warning!!: The largest alpha MO coefficient is  0.10551632D+02

 Fully direct method using O(ONN) memory.
 JobTyp=1 Pass  1:  I=   3 to   9 NPSUse= 28 ParTrn=T ParDer=T DoDerP=T.
 Spin components of T(2) and E(2):
     alpha-alpha T2 =       0.1534437697D-01 E2=     -0.6541324309D-01
     alpha-beta  T2 =       0.9346332889D-01 E2=     -0.3955704632D+00
     beta-beta   T2 =       0.1534437697D-01 E2=     -0.6541324309D-01
 ANorm=    0.1060260384D+01
 E2 =    -0.5263969494D+00 EUMP2 =    -0.17532083533266D+03
          IDoAtm=111
          Differentiating once with respect to electric field.
                with respect to dipole field.
          Differentiating once with respect to nuclear coordinates.
 Keep R1 ints in memory in symmetry-blocked form, NReq=35948903.
          There are     1 degrees of freedom in the 1st order CPHF.  IDoFFX=0 NUNeed=     1.
 LinEq1:  Iter=  0 NonCon=     1 RMS=6.26D-03 Max=4.61D-02 NDo=     1
 AX will form     1 AO Fock derivatives at one time.
 LinEq1:  Iter=  1 NonCon=     1 RMS=1.69D-03 Max=1.78D-02 NDo=     1
 LinEq1:  Iter=  2 NonCon=     1 RMS=7.02D-04 Max=6.26D-03 NDo=     1
 LinEq1:  Iter=  3 NonCon=     1 RMS=1.56D-04 Max=1.13D-03 NDo=     1
 LinEq1:  Iter=  4 NonCon=     1 RMS=6.20D-05 Max=4.46D-04 NDo=     1
 LinEq1:  Iter=  5 NonCon=     1 RMS=1.49D-05 Max=1.05D-04 NDo=     1
 LinEq1:  Iter=  6 NonCon=     1 RMS=3.16D-06 Max=2.61D-05 NDo=     1
 LinEq1:  Iter=  7 NonCon=     1 RMS=9.79D-07 Max=1.24D-05 NDo=     1
 LinEq1:  Iter=  8 NonCon=     1 RMS=1.73D-07 Max=1.28D-06 NDo=     1
 LinEq1:  Iter=  9 NonCon=     1 RMS=3.55D-08 Max=2.07D-07 NDo=     1
 LinEq1:  Iter= 10 NonCon=     1 RMS=7.41D-09 Max=5.85D-08 NDo=     1
 LinEq1:  Iter= 11 NonCon=     1 RMS=1.34D-09 Max=1.26D-08 NDo=     1
 LinEq1:  Iter= 12 NonCon=     1 RMS=2.91D-10 Max=2.58D-09 NDo=     1
 LinEq1:  Iter= 13 NonCon=     0 RMS=5.97D-11 Max=4.84D-10 NDo=     1
 Linear equations converged to 1.000D-10 1.000D-09 after    13 iterations.
 End of Minotr F.D. properties file   721 does not exist.
 End of Minotr F.D. properties file   722 does not exist.
 End of Minotr F.D. properties file   788 does not exist.

 **********************************************************************

            Population analysis using the SCF density.

 **********************************************************************

 Orbital symmetries:
       Occupied  (A') (A') (A') (A') (A') (A") (A') (A') (A")
       Virtual   (A') (A') (A') (A") (A') (A') (A') (A') (A") (A")
                 (A') (A') (A') (A') (A') (A") (A") (A') (A') (A')
                 (A") (A") (A') (A') (A') (A") (A') (A') (A') (A")
                 (A') (A") (A') (A") (A") (A') (A') (A') (A') (A')
                 (A") (A') (A") (A') (A") (A') (A') (A") (A') (A')
                 (A") (A') (A') (A") (A') (A") (A') (A') (A") (A")
                 (A') (A') (A') (A') (A") (A') (A") (A") (A') (A")
                 (A') (A') (A') (A') (A") (A") (A') (A') (A') (A')
                 (A") (A') (A") (A') (A") (A') (A") (A') (A") (A')
                 (A') (A') (A") (A') (A") (A') (A") (A') (A') (A")
                 (A') (A") (A') (A') (A') (A')
 The electronic state is 1-A'.
 Alpha  occ. eigenvalues --  -26.34943 -20.70735  -1.61491  -1.32361  -0.75927
 Alpha  occ. eigenvalues --   -0.70790  -0.66798  -0.60620  -0.55746
 Alpha virt. eigenvalues --    0.02609   0.08046   0.12866   0.15891   0.16579
 Alpha virt. eigenvalues --    0.18753   0.21971   0.23922   0.24671   0.26764
 Alpha virt. eigenvalues --    0.28491   0.33073   0.40985   0.42684   0.62800
 Alpha virt. eigenvalues --    0.70703   0.71762   0.72045   0.75181   0.83783
 Alpha virt. eigenvalues --    0.84852   0.88331   0.90706   0.91937   0.96974
 Alpha virt. eigenvalues --    0.98768   0.99449   1.05120   1.07890   1.08506
 Alpha virt. eigenvalues --    1.09082   1.11360   1.23633   1.39268   1.48311
 Alpha virt. eigenvalues --    1.50418   1.56071   1.64990   1.70316   1.95717
 Alpha virt. eigenvalues --    2.07880   2.11195   2.20603   2.20620   2.30305
 Alpha virt. eigenvalues --    2.35459   2.38281   2.44826   2.54704   2.58512
 Alpha virt. eigenvalues --    2.69978   2.72602   2.84036   2.91375   2.94316
 Alpha virt. eigenvalues --    3.00140   3.02419   3.13925   3.14218   3.26486
 Alpha virt. eigenvalues --    3.35262   3.45590   3.53727   3.55898   3.70788
 Alpha virt. eigenvalues --    3.86136   4.11932   4.22278   4.31306   4.31855
 Alpha virt. eigenvalues --    4.52047   4.65473   4.88654   5.06584   5.18453
 Alpha virt. eigenvalues --    5.30258   5.41093   5.45480   5.85733   6.27846
 Alpha virt. eigenvalues --    6.60252   6.64794   6.65001   6.81543   7.08194
 Alpha virt. eigenvalues --    7.09108   7.12584   7.21222   7.24350   7.43326
 Alpha virt. eigenvalues --    7.66617   7.96855   8.83844   8.84920   8.94889
 Alpha virt. eigenvalues --    8.97446   9.19120   9.23873   9.28597   9.31493
 Alpha virt. eigenvalues --    9.33358   9.46737   9.57619   9.87612  13.03442
 Alpha virt. eigenvalues --   14.85959
          Condensed to atoms (all electrons):
               1          2          3
     1  O    7.882662  -0.002344   0.225410
     2  F   -0.002344   9.227716   0.000376
     3  H    0.225410   0.000376   0.442739
 Mulliken charges:
               1
     1  O   -0.105727
     2  F   -0.225748
     3  H    0.331475
 Sum of Mulliken charges =  -0.00000
 Mulliken charges with hydrogens summed into heavy atoms:
               1
     1  O    0.225748
     2  F   -0.225748
 Electronic spatial extent (au):  <R**2>=             63.0129
 Charge=             -0.0000 electrons
 Dipole moment (field-independent basis, Debye):
    X=             -1.8559    Y=              1.5071    Z=              0.0000  Tot=              2.3908
 Quadrupole moment (field-independent basis, Debye-Ang):
   XX=             -8.8967   YY=             -9.5934   ZZ=            -11.2310
   XY=             -2.0705   XZ=              0.0000   YZ=              0.0000
 Traceless Quadrupole moment (field-independent basis, Debye-Ang):
   XX=              1.0104   YY=              0.3136   ZZ=             -1.3240
   XY=             -2.0705   XZ=              0.0000   YZ=              0.0000
 Octapole moment (field-independent basis, Debye-Ang**2):
  XXX=             -2.2766  YYY=              0.0815  ZZZ=              0.0000  XYY=             -2.2311
  XXY=              1.2996  XXZ=              0.0000  XZZ=             -0.1355  YZZ=             -0.9881
  YYZ=              0.0000  XYZ=             -0.0000
 Hexadecapole moment (field-independent basis, Debye-Ang**3):
 XXXX=             -7.3380 YYYY=            -39.3611 ZZZZ=             -7.9133 XXXY=             -0.9362
 XXXZ=              0.0000 YYYX=             -1.3189 YYYZ=              0.0000 ZZZX=              0.0000
 ZZZY=              0.0000 XXYY=             -7.1691 XXZZ=             -2.8818 YYZZ=             -9.2058
 XXYZ=              0.0000 YYXZ=              0.0000 ZZXY=              0.3334
 N-N= 3.200738482501D+01 E-N=-4.813874319652D+02  KE= 1.743720104504D+02
 Symmetry A'   KE= 1.628056152292D+02
 Symmetry A"   KE= 1.156639522118D+01
 Calling FoFJK, ICntrl=  10002127 FMM=F ISym2X=1 I1Cent= 0 IOpClX= 0 NMat=1 NMatS=1 NMatT=0.
 ***** Axes restored to original set *****
 -------------------------------------------------------------------
 Center     Atomic                   Forces (Hartrees/Bohr)
 Number     Number              X              Y              Z
 -------------------------------------------------------------------
      1        8           0.007424524    0.000000000    0.018630089
      2        9           0.011335652    0.000000000   -0.041260125
      3        1          -0.018760176   -0.000000000    0.022630036
 -------------------------------------------------------------------
 Cartesian Forces:  Max     0.041260125 RMS     0.018550716

 GradGradGradGradGradGradGradGradGradGradGradGradGradGradGradGradGradGrad
 Berny optimization.
 FormGI is forming the generalized inverse of G from B-inverse, IUseBI=4.
 Internal  Forces:  Max     0.041260130 RMS     0.033215463
 Search for a local minimum.
 Step number   1 out of a maximum of   20
 All quantities printed in internal units (Hartrees-Bohrs-Radians)
 Mixed Optimization -- RFO/linear search
 Second derivative matrix not updated -- first step.
 The second derivative matrix:
                          R1        R2        A1
           R1           0.32377
           R2           0.00000   0.47688
           A1           0.00000   0.00000   0.16000
 ITU=  0
     Eigenvalues ---    0.16000   0.32377   0.47688
 RFO step:  Lambda=-1.22364120D-02 EMin= 1.60000000D-01
 Linear search not attempted -- first point.
 Iteration  1 RMS(Cart)=  0.17046899 RMS(Int)=  0.00955188
 Iteration  2 RMS(Cart)=  0.00650002 RMS(Int)=  0.00001679
 Iteration  3 RMS(Cart)=  0.00002207 RMS(Int)=  0.00000000
 Iteration  4 RMS(Cart)=  0.00000000 RMS(Int)=  0.00000000
 ClnCor:  largest displacement from symmetrization is 5.55D-17 for atom     3.
 Variable       Old X    -DE/DX   Delta X   Delta X   Delta X     New X
                                 (Linear)    (Quad)   (Total)
    R1        2.83459  -0.04126   0.00000  -0.12279  -0.12279   2.71179
    R2        1.88973  -0.02398   0.00000  -0.04902  -0.04902   1.84070
    A1        1.83260  -0.03213   0.00000  -0.18656  -0.18656   1.64604
         Item               Value     Threshold  Converged?
 Maximum Force            0.041260     0.000450     NO 
 RMS     Force            0.033215     0.000300     NO 
 Maximum Displacement     0.197908     0.001800     NO 
 RMS     Displacement     0.170974     0.001200     NO 
 Predicted change in Energy=-6.438095D-03
 GradGradGradGradGradGradGradGradGradGradGradGradGradGradGradGradGradGrad

                          Input orientation:                          
 ---------------------------------------------------------------------
 Center     Atomic      Atomic             Coordinates (Angstroms)
 Number     Number       Type             X           Y           Z
 ---------------------------------------------------------------------
      1          8           0       -0.030393   -0.000000   -0.018381
      2          9           0        0.062154    0.000000    1.413652
      3          1           0        0.934165    0.000000   -0.154090
 ---------------------------------------------------------------------
                    Distance matrix (angstroms):
                    1          2          3
     1  O    0.000000
     2  F    1.435020   0.000000
     3  H    0.974058   1.793940   0.000000
 Stoichiometry    FHO
 Framework group  CS[SG(FHO)]
 Deg. of freedom     3
 Full point group                 CS      NOp   2
 Largest Abelian subgroup         CS      NOp   2
 Largest concise Abelian subgroup C1      NOp   1
                         Standard orientation:                         
 ---------------------------------------------------------------------
 Center     Atomic      Atomic             Coordinates (Angstroms)
 Number     Number       Type             X           Y           Z
 ---------------------------------------------------------------------
      1          8           0        0.053961    0.713442    0.000000
      2          9           0        0.053961   -0.721578    0.000000
      3          1           0       -0.917341    0.786664    0.000000
 ---------------------------------------------------------------------
 Rotational constants (GHZ):         569.7294405          27.1252143          25.8924564
 Standard basis: Aug-CC-pVTZ (5D, 7F)
 There are    92 symmetry adapted cartesian basis functions of A'  symmetry.
 There are    43 symmetry adapted cartesian basis functions of A"  symmetry.
 There are    76 symmetry adapted basis functions of A'  symmetry.
 There are    39 symmetry adapted basis functions of A"  symmetry.
   115 basis functions,   171 primitive gaussians,   135 cartesian basis functions
     9 alpha electrons        9 beta electrons
       nuclear repulsion energy        33.5516715651 Hartrees.
 NAtoms=    3 NActive=    3 NUniq=    3 SFac= 1.00D+00 NAtFMM=   60 NAOKFM=F Big=F
 Integral buffers will be    131072 words long.
 Raffenetti 1 integral format.
 Two-electron integral symmetry is turned on.
 One-electron integrals computed using PRISM.
 NBasis=   115 RedAO= T EigKep=  3.84D-04  NBF=    76    39
 NBsUse=   115 1.00D-06 EigRej= -1.00D+00 NBFU=    76    39
 Initial guess from the checkpoint file:  "/gscratch/scrubbed/gds001/Gau-15899.chk"
 B after Tr=    -0.000000   -0.000000    0.000000
         Rot=    0.999955    0.000000   -0.000000   -0.009510 Ang=  -1.09 deg.
 Initial guess orbital symmetries:
       Occupied  (A') (A') (A') (A') (A') (A") (A') (A') (A")
       Virtual   (A') (A') (A') (A") (A') (A') (A') (A') (A") (A")
                 (A') (A') (A') (A') (A') (A") (A") (A') (A') (A')
                 (A") (A") (A') (A') (A') (A") (A') (A') (A') (A")
                 (A') (A") (A') (A") (A") (A') (A') (A') (A') (A')
                 (A") (A') (A") (A') (A") (A') (A') (A") (A') (A')
                 (A") (A') (A') (A") (A') (A") (A') (A') (A") (A")
                 (A') (A') (A') (A') (A") (A') (A") (A") (A') (A")
                 (A') (A') (A') (A') (A") (A") (A') (A') (A') (A')
                 (A") (A') (A") (A') (A") (A') (A") (A') (A") (A')
                 (A') (A') (A") (A') (A") (A') (A") (A') (A') (A")
                 (A') (A") (A') (A') (A') (A')
 ExpMin= 2.53D-02 ExpMax= 1.95D+04 ExpMxC= 6.65D+02 IAcc=3 IRadAn=         5 AccDes= 0.00D+00
 Harris functional with IExCor=  205 and IRadAn=       5 diagonalized for initial guess.
 HarFok:  IExCor=  205 AccDes= 0.00D+00 IRadAn=         5 IDoV= 1 UseB2=F ITyADJ=14
 ICtDFT=  3500011 ScaDFX=  1.000000  1.000000  1.000000  1.000000
 FoFCou: FMM=F IPFlag=           0 FMFlag=      100000 FMFlg1=           0
         NFxFlg=           0 DoJE=T BraDBF=F KetDBF=T FulRan=T
         wScrn=  0.000000 ICntrl=       500 IOpCl=  0 I1Cent=   200000004 NGrid=           0
         NMat0=    1 NMatS0=      1 NMatT0=    0 NMatD0=    1 NMtDS0=    0 NMtDT0=    0
 Petite list used in FoFCou.
 Keep R1 ints in memory in symmetry-blocked form, NReq=35948169.
 Requested convergence on RMS density matrix=1.00D-08 within 128 cycles.
 Requested convergence on MAX density matrix=1.00D-06.
 Requested convergence on             energy=1.00D-06.
 No special actions if energy rises.
 SCF Done:  E(RHF) =  -174.806246432     A.U. after   11 cycles
            NFock= 11  Conv=0.40D-08     -V/T= 2.0015
 ExpMin= 2.53D-02 ExpMax= 1.95D+04 ExpMxC= 6.65D+02 IAcc=3 IRadAn=         5 AccDes= 0.00D+00
 HarFok:  IExCor=  205 AccDes= 0.00D+00 IRadAn=         5 IDoV=-2 UseB2=F ITyADJ=14
 ICtDFT= 12500011 ScaDFX=  1.000000  1.000000  1.000000  1.000000
 Range of M.O.s used for correlation:     3   115
 NBasis=   115 NAE=     9 NBE=     9 NFC=     2 NFV=     0
 NROrb=    113 NOA=     7 NOB=     7 NVA=   106 NVB=   106

 **** Warning!!: The largest alpha MO coefficient is  0.12199503D+02

 Fully direct method using O(ONN) memory.
 JobTyp=1 Pass  1:  I=   3 to   9 NPSUse= 28 ParTrn=T ParDer=T DoDerP=T.
 Spin components of T(2) and E(2):
     alpha-alpha T2 =       0.1477555084D-01 E2=     -0.6506121871D-01
     alpha-beta  T2 =       0.8749053310D-01 E2=     -0.3899031690D+00
     beta-beta   T2 =       0.1477555084D-01 E2=     -0.6506121871D-01
 ANorm=    0.1056901904D+01
 E2 =    -0.5200256065D+00 EUMP2 =    -0.17532627203876D+03
          IDoAtm=111
          Differentiating once with respect to electric field.
                with respect to dipole field.
          Differentiating once with respect to nuclear coordinates.
 Keep R1 ints in memory in symmetry-blocked form, NReq=35949299.
          There are     1 degrees of freedom in the 1st order CPHF.  IDoFFX=0 NUNeed=     1.
 LinEq1:  Iter=  0 NonCon=     1 RMS=5.71D-03 Max=5.07D-02 NDo=     1
 AX will form     1 AO Fock derivatives at one time.
 LinEq1:  Iter=  1 NonCon=     1 RMS=1.42D-03 Max=1.50D-02 NDo=     1
 LinEq1:  Iter=  2 NonCon=     1 RMS=6.08D-04 Max=7.55D-03 NDo=     1
 LinEq1:  Iter=  3 NonCon=     1 RMS=1.28D-04 Max=9.57D-04 NDo=     1
 LinEq1:  Iter=  4 NonCon=     1 RMS=4.82D-05 Max=3.18D-04 NDo=     1
 LinEq1:  Iter=  5 NonCon=     1 RMS=1.36D-05 Max=1.63D-04 NDo=     1
 LinEq1:  Iter=  6 NonCon=     1 RMS=3.25D-06 Max=2.91D-05 NDo=     1
 LinEq1:  Iter=  7 NonCon=     1 RMS=8.98D-07 Max=1.10D-05 NDo=     1
 LinEq1:  Iter=  8 NonCon=     1 RMS=1.41D-07 Max=1.06D-06 NDo=     1
 LinEq1:  Iter=  9 NonCon=     1 RMS=2.68D-08 Max=2.04D-07 NDo=     1
 LinEq1:  Iter= 10 NonCon=     1 RMS=5.72D-09 Max=6.05D-08 NDo=     1
 LinEq1:  Iter= 11 NonCon=     1 RMS=1.17D-09 Max=1.09D-08 NDo=     1
 LinEq1:  Iter= 12 NonCon=     1 RMS=2.27D-10 Max=1.53D-09 NDo=     1
 LinEq1:  Iter= 13 NonCon=     0 RMS=4.00D-11 Max=2.89D-10 NDo=     1
 Linear equations converged to 1.000D-10 1.000D-09 after    13 iterations.
 End of Minotr F.D. properties file   721 does not exist.
 End of Minotr F.D. properties file   722 does not exist.
 End of Minotr F.D. properties file   788 does not exist.
 Calling FoFJK, ICntrl=  10002127 FMM=F ISym2X=1 I1Cent= 0 IOpClX= 0 NMat=1 NMatS=1 NMatT=0.
 ***** Axes restored to original set *****
 -------------------------------------------------------------------
 Center     Atomic                   Forces (Hartrees/Bohr)
 Number     Number              X              Y              Z
 -------------------------------------------------------------------
      1        8           0.009846318    0.000000000    0.005672970
      2        9          -0.004985670   -0.000000000    0.001156096
      3        1          -0.004860648   -0.000000000   -0.006829066
 -------------------------------------------------------------------
 Cartesian Forces:  Max     0.009846318 RMS     0.005006530

 GradGradGradGradGradGradGradGradGradGradGradGradGradGradGradGradGradGrad
 Berny optimization.
 Using GEDIIS/GDIIS optimizer.
 FormGI is forming the generalized inverse of G from B-inverse, IUseBI=4.
 Internal  Forces:  Max     0.013694199 RMS     0.008228749
 Search for a local minimum.
 Step number   2 out of a maximum of   20
 All quantities printed in internal units (Hartrees-Bohrs-Radians)
 Mixed Optimization -- RFO/linear search
 Update second derivatives using D2CorX and points    1    2
 DE= -5.44D-03 DEPred=-6.44D-03 R= 8.44D-01
 TightC=F SS=  1.41D+00  RLast= 2.29D-01 DXNew= 5.0454D-01 6.8598D-01
 Trust test= 8.44D-01 RLast= 2.29D-01 DXMaxT set to 5.05D-01
 The second derivative matrix:
                          R1        R2        A1
           R1           0.30796
           R2          -0.02256   0.45727
           A1           0.02885   0.00252   0.22599
 ITU=  1  0
 Use linear search instead of GDIIS.
     Eigenvalues ---    0.21650   0.31411   0.46062
 RFO step:  Lambda=-4.27426693D-04 EMin= 2.16496007D-01
 Quartic linear search produced a step of -0.13995.
 Iteration  1 RMS(Cart)=  0.03651725 RMS(Int)=  0.00077393
 Iteration  2 RMS(Cart)=  0.00069193 RMS(Int)=  0.00000010
 Iteration  3 RMS(Cart)=  0.00000011 RMS(Int)=  0.00000000
 ClnCor:  largest displacement from symmetrization is 4.44D-16 for atom     2.
 Variable       Old X    -DE/DX   Delta X   Delta X   Delta X     New X
                                 (Linear)    (Quad)   (Total)
    R1        2.71179   0.00083   0.01719  -0.02345  -0.00626   2.70553
    R2        1.84070  -0.00386   0.00686  -0.01674  -0.00988   1.83082
    A1        1.64604   0.01369   0.02611   0.02887   0.05498   1.70102
         Item               Value     Threshold  Converged?
 Maximum Force            0.013694     0.000450     NO 
 RMS     Force            0.008229     0.000300     NO 
 Maximum Displacement     0.041952     0.001800     NO 
 RMS     Displacement     0.036164     0.001200     NO 
 Predicted change in Energy=-4.286309D-04
 GradGradGradGradGradGradGradGradGradGradGradGradGradGradGradGradGradGrad

                          Input orientation:                          
 ---------------------------------------------------------------------
 Center     Atomic      Atomic             Coordinates (Angstroms)
 Number     Number       Type             X           Y           Z
 ---------------------------------------------------------------------
      1          8           0       -0.017948   -0.000000   -0.006357
      2          9           0        0.048013    0.000000    1.423828
      3          1           0        0.935861    0.000000   -0.176291
 ---------------------------------------------------------------------
                    Distance matrix (angstroms):
                    1          2          3
     1  O    0.000000
     2  F    1.431705   0.000000
     3  H    0.968829   1.829933   0.000000
 Stoichiometry    FHO
 Framework group  CS[SG(FHO)]
 Deg. of freedom     3
 Full point group                 CS      NOp   2
 Largest Abelian subgroup         CS      NOp   2
 Largest concise Abelian subgroup C1      NOp   1
                         Standard orientation:                         
 ---------------------------------------------------------------------
 Center     Atomic      Atomic             Coordinates (Angstroms)
 Number     Number       Type             X           Y           Z
 ---------------------------------------------------------------------
      1          8           0        0.053368    0.708863    0.000000
      2          9           0        0.053368   -0.722842   -0.000000
      3          1           0       -0.907258    0.834673   -0.000000
 ---------------------------------------------------------------------
 Rotational constants (GHZ):         585.4280803          27.1130017          25.9128946
 Standard basis: Aug-CC-pVTZ (5D, 7F)
 There are    92 symmetry adapted cartesian basis functions of A'  symmetry.
 There are    43 symmetry adapted cartesian basis functions of A"  symmetry.
 There are    76 symmetry adapted basis functions of A'  symmetry.
 There are    39 symmetry adapted basis functions of A"  symmetry.
   115 basis functions,   171 primitive gaussians,   135 cartesian basis functions
     9 alpha electrons        9 beta electrons
       nuclear repulsion energy        33.5843893318 Hartrees.
 NAtoms=    3 NActive=    3 NUniq=    3 SFac= 1.00D+00 NAtFMM=   60 NAOKFM=F Big=F
 Integral buffers will be    131072 words long.
 Raffenetti 1 integral format.
 Two-electron integral symmetry is turned on.
 One-electron integrals computed using PRISM.
 NBasis=   115 RedAO= T EigKep=  3.75D-04  NBF=    76    39
 NBsUse=   115 1.00D-06 EigRej= -1.00D+00 NBFU=    76    39
 Initial guess from the checkpoint file:  "/gscratch/scrubbed/gds001/Gau-15899.chk"
 B after Tr=    -0.000000    0.000000    0.000000
         Rot=    0.999996    0.000000    0.000000    0.002677 Ang=   0.31 deg.
 Initial guess orbital symmetries:
       Occupied  (A') (A') (A') (A') (A') (A") (A') (A') (A")
       Virtual   (A') (A') (A') (A") (A') (A') (A') (A') (A") (A")
                 (A') (A') (A') (A') (A') (A") (A") (A') (A') (A')
                 (A") (A") (A') (A') (A') (A') (A") (A') (A") (A')
                 (A') (A") (A') (A") (A') (A") (A') (A') (A') (A')
                 (A") (A') (A') (A") (A") (A') (A') (A") (A') (A')
                 (A") (A') (A') (A') (A") (A") (A') (A") (A') (A')
                 (A") (A') (A') (A') (A") (A') (A") (A') (A") (A")
                 (A') (A') (A') (A') (A") (A") (A') (A') (A') (A')
                 (A") (A") (A') (A') (A") (A') (A") (A") (A') (A')
                 (A') (A') (A") (A') (A") (A') (A") (A') (A") (A')
                 (A') (A") (A') (A') (A') (A')
 ExpMin= 2.53D-02 ExpMax= 1.95D+04 ExpMxC= 6.65D+02 IAcc=3 IRadAn=         5 AccDes= 0.00D+00
 Harris functional with IExCor=  205 and IRadAn=       5 diagonalized for initial guess.
 HarFok:  IExCor=  205 AccDes= 0.00D+00 IRadAn=         5 IDoV= 1 UseB2=F ITyADJ=14
 ICtDFT=  3500011 ScaDFX=  1.000000  1.000000  1.000000  1.000000
 FoFCou: FMM=F IPFlag=           0 FMFlag=      100000 FMFlg1=           0
         NFxFlg=           0 DoJE=T BraDBF=F KetDBF=T FulRan=T
         wScrn=  0.000000 ICntrl=       500 IOpCl=  0 I1Cent=   200000004 NGrid=           0
         NMat0=    1 NMatS0=      1 NMatT0=    0 NMatD0=    1 NMtDS0=    0 NMtDT0=    0
 Petite list used in FoFCou.
 Keep R1 ints in memory in symmetry-blocked form, NReq=35948169.
 Requested convergence on RMS density matrix=1.00D-08 within 128 cycles.
 Requested convergence on MAX density matrix=1.00D-06.
 Requested convergence on             energy=1.00D-06.
 No special actions if energy rises.
 SCF Done:  E(RHF) =  -174.807440744     A.U. after   10 cycles
            NFock= 10  Conv=0.74D-08     -V/T= 2.0015
 ExpMin= 2.53D-02 ExpMax= 1.95D+04 ExpMxC= 6.65D+02 IAcc=3 IRadAn=         5 AccDes= 0.00D+00
 HarFok:  IExCor=  205 AccDes= 0.00D+00 IRadAn=         5 IDoV=-2 UseB2=F ITyADJ=14
 ICtDFT= 12500011 ScaDFX=  1.000000  1.000000  1.000000  1.000000
 Range of M.O.s used for correlation:     3   115
 NBasis=   115 NAE=     9 NBE=     9 NFC=     2 NFV=     0
 NROrb=    113 NOA=     7 NOB=     7 NVA=   106 NVB=   106

 **** Warning!!: The largest alpha MO coefficient is  0.13517760D+02

 Fully direct method using O(ONN) memory.
 JobTyp=1 Pass  1:  I=   3 to   9 NPSUse= 28 ParTrn=T ParDer=T DoDerP=T.
 Spin components of T(2) and E(2):
     alpha-alpha T2 =       0.1470977091D-01 E2=     -0.6495883382D-01
     alpha-beta  T2 =       0.8705398398D-01 E2=     -0.3893417987D+00
     beta-beta   T2 =       0.1470977091D-01 E2=     -0.6495883382D-01
 ANorm=    0.1056633108D+01
 E2 =    -0.5192594663D+00 EUMP2 =    -0.17532670021083D+03
          IDoAtm=111
          Differentiating once with respect to electric field.
                with respect to dipole field.
          Differentiating once with respect to nuclear coordinates.
 Keep R1 ints in memory in symmetry-blocked form, NReq=35949299.
          There are     1 degrees of freedom in the 1st order CPHF.  IDoFFX=0 NUNeed=     1.
 LinEq1:  Iter=  0 NonCon=     1 RMS=5.63D-03 Max=4.68D-02 NDo=     1
 AX will form     1 AO Fock derivatives at one time.
 LinEq1:  Iter=  1 NonCon=     1 RMS=1.37D-03 Max=1.45D-02 NDo=     1
 LinEq1:  Iter=  2 NonCon=     1 RMS=5.79D-04 Max=6.84D-03 NDo=     1
 LinEq1:  Iter=  3 NonCon=     1 RMS=1.22D-04 Max=8.80D-04 NDo=     1
 LinEq1:  Iter=  4 NonCon=     1 RMS=4.58D-05 Max=3.04D-04 NDo=     1
 LinEq1:  Iter=  5 NonCon=     1 RMS=1.27D-05 Max=1.46D-04 NDo=     1
 LinEq1:  Iter=  6 NonCon=     1 RMS=3.00D-06 Max=2.54D-05 NDo=     1
 LinEq1:  Iter=  7 NonCon=     1 RMS=8.45D-07 Max=1.05D-05 NDo=     1
 LinEq1:  Iter=  8 NonCon=     1 RMS=1.33D-07 Max=1.04D-06 NDo=     1
 LinEq1:  Iter=  9 NonCon=     1 RMS=2.57D-08 Max=1.76D-07 NDo=     1
 LinEq1:  Iter= 10 NonCon=     1 RMS=5.55D-09 Max=5.64D-08 NDo=     1
 LinEq1:  Iter= 11 NonCon=     1 RMS=1.12D-09 Max=9.92D-09 NDo=     1
 LinEq1:  Iter= 12 NonCon=     1 RMS=2.17D-10 Max=1.50D-09 NDo=     1
 LinEq1:  Iter= 13 NonCon=     0 RMS=3.89D-11 Max=2.80D-10 NDo=     1
 Linear equations converged to 1.000D-10 1.000D-09 after    13 iterations.
 End of Minotr F.D. properties file   721 does not exist.
 End of Minotr F.D. properties file   722 does not exist.
 End of Minotr F.D. properties file   788 does not exist.
 Calling FoFJK, ICntrl=  10002127 FMM=F ISym2X=1 I1Cent= 0 IOpClX= 0 NMat=1 NMatS=1 NMatT=0.
 ***** Axes restored to original set *****
 -------------------------------------------------------------------
 Center     Atomic                   Forces (Hartrees/Bohr)
 Number     Number              X              Y              Z
 -------------------------------------------------------------------
      1        8          -0.000395402   -0.000000000    0.002344372
      2        9          -0.000555245   -0.000000000   -0.001442298
      3        1           0.000950646    0.000000000   -0.000902074
 -------------------------------------------------------------------
 Cartesian Forces:  Max     0.002344372 RMS     0.001041282

 GradGradGradGradGradGradGradGradGradGradGradGradGradGradGradGradGradGrad
 Berny optimization.
 Using GEDIIS/GDIIS optimizer.
 FormGI is forming the generalized inverse of G from B-inverse, IUseBI=4.
 Internal  Forces:  Max     0.001466331 RMS     0.001302754
 Search for a local minimum.
 Step number   3 out of a maximum of   20
 All quantities printed in internal units (Hartrees-Bohrs-Radians)
 Mixed Optimization -- RFO/linear search
 Update second derivatives using D2CorX and points    1    2    3
 DE= -4.28D-04 DEPred=-4.29D-04 R= 9.99D-01
 TightC=F SS=  1.41D+00  RLast= 5.62D-02 DXNew= 8.4853D-01 1.6864D-01
 Trust test= 9.99D-01 RLast= 5.62D-02 DXMaxT set to 5.05D-01
 The second derivative matrix:
                          R1        R2        A1
           R1           0.30139
           R2          -0.04047   0.47311
           A1           0.06887  -0.00972   0.23114
 ITU=  1  1  0
 Use linear search instead of GDIIS.
     Eigenvalues ---    0.18836   0.33252   0.48477
 RFO step:  Lambda=-1.45620530D-05 EMin= 1.88355153D-01
 Quartic linear search produced a step of  0.09955.
 Iteration  1 RMS(Cart)=  0.00510793 RMS(Int)=  0.00001881
 Iteration  2 RMS(Cart)=  0.00001374 RMS(Int)=  0.00000000
 Iteration  3 RMS(Cart)=  0.00000000 RMS(Int)=  0.00000000
 ClnCor:  largest displacement from symmetrization is 6.50D-16 for atom     3.
 Variable       Old X    -DE/DX   Delta X   Delta X   Delta X     New X
                                 (Linear)    (Quad)   (Total)
    R1        2.70553  -0.00147  -0.00062  -0.00574  -0.00637   2.69916
    R2        1.83082   0.00109  -0.00098   0.00291   0.00192   1.83275
    A1        1.70102   0.00132   0.00547   0.00223   0.00771   1.70873
         Item               Value     Threshold  Converged?
 Maximum Force            0.001466     0.000450     NO 
 RMS     Force            0.001303     0.000300     NO 
 Maximum Displacement     0.005729     0.001800     NO 
 RMS     Displacement     0.005105     0.001200     NO 
 Predicted change in Energy=-1.079847D-05
 GradGradGradGradGradGradGradGradGradGradGradGradGradGradGradGradGradGrad

                          Input orientation:                          
 ---------------------------------------------------------------------
 Center     Atomic      Atomic             Coordinates (Angstroms)
 Number     Number       Type             X           Y           Z
 ---------------------------------------------------------------------
      1          8           0       -0.017046   -0.000000   -0.003325
      2          9           0        0.046233    0.000000    1.423607
      3          1           0        0.936739    0.000000   -0.179101
 ---------------------------------------------------------------------
                    Distance matrix (angstroms):
                    1          2          3
     1  O    0.000000
     2  F    1.428335   0.000000
     3  H    0.969848   1.833488   0.000000
 Stoichiometry    FHO
 Framework group  CS[SG(FHO)]
 Deg. of freedom     3
 Full point group                 CS      NOp   2
 Largest Abelian subgroup         CS      NOp   2
 Largest concise Abelian subgroup C1      NOp   1
                         Standard orientation:                         
 ---------------------------------------------------------------------
 Center     Atomic      Atomic             Coordinates (Angstroms)
 Number     Number       Type             X           Y           Z
 ---------------------------------------------------------------------
      1          8           0        0.053369    0.706759   -0.000000
      2          9           0        0.053369   -0.721576    0.000000
      3          1           0       -0.907268    0.840107   -0.000000
 ---------------------------------------------------------------------
 Rotational constants (GHZ):         585.8807709          27.2194265          26.0109826
 Standard basis: Aug-CC-pVTZ (5D, 7F)
 There are    92 symmetry adapted cartesian basis functions of A'  symmetry.
 There are    43 symmetry adapted cartesian basis functions of A"  symmetry.
 There are    76 symmetry adapted basis functions of A'  symmetry.
 There are    39 symmetry adapted basis functions of A"  symmetry.
   115 basis functions,   171 primitive gaussians,   135 cartesian basis functions
     9 alpha electrons        9 beta electrons
       nuclear repulsion energy        33.6375438033 Hartrees.
 NAtoms=    3 NActive=    3 NUniq=    3 SFac= 1.00D+00 NAtFMM=   60 NAOKFM=F Big=F
 Integral buffers will be    131072 words long.
 Raffenetti 1 integral format.
 Two-electron integral symmetry is turned on.
 One-electron integrals computed using PRISM.
 NBasis=   115 RedAO= T EigKep=  3.75D-04  NBF=    76    39
 NBsUse=   115 1.00D-06 EigRej= -1.00D+00 NBFU=    76    39
 Initial guess from the checkpoint file:  "/gscratch/scrubbed/gds001/Gau-15899.chk"
 B after Tr=     0.000000    0.000000    0.000000
         Rot=    1.000000    0.000000    0.000000    0.000254 Ang=   0.03 deg.
 Initial guess orbital symmetries:
       Occupied  (A') (A') (A') (A') (A') (A") (A') (A') (A")
       Virtual   (A') (A') (A') (A") (A') (A') (A') (A') (A") (A")
                 (A') (A') (A') (A') (A') (A") (A") (A') (A') (A')
                 (A") (A") (A') (A') (A') (A') (A") (A') (A") (A')
                 (A') (A") (A') (A") (A') (A") (A') (A') (A') (A')
                 (A") (A') (A") (A') (A") (A') (A') (A") (A') (A')
                 (A") (A') (A') (A') (A") (A") (A') (A") (A') (A")
                 (A') (A') (A') (A') (A") (A') (A") (A') (A") (A")
                 (A') (A') (A') (A') (A") (A") (A') (A') (A') (A')
                 (A") (A") (A') (A') (A") (A') (A") (A") (A') (A')
                 (A') (A') (A") (A') (A") (A') (A") (A') (A") (A')
                 (A') (A") (A') (A') (A') (A')
 Keep R1 ints in memory in symmetry-blocked form, NReq=35948169.
 Requested convergence on RMS density matrix=1.00D-08 within 128 cycles.
 Requested convergence on MAX density matrix=1.00D-06.
 Requested convergence on             energy=1.00D-06.
 No special actions if energy rises.
 SCF Done:  E(RHF) =  -174.807722045     A.U. after   10 cycles
            NFock= 10  Conv=0.16D-08     -V/T= 2.0015
 ExpMin= 2.53D-02 ExpMax= 1.95D+04 ExpMxC= 6.65D+02 IAcc=3 IRadAn=         5 AccDes= 0.00D+00
 HarFok:  IExCor=  205 AccDes= 0.00D+00 IRadAn=         5 IDoV=-2 UseB2=F ITyADJ=14
 ICtDFT= 12500011 ScaDFX=  1.000000  1.000000  1.000000  1.000000
 Range of M.O.s used for correlation:     3   115
 NBasis=   115 NAE=     9 NBE=     9 NFC=     2 NFV=     0
 NROrb=    113 NOA=     7 NOB=     7 NVA=   106 NVB=   106

 **** Warning!!: The largest alpha MO coefficient is  0.13630442D+02

 Fully direct method using O(ONN) memory.
 JobTyp=1 Pass  1:  I=   3 to   9 NPSUse= 28 ParTrn=T ParDer=T DoDerP=T.
 Spin components of T(2) and E(2):
     alpha-alpha T2 =       0.1468622383D-01 E2=     -0.6494045671D-01
     alpha-beta  T2 =       0.8682503305D-01 E2=     -0.3891077143D+00
     beta-beta   T2 =       0.1468622383D-01 E2=     -0.6494045671D-01
 ANorm=    0.1056502475D+01
 E2 =    -0.5189886278D+00 EUMP2 =    -0.17532671067324D+03
          IDoAtm=111
          Differentiating once with respect to electric field.
                with respect to dipole field.
          Differentiating once with respect to nuclear coordinates.
 Keep R1 ints in memory in symmetry-blocked form, NReq=35949387.
          There are     1 degrees of freedom in the 1st order CPHF.  IDoFFX=0 NUNeed=     1.
 LinEq1:  Iter=  0 NonCon=     1 RMS=5.60D-03 Max=4.59D-02 NDo=     1
 AX will form     1 AO Fock derivatives at one time.
 LinEq1:  Iter=  1 NonCon=     1 RMS=1.35D-03 Max=1.43D-02 NDo=     1
 LinEq1:  Iter=  2 NonCon=     1 RMS=5.71D-04 Max=6.57D-03 NDo=     1
 LinEq1:  Iter=  3 NonCon=     1 RMS=1.20D-04 Max=8.70D-04 NDo=     1
 LinEq1:  Iter=  4 NonCon=     1 RMS=4.46D-05 Max=2.85D-04 NDo=     1
 LinEq1:  Iter=  5 NonCon=     1 RMS=1.25D-05 Max=1.44D-04 NDo=     1
 LinEq1:  Iter=  6 NonCon=     1 RMS=2.95D-06 Max=2.50D-05 NDo=     1
 LinEq1:  Iter=  7 NonCon=     1 RMS=8.32D-07 Max=1.04D-05 NDo=     1
 LinEq1:  Iter=  8 NonCon=     1 RMS=1.31D-07 Max=1.03D-06 NDo=     1
 LinEq1:  Iter=  9 NonCon=     1 RMS=2.52D-08 Max=1.66D-07 NDo=     1
 LinEq1:  Iter= 10 NonCon=     1 RMS=5.44D-09 Max=5.42D-08 NDo=     1
 LinEq1:  Iter= 11 NonCon=     1 RMS=1.09D-09 Max=9.56D-09 NDo=     1
 LinEq1:  Iter= 12 NonCon=     1 RMS=2.12D-10 Max=1.50D-09 NDo=     1
 LinEq1:  Iter= 13 NonCon=     0 RMS=3.83D-11 Max=2.75D-10 NDo=     1
 Linear equations converged to 1.000D-10 1.000D-09 after    13 iterations.
 End of Minotr F.D. properties file   721 does not exist.
 End of Minotr F.D. properties file   722 does not exist.
 End of Minotr F.D. properties file   788 does not exist.
 Calling FoFJK, ICntrl=  10002127 FMM=F ISym2X=1 I1Cent= 0 IOpClX= 0 NMat=1 NMatS=1 NMatT=0.
 ***** Axes restored to original set *****
 -------------------------------------------------------------------
 Center     Atomic                   Forces (Hartrees/Bohr)
 Number     Number              X              Y              Z
 -------------------------------------------------------------------
      1        8          -0.000067321   -0.000000000   -0.000125749
      2        9           0.000005538    0.000000000    0.000137986
      3        1           0.000061783    0.000000000   -0.000012237
 -------------------------------------------------------------------
 Cartesian Forces:  Max     0.000137986 RMS     0.000069428

 GradGradGradGradGradGradGradGradGradGradGradGradGradGradGradGradGradGrad
 Berny optimization.
 Using GEDIIS/GDIIS optimizer.
 FormGI is forming the generalized inverse of G from B-inverse, IUseBI=4.
 Internal  Forces:  Max     0.000138098 RMS     0.000087634
 Search for a local minimum.
 Step number   4 out of a maximum of   20
 All quantities printed in internal units (Hartrees-Bohrs-Radians)
 Mixed Optimization -- En-DIIS/RFO-DIIS
 Update second derivatives using D2CorX and points    1    2    3    4
 DE= -1.05D-05 DEPred=-1.08D-05 R= 9.69D-01
 TightC=F SS=  1.41D+00  RLast= 1.02D-02 DXNew= 8.4853D-01 3.0541D-02
 Trust test= 9.69D-01 RLast= 1.02D-02 DXMaxT set to 5.05D-01
 The second derivative matrix:
                          R1        R2        A1
           R1           0.30639
           R2          -0.03675   0.48283
           A1           0.05419  -0.01716   0.22027
 ITU=  1  1  1  0
 Use linear search instead of GDIIS.
     Eigenvalues ---    0.19412   0.32230   0.49308
 RFO step:  Lambda=-5.26687235D-08 EMin= 1.94116531D-01
 Quartic linear search produced a step of -0.03315.
 Iteration  1 RMS(Cart)=  0.00022048 RMS(Int)=  0.00000001
 Iteration  2 RMS(Cart)=  0.00000001 RMS(Int)=  0.00000000
 ClnCor:  largest displacement from symmetrization is 1.57D-15 for atom     3.
 Variable       Old X    -DE/DX   Delta X   Delta X   Delta X     New X
                                 (Linear)    (Quad)   (Total)
    R1        2.69916   0.00014   0.00021   0.00028   0.00049   2.69965
    R2        1.83275   0.00006  -0.00006   0.00023   0.00016   1.83291
    A1        1.70873   0.00000  -0.00026   0.00016  -0.00010   1.70863
         Item               Value     Threshold  Converged?
 Maximum Force            0.000138     0.000450     YES
 RMS     Force            0.000088     0.000300     YES
 Maximum Displacement     0.000282     0.001800     YES
 RMS     Displacement     0.000220     0.001200     YES
 Predicted change in Energy=-3.879130D-08
 Optimization completed.
    -- Stationary point found.
                           ----------------------------
                           !   Optimized Parameters   !
                           ! (Angstroms and Degrees)  !
 --------------------------                            --------------------------
 ! Name  Definition              Value          Derivative Info.                !
 --------------------------------------------------------------------------------
 ! R1    R(1,2)                  1.4283         -DE/DX =    0.0001              !
 ! R2    R(1,3)                  0.9698         -DE/DX =    0.0001              !
 ! A1    A(2,1,3)               97.9029         -DE/DX =    0.0                 !
 --------------------------------------------------------------------------------
 GradGradGradGradGradGradGradGradGradGradGradGradGradGradGradGradGradGrad

                          Input orientation:                          
 ---------------------------------------------------------------------
 Center     Atomic      Atomic             Coordinates (Angstroms)
 Number     Number       Type             X           Y           Z
 ---------------------------------------------------------------------
      1          8           0       -0.017046   -0.000000   -0.003325
      2          9           0        0.046233    0.000000    1.423607
      3          1           0        0.936739    0.000000   -0.179101
 ---------------------------------------------------------------------
                    Distance matrix (angstroms):
                    1          2          3
     1  O    0.000000
     2  F    1.428335   0.000000
     3  H    0.969848   1.833488   0.000000
 Stoichiometry    FHO
 Framework group  CS[SG(FHO)]
 Deg. of freedom     3
 Full point group                 CS      NOp   2
 Largest Abelian subgroup         CS      NOp   2
 Largest concise Abelian subgroup C1      NOp   1
                         Standard orientation:                         
 ---------------------------------------------------------------------
 Center     Atomic      Atomic             Coordinates (Angstroms)
 Number     Number       Type             X           Y           Z
 ---------------------------------------------------------------------
      1          8           0        0.053369    0.706759   -0.000000
      2          9           0        0.053369   -0.721576    0.000000
      3          1           0       -0.907268    0.840107    0.000000
 ---------------------------------------------------------------------
 Rotational constants (GHZ):         585.8807709          27.2194265          26.0109826

 **********************************************************************

            Population analysis using the SCF density.

 **********************************************************************

 Orbital symmetries:
       Occupied  (A') (A') (A') (A') (A') (A") (A') (A') (A")
       Virtual   (A') (A') (A') (A") (A') (A') (A') (A') (A") (A")
                 (A') (A') (A') (A') (A') (A") (A") (A') (A') (A')
                 (A") (A") (A') (A') (A') (A') (A") (A') (A") (A')
                 (A') (A") (A') (A") (A') (A") (A') (A') (A') (A')
                 (A") (A') (A") (A') (A") (A') (A') (A") (A') (A')
                 (A") (A') (A') (A') (A") (A") (A') (A") (A') (A")
                 (A') (A') (A') (A') (A") (A') (A") (A') (A") (A")
                 (A') (A') (A') (A') (A") (A") (A') (A') (A') (A')
                 (A") (A") (A') (A') (A") (A') (A") (A") (A') (A')
                 (A') (A') (A") (A') (A") (A') (A") (A') (A") (A')
                 (A') (A") (A') (A') (A') (A')
 The electronic state is 1-A'.
 Alpha  occ. eigenvalues --  -26.34976 -20.69727  -1.64860  -1.31796  -0.77864
 Alpha  occ. eigenvalues --   -0.72478  -0.68748  -0.60905  -0.54625
 Alpha virt. eigenvalues --    0.02887   0.09581   0.12987   0.15806   0.17635
 Alpha virt. eigenvalues --    0.20987   0.21745   0.23954   0.24641   0.26774
 Alpha virt. eigenvalues --    0.28544   0.33833   0.41678   0.43135   0.63418
 Alpha virt. eigenvalues --    0.70647   0.73290   0.73701   0.75861   0.84486
 Alpha virt. eigenvalues --    0.84784   0.87698   0.89978   0.91399   0.98199
 Alpha virt. eigenvalues --    0.99123   1.00029   1.05901   1.07856   1.07924
 Alpha virt. eigenvalues --    1.09894   1.14462   1.22994   1.39153   1.48275
 Alpha virt. eigenvalues --    1.49222   1.55986   1.68071   1.76267   1.99978
 Alpha virt. eigenvalues --    2.08753   2.13022   2.21212   2.21446   2.31473
 Alpha virt. eigenvalues --    2.35900   2.41367   2.47289   2.53208   2.57782
 Alpha virt. eigenvalues --    2.70543   2.80796   2.85073   2.92514   2.92666
 Alpha virt. eigenvalues --    3.01736   3.05949   3.17416   3.19650   3.32217
 Alpha virt. eigenvalues --    3.34450   3.40562   3.62281   3.66978   3.70899
 Alpha virt. eigenvalues --    3.94044   4.12795   4.24635   4.29327   4.36490
 Alpha virt. eigenvalues --    4.67444   4.71759   4.86024   5.17172   5.28625
 Alpha virt. eigenvalues --    5.30745   5.34390   5.52406   6.02111   6.30193
 Alpha virt. eigenvalues --    6.60696   6.66914   6.67953   6.88486   7.14232
 Alpha virt. eigenvalues --    7.15877   7.17944   7.25487   7.33371   7.56744
 Alpha virt. eigenvalues --    7.72065   8.08606   8.84134   8.85856   8.95840
 Alpha virt. eigenvalues --    9.00473   9.18776   9.28696   9.32536   9.34112
 Alpha virt. eigenvalues --    9.35073   9.52875   9.64767   9.96506  13.73898
 Alpha virt. eigenvalues --   14.97860
          Condensed to atoms (all electrons):
               1          2          3
     1  O    7.909514  -0.051774   0.223096
     2  F   -0.051774   9.280324  -0.002579
     3  H    0.223096  -0.002579   0.472675
 Mulliken charges:
               1
     1  O   -0.080836
     2  F   -0.225971
     3  H    0.306807
 Sum of Mulliken charges =   0.00000
 Mulliken charges with hydrogens summed into heavy atoms:
               1
     1  O    0.225971
     2  F   -0.225971
 Electronic spatial extent (au):  <R**2>=             59.0195
 Charge=              0.0000 electrons
 Dipole moment (field-independent basis, Debye):
    X=             -1.8206    Y=              1.1362    Z=             -0.0000  Tot=              2.1460
 Quadrupole moment (field-independent basis, Debye-Ang):
   XX=             -8.7965   YY=            -10.1782   ZZ=            -11.1304
   XY=             -1.7256   XZ=              0.0000   YZ=              0.0000
 Traceless Quadrupole moment (field-independent basis, Debye-Ang):
   XX=              1.2386   YY=             -0.1432   ZZ=             -1.0954
   XY=             -1.7256   XZ=              0.0000   YZ=              0.0000
 Octapole moment (field-independent basis, Debye-Ang**2):
  XXX=             -2.2712  YYY=             -0.7955  ZZZ=             -0.0000  XYY=             -1.6715
  XXY=              0.9627  XXZ=              0.0000  XZZ=             -0.1473  YZZ=             -0.9778
  YYZ=             -0.0000  XYZ=             -0.0000
 Hexadecapole moment (field-independent basis, Debye-Ang**3):
 XXXX=             -7.1002 YYYY=            -36.7346 ZZZZ=             -7.7831 XXXY=             -0.7660
 XXXZ=              0.0000 YYYX=             -0.6559 YYYZ=              0.0000 ZZZX=              0.0000
 ZZZY=              0.0000 XXYY=             -7.0902 XXZZ=             -2.8132 YYZZ=             -8.4995
 XXYZ=              0.0000 YYXZ=              0.0000 ZZXY=              0.2636
 N-N= 3.363754380326D+01 E-N=-4.847251144794D+02  KE= 1.745541524090D+02
 Symmetry A'   KE= 1.629643655070D+02
 Symmetry A"   KE= 1.158978690194D+01
 B after Tr=     0.014841    0.000000    0.063278
         Rot=    0.999880   -0.000000    0.015522    0.000000 Ang=   1.78 deg.
 Final structure in terms of initial Z-matrix:
 O
 F,1,R1
 H,1,R2,2,A1
      Variables:
 R1=1.42833481
 R2=0.96984764
 A1=97.90286536
 1\1\GINC-N2131\FOpt\RMP2-FC\Aug-CC-pVTZ\F1H1O1\GDS001\20-Dec-2021\0\\#
  MP2/aug-cc-pVTZ opt freq=(vibrot,anharmonic)\\bleh\\0,1\O,-0.01704626
 63,0.,-0.0033251392\F,0.046232621,0.,1.4236072769\H,0.9367394715,0.,-0
 .1791011828\\Version=ES64L-G16RevA.03\State=1-A'\HF=-174.807722\MP2=-1
 75.3267107\RMSD=1.618e-09\RMSF=6.943e-05\Dipole=0.6498035,0.,-0.348938
 9\PG=CS [SG(F1H1O1)]\\@


 Everything starts as somebody's daydream.
                           -- Larry Niven
 Job cpu time:       0 days  0 hours 10 minutes  3.1 seconds.
 Elapsed time:       0 days  0 hours  0 minutes 25.6 seconds.
 File lengths (MBytes):  RWF=     72 Int=      0 D2E=      0 Chk=      8 Scr=      8
 Normal termination of Gaussian 16 at Mon Dec 20 12:23:28 2021.
 Link1:  Proceeding to internal job step number  2.
 ----------------------------------------------------------------------
 #N Geom=AllCheck Guess=TCheck SCRF=Check GenChk RMP2(FC)/Aug-CC-pVTZ F
 req
 ----------------------------------------------------------------------
 1/10=4,29=7,30=1,38=21,40=1,80=1/1,6,3;
 2/12=2,40=1/2;
 3/5=16,6=1,7=10,11=1,14=-4,25=1,30=1,70=2,71=2,116=1,140=1/1,2,3;
 4/5=101,69=2/1;
 5/5=2,38=6,98=1/2;
 8/6=3,8=1,10=1,19=11,30=-1/1;
 9/15=3,16=-3/6;
 11/6=1,8=1,15=11,17=12,24=-1,27=1,28=-2,29=300,32=6,42=3/1,2,10;
 10/6=2,21=1,60=-2/2;
 8/6=4,8=1,10=1,19=11,30=-1/11,4;
 10/5=1,20=4,60=-2/2;
 11/12=2,14=11,16=1,17=2,28=-2,42=3/2,10,12;
 6/7=2,8=2,9=2,10=2,22=-1/1;
 7/10=1,12=2,25=1,44=2,70=1,71=2/1,2,3,16;
 1/38=20,80=1/6(3);
 7/8=1,25=202,44=-1,70=1,71=1,92=10/16,17;
 1/10=4,30=1,38=20,80=1/3;
 99//99;
 3/5=16,6=1,7=10,11=1,14=-2,25=1,30=1,70=5,71=2,116=1,140=1/1,2,3;
 4/5=5,16=3,69=2/1;
 5/5=2,38=5,98=1/2;
 8/6=3,8=1,10=1,19=11,30=-1/1;
 9/15=3,16=-3/6;
 11/6=1,8=1,15=11,17=12,24=-1,27=1,28=-2,29=300,32=6,42=3/1,2,10;
 10/6=2,21=1,60=-2/2;
 8/6=4,8=1,10=1,19=11,30=-1/11,4;
 10/5=1,20=4,60=-2/2;
 11/12=2,14=11,16=1,17=2,28=-2,42=3/2,10,12;
 6/7=2,8=2,9=2,10=2,22=-1/1;
 7/7=1,10=1,12=2,25=1,44=2,70=1,71=1/1,2,3,16;
 1/38=20,80=1/6(-12);
 7/8=1,25=202,44=-1,70=1,71=1,92=10/16,17;
 1/10=4,30=1,38=20,80=1/3;
 99//99;
 Structure from the checkpoint file:  "/gscratch/scrubbed/gds001/Gau-15899.chk"
 ----
 bleh
 ----
 Charge =  0 Multiplicity = 1
 Redundant internal coordinates found in file.  (old form).
 O,0,-0.0170462663,0.,-0.0033251392
 F,0,0.046232621,0.,1.4236072769
 H,0,0.9367394715,0.,-0.1791011828
 Recover connectivity data from disk.
 Numerical evaluation of third derivatives.
 Nuclear step= 0.010000 Angstroms, electric field step= 0.000333 atomic units, NStep=1.

 GradGradGradGradGradGradGradGradGradGradGradGradGradGradGradGradGradGrad
 Berny optimization.
 Initialization pass.
                           ----------------------------
                           !    Initial Parameters    !
                           ! (Angstroms and Degrees)  !
 --------------------------                            --------------------------
 ! Name  Definition              Value          Derivative Info.                !
 --------------------------------------------------------------------------------
 ! R1    R(1,2)                  1.4283         calculate D2E/DX2 analytically  !
 ! R2    R(1,3)                  0.9698         calculate D2E/DX2 analytically  !
 ! A1    A(2,1,3)               97.9029         calculate D2E/DX2 analytically  !
 --------------------------------------------------------------------------------
 Trust Radius=3.00D-01 FncErr=1.00D-07 GrdErr=1.00D-07 EigMax=2.50D+02 EigMin=1.00D-04
 Number of steps in this run=      2 maximum allowed number of steps=      2.
 GradGradGradGradGradGradGradGradGradGradGradGradGradGradGradGradGradGrad

                          Input orientation:                          
 ---------------------------------------------------------------------
 Center     Atomic      Atomic             Coordinates (Angstroms)
 Number     Number       Type             X           Y           Z
 ---------------------------------------------------------------------
      1          8           0       -0.017046   -0.000000   -0.003325
      2          9           0        0.046233    0.000000    1.423607
      3          1           0        0.936739    0.000000   -0.179101
 ---------------------------------------------------------------------
                    Distance matrix (angstroms):
                    1          2          3
     1  O    0.000000
     2  F    1.428335   0.000000
     3  H    0.969848   1.833488   0.000000
 Stoichiometry    FHO
 Framework group  CS[SG(FHO)]
 Deg. of freedom     3
 Full point group                 CS      NOp   2
 Largest Abelian subgroup         CS      NOp   2
 Largest concise Abelian subgroup C1      NOp   1
                         Standard orientation:                         
 ---------------------------------------------------------------------
 Center     Atomic      Atomic             Coordinates (Angstroms)
 Number     Number       Type             X           Y           Z
 ---------------------------------------------------------------------
      1          8           0        0.053369    0.706759    0.000000
      2          9           0        0.053369   -0.721576   -0.000000
      3          1           0       -0.907268    0.840107    0.000000
 ---------------------------------------------------------------------
 Rotational constants (GHZ):         585.8807709          27.2194265          26.0109826
 Standard basis: Aug-CC-pVTZ (5D, 7F)
 There are    92 symmetry adapted cartesian basis functions of A'  symmetry.
 There are    43 symmetry adapted cartesian basis functions of A"  symmetry.
 There are    76 symmetry adapted basis functions of A'  symmetry.
 There are    39 symmetry adapted basis functions of A"  symmetry.
   115 basis functions,   171 primitive gaussians,   135 cartesian basis functions
     9 alpha electrons        9 beta electrons
       nuclear repulsion energy        33.6375438033 Hartrees.
 NAtoms=    3 NActive=    3 NUniq=    3 SFac= 1.00D+00 NAtFMM=   60 NAOKFM=F Big=F
 Integral buffers will be    131072 words long.
 Raffenetti 1 integral format.
 Two-electron integral symmetry is turned on.
 One-electron integrals computed using PRISM.
 NBasis=   115 RedAO= T EigKep=  3.75D-04  NBF=    76    39
 NBsUse=   115 1.00D-06 EigRej= -1.00D+00 NBFU=    76    39
 Initial guess from the checkpoint file:  "/gscratch/scrubbed/gds001/Gau-15899.chk"
 B after Tr=     0.000000    0.000000   -0.000000
         Rot=    1.000000    0.000000   -0.000000   -0.000000 Ang=   0.00 deg.
 Initial guess orbital symmetries:
       Occupied  (A') (A') (A') (A') (A') (A") (A') (A') (A")
       Virtual   (A') (A') (A') (A") (A') (A') (A') (A') (A") (A")
                 (A') (A') (A') (A') (A') (A") (A") (A') (A') (A')
                 (A") (A") (A') (A') (A') (A') (A") (A') (A") (A')
                 (A') (A") (A') (A") (A') (A") (A') (A') (A') (A')
                 (A") (A') (A") (A') (A") (A') (A') (A") (A') (A')
                 (A") (A') (A') (A') (A") (A") (A') (A") (A') (A")
                 (A') (A') (A') (A') (A") (A') (A") (A') (A") (A")
                 (A') (A') (A') (A') (A") (A") (A') (A') (A') (A')
                 (A") (A") (A') (A') (A") (A') (A") (A") (A') (A')
                 (A') (A') (A") (A') (A") (A') (A") (A') (A") (A')
                 (A') (A") (A') (A') (A') (A')
 Keep R1 ints in memory in symmetry-blocked form, NReq=35948169.
 Requested convergence on RMS density matrix=1.00D-08 within 128 cycles.
 Requested convergence on MAX density matrix=1.00D-06.
 Requested convergence on             energy=1.00D-06.
 No special actions if energy rises.
 SCF Done:  E(RHF) =  -174.807722045     A.U. after    1 cycles
            NFock=  1  Conv=0.19D-09     -V/T= 2.0015
 ExpMin= 2.53D-02 ExpMax= 1.95D+04 ExpMxC= 6.65D+02 IAcc=3 IRadAn=         5 AccDes= 0.00D+00
 HarFok:  IExCor=  205 AccDes= 0.00D+00 IRadAn=         5 IDoV=-2 UseB2=F ITyADJ=14
 ICtDFT= 12500011 ScaDFX=  1.000000  1.000000  1.000000  1.000000
 Range of M.O.s used for correlation:     3   115
 NBasis=   115 NAE=     9 NBE=     9 NFC=     2 NFV=     0
 NROrb=    113 NOA=     7 NOB=     7 NVA=   106 NVB=   106

 **** Warning!!: The largest alpha MO coefficient is  0.13630442D+02

 Disk-based method using ON**2 memory for  7 occupieds at a time.
 Permanent disk used for amplitudes=     1110456 words.
 Estimated scratch disk usage=    31041351 words.
 Actual    scratch disk usage=    30517063 words.
 JobTyp=1 Pass  1:  I=   3 to   9 NPSUse= 28 ParTrn=T ParDer=T DoDerP=T.
 (rs|ai) integrals will be sorted in core.
 Spin components of T(2) and E(2):
     alpha-alpha T2 =       0.1468622381D-01 E2=     -0.6494045668D-01
     alpha-beta  T2 =       0.8682503296D-01 E2=     -0.3891077141D+00
     beta-beta   T2 =       0.1468622381D-01 E2=     -0.6494045668D-01
 ANorm=    0.1056502475D+01
 E2 =    -0.5189886275D+00 EUMP2 =    -0.17532671067297D+03
 G2DrvN: will do     4 centers at a time, making    1 passes.
 Calling FoFCou, ICntrl=  3107 FMM=F I1Cent=   0 AccDes= 0.00D+00.
 End of G2Drv F.D. properties file   721 does not exist.
 End of G2Drv F.D. properties file   722 does not exist.
 End of G2Drv F.D. properties file   788 does not exist.
          IDoAtm=111
          Differentiating once with respect to electric field.
                with respect to dipole field.
          Differentiating once with respect to nuclear coordinates.
 Keep R1 ints in memory in symmetry-blocked form, NReq=35948947.
          There are    12 degrees of freedom in the 1st order CPHF.  IDoFFX=6 NUNeed=    12.
      9 vectors produced by pass  0 Test12= 7.95D-15 8.33D-09 XBig12= 3.36D+00 9.48D-01.
 AX will form     9 AO Fock derivatives at one time.
      9 vectors produced by pass  1 Test12= 7.95D-15 8.33D-09 XBig12= 4.04D-01 1.73D-01.
      9 vectors produced by pass  2 Test12= 7.95D-15 8.33D-09 XBig12= 5.61D-02 6.47D-02.
      9 vectors produced by pass  3 Test12= 7.95D-15 8.33D-09 XBig12= 2.06D-03 1.03D-02.
      9 vectors produced by pass  4 Test12= 7.95D-15 8.33D-09 XBig12= 1.89D-05 9.38D-04.
      9 vectors produced by pass  5 Test12= 7.95D-15 8.33D-09 XBig12= 1.90D-07 1.38D-04.
      9 vectors produced by pass  6 Test12= 7.95D-15 8.33D-09 XBig12= 1.06D-09 7.23D-06.
      4 vectors produced by pass  7 Test12= 7.95D-15 8.33D-09 XBig12= 4.06D-12 5.83D-07.
      2 vectors produced by pass  8 Test12= 7.95D-15 8.33D-09 XBig12= 2.25D-14 2.52D-08.
 InvSVY:  IOpt=1 It=  1 EMax= 5.55D-16
 Solved reduced A of dimension    69 with     9 vectors.
 End of Minotr F.D. properties file   721 does not exist.
 End of Minotr F.D. properties file   722 does not exist.
 End of Minotr F.D. properties file   788 does not exist.
 MDV=  5502926848.
 Form MO integral derivatives with frozen-active canonical formalism.
 Discarding MO integrals.
 Reordered first order wavefunction length =      1820232
 In DefCFB: NBatch=  1 ICI=  9 ICA=106 LFMax= 53
            Large arrays: LIAPS=    59243400 LIARS=    49584150 words.
 Semi-Direct transformation.
 ModeAB=           2 MOrb=             9 LenV=    5502422940
 LASXX=      6454476 LTotXX=     6454476 LenRXX=     6454476
 LTotAB=     6620400 MaxLAS=     9501300 LenRXY=     9501300
 NonZer=    12908952 LenScr=    19398656 LnRSAI=           0
 LnScr1=           0 LExtra=           0 Total=     35354432
 MaxDsk=          -1 SrtSym=           F ITran=            4
 JobTyp=0 Pass  1:  I=   1 to   9.
 (rs|ai) integrals will be sorted in core.
 Spin components of T(2) and E(2):
     alpha-alpha T2 =       0.1468622381D-01 E2=     -0.6494045668D-01
     alpha-beta  T2 =       0.8682503296D-01 E2=     -0.3891077141D+00
     beta-beta   T2 =       0.1468622381D-01 E2=     -0.6494045668D-01
 ANorm=    0.1494120129D+01
 E2 =    -0.5189886275D+00 EUMP2 =    -0.17532671067297D+03
          IDoAtm=111
          Differentiating once with respect to electric field.
                with respect to dipole field.
          Differentiating once with respect to nuclear coordinates.
          There are     1 degrees of freedom in the 1st order CPHF.  IDoFFX=0 NUNeed=     1.
 LinEq1:  Iter=  0 NonCon=     1 RMS=5.60D-03 Max=4.59D-02 NDo=     1
 LinEq1:  Iter=  1 NonCon=     1 RMS=1.35D-03 Max=1.43D-02 NDo=     1
 LinEq1:  Iter=  2 NonCon=     1 RMS=5.71D-04 Max=6.57D-03 NDo=     1
 LinEq1:  Iter=  3 NonCon=     1 RMS=1.20D-04 Max=8.70D-04 NDo=     1
 LinEq1:  Iter=  4 NonCon=     1 RMS=4.46D-05 Max=2.85D-04 NDo=     1
 LinEq1:  Iter=  5 NonCon=     1 RMS=1.25D-05 Max=1.44D-04 NDo=     1
 LinEq1:  Iter=  6 NonCon=     1 RMS=2.95D-06 Max=2.50D-05 NDo=     1
 LinEq1:  Iter=  7 NonCon=     1 RMS=8.32D-07 Max=1.04D-05 NDo=     1
 LinEq1:  Iter=  8 NonCon=     1 RMS=1.31D-07 Max=1.03D-06 NDo=     1
 LinEq1:  Iter=  9 NonCon=     1 RMS=2.52D-08 Max=1.66D-07 NDo=     1
 LinEq1:  Iter= 10 NonCon=     1 RMS=5.44D-09 Max=5.42D-08 NDo=     1
 LinEq1:  Iter= 11 NonCon=     1 RMS=1.09D-09 Max=9.56D-09 NDo=     1
 LinEq1:  Iter= 12 NonCon=     1 RMS=2.12D-10 Max=1.50D-09 NDo=     1
 LinEq1:  Iter= 13 NonCon=     0 RMS=3.83D-11 Max=2.75D-10 NDo=     1
 Linear equations converged to 1.000D-10 1.000D-09 after    13 iterations.
 End of Minotr F.D. properties file   721 does not exist.
 End of Minotr F.D. properties file   722 does not exist.
 End of Minotr F.D. properties file   788 does not exist.
 Symmetrizing basis deriv contribution to polar:
 IMax=3 JMax=2 DiffMx= 0.00D+00
 G2DrvN: will do     4 centers at a time, making    1 passes.
 Calling FoFCou, ICntrl=  3107 FMM=F I1Cent=   0 AccDes= 0.00D+00.
 End of G2Drv F.D. properties file   721 does not exist.
 End of G2Drv F.D. properties file   722 does not exist.
 End of G2Drv F.D. properties file   788 does not exist.
 R2 and R3 integrals will be kept in memory, NReq=    86221580.
 DD1Dir will call FoFMem   1 times, MxPair=        90
 NAB=    45 NAA=     0 NBB=     0.
 Discarding MO integrals.

 **********************************************************************

            Population analysis using the MP2 density.

 **********************************************************************

 Orbital symmetries:
       Occupied  (A') (A') (A') (A') (A') (A") (A') (A') (A")
       Virtual   (A') (A') (A') (A") (A') (A') (A') (A') (A") (A")
                 (A') (A') (A') (A') (A') (A") (A") (A') (A') (A')
                 (A") (A") (A') (A') (A') (A') (A") (A') (A") (A')
                 (A') (A") (A') (A") (A') (A") (A') (A') (A') (A')
                 (A") (A') (A") (A') (A") (A') (A') (A") (A') (A')
                 (A") (A') (A') (A') (A") (A") (A') (A") (A') (A")
                 (A') (A') (A') (A') (A") (A') (A") (A') (A") (A")
                 (A') (A') (A') (A') (A") (A") (A') (A') (A') (A')
                 (A") (A") (A') (A') (A") (A') (A") (A") (A') (A')
                 (A') (A') (A") (A') (A") (A') (A") (A') (A") (A')
                 (A') (A") (A') (A') (A') (A')
 The electronic state is 1-A'.
 Alpha  occ. eigenvalues --  -26.34976 -20.69727  -1.64860  -1.31796  -0.77864
 Alpha  occ. eigenvalues --   -0.72478  -0.68748  -0.60905  -0.54625
 Alpha virt. eigenvalues --    0.02887   0.09581   0.12987   0.15806   0.17635
 Alpha virt. eigenvalues --    0.20987   0.21745   0.23954   0.24641   0.26774
 Alpha virt. eigenvalues --    0.28544   0.33833   0.41678   0.43135   0.63418
 Alpha virt. eigenvalues --    0.70647   0.73290   0.73701   0.75861   0.84486
 Alpha virt. eigenvalues --    0.84784   0.87698   0.89978   0.91399   0.98199
 Alpha virt. eigenvalues --    0.99123   1.00029   1.05901   1.07856   1.07924
 Alpha virt. eigenvalues --    1.09894   1.14462   1.22994   1.39153   1.48275
 Alpha virt. eigenvalues --    1.49222   1.55986   1.68071   1.76267   1.99978
 Alpha virt. eigenvalues --    2.08753   2.13022   2.21212   2.21446   2.31473
 Alpha virt. eigenvalues --    2.35900   2.41367   2.47289   2.53208   2.57782
 Alpha virt. eigenvalues --    2.70543   2.80796   2.85073   2.92514   2.92666
 Alpha virt. eigenvalues --    3.01736   3.05949   3.17416   3.19650   3.32217
 Alpha virt. eigenvalues --    3.34450   3.40562   3.62281   3.66978   3.70899
 Alpha virt. eigenvalues --    3.94044   4.12795   4.24635   4.29327   4.36490
 Alpha virt. eigenvalues --    4.67444   4.71759   4.86024   5.17172   5.28625
 Alpha virt. eigenvalues --    5.30745   5.34390   5.52406   6.02111   6.30193
 Alpha virt. eigenvalues --    6.60696   6.66914   6.67953   6.88486   7.14232
 Alpha virt. eigenvalues --    7.15877   7.17944   7.25487   7.33371   7.56744
 Alpha virt. eigenvalues --    7.72065   8.08606   8.84134   8.85856   8.95840
 Alpha virt. eigenvalues --    9.00473   9.18776   9.28696   9.32536   9.34112
 Alpha virt. eigenvalues --    9.35073   9.52875   9.64767   9.96506  13.73898
 Alpha virt. eigenvalues --   14.97860
          Condensed to atoms (all electrons):
               1          2          3
     1  O    8.104477  -0.110046   0.132733
     2  F   -0.110046   9.256946   0.007243
     3  H    0.132733   0.007243   0.578717
 Mulliken charges:
               1
     1  O   -0.127164
     2  F   -0.154143
     3  H    0.281308
 Sum of Mulliken charges =  -0.00000
 Mulliken charges with hydrogens summed into heavy atoms:
               1
     1  O    0.154143
     2  F   -0.154143
 APT charges:
               1
     1  O   -0.124226
     2  F   -0.157581
     3  H    0.281807
 Sum of APT charges =   0.00000
 APT charges with hydrogens summed into heavy atoms:
               1
     1  O    0.157581
     2  F   -0.157581
 Electronic spatial extent (au):  <R**2>=             59.6753
 Charge=              0.0000 electrons
 Dipole moment (field-independent basis, Debye):
    X=             -1.6893    Y=              0.8129    Z=              0.0000  Tot=              1.8747
 Quadrupole moment (field-independent basis, Debye-Ang):
   XX=             -9.2051   YY=            -10.2462   ZZ=            -11.5358
   XY=             -1.6426   XZ=              0.0000   YZ=              0.0000
 Traceless Quadrupole moment (field-independent basis, Debye-Ang):
   XX=              1.1240   YY=              0.0828   ZZ=             -1.2068
   XY=             -1.6426   XZ=              0.0000   YZ=              0.0000
 Octapole moment (field-independent basis, Debye-Ang**2):
  XXX=             -2.0443  YYY=             -1.3794  ZZZ=              0.0000  XYY=             -1.5444
  XXY=              0.8437  XXZ=              0.0000  XZZ=             -0.0989  YZZ=             -1.1037
  YYZ=              0.0000  XYZ=             -0.0000
 Hexadecapole moment (field-independent basis, Debye-Ang**3):
 XXXX=             -8.1967 YYYY=            -37.5613 ZZZZ=             -8.8801 XXXY=             -0.5705
 XXXZ=              0.0000 YYYX=             -0.5496 YYYZ=             -0.0000 ZZZX=              0.0000
 ZZZY=             -0.0000 XXYY=             -7.5210 XXZZ=             -3.1618 YYZZ=             -8.9687
 XXYZ=              0.0000 YYXZ=              0.0000 ZZXY=              0.3061
 N-N= 3.363754380326D+01 E-N=-4.847732600628D+02  KE= 1.751762719939D+02
 Symmetry A'   KE= 1.636086189450D+02
 Symmetry A"   KE= 1.156765304886D+01
  Exact polarizability:  10.222  -0.830  14.631  -0.000   0.000   8.958
 Approx polarizability:   8.127  -0.478  13.030  -0.000   0.000   6.637
 Calling FoFJK, ICntrl=  10100127 FMM=F ISym2X=1 I1Cent= 0 IOpClX= 0 NMat=1 NMatS=1 NMatT=0.
 Full mass-weighted force constant matrix:
 Low frequencies ---  -30.9729  -13.6332  -12.2561   -0.0019    0.0007    0.0009
 Low frequencies ---  980.3099 1404.5923 3763.8127
 Diagonal vibrational polarizability:
        0.0803655       0.9464278       0.0000000
 Harmonic frequencies (cm**-1), IR intensities (KM/Mole), Raman scattering
 activities (A**4/AMU), depolarization ratios for plane and unpolarized
 incident light, reduced masses (AMU), force constants (mDyne/A),
 and normal coordinates:
                      1                      2                      3
                     A'                     A'                     A'
 Frequencies --    980.3099              1404.5923              3763.8127
 Red. masses --     16.8968                 1.0926                 1.0685
 Frc consts  --      9.5671                 1.2700                 8.9181
 IR Inten    --      1.5387                65.8373                45.0851
  Atom  AN      X      Y      Z        X      Y      Z        X      Y      Z
     1   8     0.01   0.76   0.00    -0.05  -0.03   0.00    -0.06   0.01   0.00
     2   9    -0.00  -0.64  -0.00     0.04  -0.03  -0.00     0.00  -0.00  -0.00
     3   1    -0.14  -0.05   0.00     0.08   0.99   0.00     0.99  -0.13  -0.00

 -------------------
 - Thermochemistry -
 -------------------
 Temperature   298.150 Kelvin.  Pressure   1.00000 Atm.
 Atom     1 has atomic number  8 and mass  15.99491
 Atom     2 has atomic number  9 and mass  18.99840
 Atom     3 has atomic number  1 and mass   1.00783
 Molecular mass:    36.00114 amu.
 Principal axes and moments of inertia in atomic units:
                           1         2         3
     Eigenvalues --     3.08039  66.30343  69.38381
           X           -0.04836   0.99883   0.00000
           Y            0.99883   0.04836   0.00000
           Z            0.00000   0.00000   1.00000
 This molecule is an asymmetric top.
 Rotational symmetry number  1.
 Rotational temperatures (Kelvin)     28.11784     1.30633     1.24833
 Rotational constants (GHZ):         585.88077    27.21943    26.01098
 Zero-point vibrational energy      36777.5 (Joules/Mol)
                                    8.79003 (Kcal/Mol)
 Vibrational temperatures:   1410.45  2020.90  5415.29
          (Kelvin)
 
[...]
      1  0.000000D+00
      2  0.243723D+01  0.000000D+00
      3  0.136036D+00  0.769244D-01  0.000000D+00

 3rd Deriv. contributions to X Matrix (in cm^-1)
 -----------------------------------------------
                1             2             3
      1 -0.175806D+03
      2  0.147424D+03 -0.306517D+02
      3  0.101843D+02 -0.238791D+02 -0.132352D+02

 4th Deriv. contributions to X Matrix (in cm^-1)
 -----------------------------------------------
                1             2             3
      1  0.956730D+02
      2 -0.180309D+03  0.212613D+02
      3 -0.124890D+02  0.935888D+01  0.703340D+01

 Total Anharmonic X Matrix (in cm^-1)
 ------------------------------------
                1             2             3
      1 -0.801329D+02
      2 -0.304477D+02 -0.939041D+01
      3 -0.216868D+01 -0.144433D+02 -0.620184D+01

     ==================================================
                Anharmonic Zero Point Energy
     ==================================================

 Anharmonic X0 Term
 ------------------
 U term         : cm-1 =    -5.32961 ; Kcal/mol =  -0.015 ; KJ/mol =  -0.064
 Coriolis       : cm-1 =    -0.43382 ; Kcal/mol =  -0.001 ; KJ/mol =  -0.005
 Anharmonic     : cm-1 =    -2.22879 ; Kcal/mol =  -0.006 ; KJ/mol =  -0.027
 Total X0       : cm-1 =    -7.99222 ; Kcal/mol =  -0.023 ; KJ/mol =  -0.096

 Anharmonic Zero Point Energy
 ----------------------------
 Harmonic       : cm-1 =  3074.35742 ; Kcal/mol =   8.790 ; KJ/mol =  36.777
 Anharmonic Pot.: cm-1 =   -38.58756 ; Kcal/mol =  -0.110 ; KJ/mol =  -0.462
 Watson+Coriolis: cm-1 =    -5.10088 ; Kcal/mol =  -0.015 ; KJ/mol =  -0.061
 Total Anharm   : cm-1 =  3030.66898 ; Kcal/mol =   8.665 ; KJ/mol =  36.255

     ==================================================
          Vibrational Energies at Anharmonic Level
     ==================================================

 Units: Vibrational energies and rotational constants in cm^-1.
 NOTE: Transition energies are given with respect to the ground state.

 Reference Data
 --------------
                              E(harm)  E(anharm)     Aa(x)      Ba(y)      Ca(z)
 Equilibrium Geometry                             19.542879   0.907956   0.867619
 Ground State                 3074.357  3030.669  19.411300   0.901704   0.859189

 Fundamental Bands
 -----------------
     Mode(n)      Status      E(harm)  E(anharm)     Aa(x)      Ba(y)      Ca(z)
        1(1)      active      3763.813  3587.239  18.701365   0.900783   0.857192
        2(1)      active      1404.592  1363.366  19.872570   0.898796   0.853029
        3(1)      active       980.310   959.600  19.396810   0.893028   0.850487

 Overtones
 ---------
     Mode(n)                  E(harm)  E(anharm)     Aa(x)      Ba(y)      Ca(z)
        1(2)                  7527.625  7014.211  17.991429   0.899862   0.855194
        2(2)                  2809.185  2707.951  20.333840   0.895888   0.846868
        3(2)                  1960.620  1906.797  19.382319   0.884351   0.841785

 Combination Bands
 -----------------
     Mode(n)     Mode(n)      E(harm)  E(anharm)     Aa(x)      Ba(y)      Ca(z)
        2(1)        1(1)      5168.405  4920.157  19.162634   0.897875   0.851031
        3(1)        1(1)      4744.123  4544.670  18.686874   0.892107   0.848490
        3(1)        2(1)      2384.902  2308.523  19.858079   0.890120   0.844327

     ==================================================
      Thermodynamic properties and Partition Functions
     ==================================================

 ZPE(harm) = 0.36777D+02 kJ/mol        ZPE(anh)= 0.36255D+02 kJ/mol

 Input values of T(K) and P(atm): 298.15   1.00
                    Harmonic value     SPT anharmonic value
 Qvib               0.36409D-06          0.45007D-06
 QZvib              0.10100D+01          0.10112D+01
 Energy             0.44338D+02          0.43827D+02         kJ/mol
 Enthalpy           0.46817D+02          0.46306D+02         kJ/mol
 Entropy            0.22632D+03          0.22637D+03         J/(mol K)
 Sp.Heat(V)         0.27050D+02          0.27217D+02         J/(mol K)
 Sp.Heat(P)         0.35364D+02          0.35532D+02         J/(mol K)

 T =  298.15 K;  P =   1.00 atm
                    Harmonic value     SPT anharmonic value
 Qvib               0.36409D-06          0.45007D-06
 QZvib              0.10100D+01          0.10112D+01
 Energy             0.44338D+02          0.43827D+02         kJ/mol
 Enthalpy           0.46817D+02          0.46306D+02         kJ/mol
 Entropy            0.22632D+03          0.22637D+03         J/(mol K)
 Sp.Heat(V)         0.27050D+02          0.27217D+02         J/(mol K)
 Sp.Heat(P)         0.35364D+02          0.35532D+02         J/(mol K)

 T =  500.00 K;  P =   1.00 atm
                    Harmonic value     SPT anharmonic value
 Qvib               0.15571D-03          0.17767D-03
 QZvib              0.10824D+01          0.10890D+01
 Energy             0.50293D+02          0.49832D+02         kJ/mol
 Enthalpy           0.54450D+02          0.53989D+02         kJ/mol
 Entropy            0.24577D+03          0.24594D+03         J/(mol K)
 Sp.Heat(V)         0.31890D+02          0.32173D+02         J/(mol K)
 Sp.Heat(P)         0.40204D+02          0.40487D+02         J/(mol K)

 T = 1000.00 K;  P =   1.00 atm
                    Harmonic value     SPT anharmonic value
 Qvib               0.18372D-01          0.19969D-01
 QZvib              0.15317D+01          0.15634D+01
 Energy             0.68275D+02          0.67970D+02         kJ/mol
 Enthalpy           0.76589D+02          0.76285D+02         kJ/mol
 Entropy            0.27617D+03          0.27656D+03         J/(mol K)
 Sp.Heat(V)         0.39081D+02          0.39431D+02         J/(mol K)
 Sp.Heat(P)         0.47396D+02          0.47746D+02         J/(mol K)

 T = 1500.00 K;  P =   1.00 atm
                    Harmonic value     SPT anharmonic value
 Qvib               0.11940D+00          0.12860D+00
 QZvib              0.22787D+01          0.23536D+01
 Energy             0.88860D+02          0.88736D+02         kJ/mol
 Enthalpy           0.10133D+03          0.10121D+03         kJ/mol
 Entropy            0.29618D+03          0.29672D+03         J/(mol K)
 Sp.Heat(V)         0.42931D+02          0.43285D+02         J/(mol K)
 Sp.Heat(P)         0.51245D+02          0.51600D+02         J/(mol K)

 T = 2000.00 K;  P =   1.00 atm
                    Harmonic value     SPT anharmonic value
 Qvib               0.36467D+00          0.39240D+00
 QZvib              0.33297D+01          0.34721D+01
 Energy             0.11095D+03          0.11099D+03         kJ/mol
 Enthalpy           0.12758D+03          0.12762D+03         kJ/mol
 Entropy            0.31127D+03          0.31190D+03         J/(mol K)
 Sp.Heat(V)         0.45231D+02          0.45523D+02         J/(mol K)
 Sp.Heat(P)         0.53545D+02          0.53837D+02         J/(mol K)

     ==================================================
               Anharmonic Transition Moments
     ==================================================

 Electric dipole : Fundamental Bands
 ------------------------------------------------------------------------
   Mode(n)                            X               Y               Z
      1(1)                       0.776836D-02    0.245789D-01    0.402223D-13
      2(1)                      -0.556377D-01    0.143909D-02    0.136916D-13
      3(1)                      -0.817351D-02   -0.128614D-03   -0.580513D-13

 Electric dipole : Overtones
 ------------------------------------------------------------------------
   Mode(n)                            X               Y               Z
      1(2)                      -0.269041D-02   -0.383522D-02    0.607522D-13
      2(2)                      -0.438041D-02   -0.650586D-02   -0.591871D-14
      3(2)                      -0.443892D-02   -0.432974D-03    0.125051D-12

 Electric dipole : Combination Bands
 ------------------------------------------------------------------------
   Mode(n)     Mode(n)                X               Y               Z
      2(1)        1(1)          -0.322376D-02    0.168790D-02    0.130402D-12
      3(1)        1(1)          -0.177394D-03   -0.355280D-03   -0.942628D-13
      3(1)        2(1)          -0.353765D-03    0.137985D-02   -0.286683D-13

     ==================================================
              Anharmonic Infrared Spectroscopy
     ==================================================

 Units: Transition energies (E) in cm^-1
        Integrated intensity (I) in km.mol^-1

 Fundamental Bands
 -----------------
   Mode(n)                  E(harm)   E(anharm)        I(harm)       I(anharm)
      1(1)                  3763.813   3587.239     45.08514949     38.60044037
      2(1)                  1404.592   1363.366     65.83731516     68.39088263
      3(1)                   980.310    959.600      1.53868308      1.03841768

 Overtones
 ---------
   Mode(n)                  E(harm)   E(anharm)                      I(anharm)
      1(2)                  7527.625   7014.211                      2.49296071
      2(2)                  2809.185   2707.951                      2.69757039
      3(2)                  1960.620   1906.797                      0.61422717

 Combination Bands
 -----------------
   Mode(n)     Mode(n)      E(harm)   E(anharm)                      I(anharm)
      2(1)        1(1)      5168.405   4920.157                      1.05506217
      3(1)        1(1)      4744.123   4544.670                      0.01160568
      3(1)        2(1)      2384.902   2308.523                      0.07585844

 Units: Transition energies (E) in cm^-1
        Dipole strengths (DS) in 10^-40 esu^2.cm^2

 Fundamental Bands
 -----------------
   Mode(n)                  E(harm)   E(anharm)       DS(harm)      DS(anharm)
      1(1)                  3763.813   3587.239     47.78734623     42.92787523
      2(1)                  1404.592   1363.366    186.99467423    200.12123160
      3(1)                   980.310    959.600      6.26171374      4.31707070

 Overtones
 ---------
   Mode(n)                  E(harm)   E(anharm)                     DS(anharm)
      1(2)                  7527.625   7014.211                      1.41789472
      2(2)                  2809.185   2707.951                      3.97410533
      3(2)                  1960.620   1906.797                      1.28508557

 Combination Bands
 -----------------
   Mode(n)     Mode(n)      E(harm)   E(anharm)                     DS(anharm)
      2(1)        1(1)      5168.405   4920.157                      0.85547338
      3(1)        1(1)      4744.123   4544.670                      0.01018768
      3(1)        2(1)      2384.902   2308.523                      0.13109229


 GradGradGradGradGradGradGradGradGradGradGradGradGradGradGradGradGradGrad
 Berny optimization.
 Internal  Forces:  Max     0.000138100 RMS     0.000087636
 Search for a local minimum.
 Step number   1 out of a maximum of    2
 All quantities printed in internal units (Hartrees-Bohrs-Radians)
 Second derivative matrix not updated -- analytic derivatives used.
 The second derivative matrix:
                          R1        R2        A1
           R1           0.33865
           R2          -0.01062   0.50776
           A1           0.07179  -0.00238   0.23154
 ITU=  0
     Eigenvalues ---    0.19550   0.37382   0.50861
 Angle between quadratic step and forces=  17.89 degrees.
 Linear search not attempted -- first point.
 Iteration  1 RMS(Cart)=  0.00019194 RMS(Int)=  0.00000001
 Iteration  2 RMS(Cart)=  0.00000001 RMS(Int)=  0.00000000
 ClnCor:  largest displacement from symmetrization is 3.55D-16 for atom     3.
 Variable       Old X    -DE/DX   Delta X   Delta X   Delta X     New X
                                 (Linear)    (Quad)   (Total)
    R1        2.69916   0.00014   0.00000   0.00044   0.00044   2.69960
    R2        1.83275   0.00006   0.00000   0.00013   0.00013   1.83288
    A1        1.70873   0.00000   0.00000  -0.00013  -0.00013   1.70860
         Item               Value     Threshold  Converged?
 Maximum Force            0.000138     0.000450     YES
 RMS     Force            0.000088     0.000300     YES
 Maximum Displacement     0.000235     0.001800     YES
 RMS     Displacement     0.000192     0.001200     YES
 Predicted change in Energy=-3.439817D-08
 Optimization completed.
    -- Stationary point found.
                           ----------------------------
                           !   Optimized Parameters   !
                           ! (Angstroms and Degrees)  !
 --------------------------                            --------------------------
 ! Name  Definition              Value          Derivative Info.                !
 --------------------------------------------------------------------------------
 ! R1    R(1,2)                  1.4283         -DE/DX =    0.0001              !
 ! R2    R(1,3)                  0.9698         -DE/DX =    0.0001              !
 ! A1    A(2,1,3)               97.9029         -DE/DX =    0.0                 !
 --------------------------------------------------------------------------------
 GradGradGradGradGradGradGradGradGradGradGradGradGradGradGradGradGradGrad


 ----------------------------------------------------------------------

 Electric dipole moment (input orientation):
 (Debye = 10**-18 statcoulomb cm , SI units = C m)
                  (au)            (Debye)         (10**-30 SI)
   Tot        0.737566D+00      0.187470D+01      0.625334D+01
   x          0.649803D+00      0.165164D+01      0.550926D+01
   y          0.000000D+00      0.000000D+00      0.000000D+00
   z         -0.348939D+00     -0.886914D+00     -0.295843D+01

 Dipole polarizability, Alpha (input orientation).
 (esu units = cm**3 , SI units = C**2 m**2 J**-1)
 Alpha(0;0):
               (au)            (10**-24 esu)      (10**-40 SI)
   iso        0.112706D+02      0.167012D+01      0.185826D+01
   aniso      0.535432D+01      0.793429D+00      0.882809D+00
   xx         0.101577D+02      0.150522D+01      0.167478D+01
   yx         0.000000D+00      0.000000D+00      0.000000D+00
   yy         0.895834D+01      0.132749D+01      0.147703D+01
   zx        -0.631152D+00     -0.935271D-01     -0.104063D+00
   zy         0.000000D+00      0.000000D+00      0.000000D+00
   zz         0.146956D+02      0.217767D+01      0.242298D+01

 ----------------------------------------------------------------------

 Dipole orientation:
     8         -0.02077564          0.00000000         -0.02540707
     9          2.41145376         -0.00000000         -1.19576322
     1          0.53928442         -0.00000000          1.71966949

 Electric dipole moment (dipole orientation):
 (Debye = 10**-18 statcoulomb cm , SI units = C m)
                  (au)            (Debye)         (10**-30 SI)
   Tot        0.737566D+00      0.187470D+01      0.625334D+01
   x          0.000000D+00      0.000000D+00      0.000000D+00
   y          0.000000D+00      0.000000D+00      0.000000D+00
   z          0.737566D+00      0.187470D+01      0.625334D+01

 Dipole polarizability, Alpha (dipole orientation).
 (esu units = cm**3 , SI units = C**2 m**2 J**-1)
 Alpha(0;0):
               (au)            (10**-24 esu)      (10**-40 SI)
   iso        0.112706D+02      0.167012D+01      0.185826D+01
   aniso      0.535432D+01      0.793429D+00      0.882809D+00
   xx         0.131538D+02      0.194919D+01      0.216877D+01
   yx         0.000000D+00      0.000000D+00      0.000000D+00
   yy         0.895834D+01      0.132749D+01      0.147703D+01
   zx        -0.224004D+01     -0.331939D+00     -0.369332D+00
   zy         0.000000D+00      0.000000D+00      0.000000D+00
   zz         0.116995D+02      0.173369D+01      0.192899D+01

 ----------------------------------------------------------------------
 1\1\GINC-N2131\Freq\RMP2-FC\Aug-CC-pVTZ\F1H1O1\GDS001\20-Dec-2021\0\\#
 N Geom=AllCheck Guess=TCheck SCRF=Check GenChk RMP2(FC)/Aug-CC-pVTZ Fr
 eq\\bleh\\0,1\O,-0.0170462663,0.,-0.0033251392\F,0.046232621,0.,1.4236
 072769\H,0.9367394715,0.,-0.1791011828\\Version=ES64L-G16RevA.03\State
 =1-A'\HF=-174.807722\MP2=-175.3267107\RMSD=1.873e-10\RMSF=6.943e-05\Ze
 roPoint=0.0140078\Thermal=0.0168874\Dipole=0.6498035,0.,-0.3489389\Dip
 oleDeriv=-0.0841342,0.,0.0907953,0.,-0.2818116,0.,0.0289162,0.,-0.0067
 314,-0.1202179,0.,-0.0714717,0.,-0.0843041,0.,-0.0053536,0.,-0.2682205
 ,0.204352,0.,-0.0193236,0.,0.3661156,0.,-0.0235626,0.,0.274952\Polar=1
 0.1577041,0.,8.9583371,-0.6311518,0.,14.695614\Quadrupole=0.7260229,-0
 .8972012,0.1711783,0.,-1.2507107,0.\PG=CS [SG(F1H1O1)]\NImag=0\\0.5409
 1039,0.,-0.00008494,-0.06364938,0.,0.34606078,-0.03854214,0.,-0.031294
 19,0.02997738,0.,0.00005098,0.,0.,-0.00005127,0.03084435,0.,-0.3018056
 0,-0.01290866,0.,0.34039934,-0.50236825,0.,0.09494358,0.00856475,0.,-0
 .01793569,0.49380350,0.,0.00003396,0.,0.,0.00000028,0.,0.,-0.00003425,
 0.03280503,0.,-0.04425517,0.04420285,0.,-0.03859373,-0.07700789,0.,0.0
 8284891\\0.00006733,0.,0.00012575,-0.00000554,0.,-0.00013799,-0.000061
 78,0.,0.00001224\\-0.01563974,0.,-0.04073020,-0.03113829,0.,0.33872691
 ,0.01548100,0.,-0.01667087,-0.02374058,0.,0.03984141,0.,0.,-0.03962597
 ,0.00541839,0.,-0.32132620,0.00006892,0.,0.33866255,0.00015875,0.,0.04
 780915,0.00825959,0.,-0.00548731,-0.00841833,0.,0.00088879,0.,0.,-0.00
 021544,0.,0.,-0.00067334,0.02571990,0.,-0.01740072,0.01660195,0.,-0.01
 733635,-0.04232185,0.,0.03473707,0.01245660,0.,0.04373219,0.15335671,0
 .,-0.09770451,0.04153660,0.,0.03393422,-0.01141908,0.,-0.01363047,0.,0
 .,-0.01319577,0.03629027,0.,-0.02701092,-0.05140343,0.,0.10901858,-0.0
 5399319,0.,-0.18729093,-0.03011752,0.,0.01511316,0.08411071,0.,-0.0301
 0172,0.,0.,0.02682624,0.,0.,0.00327548,-0.18964698,0.,0.12471543,0.017
 46921,0.,-0.08200766,0.17217776,0.,-0.04270778,-1.85544163,0.,0.283273
 68,0.37852353,0.,0.17427170,0.01674848,0.,0.02435662,-0.01136481,0.,0.
 00405235,0.,0.,-0.00600456,-0.03870930,0.,-0.02547102,0.00831689,0.,0.
 00533436,1.83869314,0.,-0.40288015,-0.00538367,0.,0.03039241,-1.833309
 47,0.,-0.28732603,0.,0.,0.00195221,0.,0.,0.28537382,-0.33981423,0.,-0.
 14880068,-0.03267350,0.,0.02013666,0.37248774,0.,0.12866402,-0.0885502
 5,0.,-0.04382387,0.02882569,0.,0.29692671,0.03922380,0.,-0.01011207,-0
 .04306937,0.,0.05025961,0.,0.,-0.05107928,-0.01362136,0.,-0.28906917,0
 .00604932,0.,0.29560527,0.04932645,0.,-0.01871362,0.00384560,0.,0.0075
 7204,-0.05317205,0.,-0.00643575,0.,0.,0.00081968,0.,0.,0.00561607,-0.0
 1520432,0.,-0.00785756,0.00406274,0.,-0.00653608,0.01114158,0.,0.01439
 364,-1.20735782,0.,0.05812032,0.24733921,0.,0.21322949,0.07781706,0.,0
 .06743311,-0.04539159,0.,0.04329569,0.,0.,-0.04906857,-0.08353028,0.,-
 0.04740717,-0.02145286,0.,0.07512218,1.12954077,0.,-0.31477232,-0.0324
 2542,0.,0.10498315,-1.09711535,0.,-0.10141600,0.,0.,0.00577288,0.,0.,0
 .09564312,-0.16380893,0.,-0.16582234,-0.04598024,0.,-0.02771501,0.2097
 8917,0.,0.19353735,6.23726474,0.,-1.38108769,-1.35983231,0.,-1.0896941
 7,-0.01662214,0.,-0.02706840,0.00381466,0.,-0.00740577,0.,0.,0.0101027
 6,0.00767002,0.,0.07723294,0.00178759,0.,-0.05602286,-6.22064259,0.,1.
 38690070,0.01280750,0.,-0.00945760,6.20783509,0.,1.38849346,0.,0.,-0.0
 0269701,0.,0.,-1.38579645,1.35216229,0.,1.01246124,0.02528081,0.,-0.02
 121007,-1.37744310,0.,-0.99125117\\@


 THOSE WHO ASPIRE NOT TO GUESS AND DIVINE,
 BUT TO DISCOVER AND KNOW, WHO PROPOSE NOT TO DEVISE 
 MIMIC AND FABULOUS WORLDS OF THEIR OWN, BUT TO 
 EXAMINE AND DISSECT THE NATURE OF THIS VERY WORLD 
 ITSELF, MUST GO TO THE FACTS THEMSELVES FOR EVERYTHING.

                               -- FRANCIS BACON, 1620
 Job cpu time:       0 days  2 hours 36 minutes 30.7 seconds.
 Elapsed time:       0 days  0 hours  5 minutes 43.7 seconds.
 File lengths (MBytes):  RWF=    972 Int=      0 D2E=      0 Chk=     44 Scr=      8
 Normal termination of Gaussian 16 at Mon Dec 20 12:29:14 2021.
