 Entering Gaussian System, Link 0=g16
 Input=foh_dz.gjf
 Output=foh_dz.log
 Initial command:
 /sw/contrib/chem-src/g16/c01/g16/l1.exe "/scr/Gau-60899.inp" -scrdir="/scr/"
 Entering Link 1 = /sw/contrib/chem-src/g16/c01/g16/l1.exe PID=     60900.
  
 Copyright (c) 1988-2019, Gaussian, Inc.  All Rights Reserved.
  
 This is part of the Gaussian(R) 16 program.  It is based on
 the Gaussian(R) 09 system (copyright 2009, Gaussian, Inc.),
 the Gaussian(R) 03 system (copyright 2003, Gaussian, Inc.),
 the Gaussian(R) 98 system (copyright 1998, Gaussian, Inc.),
 the Gaussian(R) 94 system (copyright 1995, Gaussian, Inc.),
 the Gaussian 92(TM) system (copyright 1992, Gaussian, Inc.),
 the Gaussian 90(TM) system (copyright 1990, Gaussian, Inc.),
 the Gaussian 88(TM) system (copyright 1988, Gaussian, Inc.),
 the Gaussian 86(TM) system (copyright 1986, Carnegie Mellon
 University), and the Gaussian 82(TM) system (copyright 1983,
 Carnegie Mellon University). Gaussian is a federally registered
 trademark of Gaussian, Inc.
  
 This software contains proprietary and confidential information,
 including trade secrets, belonging to Gaussian, Inc.
  
 This software is provided under written license and may be
 used, copied, transmitted, or stored only in accord with that
 written license.
  
 The following legend is applicable only to US Government
 contracts under FAR:
  
                    RESTRICTED RIGHTS LEGEND
  
 Use, reproduction and disclosure by the US Government is
 subject to restrictions as set forth in subparagraphs (a)
 and (c) of the Commercial Computer Software - Restricted
 Rights clause in FAR 52.227-19.
  
 Gaussian, Inc.
 340 Quinnipiac St., Bldg. 40, Wallingford CT 06492
  
  
 ---------------------------------------------------------------
 Warning -- This program may not be used in any manner that
 competes with the business of Gaussian, Inc. or will provide
 assistance to any competitor of Gaussian, Inc.  The licensee
 of this program is prohibited from giving any competitor of
 Gaussian, Inc. access to this program.  By using this program,
 the user acknowledges that Gaussian, Inc. is engaged in the
 business of creating and licensing software in the field of
 computational chemistry and represents and warrants to the
 licensee that it is not a competitor of Gaussian, Inc. and that
 it will not use this program in any manner prohibited above.
 ---------------------------------------------------------------
  

 Cite this work as:
 Gaussian 16, Revision C.01,
 M. J. Frisch, G. W. Trucks, H. B. Schlegel, G. E. Scuseria, 
 M. A. Robb, J. R. Cheeseman, G. Scalmani, V. Barone, 
 G. A. Petersson, H. Nakatsuji, X. Li, M. Caricato, A. V. Marenich, 
 J. Bloino, B. G. Janesko, R. Gomperts, B. Mennucci, H. P. Hratchian, 
 J. V. Ortiz, A. F. Izmaylov, J. L. Sonnenberg, D. Williams-Young, 
 F. Ding, F. Lipparini, F. Egidi, J. Goings, B. Peng, A. Petrone, 
 T. Henderson, D. Ranasinghe, V. G. Zakrzewski, J. Gao, N. Rega, 
 G. Zheng, W. Liang, M. Hada, M. Ehara, K. Toyota, R. Fukuda, 
 J. Hasegawa, M. Ishida, T. Nakajima, Y. Honda, O. Kitao, H. Nakai, 
 T. Vreven, K. Throssell, J. A. Montgomery, Jr., J. E. Peralta, 
 F. Ogliaro, M. J. Bearpark, J. J. Heyd, E. N. Brothers, K. N. Kudin, 
 V. N. Staroverov, T. A. Keith, R. Kobayashi, J. Normand, 
 K. Raghavachari, A. P. Rendell, J. C. Burant, S. S. Iyengar, 
 J. Tomasi, M. Cossi, J. M. Millam, M. Klene, C. Adamo, R. Cammi, 
 J. W. Ochterski, R. L. Martin, K. Morokuma, O. Farkas, 
 J. B. Foresman, and D. J. Fox, Gaussian, Inc., Wallingford CT, 2019.
 
 ******************************************
 Gaussian 16:  EM64L-G16RevC.01  3-Jul-2019
                 7-Mar-2025 
 ******************************************
 %nprocshared=40
 Will use up to   40 processors via shared memory.
 %mem=50gb
 ----------------------------------------------
 # MP2/aug-cc-pVDZ opt freq=(vibrot,anharmonic)
 ----------------------------------------------
 1/18=20,19=15,38=1,80=1/1,3;
 2/9=110,12=2,17=6,18=5,40=1/2;
 3/5=16,7=10,11=9,25=1,30=1,71=1/1,2,3;
 4//1;
 5/5=2,38=5/2;
 8/6=4,10=1/1;
 9/15=2,16=-3/6;
 10/5=1/2;
 6/7=2,8=2,9=2,10=2/1;
 7/12=2/1,2,3,16;
 1/18=20,19=15,80=1/3(2);
 2/9=110/2;
 99//99;
 2/9=110/2;
 3/5=16,7=10,11=9,25=1,30=1,71=1/1,2,3;
 4/5=5,16=3,69=1/1;
 5/5=2,38=5/2;
 8/6=4,10=1/1;
 9/15=2,16=-3/6;
 10/5=1/2;
 7/12=2/1,2,3,16;
 1/18=20,19=15,80=1/3(-8);
 2/9=110/2;
 6/7=2,8=2,9=2,10=2/1;
 99/9=10/99;
 ----
 blah
 ----
 Symbolic Z-matrix:
 Charge =  0 Multiplicity = 1
 O
 H                    1     0.97 
 F                    1     1.4      2     105. 
 

 GradGradGradGradGradGradGradGradGradGradGradGradGradGradGradGradGradGrad
 Berny optimization.
 Initialization pass.
                           ----------------------------
                           !    Initial Parameters    !
                           ! (Angstroms and Degrees)  !
 --------------------------                            --------------------------
 ! Name  Definition              Value          Derivative Info.                !
 --------------------------------------------------------------------------------
 ! R1    R(1,2)                  0.97           estimate D2E/DX2                !
 ! R2    R(1,3)                  1.4            estimate D2E/DX2                !
 ! A1    A(2,1,3)              105.0            estimate D2E/DX2                !
 --------------------------------------------------------------------------------
 Trust Radius=3.00D-01 FncErr=1.00D-07 GrdErr=1.00D-07 EigMax=2.50D+02 EigMin=1.00D-04
 Number of steps in this run=     20 maximum allowed number of steps=    100.
 GradGradGradGradGradGradGradGradGradGradGradGradGradGradGradGradGradGrad

                          Input orientation:                          
 ---------------------------------------------------------------------
 Center     Atomic      Atomic             Coordinates (Angstroms)
 Number     Number       Type             X           Y           Z
 ---------------------------------------------------------------------
      1          8           0        0.000000    0.000000    0.000000
      2          1           0        0.000000    0.000000    0.970000
      3          9           0        1.352296    0.000000   -0.362347
 ---------------------------------------------------------------------
                    Distance matrix (angstroms):
                    1          2          3
     1  O    0.000000
     2  H    0.970000   0.000000
     3  F    1.400000   1.898382   0.000000
 Stoichiometry    FHO
 Framework group  CS[SG(FHO)]
 Deg. of freedom     3
 Full point group                 CS      NOp   2
 Largest Abelian subgroup         CS      NOp   2
 Largest concise Abelian subgroup C1      NOp   1
                         Standard orientation:                         
 ---------------------------------------------------------------------
 Center     Atomic      Atomic             Coordinates (Angstroms)
 Number     Number       Type             X           Y           Z
 ---------------------------------------------------------------------
      1          8           0        0.052053    0.686053    0.000000
      2          1           0       -0.884895    0.937107   -0.000000
      3          9           0        0.052053   -0.713947   -0.000000
 ---------------------------------------------------------------------
 Rotational constants (GHZ):         623.9767938          27.9647526          26.7652166
 Standard basis: Aug-CC-pVDZ (5D, 7F)
 There are    43 symmetry adapted cartesian basis functions of A'  symmetry.
 There are    16 symmetry adapted cartesian basis functions of A"  symmetry.
 There are    39 symmetry adapted basis functions of A'  symmetry.
 There are    16 symmetry adapted basis functions of A"  symmetry.
    55 basis functions,    97 primitive gaussians,    59 cartesian basis functions
     9 alpha electrons        9 beta electrons
       nuclear repulsion energy        34.0879420157 Hartrees.
 NAtoms=    3 NActive=    3 NUniq=    3 SFac= 1.00D+00 NAtFMM=   60 NAOKFM=F Big=F
 Integral buffers will be    131072 words long.
 Raffenetti 1 integral format.
 Two-electron integral symmetry is turned on.
 One-electron integrals computed using PRISM.
 NBasis=    55 RedAO= T EigKep=  2.26D-03  NBF=    39    16
 NBsUse=    55 1.00D-06 EigRej= -1.00D+00 NBFU=    39    16
 ExpMin= 2.97D-02 ExpMax= 1.47D+04 ExpMxC= 5.03D+02 IAcc=3 IRadAn=         5 AccDes= 0.00D+00
 Harris functional with IExCor=  205 and IRadAn=       5 diagonalized for initial guess.
 HarFok:  IExCor=  205 AccDes= 0.00D+00 IRadAn=         5 IDoV= 1 UseB2=F ITyADJ=14
 ICtDFT=  3500011 ScaDFX=  1.000000  1.000000  1.000000  1.000000
 FoFCou: FMM=F IPFlag=           0 FMFlag=      100000 FMFlg1=           0
         NFxFlg=           0 DoJE=T BraDBF=F KetDBF=T FulRan=T
         wScrn=  0.000000 ICntrl=       500 IOpCl=  0 I1Cent=   200000004 NGrid=           0
         NMat0=    1 NMatS0=      1 NMatT0=    0 NMatD0=    1 NMtDS0=    0 NMtDT0=    0
 Petite list used in FoFCou.
 Initial guess orbital symmetries:
       Occupied  (A') (A') (A') (A') (A') (A') (A") (A') (A")
       Virtual   (A') (A') (A') (A') (A") (A') (A') (A') (A") (A')
                 (A") (A') (A') (A') (A') (A") (A') (A") (A') (A')
                 (A") (A') (A") (A') (A') (A") (A') (A') (A") (A')
                 (A") (A') (A') (A') (A') (A') (A") (A') (A") (A')
                 (A') (A") (A') (A") (A') (A')
 The electronic state of the initial guess is 1-A'.
 Keep R1 ints in memory in symmetry-blocked form, NReq=9477088.
 Requested convergence on RMS density matrix=1.00D-08 within 128 cycles.
 Requested convergence on MAX density matrix=1.00D-06.
 Requested convergence on             energy=1.00D-06.
 No special actions if energy rises.
 SCF Done:  E(RHF) =  -174.762196758     A.U. after   13 cycles
            NFock= 13  Conv=0.19D-08     -V/T= 2.0012
 ExpMin= 2.97D-02 ExpMax= 1.47D+04 ExpMxC= 5.03D+02 IAcc=3 IRadAn=         5 AccDes= 0.00D+00
 HarFok:  IExCor=  205 AccDes= 0.00D+00 IRadAn=         5 IDoV=-2 UseB2=F ITyADJ=14
 ICtDFT= 12500011 ScaDFX=  1.000000  1.000000  1.000000  1.000000
 Range of M.O.s used for correlation:     3    55
 NBasis=    55 NAE=     9 NBE=     9 NFC=     2 NFV=     0
 NROrb=     53 NOA=     7 NOB=     7 NVA=    46 NVB=    46
 Fully direct method using O(ONN) memory.
 JobTyp=1 Pass  1:  I=   3 to   9 NPSUse= 40 ParTrn=T ParDer=T DoDerP=T.
 Spin components of T(2) and E(2):
     alpha-alpha T2 =       0.1371249287D-01 E2=     -0.5440193052D-01
     alpha-beta  T2 =       0.7880240649D-01 E2=     -0.3068537634D+00
     beta-beta   T2 =       0.1371249287D-01 E2=     -0.5440193052D-01
 ANorm=    0.1051773451D+01
 E2 =    -0.4156576245D+00 EUMP2 =    -0.17517785438203D+03
          IDoAtm=111
          Differentiating once with respect to electric field.
                with respect to dipole field.
          Differentiating once with respect to nuclear coordinates.
 Keep R1 ints in memory in symmetry-blocked form, NReq=9478477.
          There are     1 degrees of freedom in the 1st order CPHF.  IDoFFX=0 NUNeed=     1.
 LinEq1:  Iter=  0 NonCon=     1 RMS=8.64D-03 Max=5.08D-02 NDo=     1
 AX will form     1 AO Fock derivatives at one time.
 LinEq1:  Iter=  1 NonCon=     1 RMS=2.05D-03 Max=1.28D-02 NDo=     1
 LinEq1:  Iter=  2 NonCon=     1 RMS=7.61D-04 Max=6.46D-03 NDo=     1
 LinEq1:  Iter=  3 NonCon=     1 RMS=2.67D-04 Max=2.08D-03 NDo=     1
 LinEq1:  Iter=  4 NonCon=     1 RMS=7.36D-05 Max=3.75D-04 NDo=     1
 LinEq1:  Iter=  5 NonCon=     1 RMS=1.09D-05 Max=6.59D-05 NDo=     1
 LinEq1:  Iter=  6 NonCon=     1 RMS=2.75D-06 Max=1.54D-05 NDo=     1
 LinEq1:  Iter=  7 NonCon=     1 RMS=7.44D-07 Max=3.98D-06 NDo=     1
 LinEq1:  Iter=  8 NonCon=     1 RMS=1.18D-07 Max=5.89D-07 NDo=     1
 LinEq1:  Iter=  9 NonCon=     1 RMS=1.90D-08 Max=1.24D-07 NDo=     1
 LinEq1:  Iter= 10 NonCon=     1 RMS=3.76D-09 Max=2.25D-08 NDo=     1
 LinEq1:  Iter= 11 NonCon=     1 RMS=5.84D-10 Max=2.88D-09 NDo=     1
 LinEq1:  Iter= 12 NonCon=     1 RMS=1.11D-10 Max=4.23D-10 NDo=     1
 LinEq1:  Iter= 13 NonCon=     0 RMS=2.48D-11 Max=1.30D-10 NDo=     1
 Linear equations converged to 1.000D-10 1.000D-09 after    13 iterations.
 End of Minotr F.D. properties file   721 does not exist.
 End of Minotr F.D. properties file   722 does not exist.
 End of Minotr F.D. properties file   788 does not exist.

 **********************************************************************

            Population analysis using the SCF Density.

 **********************************************************************

 Orbital symmetries:
       Occupied  (A') (A') (A') (A') (A') (A") (A') (A') (A")
       Virtual   (A') (A') (A') (A") (A') (A') (A') (A') (A") (A')
                 (A") (A') (A') (A') (A') (A") (A') (A") (A') (A')
                 (A") (A") (A') (A') (A') (A") (A') (A') (A") (A')
                 (A") (A') (A') (A') (A') (A') (A") (A') (A") (A')
                 (A') (A") (A') (A") (A') (A')
 The electronic state is 1-A'.
 Alpha  occ. eigenvalues --  -26.36484 -20.69930  -1.66638  -1.31765  -0.78762
 Alpha  occ. eigenvalues --   -0.73161  -0.70062  -0.60120  -0.53979
 Alpha virt. eigenvalues --    0.03393   0.11278   0.16901   0.19351   0.21635
 Alpha virt. eigenvalues --    0.25278   0.26709   0.29042   0.29682   0.34054
 Alpha virt. eigenvalues --    0.38660   0.46208   0.52329   0.62169   0.84348
 Alpha virt. eigenvalues --    1.03866   1.06514   1.07810   1.17560   1.25217
 Alpha virt. eigenvalues --    1.35633   1.41450   1.42553   1.47881   1.58431
 Alpha virt. eigenvalues --    1.58850   1.63652   1.84281   1.93572   2.01058
 Alpha virt. eigenvalues --    2.07529   2.25394   2.33730   2.50388   2.76856
 Alpha virt. eigenvalues --    3.38814   3.53573   3.60161   3.62102   4.07654
 Alpha virt. eigenvalues --    4.17378   4.85717   4.87982   4.99194   5.00767
 Alpha virt. eigenvalues --    5.12005
          Condensed to atoms (all electrons):
               1          2          3
     1  O    7.728786   0.309928  -0.089859
     2  H    0.309928   0.484524  -0.064041
     3  F   -0.089859  -0.064041   9.474633
 Mulliken charges:
               1
     1  O    0.051144
     2  H    0.269589
     3  F   -0.320733
 Sum of Mulliken charges =  -0.00000
 Mulliken charges with hydrogens summed into heavy atoms:
               1
     1  O    0.320733
     3  F   -0.320733
 Electronic spatial extent (au):  <R**2>=             58.2184
 Charge=             -0.0000 electrons
 Dipole moment (field-independent basis, Debye):
    X=             -1.8197    Y=              1.2157    Z=             -0.0000  Tot=              2.1884
 Quadrupole moment (field-independent basis, Debye-Ang):
   XX=             -8.9942   YY=             -9.7770   ZZ=            -11.2138
   XY=             -1.9278   XZ=              0.0000   YZ=              0.0000
 Traceless Quadrupole moment (field-independent basis, Debye-Ang):
   XX=              1.0008   YY=              0.2180   ZZ=             -1.2188
   XY=             -1.9278   XZ=              0.0000   YZ=              0.0000
 Octapole moment (field-independent basis, Debye-Ang**2):
  XXX=             -2.1449  YYY=             -0.4010  ZZZ=             -0.0000  XYY=             -2.0163
  XXY=              1.0412  XXZ=             -0.0000  XZZ=             -0.1797  YZZ=             -0.9755
  YYZ=             -0.0000  XYZ=              0.0000
 Hexadecapole moment (field-independent basis, Debye-Ang**3):
 XXXX=             -7.3783 YYYY=            -35.1686 ZZZZ=             -7.8470 XXXY=             -0.7664
 XXXZ=             -0.0000 YYYX=             -1.1096 YYYZ=              0.0000 ZZZX=             -0.0000
 ZZZY=              0.0000 XXYY=             -6.7006 XXZZ=             -2.8233 YYZZ=             -8.3798
 XXYZ=              0.0000 YYXZ=             -0.0000 ZZXY=              0.2640
 N-N= 3.408794201575D+01 E-N=-4.854341796789D+02  KE= 1.745519087111D+02
 Symmetry A'   KE= 1.629976293052D+02
 Symmetry A"   KE= 1.155427940588D+01
 Calling FoFJK, ICntrl=  10002127 FMM=F ISym2X=1 I1Cent= 0 IOpClX= 0 NMat=1 NMatS=1 NMatT=0.
 ***** Axes restored to original set *****
 -------------------------------------------------------------------
 Center     Atomic                   Forces (Hartrees/Bohr)
 Number     Number              X              Y              Z
 -------------------------------------------------------------------
      1        8          -0.037431974   -0.000000000   -0.007675705
      2        1           0.013635899    0.000000000    0.004270827
      3        9           0.023796075    0.000000000    0.003404879
 -------------------------------------------------------------------
 Cartesian Forces:  Max     0.037431974 RMS     0.015783582

 GradGradGradGradGradGradGradGradGradGradGradGradGradGradGradGradGradGrad
 Berny optimization.
 FormGI is forming the generalized inverse of G from B-inverse, IUseBI=4.
 Internal  Forces:  Max     0.024995078 RMS     0.019421470
 Search for a local minimum.
 Step number   1 out of a maximum of   20
 All quantities printed in internal units (Hartrees-Bohrs-Radians)
 Mixed Optimization -- RFO/linear search
 Second derivative matrix not updated -- first step.
 The second derivative matrix:
                          R1        R2        A1
           R1           0.53377
           R2           0.00000   0.45621
           A1           0.00000   0.00000   0.16000
 ITU=  0
     Eigenvalues ---    0.16000   0.45621   0.53377
 RFO step:  Lambda=-4.88258235D-03 EMin= 1.60000000D-01
 Linear search not attempted -- first point.
 Iteration  1 RMS(Cart)=  0.09237675 RMS(Int)=  0.00585651
 Iteration  2 RMS(Cart)=  0.00534044 RMS(Int)=  0.00000730
 Iteration  3 RMS(Cart)=  0.00000769 RMS(Int)=  0.00000000
 Iteration  4 RMS(Cart)=  0.00000000 RMS(Int)=  0.00000000
 ClnCor:  largest displacement from symmetrization is 1.45D-15 for atom     2.
 Variable       Old X    -DE/DX   Delta X   Delta X   Delta X     New X
                                 (Linear)    (Quad)   (Total)
    R1        1.83303   0.00427   0.00000   0.00793   0.00793   1.84096
    R2        2.64562   0.02210   0.00000   0.04794   0.04794   2.69356
    A1        1.83260  -0.02500   0.00000  -0.15159  -0.15159   1.68100
         Item               Value     Threshold  Converged?
 Maximum Force            0.024995     0.000450     NO 
 RMS     Force            0.019421     0.000300     NO 
 Maximum Displacement     0.101285     0.001800     NO 
 RMS     Displacement     0.094945     0.001200     NO 
 Predicted change in Energy=-2.503158D-03
 GradGradGradGradGradGradGradGradGradGradGradGradGradGradGradGradGradGrad

                          Input orientation:                          
 ---------------------------------------------------------------------
 Center     Atomic      Atomic             Coordinates (Angstroms)
 Number     Number       Type             X           Y           Z
 ---------------------------------------------------------------------
      1          8           0       -0.047113   -0.000000   -0.019646
      2          1           0        0.053598    0.000000    0.949330
      3          9           0        1.345811    0.000000   -0.322031
 ---------------------------------------------------------------------
                    Distance matrix (angstroms):
                    1          2          3
     1  O    0.000000
     2  H    0.974196   0.000000
     3  F    1.425368   1.812781   0.000000
 Stoichiometry    FHO
 Framework group  CS[SG(FHO)]
 Deg. of freedom     3
 Full point group                 CS      NOp   2
 Largest Abelian subgroup         CS      NOp   2
 Largest concise Abelian subgroup C1      NOp   1
                         Standard orientation:                         
 ---------------------------------------------------------------------
 Center     Atomic      Atomic             Coordinates (Angstroms)
 Number     Number       Type             X           Y           Z
 ---------------------------------------------------------------------
      1          8           0        0.053794    0.706732   -0.000000
      2          1           0       -0.914492    0.813877   -0.000000
      3          9           0        0.053794   -0.718637    0.000000
 ---------------------------------------------------------------------
 Rotational constants (GHZ):         575.2012979          27.4022079          26.1561465
 Standard basis: Aug-CC-pVDZ (5D, 7F)
 There are    43 symmetry adapted cartesian basis functions of A'  symmetry.
 There are    16 symmetry adapted cartesian basis functions of A"  symmetry.
 There are    39 symmetry adapted basis functions of A'  symmetry.
 There are    16 symmetry adapted basis functions of A"  symmetry.
    55 basis functions,    97 primitive gaussians,    59 cartesian basis functions
     9 alpha electrons        9 beta electrons
       nuclear repulsion energy        33.7032529616 Hartrees.
 NAtoms=    3 NActive=    3 NUniq=    3 SFac= 1.00D+00 NAtFMM=   60 NAOKFM=F Big=F
 Integral buffers will be    131072 words long.
 Raffenetti 1 integral format.
 Two-electron integral symmetry is turned on.
 One-electron integrals computed using PRISM.
 NBasis=    55 RedAO= T EigKep=  2.32D-03  NBF=    39    16
 NBsUse=    55 1.00D-06 EigRej= -1.00D+00 NBFU=    39    16
 Initial guess from the checkpoint file:  "/scr/Gau-60900.chk"
 B after Tr=    -0.000000   -0.000000   -0.000000
         Rot=    0.999974   -0.000000   -0.000000   -0.007158 Ang=  -0.82 deg.
 Initial guess orbital symmetries:
       Occupied  (A') (A') (A') (A') (A') (A") (A') (A') (A")
       Virtual   (A') (A') (A') (A") (A') (A') (A') (A') (A") (A')
                 (A") (A') (A') (A') (A') (A") (A') (A") (A') (A')
                 (A") (A") (A') (A') (A') (A") (A') (A') (A") (A')
                 (A") (A') (A') (A') (A') (A') (A") (A') (A") (A')
                 (A') (A") (A') (A") (A') (A')
 ExpMin= 2.97D-02 ExpMax= 1.47D+04 ExpMxC= 5.03D+02 IAcc=3 IRadAn=         5 AccDes= 0.00D+00
 Harris functional with IExCor=  205 and IRadAn=       5 diagonalized for initial guess.
 HarFok:  IExCor=  205 AccDes= 0.00D+00 IRadAn=         5 IDoV= 1 UseB2=F ITyADJ=14
 ICtDFT=  3500011 ScaDFX=  1.000000  1.000000  1.000000  1.000000
 FoFCou: FMM=F IPFlag=           0 FMFlag=      100000 FMFlg1=           0
         NFxFlg=           0 DoJE=T BraDBF=F KetDBF=T FulRan=T
         wScrn=  0.000000 ICntrl=       500 IOpCl=  0 I1Cent=   200000004 NGrid=           0
         NMat0=    1 NMatS0=      1 NMatT0=    0 NMatD0=    1 NMtDS0=    0 NMtDT0=    0
 Petite list used in FoFCou.
 Keep R1 ints in memory in symmetry-blocked form, NReq=9476911.
 Requested convergence on RMS density matrix=1.00D-08 within 128 cycles.
 Requested convergence on MAX density matrix=1.00D-06.
 Requested convergence on             energy=1.00D-06.
 No special actions if energy rises.
 SCF Done:  E(RHF) =  -174.761602238     A.U. after   11 cycles
            NFock= 11  Conv=0.78D-08     -V/T= 2.0014
 ExpMin= 2.97D-02 ExpMax= 1.47D+04 ExpMxC= 5.03D+02 IAcc=3 IRadAn=         5 AccDes= 0.00D+00
 HarFok:  IExCor=  205 AccDes= 0.00D+00 IRadAn=         5 IDoV=-2 UseB2=F ITyADJ=14
 ICtDFT= 12500011 ScaDFX=  1.000000  1.000000  1.000000  1.000000
 Range of M.O.s used for correlation:     3    55
 NBasis=    55 NAE=     9 NBE=     9 NFC=     2 NFV=     0
 NROrb=     53 NOA=     7 NOB=     7 NVA=    46 NVB=    46
 Fully direct method using O(ONN) memory.
 JobTyp=1 Pass  1:  I=   3 to   9 NPSUse= 40 ParTrn=T ParDer=T DoDerP=T.
 Spin components of T(2) and E(2):
     alpha-alpha T2 =       0.1393822372D-01 E2=     -0.5467701097D-01
     alpha-beta  T2 =       0.8072927441D-01 E2=     -0.3091072457D+00
     beta-beta   T2 =       0.1393822372D-01 E2=     -0.5467701097D-01
 ANorm=    0.1052903472D+01
 E2 =    -0.4184612677D+00 EUMP2 =    -0.17518006350596D+03
          IDoAtm=111
          Differentiating once with respect to electric field.
                with respect to dipole field.
          Differentiating once with respect to nuclear coordinates.
 Keep R1 ints in memory in symmetry-blocked form, NReq=9478359.
          There are     1 degrees of freedom in the 1st order CPHF.  IDoFFX=0 NUNeed=     1.
 LinEq1:  Iter=  0 NonCon=     1 RMS=9.05D-03 Max=5.31D-02 NDo=     1
 AX will form     1 AO Fock derivatives at one time.
 LinEq1:  Iter=  1 NonCon=     1 RMS=2.27D-03 Max=1.49D-02 NDo=     1
 LinEq1:  Iter=  2 NonCon=     1 RMS=9.08D-04 Max=8.64D-03 NDo=     1
 LinEq1:  Iter=  3 NonCon=     1 RMS=2.98D-04 Max=2.20D-03 NDo=     1
 LinEq1:  Iter=  4 NonCon=     1 RMS=8.63D-05 Max=3.77D-04 NDo=     1
 LinEq1:  Iter=  5 NonCon=     1 RMS=1.32D-05 Max=8.55D-05 NDo=     1
 LinEq1:  Iter=  6 NonCon=     1 RMS=3.44D-06 Max=2.12D-05 NDo=     1
 LinEq1:  Iter=  7 NonCon=     1 RMS=8.89D-07 Max=4.89D-06 NDo=     1
 LinEq1:  Iter=  8 NonCon=     1 RMS=1.48D-07 Max=8.46D-07 NDo=     1
 LinEq1:  Iter=  9 NonCon=     1 RMS=2.42D-08 Max=1.63D-07 NDo=     1
 LinEq1:  Iter= 10 NonCon=     1 RMS=4.95D-09 Max=3.60D-08 NDo=     1
 LinEq1:  Iter= 11 NonCon=     1 RMS=8.30D-10 Max=4.55D-09 NDo=     1
 LinEq1:  Iter= 12 NonCon=     1 RMS=1.52D-10 Max=5.86D-10 NDo=     1
 LinEq1:  Iter= 13 NonCon=     0 RMS=3.06D-11 Max=1.71D-10 NDo=     1
 Linear equations converged to 1.000D-10 1.000D-09 after    13 iterations.
 End of Minotr F.D. properties file   721 does not exist.
 End of Minotr F.D. properties file   722 does not exist.
 End of Minotr F.D. properties file   788 does not exist.
 Calling FoFJK, ICntrl=  10002127 FMM=F ISym2X=1 I1Cent= 0 IOpClX= 0 NMat=1 NMatS=1 NMatT=0.
 ***** Axes restored to original set *****
 -------------------------------------------------------------------
 Center     Atomic                   Forces (Hartrees/Bohr)
 Number     Number              X              Y              Z
 -------------------------------------------------------------------
      1        8          -0.009836648   -0.000000000    0.005239295
      2        1          -0.004060658   -0.000000000    0.000649273
      3        9           0.013897306    0.000000000   -0.005888568
 -------------------------------------------------------------------
 Cartesian Forces:  Max     0.013897306 RMS     0.006402523

 GradGradGradGradGradGradGradGradGradGradGradGradGradGradGradGradGradGrad
 Berny optimization.
 Using GEDIIS/GDIIS optimizer.
 FormGI is forming the generalized inverse of G from B-inverse, IUseBI=4.
 Internal  Forces:  Max     0.014830197 RMS     0.009611176
 Search for a local minimum.
 Step number   2 out of a maximum of   20
 All quantities printed in internal units (Hartrees-Bohrs-Radians)
 Mixed Optimization -- RFO/linear search
 Update second derivatives using D2CorX and points    1    2
 DE= -2.21D-03 DEPred=-2.50D-03 R= 8.83D-01
 TightC=F SS=  1.41D+00  RLast= 1.59D-01 DXNew= 5.0454D-01 4.7757D-01
 Trust test= 8.83D-01 RLast= 1.59D-01 DXMaxT set to 4.78D-01
 The second derivative matrix:
                          R1        R2        A1
           R1           0.53308
           R2          -0.01391   0.36565
           A1          -0.00320   0.06692   0.23574
 ITU=  1  0
 Use linear search instead of GDIIS.
     Eigenvalues ---    0.20742   0.39255   0.53451
 RFO step:  Lambda=-6.70957508D-04 EMin= 2.07416861D-01
 Quartic linear search produced a step of -0.08282.
 Iteration  1 RMS(Cart)=  0.02710391 RMS(Int)=  0.00013289
 Iteration  2 RMS(Cart)=  0.00010428 RMS(Int)=  0.00000001
 Iteration  3 RMS(Cart)=  0.00000001 RMS(Int)=  0.00000000
 ClnCor:  largest displacement from symmetrization is 4.44D-16 for atom     3.
 Variable       Old X    -DE/DX   Delta X   Delta X   Delta X     New X
                                 (Linear)    (Quad)   (Total)
    R1        1.84096   0.00023  -0.00066   0.00216   0.00150   1.84246
    R2        2.69356   0.01483  -0.00397   0.04047   0.03650   2.73006
    A1        1.68100   0.00756   0.01255   0.00932   0.02188   1.70288
         Item               Value     Threshold  Converged?
 Maximum Force            0.014830     0.000450     NO 
 RMS     Force            0.009611     0.000300     NO 
 Maximum Displacement     0.027158     0.001800     NO 
 RMS     Displacement     0.027146     0.001200     NO 
 Predicted change in Energy=-3.538555D-04
 GradGradGradGradGradGradGradGradGradGradGradGradGradGradGradGradGradGrad

                          Input orientation:                          
 ---------------------------------------------------------------------
 Center     Atomic      Atomic             Coordinates (Angstroms)
 Number     Number       Type             X           Y           Z
 ---------------------------------------------------------------------
      1          8           0       -0.048520   -0.000000   -0.014278
      2          1           0        0.040634    0.000000    0.956628
      3          9           0        1.360182    0.000000   -0.334696
 ---------------------------------------------------------------------
                    Distance matrix (angstroms):
                    1          2          3
     1  O    0.000000
     2  H    0.974990   0.000000
     3  F    1.444683   1.846274   0.000000
 Stoichiometry    FHO
 Framework group  CS[SG(FHO)]
 Deg. of freedom     3
 Full point group                 CS      NOp   2
 Largest Abelian subgroup         CS      NOp   2
 Largest concise Abelian subgroup C1      NOp   1
                         Standard orientation:                         
 ---------------------------------------------------------------------
 Center     Atomic      Atomic             Coordinates (Angstroms)
 Number     Number       Type             X           Y           Z
 ---------------------------------------------------------------------
      1          8           0        0.053694    0.715208   -0.000000
      2          1           0       -0.912803    0.843614    0.000000
      3          9           0        0.053694   -0.729475    0.000000
 ---------------------------------------------------------------------
 Rotational constants (GHZ):         578.4113996          26.6245774          25.4529642
 Standard basis: Aug-CC-pVDZ (5D, 7F)
 There are    43 symmetry adapted cartesian basis functions of A'  symmetry.
 There are    16 symmetry adapted cartesian basis functions of A"  symmetry.
 There are    39 symmetry adapted basis functions of A'  symmetry.
 There are    16 symmetry adapted basis functions of A"  symmetry.
    55 basis functions,    97 primitive gaussians,    59 cartesian basis functions
     9 alpha electrons        9 beta electrons
       nuclear repulsion energy        33.2946692284 Hartrees.
 NAtoms=    3 NActive=    3 NUniq=    3 SFac= 1.00D+00 NAtFMM=   60 NAOKFM=F Big=F
 Integral buffers will be    131072 words long.
 Raffenetti 1 integral format.
 Two-electron integral symmetry is turned on.
 One-electron integrals computed using PRISM.
 NBasis=    55 RedAO= T EigKep=  2.38D-03  NBF=    39    16
 NBsUse=    55 1.00D-06 EigRej= -1.00D+00 NBFU=    39    16
 Initial guess from the checkpoint file:  "/scr/Gau-60900.chk"
 B after Tr=     0.000000   -0.000000   -0.000000
         Rot=    0.999999    0.000000   -0.000000    0.001464 Ang=   0.17 deg.
 Initial guess orbital symmetries:
       Occupied  (A') (A') (A') (A') (A') (A") (A') (A') (A")
       Virtual   (A') (A') (A') (A") (A') (A') (A') (A') (A") (A')
                 (A") (A') (A') (A') (A') (A") (A") (A') (A') (A')
                 (A") (A") (A') (A') (A') (A") (A') (A') (A") (A')
                 (A") (A') (A') (A') (A') (A') (A") (A') (A") (A')
                 (A') (A") (A') (A") (A') (A')
 ExpMin= 2.97D-02 ExpMax= 1.47D+04 ExpMxC= 5.03D+02 IAcc=3 IRadAn=         5 AccDes= 0.00D+00
 Harris functional with IExCor=  205 and IRadAn=       5 diagonalized for initial guess.
 HarFok:  IExCor=  205 AccDes= 0.00D+00 IRadAn=         5 IDoV= 1 UseB2=F ITyADJ=14
 ICtDFT=  3500011 ScaDFX=  1.000000  1.000000  1.000000  1.000000
 FoFCou: FMM=F IPFlag=           0 FMFlag=      100000 FMFlg1=           0
         NFxFlg=           0 DoJE=T BraDBF=F KetDBF=T FulRan=T
         wScrn=  0.000000 ICntrl=       500 IOpCl=  0 I1Cent=   200000004 NGrid=           0
         NMat0=    1 NMatS0=      1 NMatT0=    0 NMatD0=    1 NMtDS0=    0 NMtDT0=    0
 Petite list used in FoFCou.
 Keep R1 ints in memory in symmetry-blocked form, NReq=9476793.
 Requested convergence on RMS density matrix=1.00D-08 within 128 cycles.
 Requested convergence on MAX density matrix=1.00D-06.
 Requested convergence on             energy=1.00D-06.
 No special actions if energy rises.
 SCF Done:  E(RHF) =  -174.760165206     A.U. after   11 cycles
            NFock= 11  Conv=0.16D-08     -V/T= 2.0017
 ExpMin= 2.97D-02 ExpMax= 1.47D+04 ExpMxC= 5.03D+02 IAcc=3 IRadAn=         5 AccDes= 0.00D+00
 HarFok:  IExCor=  205 AccDes= 0.00D+00 IRadAn=         5 IDoV=-2 UseB2=F ITyADJ=14
 ICtDFT= 12500011 ScaDFX=  1.000000  1.000000  1.000000  1.000000
 Range of M.O.s used for correlation:     3    55
 NBasis=    55 NAE=     9 NBE=     9 NFC=     2 NFV=     0
 NROrb=     53 NOA=     7 NOB=     7 NVA=    46 NVB=    46
 Fully direct method using O(ONN) memory.
 JobTyp=1 Pass  1:  I=   3 to   9 NPSUse= 40 ParTrn=T ParDer=T DoDerP=T.
 Spin components of T(2) and E(2):
     alpha-alpha T2 =       0.1408199647D-01 E2=     -0.5480428370D-01
     alpha-beta  T2 =       0.8218127901D-01 E2=     -0.3106535564D+00
     beta-beta   T2 =       0.1408199647D-01 E2=     -0.5480428370D-01
 ANorm=    0.1053729221D+01
 E2 =    -0.4202621238D+00 EUMP2 =    -0.17518042732968D+03
          IDoAtm=111
          Differentiating once with respect to electric field.
                with respect to dipole field.
          Differentiating once with respect to nuclear coordinates.
 Keep R1 ints in memory in symmetry-blocked form, NReq=9478182.
          There are     1 degrees of freedom in the 1st order CPHF.  IDoFFX=0 NUNeed=     1.
 LinEq1:  Iter=  0 NonCon=     1 RMS=9.29D-03 Max=5.42D-02 NDo=     1
 AX will form     1 AO Fock derivatives at one time.
 LinEq1:  Iter=  1 NonCon=     1 RMS=2.39D-03 Max=1.58D-02 NDo=     1
 LinEq1:  Iter=  2 NonCon=     1 RMS=9.60D-04 Max=8.37D-03 NDo=     1
 LinEq1:  Iter=  3 NonCon=     1 RMS=3.11D-04 Max=2.23D-03 NDo=     1
 LinEq1:  Iter=  4 NonCon=     1 RMS=9.06D-05 Max=4.09D-04 NDo=     1
 LinEq1:  Iter=  5 NonCon=     1 RMS=1.35D-05 Max=8.63D-05 NDo=     1
 LinEq1:  Iter=  6 NonCon=     1 RMS=3.50D-06 Max=2.32D-05 NDo=     1
 LinEq1:  Iter=  7 NonCon=     1 RMS=9.28D-07 Max=5.49D-06 NDo=     1
 LinEq1:  Iter=  8 NonCon=     1 RMS=1.58D-07 Max=8.10D-07 NDo=     1
 LinEq1:  Iter=  9 NonCon=     1 RMS=2.67D-08 Max=1.78D-07 NDo=     1
 LinEq1:  Iter= 10 NonCon=     1 RMS=5.49D-09 Max=3.71D-08 NDo=     1
 LinEq1:  Iter= 11 NonCon=     1 RMS=9.52D-10 Max=5.63D-09 NDo=     1
 LinEq1:  Iter= 12 NonCon=     1 RMS=1.77D-10 Max=6.44D-10 NDo=     1
 LinEq1:  Iter= 13 NonCon=     0 RMS=3.47D-11 Max=1.70D-10 NDo=     1
 Linear equations converged to 1.000D-10 1.000D-09 after    13 iterations.
 End of Minotr F.D. properties file   721 does not exist.
 End of Minotr F.D. properties file   722 does not exist.
 End of Minotr F.D. properties file   788 does not exist.
 Calling FoFJK, ICntrl=  10002127 FMM=F ISym2X=1 I1Cent= 0 IOpClX= 0 NMat=1 NMatS=1 NMatT=0.
 ***** Axes restored to original set *****
 -------------------------------------------------------------------
 Center     Atomic                   Forces (Hartrees/Bohr)
 Number     Number              X              Y              Z
 -------------------------------------------------------------------
      1        8          -0.001258619   -0.000000000    0.000242494
      2        1           0.000155441    0.000000000   -0.000105376
      3        9           0.001103178    0.000000000   -0.000137118
 -------------------------------------------------------------------
 Cartesian Forces:  Max     0.001258619 RMS     0.000569014

 GradGradGradGradGradGradGradGradGradGradGradGradGradGradGradGradGradGrad
 Berny optimization.
 Using GEDIIS/GDIIS optimizer.
 FormGI is forming the generalized inverse of G from B-inverse, IUseBI=4.
 Internal  Forces:  Max     0.001106113 RMS     0.000664203
 Search for a local minimum.
 Step number   3 out of a maximum of   20
 All quantities printed in internal units (Hartrees-Bohrs-Radians)
 Mixed Optimization -- En-DIIS/RFO-DIIS
 Update second derivatives using D2CorX and points    1    2    3
 DE= -3.64D-04 DEPred=-3.54D-04 R= 1.03D+00
 TightC=F SS=  1.41D+00  RLast= 4.26D-02 DXNew= 8.0317D-01 1.2774D-01
 Trust test= 1.03D+00 RLast= 4.26D-02 DXMaxT set to 4.78D-01
 The second derivative matrix:
                          R1        R2        A1
           R1           0.53342
           R2          -0.01176   0.33451
           A1          -0.00250   0.07002   0.24272
 ITU=  1  1  0
 Use linear search instead of GDIIS.
     Eigenvalues ---    0.20486   0.37152   0.53428
 RFO step:  Lambda=-3.22953878D-06 EMin= 2.04857990D-01
 Quartic linear search produced a step of  0.05311.
 Iteration  1 RMS(Cart)=  0.00179802 RMS(Int)=  0.00000186
 Iteration  2 RMS(Cart)=  0.00000155 RMS(Int)=  0.00000000
 Iteration  3 RMS(Cart)=  0.00000000 RMS(Int)=  0.00000000
 ClnCor:  largest displacement from symmetrization is 4.58D-16 for atom     3.
 Variable       Old X    -DE/DX   Delta X   Delta X   Delta X     New X
                                 (Linear)    (Quad)   (Total)
    R1        1.84246  -0.00009   0.00008  -0.00017  -0.00009   1.84237
    R2        2.73006   0.00111   0.00194   0.00197   0.00391   2.73396
    A1        1.70288  -0.00030   0.00116  -0.00343  -0.00227   1.70061
         Item               Value     Threshold  Converged?
 Maximum Force            0.001106     0.000450     NO 
 RMS     Force            0.000664     0.000300     NO 
 Maximum Displacement     0.002486     0.001800     NO 
 RMS     Displacement     0.001798     0.001200     NO 
 Predicted change in Energy=-2.454139D-06
 GradGradGradGradGradGradGradGradGradGradGradGradGradGradGradGradGradGrad

                          Input orientation:                          
 ---------------------------------------------------------------------
 Center     Atomic      Atomic             Coordinates (Angstroms)
 Number     Number       Type             X           Y           Z
 ---------------------------------------------------------------------
      1          8           0       -0.049835   -0.000000   -0.014247
      2          1           0        0.041116    0.000000    0.956443
      3          9           0        1.361016    0.000000   -0.334542
 ---------------------------------------------------------------------
                    Distance matrix (angstroms):
                    1          2          3
     1  O    0.000000
     2  H    0.974942   0.000000
     3  F    1.446751   1.846287   0.000000
 Stoichiometry    FHO
 Framework group  CS[SG(FHO)]
 Deg. of freedom     3
 Full point group                 CS      NOp   2
 Largest Abelian subgroup         CS      NOp   2
 Largest concise Abelian subgroup C1      NOp   1
                         Standard orientation:                         
 ---------------------------------------------------------------------
 Center     Atomic      Atomic             Coordinates (Angstroms)
 Number     Number       Type             X           Y           Z
 ---------------------------------------------------------------------
      1          8           0        0.053708    0.716364   -0.000000
      2          1           0       -0.913031    0.842570   -0.000000
      3          9           0        0.053708   -0.730387    0.000000
 ---------------------------------------------------------------------
 Rotational constants (GHZ):         577.9841329          26.5548910          25.3884448
 Standard basis: Aug-CC-pVDZ (5D, 7F)
 There are    43 symmetry adapted cartesian basis functions of A'  symmetry.
 There are    16 symmetry adapted cartesian basis functions of A"  symmetry.
 There are    39 symmetry adapted basis functions of A'  symmetry.
 There are    16 symmetry adapted basis functions of A"  symmetry.
    55 basis functions,    97 primitive gaussians,    59 cartesian basis functions
     9 alpha electrons        9 beta electrons
       nuclear repulsion energy        33.2571654830 Hartrees.
 NAtoms=    3 NActive=    3 NUniq=    3 SFac= 1.00D+00 NAtFMM=   60 NAOKFM=F Big=F
 Integral buffers will be    131072 words long.
 Raffenetti 1 integral format.
 Two-electron integral symmetry is turned on.
 One-electron integrals computed using PRISM.
 NBasis=    55 RedAO= T EigKep=  2.38D-03  NBF=    39    16
 NBsUse=    55 1.00D-06 EigRej= -1.00D+00 NBFU=    39    16
 Initial guess from the checkpoint file:  "/scr/Gau-60900.chk"
 B after Tr=    -0.000000    0.000000   -0.000000
         Rot=    1.000000    0.000000   -0.000000   -0.000058 Ang=  -0.01 deg.
 Initial guess orbital symmetries:
       Occupied  (A') (A') (A') (A') (A') (A") (A') (A') (A")
       Virtual   (A') (A') (A') (A") (A') (A') (A') (A') (A") (A')
                 (A") (A') (A') (A') (A') (A") (A") (A') (A') (A')
                 (A") (A") (A') (A') (A') (A") (A') (A') (A") (A')
                 (A") (A') (A') (A') (A') (A') (A") (A') (A") (A')
                 (A') (A") (A') (A") (A') (A')
 Keep R1 ints in memory in symmetry-blocked form, NReq=9476793.
 Requested convergence on RMS density matrix=1.00D-08 within 128 cycles.
 Requested convergence on MAX density matrix=1.00D-06.
 Requested convergence on             energy=1.00D-06.
 No special actions if energy rises.
 SCF Done:  E(RHF) =  -174.759971389     A.U. after   10 cycles
            NFock= 10  Conv=0.25D-08     -V/T= 2.0017
 ExpMin= 2.97D-02 ExpMax= 1.47D+04 ExpMxC= 5.03D+02 IAcc=3 IRadAn=         5 AccDes= 0.00D+00
 HarFok:  IExCor=  205 AccDes= 0.00D+00 IRadAn=         5 IDoV=-2 UseB2=F ITyADJ=14
 ICtDFT= 12500011 ScaDFX=  1.000000  1.000000  1.000000  1.000000
 Range of M.O.s used for correlation:     3    55
 NBasis=    55 NAE=     9 NBE=     9 NFC=     2 NFV=     0
 NROrb=     53 NOA=     7 NOB=     7 NVA=    46 NVB=    46
 Fully direct method using O(ONN) memory.
 JobTyp=1 Pass  1:  I=   3 to   9 NPSUse= 40 ParTrn=T ParDer=T DoDerP=T.
 Spin components of T(2) and E(2):
     alpha-alpha T2 =       0.1409772632D-01 E2=     -0.5481992669D-01
     alpha-beta  T2 =       0.8233638266D-01 E2=     -0.3108187447D+00
     beta-beta   T2 =       0.1409772632D-01 E2=     -0.5481992669D-01
 ANorm=    0.1053817743D+01
 E2 =    -0.4204585981D+00 EUMP2 =    -0.17518042998748D+03
          IDoAtm=111
          Differentiating once with respect to electric field.
                with respect to dipole field.
          Differentiating once with respect to nuclear coordinates.
 Keep R1 ints in memory in symmetry-blocked form, NReq=9478182.
          There are     1 degrees of freedom in the 1st order CPHF.  IDoFFX=0 NUNeed=     1.
 LinEq1:  Iter=  0 NonCon=     1 RMS=9.32D-03 Max=5.43D-02 NDo=     1
 AX will form     1 AO Fock derivatives at one time.
 LinEq1:  Iter=  1 NonCon=     1 RMS=2.41D-03 Max=1.59D-02 NDo=     1
 LinEq1:  Iter=  2 NonCon=     1 RMS=9.69D-04 Max=8.36D-03 NDo=     1
 LinEq1:  Iter=  3 NonCon=     1 RMS=3.12D-04 Max=2.23D-03 NDo=     1
 LinEq1:  Iter=  4 NonCon=     1 RMS=9.12D-05 Max=4.14D-04 NDo=     1
 LinEq1:  Iter=  5 NonCon=     1 RMS=1.36D-05 Max=8.75D-05 NDo=     1
 LinEq1:  Iter=  6 NonCon=     1 RMS=3.53D-06 Max=2.35D-05 NDo=     1
 LinEq1:  Iter=  7 NonCon=     1 RMS=9.35D-07 Max=5.57D-06 NDo=     1
 LinEq1:  Iter=  8 NonCon=     1 RMS=1.59D-07 Max=8.08D-07 NDo=     1
 LinEq1:  Iter=  9 NonCon=     1 RMS=2.70D-08 Max=1.80D-07 NDo=     1
 LinEq1:  Iter= 10 NonCon=     1 RMS=5.56D-09 Max=3.74D-08 NDo=     1
 LinEq1:  Iter= 11 NonCon=     1 RMS=9.68D-10 Max=5.77D-09 NDo=     1
 LinEq1:  Iter= 12 NonCon=     1 RMS=1.79D-10 Max=6.56D-10 NDo=     1
 LinEq1:  Iter= 13 NonCon=     0 RMS=3.51D-11 Max=1.74D-10 NDo=     1
 Linear equations converged to 1.000D-10 1.000D-09 after    13 iterations.
 End of Minotr F.D. properties file   721 does not exist.
 End of Minotr F.D. properties file   722 does not exist.
 End of Minotr F.D. properties file   788 does not exist.
 Calling FoFJK, ICntrl=  10002127 FMM=F ISym2X=1 I1Cent= 0 IOpClX= 0 NMat=1 NMatS=1 NMatT=0.
 ***** Axes restored to original set *****
 -------------------------------------------------------------------
 Center     Atomic                   Forces (Hartrees/Bohr)
 Number     Number              X              Y              Z
 -------------------------------------------------------------------
      1        8          -0.000078174   -0.000000000    0.000000819
      2        1           0.000027063    0.000000000   -0.000008379
      3        9           0.000051111    0.000000000    0.000007560
 -------------------------------------------------------------------
 Cartesian Forces:  Max     0.000078174 RMS     0.000032633

 GradGradGradGradGradGradGradGradGradGradGradGradGradGradGradGradGradGrad
 Berny optimization.
 Using GEDIIS/GDIIS optimizer.
 FormGI is forming the generalized inverse of G from B-inverse, IUseBI=4.
 Internal  Forces:  Max     0.000051086 RMS     0.000040677
 Search for a local minimum.
 Step number   4 out of a maximum of   20
 All quantities printed in internal units (Hartrees-Bohrs-Radians)
 Mixed Optimization -- En-DIIS/RFO-DIIS
 Swapping is turned off.
 Update second derivatives using D2CorX and points    1    2    3    4
 DE= -2.66D-06 DEPred=-2.45D-06 R= 1.08D+00
 TightC=F SS=  1.41D+00  RLast= 4.52D-03 DXNew= 8.0317D-01 1.3560D-02
 Trust test= 1.08D+00 RLast= 4.52D-03 DXMaxT set to 4.78D-01
 The second derivative matrix:
                          R1        R2        A1
           R1           0.53328
           R2          -0.01068   0.31425
           A1          -0.00240   0.07542   0.24097
 ITU=  1  1  1  0
     Eigenvalues ---    0.19372   0.36085   0.53394
 En-DIIS/RFO-DIIS/Sim-DIIS IScMMF=       -3 using points:     4    3
 RFO step:  Lambda=-2.50251609D-08.
 DidBck=F Rises=F RFO-DIIS coefs:    1.07343   -0.07343
 Iteration  1 RMS(Cart)=  0.00017831 RMS(Int)=  0.00000002
 Iteration  2 RMS(Cart)=  0.00000002 RMS(Int)=  0.00000000
 ClnCor:  largest displacement from symmetrization is 8.58D-16 for atom     2.
 Variable       Old X    -DE/DX   Delta X   Delta X   Delta X     New X
                                 (Linear)    (Quad)   (Total)
    R1        1.84237  -0.00001  -0.00001  -0.00000  -0.00001   1.84237
    R2        2.73396   0.00005   0.00029  -0.00007   0.00022   2.73418
    A1        1.70061  -0.00005  -0.00017  -0.00011  -0.00028   1.70033
         Item               Value     Threshold  Converged?
 Maximum Force            0.000051     0.000450     YES
 RMS     Force            0.000041     0.000300     YES
 Maximum Displacement     0.000214     0.001800     YES
 RMS     Displacement     0.000178     0.001200     YES
 Predicted change in Energy=-1.251258D-08
 Optimization completed.
    -- Stationary point found.
                           ----------------------------
                           !   Optimized Parameters   !
                           ! (Angstroms and Degrees)  !
 --------------------------                            --------------------------
 ! Name  Definition              Value          Derivative Info.                !
 --------------------------------------------------------------------------------
 ! R1    R(1,2)                  0.9749         -DE/DX =    0.0                 !
 ! R2    R(1,3)                  1.4468         -DE/DX =    0.0                 !
 ! A1    A(2,1,3)               97.4378         -DE/DX =   -0.0001              !
 --------------------------------------------------------------------------------
 GradGradGradGradGradGradGradGradGradGradGradGradGradGradGradGradGradGrad

                          Input orientation:                          
 ---------------------------------------------------------------------
 Center     Atomic      Atomic             Coordinates (Angstroms)
 Number     Number       Type             X           Y           Z
 ---------------------------------------------------------------------
      1          8           0       -0.049835   -0.000000   -0.014247
      2          1           0        0.041116    0.000000    0.956443
      3          9           0        1.361016    0.000000   -0.334542
 ---------------------------------------------------------------------
                    Distance matrix (angstroms):
                    1          2          3
     1  O    0.000000
     2  H    0.974942   0.000000
     3  F    1.446751   1.846287   0.000000
 Stoichiometry    FHO
 Framework group  CS[SG(FHO)]
 Deg. of freedom     3
 Full point group                 CS      NOp   2
 Largest Abelian subgroup         CS      NOp   2
 Largest concise Abelian subgroup C1      NOp   1
                         Standard orientation:                         
 ---------------------------------------------------------------------
 Center     Atomic      Atomic             Coordinates (Angstroms)
 Number     Number       Type             X           Y           Z
 ---------------------------------------------------------------------
      1          8           0        0.053708    0.716364   -0.000000
      2          1           0       -0.913031    0.842570   -0.000000
      3          9           0        0.053708   -0.730387    0.000000
 ---------------------------------------------------------------------
 Rotational constants (GHZ):         577.9841329          26.5548910          25.3884448

 **********************************************************************

            Population analysis using the SCF Density.

 **********************************************************************

 Orbital symmetries:
       Occupied  (A') (A') (A') (A') (A') (A") (A') (A') (A")
       Virtual   (A') (A') (A') (A") (A') (A') (A') (A') (A") (A')
                 (A") (A') (A') (A') (A') (A") (A") (A') (A') (A')
                 (A") (A") (A') (A') (A') (A") (A') (A') (A") (A')
                 (A") (A') (A') (A') (A') (A') (A") (A') (A") (A')
                 (A') (A") (A') (A") (A') (A')
 The electronic state is 1-A'.
 Alpha  occ. eigenvalues --  -26.36134 -20.71097  -1.64636  -1.32566  -0.77606
 Alpha  occ. eigenvalues --   -0.72079  -0.68413  -0.61245  -0.55021
 Alpha virt. eigenvalues --    0.03381   0.10292   0.16829   0.19370   0.21183
 Alpha virt. eigenvalues --    0.23409   0.26245   0.29046   0.29649   0.34012
 Alpha virt. eigenvalues --    0.38245   0.46274   0.52526   0.61807   0.84172
 Alpha virt. eigenvalues --    1.03571   1.07299   1.07985   1.14863   1.25563
 Alpha virt. eigenvalues --    1.34672   1.40794   1.43777   1.47451   1.58311
 Alpha virt. eigenvalues --    1.59109   1.62464   1.82266   1.91020   2.04385
 Alpha virt. eigenvalues --    2.07080   2.13516   2.29421   2.49212   2.76080
 Alpha virt. eigenvalues --    3.39579   3.53747   3.61111   3.61576   4.03570
 Alpha virt. eigenvalues --    4.15172   4.85870   4.88640   4.98800   5.00768
 Alpha virt. eigenvalues --    5.10211
          Condensed to atoms (all electrons):
               1          2          3
     1  O    7.707458   0.302903  -0.034779
     2  H    0.302903   0.463931  -0.060801
     3  F   -0.034779  -0.060801   9.413966
 Mulliken charges:
               1
     1  O    0.024418
     2  H    0.293968
     3  F   -0.318386
 Sum of Mulliken charges =   0.00000
 Mulliken charges with hydrogens summed into heavy atoms:
               1
     1  O    0.318386
     3  F   -0.318386
 Electronic spatial extent (au):  <R**2>=             59.9545
 Charge=             -0.0000 electrons
 Dipole moment (field-independent basis, Debye):
    X=             -1.8535    Y=              1.2030    Z=             -0.0000  Tot=              2.2097
 Quadrupole moment (field-independent basis, Debye-Ang):
   XX=             -8.8605   YY=            -10.0991   ZZ=            -11.2515
   XY=             -1.7444   XZ=             -0.0000   YZ=              0.0000
 Traceless Quadrupole moment (field-independent basis, Debye-Ang):
   XX=              1.2098   YY=             -0.0287   ZZ=             -1.1811
   XY=             -1.7444   XZ=             -0.0000   YZ=              0.0000
 Octapole moment (field-independent basis, Debye-Ang**2):
  XXX=             -2.3451  YYY=             -0.7635  ZZZ=             -0.0000  XYY=             -1.7031
  XXY=              1.0083  XXZ=              0.0000  XZZ=             -0.1831  YZZ=             -0.9637
  YYZ=             -0.0000  XYZ=             -0.0000
 Hexadecapole moment (field-independent basis, Debye-Ang**3):
 XXXX=             -7.1954 YYYY=            -37.2648 ZZZZ=             -7.8723 XXXY=             -0.7735
 XXXZ=             -0.0000 YYYX=             -0.6744 YYYZ=              0.0000 ZZZX=             -0.0000
 ZZZY=              0.0000 XXYY=             -7.2315 XXZZ=             -2.8387 YYZZ=             -8.6656
 XXYZ=              0.0000 YYXZ=             -0.0000 ZZXY=              0.2482
 N-N= 3.325716548302D+01 E-N=-4.837202876291D+02  KE= 1.744619414781D+02
 Symmetry A'   KE= 1.629308780196D+02
 Symmetry A"   KE= 1.153106345846D+01
 Unable to Open any file for archive entry.
 1\1\GINC-N3183\FOpt\RMP2-FC\Aug-CC-pVDZ\F1H1O1\GDS001\07-Mar-2025\0\\#
  MP2/aug-cc-pVDZ opt freq=(vibrot,anharmonic)\\blah\\0,1\O,-0.04983543
 54,0.,-0.0142474265\H,0.041115859,0.,0.9564427946\F,1.3610157333,0.,-0
 .3345420312\\Version=EM64L-G16RevC.01\State=1-A'\HF=-174.7599714\MP2=-
 175.18043\RMSD=2.454e-09\RMSF=3.263e-05\Dipole=-0.1724783,0.,0.72802\P
 G=CS [SG(F1H1O1)]\\@
 The archive entry for this job was punched.


 THE POLHOLDE ROLLS WITHOUT SLIPPING ON THE HERPOLHOLDE LYING IN
 THE INVARIABLE PLANE.
 H.GOLDSTEIN, "CLASSICAL MECHANICS", PG 161
 Job cpu time:       0 days  0 hours  5 minutes 19.4 seconds.
 Elapsed time:       0 days  0 hours  0 minutes 10.0 seconds.
 File lengths (MBytes):  RWF=      6 Int=      0 D2E=      0 Chk=      1 Scr=      1
 Normal termination of Gaussian 16 at Fri Mar  7 12:01:38 2025.
 Link1:  Proceeding to internal job step number  2.
 ----------------------------------------------------------------------
 #N Geom=AllCheck Guess=TCheck SCRF=Check GenChk RMP2(FC)/Aug-CC-pVDZ F
 req
 ----------------------------------------------------------------------
 1/10=4,29=7,30=1,38=21,40=1,80=1/1,6,3;
 2/12=2,40=1/2;
 3/5=16,7=10,11=1,14=-4,25=1,30=1,70=2,71=2,116=1,140=1/1,2,3;
 4/5=101,69=2/1;
 5/5=2,38=6,98=1/2;
 8/6=3,8=1,10=1,19=11,30=-1/1;
 9/15=3,16=-3/6;
 11/6=1,8=1,15=11,17=12,24=-1,27=1,28=-2,29=300,32=6,42=3/1,2,10;
 10/6=2,21=1,60=-2/2;
 8/6=4,8=1,10=1,19=11,30=-1/11,4;
 10/5=1,20=4,60=-2/2;
 11/12=2,14=11,16=1,17=2,28=-2,42=3,76=2/2,10,12;
 6/7=2,8=2,9=2,10=2,22=-1/1;
 7/10=1,12=2,25=1,44=2,70=1,71=2/1,2,3,16;
 1/38=20,80=1/6(3);
 7/8=1,25=202,44=-1,70=1,71=1,92=10/16,17;
 1/10=4,30=1,38=20,80=1/3;
 99//99;
 3/5=16,7=10,11=1,14=-2,25=1,30=1,70=5,71=2,116=1,140=1/1,2,3;
 4/5=5,16=3,69=2/1;
 5/5=2,38=5,98=1/2;
 8/6=3,8=1,10=1,19=11,30=-1/1;
 9/15=3,16=-3/6;
 11/6=1,8=1,15=11,17=12,24=-1,27=1,28=-2,29=300,32=6,42=3/1,2,10;
 10/6=2,21=1,60=-2/2;
 8/6=4,8=1,10=1,19=11,30=-1/11,4;
 10/5=1,20=4,60=-2/2;
 11/12=2,14=11,16=1,17=2,28=-2,42=3,76=2/2,10,12;
 6/7=2,8=2,9=2,10=2,22=-1/1;
 7/7=1,10=1,12=2,25=1,44=2,70=1,71=1/1,2,3,16;
 1/38=20,80=1/6(-12);
 7/8=1,25=202,44=-1,70=1,71=1,92=10/16,17;
 1/10=4,30=1,38=20,80=1/3;
 99//99;
 Structure from the checkpoint file:  "/scr/Gau-60900.chk"
 ----
 blah
 ----
 Charge =  0 Multiplicity = 1
 Redundant internal coordinates found in file.  (old form).
 O,0,-0.0498354354,0.,-0.0142474265
 H,0,0.041115859,0.,0.9564427946
 F,0,1.3610157333,0.,-0.3345420312
 Recover connectivity data from disk.
 Numerical evaluation of third derivatives.
 Nuclear step= 0.010000 Angstroms, electric field step= 0.000333 atomic units, NStep=1.

 GradGradGradGradGradGradGradGradGradGradGradGradGradGradGradGradGradGrad
 Berny optimization.
 Initialization pass.
                           ----------------------------
                           !    Initial Parameters    !
                           ! (Angstroms and Degrees)  !
 --------------------------                            --------------------------
 ! Name  Definition              Value          Derivative Info.                !
 --------------------------------------------------------------------------------
 ! R1    R(1,2)                  0.9749         calculate D2E/DX2 analytically  !
 ! R2    R(1,3)                  1.4468         calculate D2E/DX2 analytically  !
 ! A1    A(2,1,3)               97.4378         calculate D2E/DX2 analytically  !
 --------------------------------------------------------------------------------
 Trust Radius=3.00D-01 FncErr=1.00D-07 GrdErr=1.00D-07 EigMax=2.50D+02 EigMin=1.00D-04
 Number of steps in this run=      2 maximum allowed number of steps=      2.
 GradGradGradGradGradGradGradGradGradGradGradGradGradGradGradGradGradGrad

                          Input orientation:                          
 ---------------------------------------------------------------------
 Center     Atomic      Atomic             Coordinates (Angstroms)
 Number     Number       Type             X           Y           Z
 ---------------------------------------------------------------------
      1          8           0       -0.049835   -0.000000   -0.014247
      2          1           0        0.041116    0.000000    0.956443
      3          9           0        1.361016    0.000000   -0.334542
 ---------------------------------------------------------------------
                    Distance matrix (angstroms):
                    1          2          3
     1  O    0.000000
     2  H    0.974942   0.000000
     3  F    1.446751   1.846287   0.000000
 Stoichiometry    FHO
 Framework group  CS[SG(FHO)]
 Deg. of freedom     3
 Full point group                 CS      NOp   2
 Largest Abelian subgroup         CS      NOp   2
 Largest concise Abelian subgroup C1      NOp   1
                         Standard orientation:                         
 ---------------------------------------------------------------------
 Center     Atomic      Atomic             Coordinates (Angstroms)
 Number     Number       Type             X           Y           Z
 ---------------------------------------------------------------------
      1          8           0        0.053708    0.716364   -0.000000
      2          1           0       -0.913031    0.842570   -0.000000
      3          9           0        0.053708   -0.730387    0.000000
 ---------------------------------------------------------------------
 Rotational constants (GHZ):         577.9841329          26.5548910          25.3884448
 Standard basis: Aug-CC-pVDZ (5D, 7F)
 There are    43 symmetry adapted cartesian basis functions of A'  symmetry.
 There are    16 symmetry adapted cartesian basis functions of A"  symmetry.
 There are    39 symmetry adapted basis functions of A'  symmetry.
 There are    16 symmetry adapted basis functions of A"  symmetry.
    55 basis functions,    97 primitive gaussians,    59 cartesian basis functions
     9 alpha electrons        9 beta electrons
       nuclear repulsion energy        33.2571654830 Hartrees.
 NAtoms=    3 NActive=    3 NUniq=    3 SFac= 1.00D+00 NAtFMM=   60 NAOKFM=F Big=F
 Integral buffers will be    131072 words long.
 Raffenetti 1 integral format.
 Two-electron integral symmetry is turned on.
 One-electron integrals computed using PRISM.
 NBasis=    55 RedAO= T EigKep=  2.38D-03  NBF=    39    16
 NBsUse=    55 1.00D-06 EigRej= -1.00D+00 NBFU=    39    16
 Initial guess from the checkpoint file:  "/scr/Gau-60900.chk"
 B after Tr=     0.000000   -0.000000    0.000000
         Rot=    1.000000    0.000000   -0.000000   -0.000000 Ang=   0.00 deg.
 Initial guess orbital symmetries:
       Occupied  (A') (A') (A') (A') (A') (A") (A') (A') (A")
       Virtual   (A') (A') (A') (A") (A') (A') (A') (A') (A") (A')
                 (A") (A') (A') (A') (A') (A") (A") (A') (A') (A')
                 (A") (A") (A') (A') (A') (A") (A') (A') (A") (A')
                 (A") (A') (A') (A') (A') (A') (A") (A') (A") (A')
                 (A') (A") (A') (A") (A') (A')
 Keep R1 ints in memory in symmetry-blocked form, NReq=9476793.
 Requested convergence on RMS density matrix=1.00D-08 within 128 cycles.
 Requested convergence on MAX density matrix=1.00D-06.
 Requested convergence on             energy=1.00D-06.
 No special actions if energy rises.
 SCF Done:  E(RHF) =  -174.759971389     A.U. after    1 cycles
            NFock=  1  Conv=0.12D-09     -V/T= 2.0017
 ExpMin= 2.97D-02 ExpMax= 1.47D+04 ExpMxC= 5.03D+02 IAcc=3 IRadAn=         5 AccDes= 0.00D+00
 HarFok:  IExCor=  205 AccDes= 0.00D+00 IRadAn=         5 IDoV=-2 UseB2=F ITyADJ=14
 ICtDFT= 12500011 ScaDFX=  1.000000  1.000000  1.000000  1.000000
 Range of M.O.s used for correlation:     3    55
 NBasis=    55 NAE=     9 NBE=     9 NFC=     2 NFV=     0
 NROrb=     53 NOA=     7 NOB=     7 NVA=    46 NVB=    46
 Disk-based method using ON**2 memory for  7 occupieds at a time.
 Permanent disk used for amplitudes=      208656 words.
 Estimated scratch disk usage=     3151290 words.
 Actual    scratch disk usage=     3151290 words.
 JobTyp=1 Pass  1:  I=   3 to   9 NPSUse= 40 ParTrn=T ParDer=T DoDerP=T.
 (rs|ai) integrals will be sorted in core.
 Spin components of T(2) and E(2):
     alpha-alpha T2 =       0.1409772632D-01 E2=     -0.5481992670D-01
     alpha-beta  T2 =       0.8233638270D-01 E2=     -0.3108187448D+00
     beta-beta   T2 =       0.1409772632D-01 E2=     -0.5481992670D-01
 ANorm=    0.1053817743D+01
 E2 =    -0.4204585982D+00 EUMP2 =    -0.17518042998760D+03
 G2DrvN: will do     4 centers at a time, making    1 passes.
 Calling FoFCou, ICntrl=  3107 FMM=F I1Cent=   0 AccDes= 0.00D+00.
 End of G2Drv F.D. properties file   721 does not exist.
 End of G2Drv F.D. properties file   722 does not exist.
 End of G2Drv F.D. properties file   788 does not exist.
          IDoAtm=111
          Differentiating once with respect to electric field.
                with respect to dipole field.
          Differentiating once with respect to nuclear coordinates.
 Keep R1 ints in memory in symmetry-blocked form, NReq=9477415.
          There are    12 degrees of freedom in the 1st order CPHF.  IDoFFX=6 NUNeed=    12.
      9 vectors produced by pass  0 Test12= 3.45D-15 8.33D-09 XBig12= 3.47D+00 1.18D+00.
 AX will form     9 AO Fock derivatives at one time.
      9 vectors produced by pass  1 Test12= 3.45D-15 8.33D-09 XBig12= 4.32D-01 1.94D-01.
      9 vectors produced by pass  2 Test12= 3.45D-15 8.33D-09 XBig12= 3.84D-02 5.57D-02.
      9 vectors produced by pass  3 Test12= 3.45D-15 8.33D-09 XBig12= 1.32D-03 9.89D-03.
      9 vectors produced by pass  4 Test12= 3.45D-15 8.33D-09 XBig12= 1.26D-05 9.89D-04.
      9 vectors produced by pass  5 Test12= 3.45D-15 8.33D-09 XBig12= 9.21D-08 7.86D-05.
      9 vectors produced by pass  6 Test12= 3.45D-15 8.33D-09 XBig12= 3.04D-10 3.89D-06.
      4 vectors produced by pass  7 Test12= 3.45D-15 8.33D-09 XBig12= 1.24D-12 2.36D-07.
      2 vectors produced by pass  8 Test12= 3.45D-15 8.33D-09 XBig12= 6.20D-15 1.76D-08.
 InvSVY:  IOpt=1 It=  1 EMax= 4.44D-16
 Solved reduced A of dimension    69 with     9 vectors.
 End of Minotr F.D. properties file   721 does not exist.
 End of Minotr F.D. properties file   722 does not exist.
 End of Minotr F.D. properties file   788 does not exist.
 MDV=  6710886400.
 Form MO integral derivatives with frozen-active canonical formalism.
 Discarding MO integrals.
 Reordered first order wavefunction length =       342792
 In DefCFB: NBatch=  1 ICI=  9 ICA= 46 LFMax= 46
            Large arrays: LIAPS=     5373720 LIARS=     4274550 words.
 Semi-Direct transformation.
 ModeAB=           2 MOrb=             9 LenV=    6710655661
 LASXX=       652716 LTotXX=      652716 LenRXX=      652716
 LTotAB=      688230 MaxLAS=      876150 LenRXY=      876150
 NonZer=     1305432 LenScr=     2609152 LnRSAI=           0
 LnScr1=           0 LExtra=           0 Total=      4138018
 MaxDsk=          -1 SrtSym=           F ITran=            4
 JobTyp=0 Pass  1:  I=   1 to   9.
 (rs|ai) integrals will be sorted in core.
 Spin components of T(2) and E(2):
     alpha-alpha T2 =       0.1409772632D-01 E2=     -0.5481992670D-01
     alpha-beta  T2 =       0.8233638270D-01 E2=     -0.3108187448D+00
     beta-beta   T2 =       0.1409772632D-01 E2=     -0.5481992670D-01
 ANorm=    0.1490323344D+01
 E2 =    -0.4204585982D+00 EUMP2 =    -0.17518042998760D+03
          IDoAtm=111
          Differentiating once with respect to electric field.
                with respect to dipole field.
          Differentiating once with respect to nuclear coordinates.
          There are     1 degrees of freedom in the 1st order CPHF.  IDoFFX=0 NUNeed=     1.
 LinEq1:  Iter=  0 NonCon=     1 RMS=9.32D-03 Max=5.43D-02 NDo=     1
 LinEq1:  Iter=  1 NonCon=     1 RMS=2.41D-03 Max=1.59D-02 NDo=     1
 LinEq1:  Iter=  2 NonCon=     1 RMS=9.69D-04 Max=8.36D-03 NDo=     1
 LinEq1:  Iter=  3 NonCon=     1 RMS=3.12D-04 Max=2.23D-03 NDo=     1
 LinEq1:  Iter=  4 NonCon=     1 RMS=9.12D-05 Max=4.14D-04 NDo=     1
 LinEq1:  Iter=  5 NonCon=     1 RMS=1.36D-05 Max=8.75D-05 NDo=     1
 LinEq1:  Iter=  6 NonCon=     1 RMS=3.53D-06 Max=2.35D-05 NDo=     1
 LinEq1:  Iter=  7 NonCon=     1 RMS=9.35D-07 Max=5.57D-06 NDo=     1
 LinEq1:  Iter=  8 NonCon=     1 RMS=1.59D-07 Max=8.08D-07 NDo=     1
 LinEq1:  Iter=  9 NonCon=     1 RMS=2.70D-08 Max=1.80D-07 NDo=     1
 LinEq1:  Iter= 10 NonCon=     1 RMS=5.56D-09 Max=3.74D-08 NDo=     1
 LinEq1:  Iter= 11 NonCon=     1 RMS=9.68D-10 Max=5.77D-09 NDo=     1
 LinEq1:  Iter= 12 NonCon=     1 RMS=1.79D-10 Max=6.56D-10 NDo=     1
 LinEq1:  Iter= 13 NonCon=     0 RMS=3.51D-11 Max=1.74D-10 NDo=     1
 Linear equations converged to 1.000D-10 1.000D-09 after    13 iterations.
 End of Minotr F.D. properties file   721 does not exist.
 End of Minotr F.D. properties file   722 does not exist.
 End of Minotr F.D. properties file   788 does not exist.
 Symmetrizing basis deriv contribution to polar:
 IMax=3 JMax=2 DiffMx= 0.00D+00
 G2DrvN: will do     4 centers at a time, making    1 passes.
 Calling FoFCou, ICntrl=  3107 FMM=F I1Cent=   0 AccDes= 0.00D+00.
 End of G2Drv F.D. properties file   721 does not exist.
 End of G2Drv F.D. properties file   722 does not exist.
 End of G2Drv F.D. properties file   788 does not exist.
 R2 and R3 integrals will be kept in memory, NReq=     3954670.
 DD1Dir will call FoFMem   1 times, MxPair=        90
 NAB=    45 NAA=     0 NBB=     0.
 Discarding MO integrals.

 **********************************************************************

            Population analysis using the MP2 Density.

 **********************************************************************

 Orbital symmetries:
       Occupied  (A') (A') (A') (A') (A') (A") (A') (A') (A")
       Virtual   (A') (A') (A') (A") (A') (A') (A') (A') (A") (A')
                 (A") (A') (A') (A') (A') (A") (A") (A') (A') (A')
                 (A") (A") (A') (A') (A') (A") (A') (A') (A") (A')
                 (A") (A') (A') (A') (A') (A') (A") (A') (A") (A')
                 (A') (A") (A') (A") (A') (A')
 The electronic state is 1-A'.
 Alpha  occ. eigenvalues --  -26.36134 -20.71097  -1.64636  -1.32566  -0.77606
 Alpha  occ. eigenvalues --   -0.72079  -0.68413  -0.61245  -0.55021
 Alpha virt. eigenvalues --    0.03381   0.10292   0.16829   0.19370   0.21183
 Alpha virt. eigenvalues --    0.23409   0.26245   0.29046   0.29649   0.34012
 Alpha virt. eigenvalues --    0.38245   0.46274   0.52526   0.61807   0.84172
 Alpha virt. eigenvalues --    1.03571   1.07299   1.07985   1.14863   1.25563
 Alpha virt. eigenvalues --    1.34672   1.40794   1.43777   1.47451   1.58311
 Alpha virt. eigenvalues --    1.59109   1.62464   1.82266   1.91020   2.04385
 Alpha virt. eigenvalues --    2.07080   2.13516   2.29421   2.49212   2.76080
 Alpha virt. eigenvalues --    3.39579   3.53747   3.61111   3.61576   4.03570
 Alpha virt. eigenvalues --    4.15172   4.85870   4.88640   4.98800   5.00768
 Alpha virt. eigenvalues --    5.10211
          Condensed to atoms (all electrons):
               1          2          3
     1  O    7.807733   0.280156  -0.093323
     2  H    0.280156   0.540158  -0.053274
     3  F   -0.093323  -0.053274   9.384991
 Mulliken charges:
               1
     1  O    0.005435
     2  H    0.232960
     3  F   -0.238395
 Sum of Mulliken charges =  -0.00000
 Mulliken charges with hydrogens summed into heavy atoms:
               1
     1  O    0.238395
     3  F   -0.238395
 APT charges:
               1
     1  O   -0.125214
     2  H    0.278757
     3  F   -0.153544
 Sum of APT charges =  -0.00000
 APT charges with hydrogens summed into heavy atoms:
               1
     1  O    0.153544
     3  F   -0.153544
 Electronic spatial extent (au):  <R**2>=             60.7540
 Charge=             -0.0000 electrons
 Dipole moment (field-independent basis, Debye):
    X=             -1.7075    Y=              0.8372    Z=              0.0000  Tot=              1.9017
 Quadrupole moment (field-independent basis, Debye-Ang):
   XX=             -9.3366   YY=            -10.2441   ZZ=            -11.7058
   XY=             -1.6452   XZ=             -0.0000   YZ=              0.0000
 Traceless Quadrupole moment (field-independent basis, Debye-Ang):
   XX=              1.0922   YY=              0.1847   ZZ=             -1.2769
   XY=             -1.6452   XZ=             -0.0000   YZ=              0.0000
 Octapole moment (field-independent basis, Debye-Ang**2):
  XXX=             -2.0741  YYY=             -1.4254  ZZZ=              0.0000  XYY=             -1.5645
  XXY=              0.8468  XXZ=              0.0000  XZZ=             -0.1362  YZZ=             -1.1154
  YYZ=              0.0000  XYZ=             -0.0000
 Hexadecapole moment (field-independent basis, Debye-Ang**3):
 XXXX=             -8.5103 YYYY=            -38.4222 ZZZZ=             -9.1428 XXXY=             -0.5282
 XXXZ=             -0.0000 YYYX=             -0.5505 YYYZ=              0.0000 ZZZX=              0.0000
 ZZZY=              0.0000 XXYY=             -7.7810 XXZZ=             -3.2467 YYZZ=             -9.2441
 XXYZ=              0.0000 YYXZ=             -0.0000 ZZXY=              0.2940
 N-N= 3.325716548302D+01 E-N=-4.832336405939D+02  KE= 1.746497038512D+02
 Symmetry A'   KE= 1.633126407466D+02
 Symmetry A"   KE= 1.133706310464D+01
  Exact polarizability:       9.820      -0.865      14.475       0.000      -0.000       8.375
 Approx polarizability:       7.907      -0.480      13.203      -0.000      -0.000       6.322
 Calling FoFJK, ICntrl=  10100127 FMM=F ISym2X=1 I1Cent= 0 IOpClX= 0 NMat=1 NMatS=1 NMatT=0.
 Full mass-weighted force constant matrix:
 Low frequencies ---  -11.5889   -6.7070   -0.0018   -0.0017   -0.0015    8.8175
 Low frequencies ---  935.5046 1388.9409 3743.5056
 Diagonal vibrational polarizability:
        0.0722701       0.9630335       0.0000000
 Harmonic frequencies (cm**-1), IR intensities (KM/Mole), Raman scattering
 activities (A**4/AMU), depolarization ratios for plane and unpolarized
 incident light, reduced masses (AMU), force constants (mDyne/A),
 and normal coordinates:
                      1                      2                      3
                     A'                     A'                     A'
 Frequencies --    935.5046              1388.9409              3743.5056
 Red. masses --     16.9703                 1.0909                 1.0684
 Frc consts  --      8.7505                 1.2400                 8.8218
 IR Inten    --      1.3217                65.7859                40.0804
  Atom  AN      X      Y      Z        X      Y      Z        X      Y      Z
     1   8     0.01   0.76  -0.00    -0.05  -0.03   0.00    -0.06   0.01   0.00
     2   1    -0.13  -0.00   0.00     0.08   0.99  -0.00     0.99  -0.12  -0.00
     3   9    -0.00  -0.64   0.00     0.04  -0.03  -0.00     0.00  -0.00   0.00

 -------------------
 - Thermochemistry -
 -------------------
 Temperature   298.150 Kelvin.  Pressure   1.00000 Atm.
 Atom     1 has atomic number  8 and mass  15.99491
 Atom     2 has atomic number  1 and mass   1.00783
 Atom     3 has atomic number  9 and mass  18.99840
 Molecular mass:    36.00114 amu.
 Principal axes and moments of inertia in atomic units:
                           1         2         3
     Eigenvalues --     3.12248  67.96267  71.08514
           X           -0.04760   0.99887   0.00000
           Y            0.99887   0.04760   0.00000
           Z           -0.00000  -0.00000   1.00000
 This molecule is an asymmetric top.
 Rotational symmetry number  1.
 Rotational temperatures (Kelvin)     27.73887     1.27443     1.21845
 Rotational constants (GHZ):         577.98413    26.55489    25.38844
 Zero-point vibrational energy      36294.4 (Joules/Mol)
                                    8.67457 (Kcal/Mol)
 Vibrational temperatures:   1345.98  1998.38  5386.07
          (Kelvin)
 
 Zero-point correction=                           0.013824 (Hartree/Particle)
 Thermal correction to Energy=                    0.016711
 Thermal correction to Enthalpy=                  0.017656
 Thermal correction to Gibbs Free Energy=        -0.008085
 Sum of electronic and zero-point Energies=           -175.166606
 Sum of electronic and thermal Energies=              -175.163719
 Sum of electronic and thermal Enthalpies=            -175.162774
 Sum of electronic and thermal Free Energies=         -175.188515
 
                     E (Thermal)             CV                S
                      KCal/Mol        Cal/Mol-Kelvin    Cal/Mol-Kelvin
 Total                   10.487              6.525             54.176
 Electronic               0.000              0.000              0.000
 Translational            0.889              2.981             36.673
 Rotational               0.889              2.981             17.363
 Vibrational              8.709              0.563              0.140
                       Q            Log10(Q)             Ln(Q)
 Total Bot       0.523429D+04          3.718858          8.562986
 Total V=0       0.119499D+11         10.077363         23.203986
 Vib (Bot)       0.443414D-06         -6.353190        -14.628761
 Vib (V=0)       0.101231D+01          0.005315          0.012239
 Electronic      0.100000D+01          0.000000          0.000000
 Translational   0.849040D+07          6.928928         15.954447
 Rotational      0.139034D+04          3.143120          7.237301

     ==================================================
      Anharmonic Data: Displacement Vectors Definition
     ==================================================

 Framework definition based on atomic masses: CS  

 **********************************************************************

                  Harmonic vibro-rotational analysis

 **********************************************************************


     ==================================================
               Analysis of the Rotor Symmetry
     ==================================================

 Framework Group : CS  
 Rotor Type      : Asymmetric Top
 Asymm. param.   : Kappa = -0.995778
 Inertia moments : X=    19.03148 , Y=     0.87438 , Z=    19.90587
 Representation  : IIIl Representation, Iy < Ix < Iz

 Axes Definition for the Symmetric-Top Representation
 ----------------------------------------------------
 Axis Z automatically chosen to be collinear with Y from Eckart orient.
 NOTE: In Vibro-rotational analysis, this will be referred to as the
       spectroscopic orientation.

     ==================================================
        Vibro-Rotational Analysis Based on Symmetry
     ==================================================

 Representation A'
 -----------------
    X Translation
    Y Translation
    Z Rotation
    3 Vibrations with frequencies:
   3743.51   1388.94    935.50

 Representation A"
 -----------------
    Z Translation
    X Rotation
    Y Rotation
 No Vibration

 Input/Output information
 ------------------------
 Normal modes will be PRINTED in DESCENDING order (imag. freq. first)
   and sorted by irreducible representation
 The connection between this new numbering (A) and the one used before
   (H) is reported in the present equivalency table:
 ----+------+------+------+
 (H) |     1|     2|     3|
 (A) |     3|     2|     1|
 ----+------+------+------+

 Normal modes will be READ in ASCENDING order (imag. freq. first)

 Analysis of symmetry-allowed terms
 ----------------------------------

     ==================================================
                   Coriolis Couplings
     ==================================================

 Coriolis Couplings along the X axis
 -----------------------------------
                1             2             3 
      1   0.000000D+00
      2   0.000000D+00  0.000000D+00
      3   0.000000D+00  0.000000D+00  0.000000D+00

 Coriolis Couplings along the Y axis
 -----------------------------------
                1             2             3 
      1   0.000000D+00
      2   0.000000D+00  0.000000D+00
      3   0.000000D+00  0.000000D+00  0.000000D+00

 Coriolis Couplings along the Z axis
 -----------------------------------
                1             2             3 
      1   0.000000D+00
      2   0.961709D+00  0.000000D+00
      3  -0.184875D+00 -0.202327D+00  0.000000D+00

    No Coriolis coupling larger than .100D-02 along the X axis
    No Coriolis coupling larger than .100D-02 along the Y axis
    3 Coriolis couplings larger than .100D-02 along the Z axis

     ==================================================
      Inertia Moments Derivatives w.r.t. Normal Modes
     ==================================================

 Units: amu^1/2.Ang

                 Ixx        Ixy        Iyy        Ixz        Iyz        Izz
 Q(     1)     0.06239   -0.22553   -1.86779   -0.00000    0.00000   -1.80540
 Q(     2)     1.79104    1.85548   -0.14136   -0.00000   -0.00000    1.64968
 Q(     3)     8.52055   -0.00170    0.06097    0.00000    0.00000    8.58152

     ==================================================
               Vibro-rotational Alpha Matrix
     ==================================================

 Vibro-Rot alpha Matrix (in cm^-1)
 ---------------------------------
                 A(y)           B(x)           C(z)
 Q(     1)       -0.59463       -0.00002       -0.00138
 Q(     2)       -0.08179       -0.00348        0.00119
 Q(     3)       -0.00253       -0.00480       -0.00392

 Vibro-Rot alpha Matrix (in MHz)
 -------------------------------
                 A(y)           B(x)           C(z)
 Q(     1)   -17826.57979       -0.55018      -41.34928
 Q(     2)    -2452.04316     -104.30214       35.73250
 Q(     3)      -75.96271     -143.87228     -117.41848

     ==================================================
          Quartic Centrifugal Distortion Constants
     ==================================================

 NOTE: Values in Cartesian coords. refer to the structure in Eckart orientation.

 Quartic Centrifugal Distortion Constants Tau Prime
 --------------------------------------------------
                      cm^-1                    MHz
 TauP aaaa     -0.8639802232D-02        -0.2590147548D+03
 TauP bbaa     -0.2789113912D-03        -0.8361553153D+01
 TauP bbbb     -0.1236013746D-04        -0.3705475992D+00
 TauP ccaa     -0.4538992213D-04        -0.1360755632D+01
 TauP ccbb     -0.1135874973D-04        -0.3405267501D+00
 TauP cccc     -0.1047035969D-04        -0.3138934866D+00

 Asymmetric Top Reduction
 ------------------------
       Asymmetry parameter     | Reference formula
  Kappa :        -0.9957783015 |    [2B-A-C]/[A-C]
  Delta :         0.0021108492 |       [B-C]/[A-C]
  Sigma :      -942.7420127408 | [2A'-B'-C']/[B'-C']
[...]
 ---------------------------------------------
                1             2             3
      1  0.000000D+00
      2  0.240166D+01  0.000000D+00
      3  0.123059D+00  0.748205D-01  0.000000D+00

 3rd Deriv. contributions to X Matrix (in cm^-1)
 -----------------------------------------------
                1             2             3
      1 -0.182779D+03
      2  0.150634D+03 -0.313650D+02
      3  0.958165D+01 -0.240757D+02 -0.126974D+02

 4th Deriv. contributions to X Matrix (in cm^-1)
 -----------------------------------------------
                1             2             3
      1  0.970118D+02
      2 -0.185112D+03  0.221946D+02
      3 -0.118189D+02  0.957249D+01  0.694568D+01

 Total Anharmonic X Matrix (in cm^-1)
 ------------------------------------
                1             2             3
      1 -0.857670D+02
      2 -0.320766D+02 -0.917040D+01
      3 -0.211421D+01 -0.144284D+02 -0.575169D+01

     ==================================================
                Anharmonic Zero Point Energy
     ==================================================

 Anharmonic X0 Term
 ------------------
 U term         : cm-1 =    -5.25303 ; Kcal/mol =  -0.015 ; KJ/mol =  -0.063
 Coriolis       : cm-1 =    -0.42343 ; Kcal/mol =  -0.001 ; KJ/mol =  -0.005
 Anharmonic     : cm-1 =    -2.47106 ; Kcal/mol =  -0.007 ; KJ/mol =  -0.030
 Total X0       : cm-1 =    -8.14753 ; Kcal/mol =  -0.023 ; KJ/mol =  -0.097

 Anharmonic Zero Point Energy
 ----------------------------
 Harmonic       : cm-1 =  3033.97553 ; Kcal/mol =   8.675 ; KJ/mol =  36.294
 Anharmonic Pot.: cm-1 =   -40.44802 ; Kcal/mol =  -0.116 ; KJ/mol =  -0.484
 Watson+Coriolis: cm-1 =    -5.02658 ; Kcal/mol =  -0.014 ; KJ/mol =  -0.060
 Total Anharm   : cm-1 =  2988.50093 ; Kcal/mol =   8.545 ; KJ/mol =  35.750

     ==================================================
          Vibrational Energies at Anharmonic Level
     ==================================================

 Units: Vibrational energies and rotational constants in cm^-1.
 NOTE: Transition energies are given with respect to the ground state.

 Reference Data
 --------------
                              E(harm)  E(anharm)     Aa(x)      Ba(y)      Ca(z)
 Equilibrium Geometry                             19.279475   0.885790   0.846854
 Ground State                 3033.976  2988.501  19.131797   0.879303   0.838268

 Fundamental Bands
 -----------------
     Mode(n)      Status      E(harm)  E(anharm)     Aa(x)      Ba(y)      Ca(z)
        1(1)      active      3743.506  3554.876  18.400066   0.878290   0.836160
        2(1)      active      1388.941  1347.348  19.581353   0.875917   0.831750
        3(1)      active       935.505   915.730  19.118617   0.870730   0.829723

 Overtones
 ---------
     Mode(n)                  E(harm)  E(anharm)     Aa(x)      Ba(y)      Ca(z)
        1(2)                  7487.011  6938.218  17.668335   0.877277   0.834052
        2(2)                  2777.882  2676.354  20.030908   0.872531   0.825232
        3(2)                  1871.009  1819.956  19.105436   0.862158   0.821178

 Combination Bands
 -----------------
     Mode(n)     Mode(n)      E(harm)  E(anharm)     Aa(x)      Ba(y)      Ca(z)
        2(1)        1(1)      5132.447  4870.147  18.849621   0.874904   0.829642
        3(1)        1(1)      4679.010  4468.492  18.386885   0.869717   0.827615
        3(1)        2(1)      2324.445  2248.649  19.568172   0.867344   0.823205

     ==================================================
      Thermodynamic properties and Partition Functions
     ==================================================

 ZPE(harm) = 0.36294D+02 kJ/mol        ZPE(anh)= 0.35750D+02 kJ/mol

 Input values of T(K) and P(atm): 298.15   1.00
                    Harmonic value     SPT anharmonic value
 Qvib               0.44341D-06          0.55299D-06
 QZvib              0.10123D+01          0.10137D+01
 Energy             0.43876D+02          0.43345D+02         kJ/mol
 Enthalpy           0.46355D+02          0.45824D+02         kJ/mol
 Entropy            0.22667D+03          0.22673D+03         J/(mol K)
 Sp.Heat(V)         0.27300D+02          0.27476D+02         J/(mol K)
 Sp.Heat(P)         0.35614D+02          0.35791D+02         J/(mol K)

 T =  298.15 K;  P =   1.00 atm
                    Harmonic value     SPT anharmonic value
 Qvib               0.44341D-06          0.55299D-06
 QZvib              0.10123D+01          0.10137D+01
 Energy             0.43876D+02          0.43345D+02         kJ/mol
 Enthalpy           0.46355D+02          0.45824D+02         kJ/mol
 Entropy            0.22667D+03          0.22673D+03         J/(mol K)
 Sp.Heat(V)         0.27300D+02          0.27476D+02         J/(mol K)
 Sp.Heat(P)         0.35614D+02          0.35791D+02         J/(mol K)

 T =  500.00 K;  P =   1.00 atm
                    Harmonic value     SPT anharmonic value
 Qvib               0.17658D-03          0.20262D-03
 QZvib              0.10928D+01          0.11001D+01
 Energy             0.49891D+02          0.49411D+02         kJ/mol
 Enthalpy           0.54049D+02          0.53568D+02         kJ/mol
 Entropy            0.24627D+03          0.24645D+03         J/(mol K)
 Sp.Heat(V)         0.32193D+02          0.32479D+02         J/(mol K)
 Sp.Heat(P)         0.40508D+02          0.40793D+02         J/(mol K)

 T = 1000.00 K;  P =   1.00 atm
                    Harmonic value     SPT anharmonic value
 Qvib               0.19971D-01          0.21782D-01
 QZvib              0.15711D+01          0.16050D+01
 Energy             0.67987D+02          0.67667D+02         kJ/mol
 Enthalpy           0.76302D+02          0.75981D+02         kJ/mol
 Entropy            0.27684D+03          0.27724D+03         J/(mol K)
 Sp.Heat(V)         0.39247D+02          0.39611D+02         J/(mol K)
 Sp.Heat(P)         0.47561D+02          0.47925D+02         J/(mol K)

 T = 1500.00 K;  P =   1.00 atm
                    Harmonic value     SPT anharmonic value
 Qvib               0.12846D+00          0.13877D+00
 QZvib              0.23585D+01          0.24391D+01
 Energy             0.88638D+02          0.88507D+02         kJ/mol
 Enthalpy           0.10111D+03          0.10098D+03         kJ/mol
 Entropy            0.29690D+03          0.29746D+03         J/(mol K)
 Sp.Heat(V)         0.43035D+02          0.43408D+02         J/(mol K)
 Sp.Heat(P)         0.51349D+02          0.51722D+02         J/(mol K)

 T = 2000.00 K;  P =   1.00 atm
                    Harmonic value     SPT anharmonic value
 Qvib               0.39076D+00          0.42170D+00
 QZvib              0.34658D+01          0.36199D+01
 Energy             0.11077D+03          0.11081D+03         kJ/mol
 Enthalpy           0.12740D+03          0.12744D+03         kJ/mol
 Entropy            0.31201D+03          0.31267D+03         J/(mol K)
 Sp.Heat(V)         0.45302D+02          0.45609D+02         J/(mol K)
 Sp.Heat(P)         0.53616D+02          0.53924D+02         J/(mol K)

     ==================================================
               Anharmonic Transition Moments
     ==================================================

 Electric dipole : Fundamental Bands
 ------------------------------------------------------------------------
   Mode(n)                            X               Y               Z
      1(1)                       0.690406D-02    0.232876D-01    0.906220D-14
      2(1)                      -0.559506D-01    0.189251D-02   -0.694125D-15
      3(1)                      -0.755823D-02   -0.261113D-04   -0.460005D-14

 Electric dipole : Overtones
 ------------------------------------------------------------------------
   Mode(n)                            X               Y               Z
      1(2)                      -0.265832D-02   -0.381945D-02    0.170640D-13
      2(2)                      -0.439582D-02   -0.653522D-02   -0.434792D-14
      3(2)                      -0.475449D-02   -0.396973D-03    0.832777D-14

 Electric dipole : Combination Bands
 ------------------------------------------------------------------------
   Mode(n)     Mode(n)                X               Y               Z
      2(1)        1(1)          -0.321707D-02    0.168881D-02    0.323980D-14
      3(1)        1(1)          -0.374830D-04   -0.238306D-03   -0.793327D-14
      3(1)        2(1)          -0.411824D-03    0.124559D-02    0.372068D-14

     ==================================================
              Anharmonic Infrared Spectroscopy
     ==================================================

 Units: Transition energies (E) in cm^-1
        Integrated intensity (I) in km.mol^-1

 Fundamental Bands
 -----------------
   Mode(n)                  E(harm)   E(anharm)        I(harm)       I(anharm)
      1(1)                  3743.506   3554.876     40.08035484     33.96400084
      2(1)                  1388.941   1347.348     65.78592421     68.38213366
      3(1)                   935.505    915.730      1.32165720      0.84716815

 Overtones
 ---------
   Mode(n)                  E(harm)   E(anharm)                      I(anharm)
      1(2)                  7487.011   6938.218                      2.43309997
      2(2)                  2777.882   2676.354                      2.68855325
      3(2)                  1871.009   1819.956                      0.67087812

 Combination Bands
 -----------------
   Mode(n)     Mode(n)      E(harm)   E(anharm)                      I(anharm)
      2(1)        1(1)      5132.447   4870.147                      1.04118444
      3(1)        1(1)      4679.010   4468.492                      0.00421117
      3(1)        2(1)      2324.445   2248.649                      0.06267306

 Units: Transition energies (E) in cm^-1
        Dipole strengths (DS) in 10^-40 esu^2.cm^2

 Fundamental Bands
 -----------------
   Mode(n)                  E(harm)   E(anharm)       DS(harm)      DS(anharm)
      1(1)                  3743.506   3554.876     42.71303912     38.11551312
      2(1)                  1388.941   1347.348    188.95422960    202.47452802
      3(1)                   935.505    915.730      5.63612117      3.69070754

 Overtones
 ---------
   Mode(n)                  E(harm)   E(anharm)                     DS(anharm)
      1(2)                  7487.011   6938.218                      1.39900543
      2(2)                  2777.882   2676.354                      4.00758206
      3(2)                  1871.009   1819.956                      1.47058472

 Combination Bands
 -----------------
   Mode(n)     Mode(n)      E(harm)   E(anharm)                     DS(anharm)
      2(1)        1(1)      5132.447   4870.147                      0.85288993
      3(1)        1(1)      4679.010   4468.492                      0.00375967
      3(1)        2(1)      2324.445   2248.649                      0.11119022


 GradGradGradGradGradGradGradGradGradGradGradGradGradGradGradGradGradGrad
 Berny optimization.
 Internal  Forces:  Max     0.000051085 RMS     0.000040676
 Search for a local minimum.
 Step number   1 out of a maximum of    2
 All quantities printed in internal units (Hartrees-Bohrs-Radians)
 Second derivative matrix not updated -- analytic derivatives used.
 The second derivative matrix:
                          R1        R2        A1
           R1           0.50231
           R2          -0.01132   0.30866
           A1          -0.00222   0.06859   0.22903
 ITU=  0
     Eigenvalues ---    0.18949   0.34739   0.50312
 Angle between quadratic step and forces=   6.97 degrees.
 Linear search not attempted -- first point.
 Iteration  1 RMS(Cart)=  0.00018311 RMS(Int)=  0.00000002
 Iteration  2 RMS(Cart)=  0.00000002 RMS(Int)=  0.00000000
 ClnCor:  largest displacement from symmetrization is 1.25D-15 for atom     2.
 Variable       Old X    -DE/DX   Delta X   Delta X   Delta X     New X
                                 (Linear)    (Quad)   (Total)
    R1        1.84237  -0.00001   0.00000  -0.00001  -0.00001   1.84237
    R2        2.73396   0.00005   0.00000   0.00022   0.00022   2.73418
    A1        1.70061  -0.00005   0.00000  -0.00029  -0.00029   1.70032
         Item               Value     Threshold  Converged?
 Maximum Force            0.000051     0.000450     YES
 RMS     Force            0.000041     0.000300     YES
 Maximum Displacement     0.000217     0.001800     YES
 RMS     Displacement     0.000183     0.001200     YES
 Predicted change in Energy=-1.270347D-08
 Optimization completed.
    -- Stationary point found.
                           ----------------------------
                           !   Optimized Parameters   !
                           ! (Angstroms and Degrees)  !
 --------------------------                            --------------------------
 ! Name  Definition              Value          Derivative Info.                !
 --------------------------------------------------------------------------------
 ! R1    R(1,2)                  0.9749         -DE/DX =    0.0                 !
 ! R2    R(1,3)                  1.4468         -DE/DX =    0.0                 !
 ! A1    A(2,1,3)               97.4378         -DE/DX =   -0.0001              !
 --------------------------------------------------------------------------------
 GradGradGradGradGradGradGradGradGradGradGradGradGradGradGradGradGradGrad


 ----------------------------------------------------------------------

 Electric dipole moment (input orientation):
 (Debye = 10**-18 statcoulomb cm , SI units = C m)
                  (au)            (Debye)         (10**-30 SI)
   Tot        0.748172D+00      0.190166D+01      0.634327D+01
   x         -0.172478D+00     -0.438396D+00     -0.146233D+01
   y          0.000000D+00      0.000000D+00      0.000000D+00
   z          0.728020D+00      0.185044D+01      0.617241D+01

 Dipole polarizability, Alpha (input orientation).
 (esu units = cm**3 , SI units = C**2 m**2 J**-1)
 Alpha(0;0):
               (au)            (10**-24 esu)      (10**-40 SI)
   iso        0.108900D+02      0.161374D+01      0.179553D+01
   aniso      0.572047D+01      0.847686D+00      0.943178D+00
   xx         0.138730D+02      0.205577D+01      0.228736D+01
   yx         0.000000D+00      0.000000D+00      0.000000D+00
   yy         0.837528D+01      0.124109D+01      0.138090D+01
   zx        -0.178526D+01     -0.264548D+00     -0.294350D+00
   zy         0.000000D+00      0.000000D+00      0.000000D+00
   zz         0.104218D+02      0.154435D+01      0.171833D+01

 ----------------------------------------------------------------------

 Dipole orientation:
     8         -0.09784547         -0.00000000         -0.00448802
     1          0.49227342         -0.00000000          1.74081951
     9          2.35692920          0.00000000         -1.20808271

 Electric dipole moment (dipole orientation):
 (Debye = 10**-18 statcoulomb cm , SI units = C m)
                  (au)            (Debye)         (10**-30 SI)
   Tot        0.748172D+00      0.190166D+01      0.634327D+01
   x          0.000000D+00      0.000000D+00      0.000000D+00
   y          0.000000D+00      0.000000D+00      0.000000D+00
   z          0.748172D+00      0.190166D+01      0.634327D+01

 Dipole polarizability, Alpha (dipole orientation).
 (esu units = cm**3 , SI units = C**2 m**2 J**-1)
 Alpha(0;0):
               (au)            (10**-24 esu)      (10**-40 SI)
   iso        0.108900D+02      0.161374D+01      0.179553D+01
   aniso      0.572047D+01      0.847686D+00      0.943178D+00
   xx         0.128887D+02      0.190990D+01      0.212505D+01
   yx         0.000000D+00      0.000000D+00      0.000000D+00
   yy         0.837528D+01      0.124109D+01      0.138090D+01
   zx        -0.236969D+01     -0.351152D+00     -0.390710D+00
   zy         0.000000D+00      0.000000D+00      0.000000D+00
   zz         0.114062D+02      0.169022D+01      0.188063D+01

 ----------------------------------------------------------------------
 Unable to Open any file for archive entry.
 1\1\GINC-N3183\Freq\RMP2-FC\Aug-CC-pVDZ\F1H1O1\GDS001\07-Mar-2025\0\\#
 N Geom=AllCheck Guess=TCheck SCRF=Check GenChk RMP2(FC)/Aug-CC-pVDZ Fr
 eq\\blah\\0,1\O,-0.0498354354,0.,-0.0142474265\H,0.041115859,0.,0.9564
 427946\F,1.3610157333,0.,-0.3345420312\\Version=EM64L-G16RevC.01\State
 =1-A'\HF=-174.7599714\MP2=-175.18043\RMSD=1.243e-10\RMSF=3.263e-05\Zer
 oPoint=0.0138238\Thermal=0.0167113\ETot=-175.1637187\HTot=-175.1627745
 \GTot=-175.188515\Dipole=-0.1724783,0.,0.72802\DipoleDeriv=0.0022817,0
 .,0.0040466,0.,-0.2793184,0.,0.0653292,0.,-0.0986048,0.260111,0.,-0.03
 56588,0.,0.367716,0.,-0.0329179,0.,0.2084454,-0.2623927,0.,0.0316122,0
 .,-0.0883976,0.,-0.0324113,0.,-0.1098407\Polar=13.8730397,0.,8.3752793
 ,-1.7852611,0.,10.4218196\Quadrupole=-0.3577502,-0.9493799,1.30713,0.,
 -0.9576268,0.\PG=CS [SG(F1H1O1)]\NImag=0\\0.30141082,0.,-0.00003778,0.
 00323996,0.,0.55013315,-0.04434970,0.,-0.09425087,0.07148900,0.,0.0000
 0904,0.,0.,0.00000121,-0.03322752,0.,-0.49667303,0.04158811,0.,0.49829
 463,-0.25706112,0.,0.09101092,-0.02713930,0.,-0.00836059,0.28420041,0.
 ,0.00002874,0.,0.,-0.00001024,0.,0.,-0.00001850,0.02998757,0.,-0.05346
 012,0.05266276,0.,-0.00162160,-0.08265033,0.,0.05508172\\0.00007817,0.
 ,-0.00000082,-0.00002706,0.,0.00000838,-0.00005111,0.,-0.00000756\\0.2
 6437144,0.,-0.03637962,-0.10649851,0.,0.02688989,0.00273947,0.,0.02193
 958,0.01030225,0.,0.00063325,0.,0.,-0.00057167,0.04496542,0.,-0.020441
 43,-0.04417178,0.,0.01703852,-0.26711091,0.,0.08455892,-0.01304172,0.,
 -0.00079364,0.28015263,0.,0.03574637,0.,0.,-0.00006158,0.,0.,-0.035684
 80,0.06153308,0.,-0.00644846,0.02223220,0.,0.00340291,-0.08376528,0.,0
 .00304555,-0.01515096,0.,0.04264721,0.15754406,0.,-0.07531014,0.014093
 67,0.,-0.20572234,0.05563135,0.,-0.02880081,0.,0.,0.00292126,-0.203015
 91,0.,0.05808887,0.17837474,0.,-0.01741488,0.00105729,0.,0.04817828,-0
 .06972502,0.,0.02464117,0.06866773,0.,-0.01384641,0.,0.,0.02587954,0.,
 0.,-0.01203314,0.04547185,0.,0.01722127,0.02734760,0.,-0.04067399,-0.0
 7281945,0.,0.02345272,0.21961210,0.,0.27846415,-0.21103015,0.,-1.92085
 149,-0.19194162,0.,0.23702652,0.17571167,0.,-0.28262319,0.,0.,0.280785
 49,0.17438287,0.,1.90323699,-0.19942002,0.,-1.89905931,-0.02767048,0.,
 -0.02599636,0.01622995,0.,0.02503715,0.01144053,0.,0.00415904,0.,0.,0.
 00183770,0.,0.,-0.00599674,0.03664729,0.,0.01761450,-0.03760650,0.,-0.
 00417768,0.00095921,0.,-0.01343682,0.25631784,0.,-0.03805535,-0.066100
 14,0.,-0.06601447,-0.01160107,0.,0.00096287,0.01458786,0.,-0.00612847,
 0.,0.,0.00519754,-0.00088621,0.,0.04815933,-0.00745286,0.,-0.04856017,
 -0.24471677,0.,0.06513727,-0.00298679,0.,0.00833907,0.24770357,0.,0.04
 418384,0.,0.,0.00093093,0.,0.,-0.04511475,0.06698635,0.,0.01785513,0.0
 0648998,0.,0.00040084,-0.07347633,0.,-0.01825595,0.24434784,0.,0.05813
 439,-0.15402229,0.,-1.23772580,-0.19797897,0.,0.20724833,0.21050946,0.
 ,-0.10022250,0.,0.,0.09477372,0.05860838,0.,1.16849224,-0.16016412,0.,
 -1.12271644,-0.04636885,0.,-0.05322604,-0.01253049,0.,0.10155575,0.058
 89932,0.,0.04208814,0.,0.,0.00544879,0.,0.,-0.04753693,0.09541391,0.,0
 .06923359,-0.04708420,0.,-0.04577580,-0.04832971,0.,-0.02345780,-1.255
 61645,0.,-1.37865257,0.75968623,0.,6.42802431,1.19460065,0.,-0.7476280
 8,-1.18313797,0.,1.38584559,0.,0.,-1.38270496,-0.71295586,0.,-6.422877
 62,0.71904744,0.,6.41457755,0.06101581,0.,-0.01205816,-0.01146268,0.,-
 0.00609158,-0.04955312,0.,-0.00719301,0.,0.,-0.00314063,0.,0.,0.010333
 64,-0.04673038,0.,-0.00514669,0.02858064,0.,0.00830007,0.01814974,0.,-
 0.00315336\\@
 The archive entry for this job was punched.


 ASKING DUMB QUESTIONS IS EASIER THAN CORECTING DUMB MISTAKES.
 Job cpu time:       0 days  0 hours 25 minutes  1.9 seconds.
 Elapsed time:       0 days  0 hours  0 minutes 41.8 seconds.
 File lengths (MBytes):  RWF=    125 Int=      0 D2E=      0 Chk=     39 Scr=      1
 Normal termination of Gaussian 16 at Fri Mar  7 12:02:25 2025.
