 Entering Gaussian System, Link 0=g16
 Input=h2o2_mp2_avtz_opt_anharm.gjf
 Output=h2o2_mp2_avtz_opt_anharm.log
 Initial command:
 /sw/contrib/gaussian/g16/A03/g16/l1.exe "/gscratch/scrubbed/gds001/Gau-17332.inp" -scrdir="/gscratch/scrubbed/gds001/"
 Entering Link 1 = /sw/contrib/gaussian/g16/A03/g16/l1.exe PID=     17338.
  
 Copyright (c) 1988,1990,1992,1993,1995,1998,2003,2009,2016,
            Gaussian, Inc.  All Rights Reserved.
  
 This is part of the Gaussian(R) 16 program.  It is based on
 the Gaussian(R) 09 system (copyright 2009, Gaussian, Inc.),
 the Gaussian(R) 03 system (copyright 2003, Gaussian, Inc.),
 the Gaussian(R) 98 system (copyright 1998, Gaussian, Inc.),
 the Gaussian(R) 94 system (copyright 1995, Gaussian, Inc.),
 the Gaussian 92(TM) system (copyright 1992, Gaussian, Inc.),
 the Gaussian 90(TM) system (copyright 1990, Gaussian, Inc.),
 the Gaussian 88(TM) system (copyright 1988, Gaussian, Inc.),
 the Gaussian 86(TM) system (copyright 1986, Carnegie Mellon
 University), and the Gaussian 82(TM) system (copyright 1983,
 Carnegie Mellon University). Gaussian is a federally registered
 trademark of Gaussian, Inc.
  
 This software contains proprietary and confidential information,
 including trade secrets, belonging to Gaussian, Inc.
  
 This software is provided under written license and may be
 used, copied, transmitted, or stored only in accord with that
 written license.
  
 The following legend is applicable only to US Government
 contracts under FAR:
  
                    RESTRICTED RIGHTS LEGEND
  
 Use, reproduction and disclosure by the US Government is
 subject to restrictions as set forth in subparagraphs (a)
 and (c) of the Commercial Computer Software - Restricted
 Rights clause in FAR 52.227-19.
  
 Gaussian, Inc.
 340 Quinnipiac St., Bldg. 40, Wallingford CT 06492
  
  
 ---------------------------------------------------------------
 Warning -- This program may not be used in any manner that
 competes with the business of Gaussian, Inc. or will provide
 assistance to any competitor of Gaussian, Inc.  The licensee
 of this program is prohibited from giving any competitor of
 Gaussian, Inc. access to this program.  By using this program,
 the user acknowledges that Gaussian, Inc. is engaged in the
 business of creating and licensing software in the field of
 computational chemistry and represents and warrants to the
 licensee that it is not a competitor of Gaussian, Inc. and that
 it will not use this program in any manner prohibited above.
 ---------------------------------------------------------------
  

 Cite this work as:
 Gaussian 16, Revision A.03,
 M. J. Frisch, G. W. Trucks, H. B. Schlegel, G. E. Scuseria, 
 M. A. Robb, J. R. Cheeseman, G. Scalmani, V. Barone, 
 G. A. Petersson, H. Nakatsuji, X. Li, M. Caricato, A. V. Marenich, 
 J. Bloino, B. G. Janesko, R. Gomperts, B. Mennucci, H. P. Hratchian, 
 J. V. Ortiz, A. F. Izmaylov, J. L. Sonnenberg, D. Williams-Young, 
 F. Ding, F. Lipparini, F. Egidi, J. Goings, B. Peng, A. Petrone, 
 T. Henderson, D. Ranasinghe, V. G. Zakrzewski, J. Gao, N. Rega, 
 G. Zheng, W. Liang, M. Hada, M. Ehara, K. Toyota, R. Fukuda, 
 J. Hasegawa, M. Ishida, T. Nakajima, Y. Honda, O. Kitao, H. Nakai, 
 T. Vreven, K. Throssell, J. A. Montgomery, Jr., J. E. Peralta, 
 F. Ogliaro, M. J. Bearpark, J. J. Heyd, E. N. Brothers, K. N. Kudin, 
 V. N. Staroverov, T. A. Keith, R. Kobayashi, J. Normand, 
 K. Raghavachari, A. P. Rendell, J. C. Burant, S. S. Iyengar, 
 J. Tomasi, M. Cossi, J. M. Millam, M. Klene, C. Adamo, R. Cammi, 
 J. W. Ochterski, R. L. Martin, K. Morokuma, O. Farkas, 
 J. B. Foresman, and D. J. Fox, Gaussian, Inc., Wallingford CT, 2016.
 
 ******************************************
 Gaussian 16:  ES64L-G16RevA.03 25-Dec-2016
                 7-Dec-2021 
 ******************************************
 %nprocshared=28
 Will use up to   28 processors via shared memory.
 %mem=41GB
 ----------------------------------------------
 # MP2/aug-cc-pVTZ opt freq=(vibrot,anharmonic)
 ----------------------------------------------
 1/18=20,19=15,38=1,80=1/1,3;
 2/9=110,12=2,17=6,18=5,40=1/2;
 3/5=16,6=1,7=10,11=9,25=1,30=1,71=1/1,2,3;
 4//1;
 5/5=2,38=5/2;
 8/6=4,10=1/1;
 9/15=2,16=-3/6;
 10/5=1/2;
 6/7=2,8=2,9=2,10=2/1;
 7/12=2/1,2,3,16;
 1/18=20,19=15,80=1/3(2);
 2/9=110/2;
 99//99;
 2/9=110/2;
 3/5=16,6=1,7=10,11=9,25=1,30=1,71=1/1,2,3;
 4/5=5,16=3,69=1/1;
 5/5=2,38=5/2;
 8/6=4,10=1/1;
 9/15=2,16=-3/6;
 10/5=1/2;
 7/12=2/1,2,3,16;
 1/18=20,19=15,80=1/3(-8);
 2/9=110/2;
 6/7=2,8=2,9=2,10=2/1;
 99//99;
 -----------------
 hydrogen peroxide
 -----------------
 Symbolic Z-matrix:
 Charge =  0 Multiplicity = 1
 O                    -2.03802   2.24245  -0.43064 
 O                    -0.61391   2.05934  -0.66012 
 H                    -2.16675   1.45348   0.12943 
 H                    -0.64183   2.14606  -1.63193 
 

 GradGradGradGradGradGradGradGradGradGradGradGradGradGradGradGradGradGrad
 Berny optimization.
 Initialization pass.
                           ----------------------------
                           !    Initial Parameters    !
                           ! (Angstroms and Degrees)  !
 --------------------------                            --------------------------
 ! Name  Definition              Value          Derivative Info.                !
 --------------------------------------------------------------------------------
 ! R1    R(1,2)                  1.4541         estimate D2E/DX2                !
 ! R2    R(1,3)                  0.9761         estimate D2E/DX2                !
 ! R3    R(2,4)                  0.9761         estimate D2E/DX2                !
 ! A1    A(2,1,3)               96.7729         estimate D2E/DX2                !
 ! A2    A(1,2,4)               96.7729         estimate D2E/DX2                !
 ! D1    D(3,1,2,4)            129.3635         estimate D2E/DX2                !
 --------------------------------------------------------------------------------
 Trust Radius=3.00D-01 FncErr=1.00D-07 GrdErr=1.00D-07 EigMax=2.50D+02 EigMin=1.00D-04
 Number of steps in this run=     20 maximum allowed number of steps=    100.
 GradGradGradGradGradGradGradGradGradGradGradGradGradGradGradGradGradGrad

                          Input orientation:                          
 ---------------------------------------------------------------------
 Center     Atomic      Atomic             Coordinates (Angstroms)
 Number     Number       Type             X           Y           Z
 ---------------------------------------------------------------------
      1          8           0       -2.038019    2.242450   -0.430636
      2          8           0       -0.613915    2.059344   -0.660117
      3          1           0       -2.166747    1.453478    0.129428
      4          1           0       -0.641830    2.146056   -1.631930
 ---------------------------------------------------------------------
                    Distance matrix (angstroms):
                    1          2          3          4
     1  O    0.000000
     2  O    1.454051   0.000000
     3  H    0.976073   1.844382   0.000000
     4  H    1.844382   0.976073   2.430518   0.000000
 Stoichiometry    H2O2
 Framework group  C2[X(H2O2)]
 Deg. of freedom     4
 Full point group                 C2      NOp   2
 Largest Abelian subgroup         C2      NOp   2
 Largest concise Abelian subgroup C2      NOp   2
                         Standard orientation:                         
 ---------------------------------------------------------------------
 Center     Atomic      Atomic             Coordinates (Angstroms)
 Number     Number       Type             X           Y           Z
 ---------------------------------------------------------------------
      1          8           0        0.000000    0.727025   -0.046056
      2          8           0       -0.000000   -0.727025   -0.046056
      3          1           0        0.876160    0.842139    0.368445
      4          1           0       -0.876160   -0.842139    0.368445
 ---------------------------------------------------------------------
 Rotational constants (GHZ):         290.0480354          26.8894101          25.4143801
 Standard basis: Aug-CC-pVTZ (5D, 7F)
 There are    80 symmetry adapted cartesian basis functions of A   symmetry.
 There are    80 symmetry adapted cartesian basis functions of B   symmetry.
 There are    69 symmetry adapted basis functions of A   symmetry.
 There are    69 symmetry adapted basis functions of B   symmetry.
   138 basis functions,   198 primitive gaussians,   160 cartesian basis functions
     9 alpha electrons        9 beta electrons
       nuclear repulsion energy        36.7744351596 Hartrees.
 NAtoms=    4 NActive=    4 NUniq=    2 SFac= 4.00D+00 NAtFMM=   60 NAOKFM=F Big=F
 Integral buffers will be    131072 words long.
 Raffenetti 1 integral format.
 Two-electron integral symmetry is turned on.
 One-electron integrals computed using PRISM.
 NBasis=   138 RedAO= T EigKep=  2.59D-04  NBF=    69    69
 NBsUse=   138 1.00D-06 EigRej= -1.00D+00 NBFU=    69    69
 ExpMin= 2.53D-02 ExpMax= 1.53D+04 ExpMxC= 5.22D+02 IAcc=3 IRadAn=         5 AccDes= 0.00D+00
 Harris functional with IExCor=  205 and IRadAn=       5 diagonalized for initial guess.
 HarFok:  IExCor=  205 AccDes= 0.00D+00 IRadAn=         5 IDoV= 1 UseB2=F ITyADJ=14
 ICtDFT=  3500011 ScaDFX=  1.000000  1.000000  1.000000  1.000000
 FoFCou: FMM=F IPFlag=           0 FMFlag=      100000 FMFlg1=           0
         NFxFlg=           0 DoJE=T BraDBF=F KetDBF=T FulRan=T
         wScrn=  0.000000 ICntrl=       500 IOpCl=  0 I1Cent=   200000004 NGrid=           0
         NMat0=    1 NMatS0=      1 NMatT0=    0 NMatD0=    1 NMtDS0=    0 NMtDT0=    0
 Petite list used in FoFCou.
 Initial guess orbital symmetries:
       Occupied  (B) (A) (A) (B) (A) (B) (A) (A) (B)
       Virtual   (B) (A) (B) (A) (B) (A) (B) (A) (A) (B) (B) (A)
                 (B) (A) (B) (B) (A) (A) (B) (B) (A) (A) (B) (A)
                 (B) (B) (A) (A) (B) (A) (A) (B) (A) (B) (B) (A)
                 (B) (A) (B) (A) (B) (A) (B) (B) (B) (A) (A) (B)
                 (B) (A) (A) (A) (A) (B) (A) (A) (B) (B) (A) (B)
                 (B) (A) (A) (B) (B) (A) (B) (A) (A) (B) (B) (B)
                 (A) (A) (B) (A) (B) (A) (B) (A) (B) (A) (B) (A)
                 (A) (B) (B) (A) (B) (A) (B) (A) (B) (A) (B) (A)
                 (A) (B) (A) (B) (B) (A) (B) (A) (A) (B) (A) (B)
                 (A) (B) (B) (A) (A) (B) (A) (A) (B) (B) (B) (A)
                 (A) (B) (B) (A) (B) (B) (A) (A) (B)
 The electronic state of the initial guess is 1-A.
 Keep R1 ints in memory in symmetry-blocked form, NReq=69022575.
 Requested convergence on RMS density matrix=1.00D-08 within 128 cycles.
 Requested convergence on MAX density matrix=1.00D-06.
 Requested convergence on             energy=1.00D-06.
 No special actions if energy rises.
 SCF Done:  E(RHF) =  -150.836524160     A.U. after   10 cycles
            NFock= 10  Conv=0.58D-08     -V/T= 2.0020
 ExpMin= 2.53D-02 ExpMax= 1.53D+04 ExpMxC= 5.22D+02 IAcc=3 IRadAn=         5 AccDes= 0.00D+00
 HarFok:  IExCor=  205 AccDes= 0.00D+00 IRadAn=         5 IDoV=-2 UseB2=F ITyADJ=14
 ICtDFT= 12500011 ScaDFX=  1.000000  1.000000  1.000000  1.000000
 Range of M.O.s used for correlation:     3   138
 NBasis=   138 NAE=     9 NBE=     9 NFC=     2 NFV=     0
 NROrb=    136 NOA=     7 NOB=     7 NVA=   129 NVB=   129

 **** Warning!!: The largest alpha MO coefficient is  0.13716266D+02

 Fully direct method using O(ONN) memory.
 JobTyp=1 Pass  1:  I=   3 to   9 NPSUse= 28 ParTrn=T ParDer=T DoDerP=T.
 Spin components of T(2) and E(2):
     alpha-alpha T2 =       0.1622877425D-01 E2=     -0.6329000624D-01
     alpha-beta  T2 =       0.9453255343D-01 E2=     -0.3840111364D+00
     beta-beta   T2 =       0.1622877425D-01 E2=     -0.6329000624D-01
 ANorm=    0.1061597900D+01
 E2 =    -0.5105911489D+00 EUMP2 =    -0.15134711530857D+03
          IDoAtm=1111
          Differentiating once with respect to electric field.
                with respect to dipole field.
          Differentiating once with respect to nuclear coordinates.
 Keep R1 ints in memory in symmetry-blocked form, NReq=69023499.
          There are     1 degrees of freedom in the 1st order CPHF.  IDoFFX=0 NUNeed=     1.
 LinEq1:  Iter=  0 NonCon=     1 RMS=4.66D-03 Max=4.21D-02 NDo=     1
 AX will form     1 AO Fock derivatives at one time.
 LinEq1:  Iter=  1 NonCon=     1 RMS=5.47D-04 Max=3.68D-03 NDo=     1
 LinEq1:  Iter=  2 NonCon=     1 RMS=2.43D-04 Max=2.24D-03 NDo=     1
 LinEq1:  Iter=  3 NonCon=     1 RMS=6.49D-05 Max=7.34D-04 NDo=     1
 LinEq1:  Iter=  4 NonCon=     1 RMS=1.59D-05 Max=2.67D-04 NDo=     1
 LinEq1:  Iter=  5 NonCon=     1 RMS=4.16D-06 Max=4.31D-05 NDo=     1
 LinEq1:  Iter=  6 NonCon=     1 RMS=8.80D-07 Max=8.39D-06 NDo=     1
 LinEq1:  Iter=  7 NonCon=     1 RMS=1.20D-07 Max=1.10D-06 NDo=     1
 LinEq1:  Iter=  8 NonCon=     1 RMS=2.02D-08 Max=1.51D-07 NDo=     1
 LinEq1:  Iter=  9 NonCon=     1 RMS=4.07D-09 Max=2.73D-08 NDo=     1
 LinEq1:  Iter= 10 NonCon=     1 RMS=6.66D-10 Max=4.89D-09 NDo=     1
 LinEq1:  Iter= 11 NonCon=     1 RMS=1.21D-10 Max=9.09D-10 NDo=     1
 LinEq1:  Iter= 12 NonCon=     0 RMS=1.97D-11 Max=1.19D-10 NDo=     1
 Linear equations converged to 1.000D-10 1.000D-09 after    12 iterations.
 End of Minotr F.D. properties file   721 does not exist.
 End of Minotr F.D. properties file   722 does not exist.
 End of Minotr F.D. properties file   788 does not exist.

 **********************************************************************

            Population analysis using the SCF density.

 **********************************************************************

 Orbital symmetries:
       Occupied  (A) (B) (A) (B) (B) (A) (A) (A) (B)
       Virtual   (A) (B) (B) (A) (B) (A) (A) (B) (A) (B) (A) (B)
                 (B) (B) (A) (B) (A) (A) (B) (B) (A) (A) (B) (A)
                 (B) (B) (A) (A) (B) (A) (B) (A) (A) (B) (A) (B)
                 (B) (A) (A) (B) (B) (A) (B) (B) (B) (A) (A) (B)
                 (B) (A) (A) (A) (B) (A) (A) (A) (B) (B) (A) (B)
                 (B) (A) (A) (B) (B) (A) (B) (A) (A) (B) (B) (B)
                 (A) (A) (B) (A) (B) (A) (B) (A) (B) (A) (B) (A)
                 (B) (A) (B) (A) (B) (A) (B) (A) (B) (A) (B) (A)
                 (A) (B) (A) (B) (B) (A) (B) (A) (A) (B) (A) (B)
                 (A) (B) (B) (A) (A) (A) (B) (A) (B) (B) (B) (A)
                 (A) (B) (B) (A) (B) (B) (A) (A) (B)
 The electronic state is 1-A.
 Alpha  occ. eigenvalues --  -20.63392 -20.63364  -1.47631  -1.21045  -0.72277
 Alpha  occ. eigenvalues --   -0.69248  -0.61259  -0.53363  -0.47660
 Alpha virt. eigenvalues --    0.03342   0.04186   0.10797   0.13509   0.15742
 Alpha virt. eigenvalues --    0.16812   0.18005   0.19799   0.19858   0.22936
 Alpha virt. eigenvalues --    0.25515   0.27076   0.31374   0.33375   0.35049
 Alpha virt. eigenvalues --    0.37731   0.37746   0.43221   0.44712   0.61962
 Alpha virt. eigenvalues --    0.63808   0.71737   0.72102   0.76591   0.77717
 Alpha virt. eigenvalues --    0.79067   0.79823   0.81271   0.83529   0.86323
 Alpha virt. eigenvalues --    0.89916   0.92192   0.93009   0.95934   0.98657
 Alpha virt. eigenvalues --    0.99433   1.01612   1.02453   1.04152   1.06250
 Alpha virt. eigenvalues --    1.12010   1.16195   1.21798   1.29813   1.35540
 Alpha virt. eigenvalues --    1.39255   1.43974   1.50889   1.54976   1.56679
 Alpha virt. eigenvalues --    1.68985   1.82872   1.95915   1.97611   2.01721
 Alpha virt. eigenvalues --    2.10709   2.12250   2.22699   2.25895   2.29642
 Alpha virt. eigenvalues --    2.30989   2.34173   2.38503   2.42853   2.47076
 Alpha virt. eigenvalues --    2.56117   2.57702   2.61605   2.64825   2.70839
 Alpha virt. eigenvalues --    2.73558   2.79353   2.80186   2.87092   2.93953
 Alpha virt. eigenvalues --    3.14415   3.20537   3.21724   3.28813   3.71069
 Alpha virt. eigenvalues --    3.78600   4.11307   4.15470   4.16768   4.22314
 Alpha virt. eigenvalues --    4.22686   4.31100   4.40948   4.45061   4.47855
 Alpha virt. eigenvalues --    4.63071   4.73750   4.75224   4.88614   5.00761
 Alpha virt. eigenvalues --    5.20214   5.24622   5.27254   5.36051   5.40393
 Alpha virt. eigenvalues --    5.84062   6.19949   6.38357   6.38416   6.45352
 Alpha virt. eigenvalues --    6.59096   6.68546   6.72546   6.94485   6.97838
 Alpha virt. eigenvalues --    7.05406   7.14098   7.17645   7.19313   7.20287
 Alpha virt. eigenvalues --    7.23446   7.24535   7.32987   7.36927   7.40720
 Alpha virt. eigenvalues --    7.54991   7.60994   7.75762   8.04181   8.10966
 Alpha virt. eigenvalues --    8.46118   8.49461  14.19644  15.23496
          Condensed to atoms (all electrons):
               1          2          3          4
     1  O    8.149427  -0.087734   0.248089  -0.015628
     2  O   -0.087734   8.149427  -0.015628   0.248089
     3  H    0.248089  -0.015628   0.465530   0.007855
     4  H   -0.015628   0.248089   0.007855   0.465530
 Mulliken charges:
               1
     1  O   -0.294154
     2  O   -0.294154
     3  H    0.294154
     4  H    0.294154
 Sum of Mulliken charges =  -0.00000
 Mulliken charges with hydrogens summed into heavy atoms:
               1
     1  O   -0.000000
     2  O   -0.000000
 Electronic spatial extent (au):  <R**2>=             66.1807
 Charge=             -0.0000 electrons
 Dipole moment (field-independent basis, Debye):
    X=              0.0000    Y=              0.0000    Z=              1.4619  Tot=              1.4619
 Quadrupole moment (field-independent basis, Debye-Ang):
   XX=             -8.7690   YY=            -11.8492   ZZ=            -12.1218
   XY=              3.1088   XZ=             -0.0000   YZ=              0.0000
 Traceless Quadrupole moment (field-independent basis, Debye-Ang):
   XX=              2.1444   YY=             -0.9359   ZZ=             -1.2085
   XY=              3.1088   XZ=             -0.0000   YZ=              0.0000
 Octapole moment (field-independent basis, Debye-Ang**2):
  XXX=              0.0000  YYY=              0.0000  ZZZ=              0.7167  XYY=             -0.0000
  XXY=              0.0000  XXZ=              1.5081  XZZ=              0.0000  YZZ=              0.0000
  YYZ=              1.4032  XYZ=              1.4927
 Hexadecapole moment (field-independent basis, Debye-Ang**3):
 XXXX=             -9.5469 YYYY=            -45.8914 ZZZZ=            -10.7939 XXXY=              0.8951
 XXXZ=             -0.0000 YYYX=              0.9022 YYYZ=              0.0000 ZZZX=             -0.0000
 ZZZY=              0.0000 XXYY=             -8.2428 XXZZ=             -3.3576 YYZZ=            -10.3477
 XXYZ=              0.0000 YYXZ=             -0.0000 ZZXY=             -0.1500
 N-N= 3.677443515960D+01 E-N=-4.317786087401D+02  KE= 1.505414696104D+02
 Symmetry A    KE= 7.696774962069D+01
 Symmetry B    KE= 7.357371998969D+01
 Calling FoFJK, ICntrl=  10002127 FMM=F ISym2X=1 I1Cent= 0 IOpClX= 0 NMat=1 NMatS=1 NMatT=0.
 ***** Axes restored to original set *****
 -------------------------------------------------------------------
 Center     Atomic                   Forces (Hartrees/Bohr)
 Number     Number              X              Y              Z
 -------------------------------------------------------------------
      1        8          -0.003487120   -0.010420716    0.012202643
      2        8           0.002192545    0.004616902   -0.015605537
      3        1          -0.004106551    0.008105554   -0.005365126
      4        1           0.005401126   -0.002301740    0.008768020
 -------------------------------------------------------------------
 Cartesian Forces:  Max     0.015605537 RMS     0.007968732

 GradGradGradGradGradGradGradGradGradGradGradGradGradGradGradGradGradGrad
 Berny optimization.
 FormGI is forming the generalized inverse of G from B-inverse, IUseBI=4.
 Internal  Forces:  Max     0.009784892 RMS     0.008429774
 Search for a local minimum.
 Step number   1 out of a maximum of   20
 All quantities printed in internal units (Hartrees-Bohrs-Radians)
 Mixed Optimization -- RFO/linear search
 Second derivative matrix not updated -- first step.
 The second derivative matrix:
                          R1        R2        R3        A1        A2
           R1           0.37719
           R2           0.00000   0.52155
           R3           0.00000   0.00000   0.52155
           A1           0.00000   0.00000   0.00000   0.16000
           A2           0.00000   0.00000   0.00000   0.00000   0.16000
           D1           0.00000   0.00000   0.00000   0.00000   0.00000
                          D1
           D1           0.00580
 ITU=  0
     Eigenvalues ---    0.00580   0.16000   0.16000   0.37719   0.52155
     Eigenvalues ---    0.52155
 RFO step:  Lambda=-1.93770774D-03 EMin= 5.79818017D-03
 Linear search not attempted -- first point.
 Iteration  1 RMS(Cart)=  0.07289936 RMS(Int)=  0.00505656
 Iteration  2 RMS(Cart)=  0.00352969 RMS(Int)=  0.00000733
 Iteration  3 RMS(Cart)=  0.00001172 RMS(Int)=  0.00000000
 Iteration  4 RMS(Cart)=  0.00000000 RMS(Int)=  0.00000000
 ClnCor:  largest displacement from symmetrization is 4.18D-14 for atom     4.
 Variable       Old X    -DE/DX   Delta X   Delta X   Delta X     New X
                                 (Linear)    (Quad)   (Total)
    R1        2.74776   0.00822   0.00000   0.02169   0.02169   2.76945
    R2        1.84451  -0.00909   0.00000  -0.01736  -0.01736   1.82715
    R3        1.84451  -0.00909   0.00000  -0.01736  -0.01736   1.82715
    A1        1.68901   0.00978   0.00000   0.06042   0.06042   1.74943
    A2        1.68901   0.00978   0.00000   0.06042   0.06042   1.74943
    D1        2.25782  -0.00142   0.00000  -0.18376  -0.18376   2.07406
         Item               Value     Threshold  Converged?
 Maximum Force            0.009785     0.000450     NO 
 RMS     Force            0.008430     0.000300     NO 
 Maximum Displacement     0.094329     0.001800     NO 
 RMS     Displacement     0.072072     0.001200     NO 
 Predicted change in Energy=-1.009687D-03
 GradGradGradGradGradGradGradGradGradGradGradGradGradGradGradGradGradGrad

                          Input orientation:                          
 ---------------------------------------------------------------------
 Center     Atomic      Atomic             Coordinates (Angstroms)
 Number     Number       Type             X           Y           Z
 ---------------------------------------------------------------------
      1          8           0       -2.033475    2.253250   -0.380719
      2          8           0       -0.605307    2.107504   -0.675464
      3          1           0       -2.193273    1.432635    0.105001
      4          1           0       -0.628456    2.107938   -1.642073
 ---------------------------------------------------------------------
                    Distance matrix (angstroms):
                    1          2          3          4
     1  O    0.000000
     2  O    1.465531   0.000000
     3  H    0.966886   1.893729   0.000000
     4  H    1.893729   0.966886   2.440687   0.000000
 Stoichiometry    H2O2
 Framework group  C2[X(H2O2)]
 Deg. of freedom     4
 Full point group                 C2      NOp   2
 Largest Abelian subgroup         C2      NOp   2
 Largest concise Abelian subgroup C2      NOp   2
                         Standard orientation:                         
 ---------------------------------------------------------------------
 Center     Atomic      Atomic             Coordinates (Angstroms)
 Number     Number       Type             X           Y           Z
 ---------------------------------------------------------------------
      1          8           0       -0.000000    0.732765   -0.053789
      2          8           0        0.000000   -0.732765   -0.053789
      3          1           0        0.819144    0.904567    0.430313
      4          1           0       -0.819144   -0.904567    0.430313
 ---------------------------------------------------------------------
 Rotational constants (GHZ):         302.5977575          26.0542436          25.0453405
 Standard basis: Aug-CC-pVTZ (5D, 7F)
 There are    80 symmetry adapted cartesian basis functions of A   symmetry.
 There are    80 symmetry adapted cartesian basis functions of B   symmetry.
 There are    69 symmetry adapted basis functions of A   symmetry.
 There are    69 symmetry adapted basis functions of B   symmetry.
   138 basis functions,   198 primitive gaussians,   160 cartesian basis functions
     9 alpha electrons        9 beta electrons
       nuclear repulsion energy        36.5538779499 Hartrees.
 NAtoms=    4 NActive=    4 NUniq=    2 SFac= 4.00D+00 NAtFMM=   60 NAOKFM=F Big=F
 Integral buffers will be    131072 words long.
 Raffenetti 1 integral format.
 Two-electron integral symmetry is turned on.
 One-electron integrals computed using PRISM.
 NBasis=   138 RedAO= T EigKep=  2.58D-04  NBF=    69    69
 NBsUse=   138 1.00D-06 EigRej= -1.00D+00 NBFU=    69    69
 Initial guess from the checkpoint file:  "/gscratch/scrubbed/gds001/Gau-17338.chk"
 B after Tr=     0.000000    0.000000   -0.000000
         Rot=    0.999960   -0.000000   -0.000000   -0.008944 Ang=  -1.02 deg.
 Initial guess orbital symmetries:
       Occupied  (A) (B) (A) (B) (B) (A) (A) (A) (B)
       Virtual   (A) (B) (B) (A) (B) (A) (A) (B) (A) (B) (A) (B)
                 (B) (B) (A) (B) (A) (A) (B) (B) (A) (A) (B) (A)
                 (B) (B) (A) (A) (B) (A) (B) (A) (A) (B) (A) (B)
                 (B) (A) (A) (B) (B) (A) (B) (B) (B) (A) (A) (B)
                 (B) (A) (A) (A) (B) (A) (A) (A) (B) (B) (A) (B)
                 (B) (A) (A) (B) (B) (A) (B) (A) (A) (B) (B) (B)
                 (A) (A) (B) (A) (B) (A) (B) (A) (B) (A) (B) (A)
                 (B) (A) (B) (A) (B) (A) (B) (A) (B) (A) (B) (A)
                 (A) (B) (A) (B) (B) (A) (B) (A) (A) (B) (A) (B)
                 (A) (B) (B) (A) (A) (A) (B) (A) (B) (B) (B) (A)
                 (A) (B) (B) (A) (B) (B) (A) (A) (B)
 ExpMin= 2.53D-02 ExpMax= 1.53D+04 ExpMxC= 5.22D+02 IAcc=3 IRadAn=         5 AccDes= 0.00D+00
 Harris functional with IExCor=  205 and IRadAn=       5 diagonalized for initial guess.
 HarFok:  IExCor=  205 AccDes= 0.00D+00 IRadAn=         5 IDoV= 1 UseB2=F ITyADJ=14
 ICtDFT=  3500011 ScaDFX=  1.000000  1.000000  1.000000  1.000000
 FoFCou: FMM=F IPFlag=           0 FMFlag=      100000 FMFlg1=           0
         NFxFlg=           0 DoJE=T BraDBF=F KetDBF=T FulRan=T
         wScrn=  0.000000 ICntrl=       500 IOpCl=  0 I1Cent=   200000004 NGrid=           0
         NMat0=    1 NMatS0=      1 NMatT0=    0 NMatD0=    1 NMtDS0=    0 NMtDT0=    0
 Petite list used in FoFCou.
 Keep R1 ints in memory in symmetry-blocked form, NReq=69022575.
 Requested convergence on RMS density matrix=1.00D-08 within 128 cycles.
 Requested convergence on MAX density matrix=1.00D-06.
 Requested convergence on             energy=1.00D-06.
 No special actions if energy rises.
 SCF Done:  E(RHF) =  -150.837969468     A.U. after   11 cycles
            NFock= 11  Conv=0.21D-08     -V/T= 2.0020
 ExpMin= 2.53D-02 ExpMax= 1.53D+04 ExpMxC= 5.22D+02 IAcc=3 IRadAn=         5 AccDes= 0.00D+00
 HarFok:  IExCor=  205 AccDes= 0.00D+00 IRadAn=         5 IDoV=-2 UseB2=F ITyADJ=14
 ICtDFT= 12500011 ScaDFX=  1.000000  1.000000  1.000000  1.000000
 Range of M.O.s used for correlation:     3   138
 NBasis=   138 NAE=     9 NBE=     9 NFC=     2 NFV=     0
 NROrb=    136 NOA=     7 NOB=     7 NVA=   129 NVB=   129

 **** Warning!!: The largest alpha MO coefficient is  0.13500977D+02

 Fully direct method using O(ONN) memory.
 JobTyp=1 Pass  1:  I=   3 to   9 NPSUse= 28 ParTrn=T ParDer=T DoDerP=T.
 Spin components of T(2) and E(2):
     alpha-alpha T2 =       0.1618649466D-01 E2=     -0.6309426172D-01
     alpha-beta  T2 =       0.9455383944D-01 E2=     -0.3836209968D+00
     beta-beta   T2 =       0.1618649466D-01 E2=     -0.6309426172D-01
 ANorm=    0.1061568099D+01
 E2 =    -0.5098095202D+00 EUMP2 =    -0.15134777898812D+03
          IDoAtm=1111
          Differentiating once with respect to electric field.
                with respect to dipole field.
          Differentiating once with respect to nuclear coordinates.
 Keep R1 ints in memory in symmetry-blocked form, NReq=69023499.
          There are     1 degrees of freedom in the 1st order CPHF.  IDoFFX=0 NUNeed=     1.
 LinEq1:  Iter=  0 NonCon=     1 RMS=4.68D-03 Max=4.24D-02 NDo=     1
 AX will form     1 AO Fock derivatives at one time.
 LinEq1:  Iter=  1 NonCon=     1 RMS=5.53D-04 Max=3.95D-03 NDo=     1
 LinEq1:  Iter=  2 NonCon=     1 RMS=2.43D-04 Max=2.29D-03 NDo=     1
 LinEq1:  Iter=  3 NonCon=     1 RMS=6.73D-05 Max=7.35D-04 NDo=     1
 LinEq1:  Iter=  4 NonCon=     1 RMS=1.67D-05 Max=2.72D-04 NDo=     1
 LinEq1:  Iter=  5 NonCon=     1 RMS=4.30D-06 Max=4.42D-05 NDo=     1
 LinEq1:  Iter=  6 NonCon=     1 RMS=9.09D-07 Max=9.36D-06 NDo=     1
 LinEq1:  Iter=  7 NonCon=     1 RMS=1.29D-07 Max=1.21D-06 NDo=     1
 LinEq1:  Iter=  8 NonCon=     1 RMS=2.25D-08 Max=1.66D-07 NDo=     1
 LinEq1:  Iter=  9 NonCon=     1 RMS=4.61D-09 Max=2.94D-08 NDo=     1
 LinEq1:  Iter= 10 NonCon=     1 RMS=7.70D-10 Max=5.62D-09 NDo=     1
 LinEq1:  Iter= 11 NonCon=     1 RMS=1.36D-10 Max=9.32D-10 NDo=     1
 LinEq1:  Iter= 12 NonCon=     0 RMS=2.13D-11 Max=1.26D-10 NDo=     1
 Linear equations converged to 1.000D-10 1.000D-09 after    12 iterations.
 End of Minotr F.D. properties file   721 does not exist.
 End of Minotr F.D. properties file   722 does not exist.
 End of Minotr F.D. properties file   788 does not exist.
 Calling FoFJK, ICntrl=  10002127 FMM=F ISym2X=1 I1Cent= 0 IOpClX= 0 NMat=1 NMatS=1 NMatT=0.
 ***** Axes restored to original set *****
 -------------------------------------------------------------------
 Center     Atomic                   Forces (Hartrees/Bohr)
 Number     Number              X              Y              Z
 -------------------------------------------------------------------
      1        8           0.004976307    0.001728967   -0.003352547
      2        8          -0.004696738   -0.000475606    0.004087418
      3        1           0.002516730   -0.000936744   -0.000849234
      4        1          -0.002796300   -0.000316617    0.000114363
 -------------------------------------------------------------------
 Cartesian Forces:  Max     0.004976307 RMS     0.002796580

 GradGradGradGradGradGradGradGradGradGradGradGradGradGradGradGradGradGrad
 Berny optimization.
 Using GEDIIS/GDIIS optimizer.
 FormGI is forming the generalized inverse of G from B-inverse, IUseBI=4.
 Internal  Forces:  Max     0.008068281 RMS     0.004412501
 Search for a local minimum.
 Step number   2 out of a maximum of   20
 All quantities printed in internal units (Hartrees-Bohrs-Radians)
 Mixed Optimization -- RFO/linear search
 Update second derivatives using D2CorX and points    1    2
 DE= -6.64D-04 DEPred=-1.01D-03 R= 6.57D-01
 TightC=F SS=  1.41D+00  RLast= 2.05D-01 DXNew= 5.0454D-01 6.1585D-01
 Trust test= 6.57D-01 RLast= 2.05D-01 DXMaxT set to 5.05D-01
 The second derivative matrix:
                          R1        R2        R3        A1        A2
           R1           0.44641
           R2          -0.01851   0.50980
           R3          -0.01851  -0.01175   0.50980
           A1           0.05311  -0.00596  -0.00596   0.19668
           A2           0.05311  -0.00596  -0.00596   0.03668   0.19668
           D1           0.00246  -0.00396  -0.00396   0.00352   0.00352
                          D1
           D1           0.00523
 ITU=  1  0
 Use linear search instead of GDIIS.
     Eigenvalues ---    0.00507   0.16000   0.20957   0.45239   0.51601
     Eigenvalues ---    0.52155
 RFO step:  Lambda=-2.88790208D-04 EMin= 5.06726045D-03
 Quartic linear search produced a step of -0.23720.
 Iteration  1 RMS(Cart)=  0.06645919 RMS(Int)=  0.00343878
 Iteration  2 RMS(Cart)=  0.00254994 RMS(Int)=  0.00000161
 Iteration  3 RMS(Cart)=  0.00000130 RMS(Int)=  0.00000000
 Iteration  4 RMS(Cart)=  0.00000000 RMS(Int)=  0.00000000
 ClnCor:  largest displacement from symmetrization is 2.01D-13 for atom     2.
 Variable       Old X    -DE/DX   Delta X   Delta X   Delta X     New X
                                 (Linear)    (Quad)   (Total)
    R1        2.76945  -0.00807  -0.00515  -0.00838  -0.01352   2.75593
    R2        1.82715  -0.00005   0.00412  -0.00634  -0.00222   1.82493
    R3        1.82715  -0.00005   0.00412  -0.00634  -0.00222   1.82493
    A1        1.74943  -0.00503  -0.01433  -0.00197  -0.01630   1.73313
    A2        1.74943  -0.00503  -0.01433  -0.00197  -0.01630   1.73313
    D1        2.07406  -0.00108   0.04359  -0.20090  -0.15731   1.91675
         Item               Value     Threshold  Converged?
 Maximum Force            0.008068     0.000450     NO 
 RMS     Force            0.004413     0.000300     NO 
 Maximum Displacement     0.088912     0.001800     NO 
 RMS     Displacement     0.066951     0.001200     NO 
 Predicted change in Energy=-2.304074D-04
 GradGradGradGradGradGradGradGradGradGradGradGradGradGradGradGradGradGrad

                          Input orientation:                          
 ---------------------------------------------------------------------
 Center     Atomic      Atomic             Coordinates (Angstroms)
 Number     Number       Type             X           Y           Z
 ---------------------------------------------------------------------
      1          8           0       -2.023048    2.276078   -0.359456
      2          8           0       -0.603691    2.138669   -0.665070
      3          1           0       -2.176530    1.418867    0.057950
      4          1           0       -0.657242    2.067713   -1.626680
 ---------------------------------------------------------------------
                    Distance matrix (angstroms):
                    1          2          3          4
     1  O    0.000000
     2  O    1.458374   0.000000
     3  H    0.965710   1.874752   0.000000
     4  H    1.874752   0.965710   2.359495   0.000000
 Stoichiometry    H2O2
 Framework group  C2[X(H2O2)]
 Deg. of freedom     4
 Full point group                 C2      NOp   2
 Largest Abelian subgroup         C2      NOp   2
 Largest concise Abelian subgroup C2      NOp   2
                         Standard orientation:                         
 ---------------------------------------------------------------------
 Center     Atomic      Atomic             Coordinates (Angstroms)
 Number     Number       Type             X           Y           Z
 ---------------------------------------------------------------------
      1          8           0        0.000000    0.729187   -0.060871
      2          8           0       -0.000000   -0.729187   -0.060871
      3          1           0        0.779812    0.885267    0.486969
      4          1           0       -0.779812   -0.885267    0.486969
 ---------------------------------------------------------------------
 Rotational constants (GHZ):         300.1025696          26.2275830          25.5051051
 Standard basis: Aug-CC-pVTZ (5D, 7F)
 There are    80 symmetry adapted cartesian basis functions of A   symmetry.
 There are    80 symmetry adapted cartesian basis functions of B   symmetry.
 There are    69 symmetry adapted basis functions of A   symmetry.
 There are    69 symmetry adapted basis functions of B   symmetry.
   138 basis functions,   198 primitive gaussians,   160 cartesian basis functions
     9 alpha electrons        9 beta electrons
       nuclear repulsion energy        36.7306609875 Hartrees.
 NAtoms=    4 NActive=    4 NUniq=    2 SFac= 4.00D+00 NAtFMM=   60 NAOKFM=F Big=F
 Integral buffers will be    131072 words long.
 Raffenetti 1 integral format.
 Two-electron integral symmetry is turned on.
 One-electron integrals computed using PRISM.
 NBasis=   138 RedAO= T EigKep=  2.56D-04  NBF=    69    69
 NBsUse=   138 1.00D-06 EigRej= -1.00D+00 NBFU=    69    69
 Initial guess from the checkpoint file:  "/gscratch/scrubbed/gds001/Gau-17338.chk"
 B after Tr=    -0.000000    0.000000   -0.000000
         Rot=    0.999999   -0.000000   -0.000000   -0.001730 Ang=  -0.20 deg.
 Initial guess orbital symmetries:
       Occupied  (A) (B) (A) (B) (B) (A) (A) (A) (B)
       Virtual   (A) (B) (B) (A) (B) (A) (A) (B) (A) (B) (A) (B)
                 (B) (B) (A) (A) (B) (A) (B) (B) (A) (A) (B) (A)
                 (B) (A) (B) (A) (B) (A) (B) (A) (A) (B) (A) (B)
                 (B) (A) (A) (B) (B) (A) (B) (B) (A) (B) (A) (B)
                 (B) (A) (A) (A) (B) (A) (A) (A) (B) (B) (A) (B)
                 (B) (A) (A) (B) (B) (A) (B) (A) (A) (B) (B) (B)
                 (A) (A) (B) (A) (A) (B) (B) (A) (B) (A) (A) (B)
                 (B) (A) (B) (A) (B) (A) (B) (A) (B) (A) (B) (A)
                 (B) (A) (B) (A) (B) (A) (B) (A) (A) (B) (A) (B)
                 (A) (B) (B) (A) (A) (A) (B) (A) (B) (B) (B) (A)
                 (A) (B) (B) (A) (B) (B) (A) (A) (B)
 ExpMin= 2.53D-02 ExpMax= 1.53D+04 ExpMxC= 5.22D+02 IAcc=3 IRadAn=         5 AccDes= 0.00D+00
 Harris functional with IExCor=  205 and IRadAn=       5 diagonalized for initial guess.
 HarFok:  IExCor=  205 AccDes= 0.00D+00 IRadAn=         5 IDoV= 1 UseB2=F ITyADJ=14
 ICtDFT=  3500011 ScaDFX=  1.000000  1.000000  1.000000  1.000000
 FoFCou: FMM=F IPFlag=           0 FMFlag=      100000 FMFlg1=           0
         NFxFlg=           0 DoJE=T BraDBF=F KetDBF=T FulRan=T
         wScrn=  0.000000 ICntrl=       500 IOpCl=  0 I1Cent=   200000004 NGrid=           0
         NMat0=    1 NMatS0=      1 NMatT0=    0 NMatD0=    1 NMtDS0=    0 NMtDT0=    0
 Petite list used in FoFCou.
 Keep R1 ints in memory in symmetry-blocked form, NReq=69022575.
 Requested convergence on RMS density matrix=1.00D-08 within 128 cycles.
 Requested convergence on MAX density matrix=1.00D-06.
 Requested convergence on             energy=1.00D-06.
 No special actions if energy rises.
 SCF Done:  E(RHF) =  -150.838428529     A.U. after   10 cycles
            NFock= 10  Conv=0.75D-08     -V/T= 2.0019
 ExpMin= 2.53D-02 ExpMax= 1.53D+04 ExpMxC= 5.22D+02 IAcc=3 IRadAn=         5 AccDes= 0.00D+00
 HarFok:  IExCor=  205 AccDes= 0.00D+00 IRadAn=         5 IDoV=-2 UseB2=F ITyADJ=14
 ICtDFT= 12500011 ScaDFX=  1.000000  1.000000  1.000000  1.000000
 Range of M.O.s used for correlation:     3   138
 NBasis=   138 NAE=     9 NBE=     9 NFC=     2 NFV=     0
 NROrb=    136 NOA=     7 NOB=     7 NVA=   129 NVB=   129

 **** Warning!!: The largest alpha MO coefficient is  0.13875861D+02

 Fully direct method using O(ONN) memory.
 JobTyp=1 Pass  1:  I=   3 to   9 NPSUse= 28 ParTrn=T ParDer=T DoDerP=T.
 Spin components of T(2) and E(2):
     alpha-alpha T2 =       0.1614546835D-01 E2=     -0.6310506698D-01
     alpha-beta  T2 =       0.9411112399D-01 E2=     -0.3833179738D+00
     beta-beta   T2 =       0.1614546835D-01 E2=     -0.6310506698D-01
 ANorm=    0.1061320904D+01
 E2 =    -0.5095281077D+00 EUMP2 =    -0.15134795663666D+03
          IDoAtm=1111
          Differentiating once with respect to electric field.
                with respect to dipole field.
          Differentiating once with respect to nuclear coordinates.
 Keep R1 ints in memory in symmetry-blocked form, NReq=69023499.
          There are     1 degrees of freedom in the 1st order CPHF.  IDoFFX=0 NUNeed=     1.
 LinEq1:  Iter=  0 NonCon=     1 RMS=4.65D-03 Max=4.16D-02 NDo=     1
 AX will form     1 AO Fock derivatives at one time.
 LinEq1:  Iter=  1 NonCon=     1 RMS=5.53D-04 Max=3.82D-03 NDo=     1
 LinEq1:  Iter=  2 NonCon=     1 RMS=2.39D-04 Max=2.16D-03 NDo=     1
 LinEq1:  Iter=  3 NonCon=     1 RMS=6.82D-05 Max=7.80D-04 NDo=     1
 LinEq1:  Iter=  4 NonCon=     1 RMS=1.72D-05 Max=2.83D-04 NDo=     1
 LinEq1:  Iter=  5 NonCon=     1 RMS=4.32D-06 Max=4.14D-05 NDo=     1
 LinEq1:  Iter=  6 NonCon=     1 RMS=8.76D-07 Max=8.87D-06 NDo=     1
 LinEq1:  Iter=  7 NonCon=     1 RMS=1.22D-07 Max=1.14D-06 NDo=     1
 LinEq1:  Iter=  8 NonCon=     1 RMS=2.10D-08 Max=1.48D-07 NDo=     1
 LinEq1:  Iter=  9 NonCon=     1 RMS=4.43D-09 Max=2.97D-08 NDo=     1
 LinEq1:  Iter= 10 NonCon=     1 RMS=7.56D-10 Max=6.51D-09 NDo=     1
 LinEq1:  Iter= 11 NonCon=     1 RMS=1.30D-10 Max=8.98D-10 NDo=     1
 LinEq1:  Iter= 12 NonCon=     0 RMS=2.04D-11 Max=1.35D-10 NDo=     1
 Linear equations converged to 1.000D-10 1.000D-09 after    12 iterations.
 End of Minotr F.D. properties file   721 does not exist.
 End of Minotr F.D. properties file   722 does not exist.
 End of Minotr F.D. properties file   788 does not exist.
 Calling FoFJK, ICntrl=  10002127 FMM=F ISym2X=1 I1Cent= 0 IOpClX= 0 NMat=1 NMatS=1 NMatT=0.
 ***** Axes restored to original set *****
 -------------------------------------------------------------------
 Center     Atomic                   Forces (Hartrees/Bohr)
 Number     Number              X              Y              Z
 -------------------------------------------------------------------
      1        8           0.002594325    0.000349260   -0.000807444
      2        8          -0.002448819    0.000303070    0.001189918
      3        1          -0.000653362   -0.000823734    0.000878276
      4        1           0.000507855    0.000171404   -0.001260750
 -------------------------------------------------------------------
 Cartesian Forces:  Max     0.002594325 RMS     0.001250417

 GradGradGradGradGradGradGradGradGradGradGradGradGradGradGradGradGradGrad
 Berny optimization.
 Using GEDIIS/GDIIS optimizer.
 FormGI is forming the generalized inverse of G from B-inverse, IUseBI=4.
 Internal  Forces:  Max     0.001918914 RMS     0.001223451
 Search for a local minimum.
 Step number   3 out of a maximum of   20
 All quantities printed in internal units (Hartrees-Bohrs-Radians)
 Mixed Optimization -- RFO/linear search
 Update second derivatives using D2CorX and points    1    2    3
 DE= -1.78D-04 DEPred=-2.30D-04 R= 7.71D-01
 TightC=F SS=  1.41D+00  RLast= 1.60D-01 DXNew= 8.4853D-01 4.7879D-01
 Trust test= 7.71D-01 RLast= 1.60D-01 DXMaxT set to 5.05D-01
 The second derivative matrix:
                          R1        R2        R3        A1        A2
           R1           0.39026
           R2          -0.02718   0.51880
           R3          -0.02718  -0.00275   0.51880
           A1           0.04123   0.00574   0.00574   0.20290
           A2           0.04123   0.00574   0.00574   0.04290   0.20290
           D1          -0.00224   0.00188   0.00188   0.00920   0.00920
                          D1
           D1           0.00860
 ITU=  1  1  0
 Use linear search instead of GDIIS.
     Eigenvalues ---    0.00781   0.16000   0.22402   0.40192   0.52155
     Eigenvalues ---    0.52698
 RFO step:  Lambda=-3.07481179D-05 EMin= 7.80528682D-03
 Quartic linear search produced a step of -0.17391.
 Iteration  1 RMS(Cart)=  0.02043310 RMS(Int)=  0.00037987
 Iteration  2 RMS(Cart)=  0.00026596 RMS(Int)=  0.00000002
 Iteration  3 RMS(Cart)=  0.00000002 RMS(Int)=  0.00000000
 ClnCor:  largest displacement from symmetrization is 5.06D-14 for atom     2.
 Variable       Old X    -DE/DX   Delta X   Delta X   Delta X     New X
                                 (Linear)    (Quad)   (Total)
    R1        2.75593  -0.00192   0.00235  -0.00733  -0.00498   2.75095
    R2        1.82493   0.00121   0.00039   0.00145   0.00184   1.82676
    R3        1.82493   0.00121   0.00039   0.00145   0.00184   1.82676
    A1        1.73313   0.00101   0.00283   0.00005   0.00288   1.73601
    A2        1.73313   0.00101   0.00283   0.00005   0.00288   1.73601
    D1        1.91675   0.00056   0.02736   0.02496   0.05232   1.96907
         Item               Value     Threshold  Converged?
 Maximum Force            0.001919     0.000450     NO 
 RMS     Force            0.001223     0.000300     NO 
 Maximum Displacement     0.026615     0.001800     NO 
 RMS     Displacement     0.020435     0.001200     NO 
 Predicted change in Energy=-2.537915D-05
 GradGradGradGradGradGradGradGradGradGradGradGradGradGradGradGradGradGrad

                          Input orientation:                          
 ---------------------------------------------------------------------
 Center     Atomic      Atomic             Coordinates (Angstroms)
 Number     Number       Type             X           Y           Z
 ---------------------------------------------------------------------
      1          8           0       -2.024241    2.269630   -0.368446
      2          8           0       -0.606335    2.127917   -0.666165
      3          1           0       -2.179571    1.423272    0.072035
      4          1           0       -0.650364    2.080509   -1.630679
 ---------------------------------------------------------------------
                    Distance matrix (angstroms):
                    1          2          3          4
     1  O    0.000000
     2  O    1.455740   0.000000
     3  H    0.966682   1.875243   0.000000
     4  H    1.875243   0.966682   2.381107   0.000000
 Stoichiometry    H2O2
 Framework group  C2[X(H2O2)]
 Deg. of freedom     4
 Full point group                 C2      NOp   2
 Largest Abelian subgroup         C2      NOp   2
 Largest concise Abelian subgroup C2      NOp   2
                         Standard orientation:                         
 ---------------------------------------------------------------------
 Center     Atomic      Atomic             Coordinates (Angstroms)
 Number     Number       Type             X           Y           Z
 ---------------------------------------------------------------------
      1          8           0       -0.000000    0.727870   -0.058615
      2          8           0        0.000000   -0.727870   -0.058615
      3          1           0        0.794294    0.886856    0.468920
      4          1           0       -0.794294   -0.886856    0.468920
 ---------------------------------------------------------------------
 Rotational constants (GHZ):         300.2204852          26.3532775          25.5176753
 Standard basis: Aug-CC-pVTZ (5D, 7F)
 There are    80 symmetry adapted cartesian basis functions of A   symmetry.
 There are    80 symmetry adapted cartesian basis functions of B   symmetry.
 There are    69 symmetry adapted basis functions of A   symmetry.
 There are    69 symmetry adapted basis functions of B   symmetry.
   138 basis functions,   198 primitive gaussians,   160 cartesian basis functions
     9 alpha electrons        9 beta electrons
       nuclear repulsion energy        36.7606531817 Hartrees.
 NAtoms=    4 NActive=    4 NUniq=    2 SFac= 4.00D+00 NAtFMM=   60 NAOKFM=F Big=F
 Integral buffers will be    131072 words long.
 Raffenetti 1 integral format.
 Two-electron integral symmetry is turned on.
 One-electron integrals computed using PRISM.
 NBasis=   138 RedAO= T EigKep=  2.55D-04  NBF=    69    69
 NBsUse=   138 1.00D-06 EigRej= -1.00D+00 NBFU=    69    69
 Initial guess from the checkpoint file:  "/gscratch/scrubbed/gds001/Gau-17338.chk"
 B after Tr=     0.000000   -0.000000   -0.000000
         Rot=    0.999999   -0.000000    0.000000    0.001025 Ang=   0.12 deg.
 Initial guess orbital symmetries:
       Occupied  (A) (B) (A) (B) (A) (B) (A) (A) (B)
       Virtual   (A) (B) (B) (A) (B) (A) (A) (B) (A) (B) (A) (B)
                 (B) (B) (A) (A) (B) (A) (B) (B) (A) (A) (B) (A)
                 (A) (B) (B) (A) (B) (A) (B) (A) (A) (B) (A) (B)
                 (A) (B) (A) (B) (B) (A) (B) (B) (A) (B) (A) (B)
                 (B) (A) (A) (A) (B) (A) (A) (B) (A) (A) (B) (B)
                 (B) (A) (A) (B) (B) (A) (A) (B) (A) (B) (B) (B)
                 (A) (B) (A) (A) (B) (A) (B) (A) (B) (A) (A) (B)
                 (B) (A) (B) (B) (A) (A) (B) (A) (B) (A) (B) (A)
                 (B) (A) (B) (A) (B) (A) (B) (A) (A) (B) (A) (B)
                 (B) (A) (B) (A) (A) (B) (A) (A) (B) (B) (B) (A)
                 (A) (B) (B) (A) (B) (B) (A) (A) (B)
 ExpMin= 2.53D-02 ExpMax= 1.53D+04 ExpMxC= 5.22D+02 IAcc=3 IRadAn=         5 AccDes= 0.00D+00
 Harris functional with IExCor=  205 and IRadAn=       5 diagonalized for initial guess.
 HarFok:  IExCor=  205 AccDes= 0.00D+00 IRadAn=         5 IDoV= 1 UseB2=F ITyADJ=14
 ICtDFT=  3500011 ScaDFX=  1.000000  1.000000  1.000000  1.000000
 FoFCou: FMM=F IPFlag=           0 FMFlag=      100000 FMFlg1=           0
         NFxFlg=           0 DoJE=T BraDBF=F KetDBF=T FulRan=T
         wScrn=  0.000000 ICntrl=       500 IOpCl=  0 I1Cent=   200000004 NGrid=           0
         NMat0=    1 NMatS0=      1 NMatT0=    0 NMatD0=    1 NMtDS0=    0 NMtDT0=    0
 Petite list used in FoFCou.
 Keep R1 ints in memory in symmetry-blocked form, NReq=69022575.
 Requested convergence on RMS density matrix=1.00D-08 within 128 cycles.
 Requested convergence on MAX density matrix=1.00D-06.
 Requested convergence on             energy=1.00D-06.
 No special actions if energy rises.
 SCF Done:  E(RHF) =  -150.838641102     A.U. after   10 cycles
            NFock= 10  Conv=0.26D-08     -V/T= 2.0019
 ExpMin= 2.53D-02 ExpMax= 1.53D+04 ExpMxC= 5.22D+02 IAcc=3 IRadAn=         5 AccDes= 0.00D+00
 HarFok:  IExCor=  205 AccDes= 0.00D+00 IRadAn=         5 IDoV=-2 UseB2=F ITyADJ=14
 ICtDFT= 12500011 ScaDFX=  1.000000  1.000000  1.000000  1.000000
 Range of M.O.s used for correlation:     3   138
 NBasis=   138 NAE=     9 NBE=     9 NFC=     2 NFV=     0
 NROrb=    136 NOA=     7 NOB=     7 NVA=   129 NVB=   129

 **** Warning!!: The largest alpha MO coefficient is  0.13690796D+02

 Fully direct method using O(ONN) memory.
 JobTyp=1 Pass  1:  I=   3 to   9 NPSUse= 28 ParTrn=T ParDer=T DoDerP=T.
 Spin components of T(2) and E(2):
     alpha-alpha T2 =       0.1612626227D-01 E2=     -0.6308962877D-01
     alpha-beta  T2 =       0.9396268766D-01 E2=     -0.3831637402D+00
     beta-beta   T2 =       0.1612626227D-01 E2=     -0.6308962877D-01
 ANorm=    0.1061232874D+01
 E2 =    -0.5093429977D+00 EUMP2 =    -0.15134798409940D+03
          IDoAtm=1111
          Differentiating once with respect to electric field.
                with respect to dipole field.
          Differentiating once with respect to nuclear coordinates.
 Keep R1 ints in memory in symmetry-blocked form, NReq=69023499.
          There are     1 degrees of freedom in the 1st order CPHF.  IDoFFX=0 NUNeed=     1.
 LinEq1:  Iter=  0 NonCon=     1 RMS=4.64D-03 Max=4.18D-02 NDo=     1
 AX will form     1 AO Fock derivatives at one time.
 LinEq1:  Iter=  1 NonCon=     1 RMS=5.50D-04 Max=3.75D-03 NDo=     1
 LinEq1:  Iter=  2 NonCon=     1 RMS=2.37D-04 Max=2.15D-03 NDo=     1
 LinEq1:  Iter=  3 NonCon=     1 RMS=6.73D-05 Max=7.63D-04 NDo=     1
 LinEq1:  Iter=  4 NonCon=     1 RMS=1.69D-05 Max=2.79D-04 NDo=     1
 LinEq1:  Iter=  5 NonCon=     1 RMS=4.26D-06 Max=4.15D-05 NDo=     1
 LinEq1:  Iter=  6 NonCon=     1 RMS=8.71D-07 Max=8.73D-06 NDo=     1
 LinEq1:  Iter=  7 NonCon=     1 RMS=1.21D-07 Max=1.11D-06 NDo=     1
 LinEq1:  Iter=  8 NonCon=     1 RMS=2.07D-08 Max=1.45D-07 NDo=     1
 LinEq1:  Iter=  9 NonCon=     1 RMS=4.32D-09 Max=2.89D-08 NDo=     1
 LinEq1:  Iter= 10 NonCon=     1 RMS=7.37D-10 Max=6.25D-09 NDo=     1
 LinEq1:  Iter= 11 NonCon=     1 RMS=1.29D-10 Max=8.78D-10 NDo=     1
 LinEq1:  Iter= 12 NonCon=     0 RMS=2.04D-11 Max=1.33D-10 NDo=     1
 Linear equations converged to 1.000D-10 1.000D-09 after    12 iterations.
 End of Minotr F.D. properties file   721 does not exist.
 End of Minotr F.D. properties file   722 does not exist.
 End of Minotr F.D. properties file   788 does not exist.
 Calling FoFJK, ICntrl=  10002127 FMM=F ISym2X=1 I1Cent= 0 IOpClX= 0 NMat=1 NMatS=1 NMatT=0.
 ***** Axes restored to original set *****
 -------------------------------------------------------------------
 Center     Atomic                   Forces (Hartrees/Bohr)
 Number     Number              X              Y              Z
 -------------------------------------------------------------------
      1        8           0.000971728   -0.000086195   -0.000105255
      2        8          -0.000949690    0.000184997    0.000163185
      3        1          -0.000167753   -0.000080075    0.000082978
      4        1           0.000145715   -0.000018727   -0.000140907
 -------------------------------------------------------------------
 Cartesian Forces:  Max     0.000971728 RMS     0.000409105

 GradGradGradGradGradGradGradGradGradGradGradGradGradGradGradGradGradGrad
 Berny optimization.
 Using GEDIIS/GDIIS optimizer.
 FormGI is forming the generalized inverse of G from B-inverse, IUseBI=4.
 Internal  Forces:  Max     0.000803818 RMS     0.000373645
 Search for a local minimum.
 Step number   4 out of a maximum of   20
 All quantities printed in internal units (Hartrees-Bohrs-Radians)
 Mixed Optimization -- En-DIIS/RFO-DIIS
 Update second derivatives using D2CorX and points    1    2    3    4
 DE= -2.75D-05 DEPred=-2.54D-05 R= 1.08D+00
 TightC=F SS=  1.41D+00  RLast= 5.28D-02 DXNew= 8.4853D-01 1.5832D-01
 Trust test= 1.08D+00 RLast= 5.28D-02 DXMaxT set to 5.05D-01
 The second derivative matrix:
                          R1        R2        R3        A1        A2
           R1           0.31603
           R2          -0.00568   0.51385
           R3          -0.00568  -0.00771   0.51385
           A1           0.06605  -0.00024  -0.00024   0.19456
           A2           0.06605  -0.00024  -0.00024   0.03456   0.19456
           D1           0.00187   0.00237   0.00237   0.00765   0.00765
                          D1
           D1           0.00974
 ITU=  1  1  1  0
 Use linear search instead of GDIIS.
     Eigenvalues ---    0.00916   0.16000   0.16991   0.37538   0.50658
     Eigenvalues ---    0.52155
 RFO step:  Lambda=-3.17838016D-06 EMin= 9.15715248D-03
 Quartic linear search produced a step of  0.14991.
 Iteration  1 RMS(Cart)=  0.00153791 RMS(Int)=  0.00000228
 Iteration  2 RMS(Cart)=  0.00000187 RMS(Int)=  0.00000000
 Iteration  3 RMS(Cart)=  0.00000000 RMS(Int)=  0.00000000
 ClnCor:  largest displacement from symmetrization is 3.56D-14 for atom     2.
 Variable       Old X    -DE/DX   Delta X   Delta X   Delta X     New X
                                 (Linear)    (Quad)   (Total)
    R1        2.75095  -0.00080  -0.00075  -0.00274  -0.00348   2.74747
    R2        1.82676   0.00013   0.00028  -0.00003   0.00024   1.82700
    R3        1.82676   0.00013   0.00028  -0.00003   0.00024   1.82700
    A1        1.73601   0.00028   0.00043   0.00187   0.00230   1.73832
    A2        1.73601   0.00028   0.00043   0.00187   0.00230   1.73832
    D1        1.96907   0.00000   0.00784  -0.01034  -0.00249   1.96657
         Item               Value     Threshold  Converged?
 Maximum Force            0.000804     0.000450     NO 
 RMS     Force            0.000374     0.000300     NO 
 Maximum Displacement     0.002008     0.001800     NO 
 RMS     Displacement     0.001537     0.001200     NO 
 Predicted change in Energy=-2.073281D-06
 GradGradGradGradGradGradGradGradGradGradGradGradGradGradGradGradGradGrad

                          Input orientation:                          
 ---------------------------------------------------------------------
 Center     Atomic      Atomic             Coordinates (Angstroms)
 Number     Number       Type             X           Y           Z
 ---------------------------------------------------------------------
      1          8           0       -2.023178    2.269553   -0.367857
      2          8           0       -0.607236    2.128718   -0.666329
      3          1           0       -2.180208    1.422987    0.071901
      4          1           0       -0.649889    2.080069   -1.630971
 ---------------------------------------------------------------------
                    Distance matrix (angstroms):
                    1          2          3          4
     1  O    0.000000
     2  O    1.453896   0.000000
     3  H    0.966809   1.875442   0.000000
     4  H    1.875442   0.966809   2.381891   0.000000
 Stoichiometry    H2O2
 Framework group  C2[X(H2O2)]
 Deg. of freedom     4
 Full point group                 C2      NOp   2
 Largest Abelian subgroup         C2      NOp   2
 Largest concise Abelian subgroup C2      NOp   2
                         Standard orientation:                         
 ---------------------------------------------------------------------
 Center     Atomic      Atomic             Coordinates (Angstroms)
 Number     Number       Type             X           Y           Z
 ---------------------------------------------------------------------
      1          8           0        0.000000    0.726948   -0.058710
      2          8           0       -0.000000   -0.726948   -0.058710
      3          1           0        0.793433    0.888153    0.469681
      4          1           0       -0.793433   -0.888153    0.469681
 ---------------------------------------------------------------------
 Rotational constants (GHZ):         300.4640604          26.4031574          25.5706351
 Standard basis: Aug-CC-pVTZ (5D, 7F)
 There are    80 symmetry adapted cartesian basis functions of A   symmetry.
 There are    80 symmetry adapted cartesian basis functions of B   symmetry.
 There are    69 symmetry adapted basis functions of A   symmetry.
 There are    69 symmetry adapted basis functions of B   symmetry.
   138 basis functions,   198 primitive gaussians,   160 cartesian basis functions
     9 alpha electrons        9 beta electrons
       nuclear repulsion energy        36.7884459976 Hartrees.
 NAtoms=    4 NActive=    4 NUniq=    2 SFac= 4.00D+00 NAtFMM=   60 NAOKFM=F Big=F
 Integral buffers will be    131072 words long.
 Raffenetti 1 integral format.
 Two-electron integral symmetry is turned on.
 One-electron integrals computed using PRISM.
 NBasis=   138 RedAO= T EigKep=  2.55D-04  NBF=    69    69
 NBsUse=   138 1.00D-06 EigRej= -1.00D+00 NBFU=    69    69
 Initial guess from the checkpoint file:  "/gscratch/scrubbed/gds001/Gau-17338.chk"
 B after Tr=    -0.000000   -0.000000    0.000000
         Rot=    1.000000   -0.000000   -0.000000   -0.000159 Ang=  -0.02 deg.
 Initial guess orbital symmetries:
       Occupied  (A) (B) (A) (B) (A) (B) (A) (A) (B)
       Virtual   (A) (B) (B) (A) (B) (A) (A) (B) (A) (B) (A) (B)
                 (B) (B) (A) (A) (B) (A) (B) (B) (A) (A) (B) (A)
                 (A) (B) (B) (A) (B) (A) (B) (A) (A) (B) (A) (B)
                 (A) (B) (A) (B) (B) (A) (B) (B) (A) (B) (A) (B)
                 (B) (A) (A) (A) (B) (A) (A) (B) (A) (A) (B) (B)
                 (B) (A) (A) (B) (B) (A) (A) (B) (A) (B) (B) (B)
                 (A) (A) (B) (A) (B) (A) (B) (A) (B) (A) (A) (B)
                 (B) (A) (B) (A) (B) (A) (B) (A) (B) (A) (B) (A)
                 (A) (B) (A) (B) (B) (A) (B) (A) (A) (B) (A) (B)
                 (B) (A) (B) (A) (A) (B) (A) (A) (B) (B) (B) (A)
                 (A) (B) (B) (A) (B) (B) (A) (A) (B)
 Keep R1 ints in memory in symmetry-blocked form, NReq=69022575.
 Requested convergence on RMS density matrix=1.00D-08 within 128 cycles.
 Requested convergence on MAX density matrix=1.00D-06.
 Requested convergence on             energy=1.00D-06.
 No special actions if energy rises.
 SCF Done:  E(RHF) =  -150.838796842     A.U. after    9 cycles
            NFock=  9  Conv=0.10D-08     -V/T= 2.0019
 ExpMin= 2.53D-02 ExpMax= 1.53D+04 ExpMxC= 5.22D+02 IAcc=3 IRadAn=         5 AccDes= 0.00D+00
 HarFok:  IExCor=  205 AccDes= 0.00D+00 IRadAn=         5 IDoV=-2 UseB2=F ITyADJ=14
 ICtDFT= 12500011 ScaDFX=  1.000000  1.000000  1.000000  1.000000
 Range of M.O.s used for correlation:     3   138
 NBasis=   138 NAE=     9 NBE=     9 NFC=     2 NFV=     0
 NROrb=    136 NOA=     7 NOB=     7 NVA=   129 NVB=   129

 **** Warning!!: The largest alpha MO coefficient is  0.13674953D+02

 Fully direct method using O(ONN) memory.
 JobTyp=1 Pass  1:  I=   3 to   9 NPSUse= 28 ParTrn=T ParDer=T DoDerP=T.
 Spin components of T(2) and E(2):
     alpha-alpha T2 =       0.1611056076D-01 E2=     -0.6307636628D-01
     alpha-beta  T2 =       0.9383776136D-01 E2=     -0.3830367799D+00
     beta-beta   T2 =       0.1611056076D-01 E2=     -0.6307636628D-01
 ANorm=    0.1061159217D+01
 E2 =    -0.5091895125D+00 EUMP2 =    -0.15134798635467D+03
          IDoAtm=1111
          Differentiating once with respect to electric field.
                with respect to dipole field.
          Differentiating once with respect to nuclear coordinates.
 Keep R1 ints in memory in symmetry-blocked form, NReq=69023499.
          There are     1 degrees of freedom in the 1st order CPHF.  IDoFFX=0 NUNeed=     1.
 LinEq1:  Iter=  0 NonCon=     1 RMS=4.63D-03 Max=4.18D-02 NDo=     1
 AX will form     1 AO Fock derivatives at one time.
 LinEq1:  Iter=  1 NonCon=     1 RMS=5.48D-04 Max=3.74D-03 NDo=     1
 LinEq1:  Iter=  2 NonCon=     1 RMS=2.36D-04 Max=2.13D-03 NDo=     1
 LinEq1:  Iter=  3 NonCon=     1 RMS=6.71D-05 Max=7.58D-04 NDo=     1
 LinEq1:  Iter=  4 NonCon=     1 RMS=1.68D-05 Max=2.78D-04 NDo=     1
 LinEq1:  Iter=  5 NonCon=     1 RMS=4.23D-06 Max=4.13D-05 NDo=     1
 LinEq1:  Iter=  6 NonCon=     1 RMS=8.65D-07 Max=8.63D-06 NDo=     1
 LinEq1:  Iter=  7 NonCon=     1 RMS=1.20D-07 Max=1.09D-06 NDo=     1
 LinEq1:  Iter=  8 NonCon=     1 RMS=2.04D-08 Max=1.43D-07 NDo=     1
 LinEq1:  Iter=  9 NonCon=     1 RMS=4.26D-09 Max=2.86D-08 NDo=     1
 LinEq1:  Iter= 10 NonCon=     1 RMS=7.30D-10 Max=6.26D-09 NDo=     1
 LinEq1:  Iter= 11 NonCon=     1 RMS=1.28D-10 Max=8.70D-10 NDo=     1
 LinEq1:  Iter= 12 NonCon=     0 RMS=2.03D-11 Max=1.34D-10 NDo=     1
 Linear equations converged to 1.000D-10 1.000D-09 after    12 iterations.
 End of Minotr F.D. properties file   721 does not exist.
 End of Minotr F.D. properties file   722 does not exist.
 End of Minotr F.D. properties file   788 does not exist.
 Calling FoFJK, ICntrl=  10002127 FMM=F ISym2X=1 I1Cent= 0 IOpClX= 0 NMat=1 NMatS=1 NMatT=0.
 ***** Axes restored to original set *****
 -------------------------------------------------------------------
 Center     Atomic                   Forces (Hartrees/Bohr)
 Number     Number              X              Y              Z
 -------------------------------------------------------------------
      1        8           0.000082174   -0.000025898    0.000005689
      2        8          -0.000083529    0.000019823   -0.000009251
      3        1          -0.000006746    0.000013380   -0.000013035
      4        1           0.000008101   -0.000007306    0.000016597
 -------------------------------------------------------------------
 Cartesian Forces:  Max     0.000083529 RMS     0.000036171

 GradGradGradGradGradGradGradGradGradGradGradGradGradGradGradGradGradGrad
 Berny optimization.
 Using GEDIIS/GDIIS optimizer.
 FormGI is forming the generalized inverse of G from B-inverse, IUseBI=4.
 Internal  Forces:  Max     0.000076182 RMS     0.000034072
 Search for a local minimum.
 Step number   5 out of a maximum of   20
 All quantities printed in internal units (Hartrees-Bohrs-Radians)
 Mixed Optimization -- En-DIIS/RFO-DIIS
 Swapping is turned off.
 Update second derivatives using D2CorX and points    1    2    3    4    5
 DE= -2.26D-06 DEPred=-2.07D-06 R= 1.09D+00
 TightC=F SS=  1.41D+00  RLast= 5.39D-03 DXNew= 8.4853D-01 1.6182D-02
 Trust test= 1.09D+00 RLast= 5.39D-03 DXMaxT set to 5.05D-01
 The second derivative matrix:
                          R1        R2        R3        A1        A2
           R1           0.30085
           R2          -0.00781   0.51607
           R3          -0.00781  -0.00548   0.51607
           A1           0.07020   0.00126   0.00126   0.19454
           A2           0.07020   0.00126   0.00126   0.03454   0.19454
           D1          -0.00031   0.00194   0.00194   0.00807   0.00807
                          D1
           D1           0.00912
 ITU=  1  1  1  1  0
     Eigenvalues ---    0.00839   0.15979   0.16000   0.37023   0.51122
     Eigenvalues ---    0.52155
 En-DIIS/RFO-DIIS/Sim-DIIS IScMMF=       -3 using points:     5    4
 RFO step:  Lambda=-6.21998849D-08.
 DidBck=F Rises=F RFO-DIIS coefs:    1.24631   -0.24631
 Iteration  1 RMS(Cart)=  0.00070026 RMS(Int)=  0.00000046
 Iteration  2 RMS(Cart)=  0.00000033 RMS(Int)=  0.00000000
 ClnCor:  largest displacement from symmetrization is 2.08D-13 for atom     2.
 Variable       Old X    -DE/DX   Delta X   Delta X   Delta X     New X
                                 (Linear)    (Quad)   (Total)
    R1        2.74747  -0.00008  -0.00086   0.00049  -0.00037   2.74709
    R2        1.82700  -0.00002   0.00006  -0.00009  -0.00003   1.82697
    R3        1.82700  -0.00002   0.00006  -0.00009  -0.00003   1.82697
    A1        1.73832   0.00001   0.00057  -0.00032   0.00025   1.73856
    A2        1.73832   0.00001   0.00057  -0.00032   0.00025   1.73856
    D1        1.96657  -0.00001  -0.00061  -0.00129  -0.00191   1.96467
         Item               Value     Threshold  Converged?
 Maximum Force            0.000076     0.000450     YES
 RMS     Force            0.000034     0.000300     YES
 Maximum Displacement     0.000836     0.001800     YES
 RMS     Displacement     0.000700     0.001200     YES
 Predicted change in Energy=-3.110000D-08
 Optimization completed.
    -- Stationary point found.
                           ----------------------------
                           !   Optimized Parameters   !
                           ! (Angstroms and Degrees)  !
 --------------------------                            --------------------------
 ! Name  Definition              Value          Derivative Info.                !
 --------------------------------------------------------------------------------
 ! R1    R(1,2)                  1.4539         -DE/DX =   -0.0001              !
 ! R2    R(1,3)                  0.9668         -DE/DX =    0.0                 !
 ! R3    R(2,4)                  0.9668         -DE/DX =    0.0                 !
 ! A1    A(2,1,3)               99.5983         -DE/DX =    0.0                 !
 ! A2    A(1,2,4)               99.5983         -DE/DX =    0.0                 !
 ! D1    D(3,1,2,4)            112.6763         -DE/DX =    0.0                 !
 --------------------------------------------------------------------------------
 GradGradGradGradGradGradGradGradGradGradGradGradGradGradGradGradGradGrad

                          Input orientation:                          
 ---------------------------------------------------------------------
 Center     Atomic      Atomic             Coordinates (Angstroms)
 Number     Number       Type             X           Y           Z
 ---------------------------------------------------------------------
      1          8           0       -2.023178    2.269553   -0.367857
      2          8           0       -0.607236    2.128718   -0.666329
      3          1           0       -2.180208    1.422987    0.071901
      4          1           0       -0.649889    2.080069   -1.630971
 ---------------------------------------------------------------------
                    Distance matrix (angstroms):
                    1          2          3          4
     1  O    0.000000
     2  O    1.453896   0.000000
     3  H    0.966809   1.875442   0.000000
     4  H    1.875442   0.966809   2.381891   0.000000
 Stoichiometry    H2O2
 Framework group  C2[X(H2O2)]
 Deg. of freedom     4
 Full point group                 C2      NOp   2
 Largest Abelian subgroup         C2      NOp   2
 Largest concise Abelian subgroup C2      NOp   2
                         Standard orientation:                         
 ---------------------------------------------------------------------
 Center     Atomic      Atomic             Coordinates (Angstroms)
 Number     Number       Type             X           Y           Z
 ---------------------------------------------------------------------
      1          8           0       -0.000000    0.726948   -0.058710
      2          8           0       -0.000000   -0.726948   -0.058710
      3          1           0        0.793433    0.888153    0.469681
      4          1           0       -0.793433   -0.888153    0.469681
 ---------------------------------------------------------------------
 Rotational constants (GHZ):         300.4640604          26.4031574          25.5706351

 **********************************************************************

            Population analysis using the SCF density.

 **********************************************************************

 Orbital symmetries:
       Occupied  (A) (B) (A) (B) (A) (B) (A) (A) (B)
       Virtual   (A) (B) (B) (A) (B) (A) (A) (B) (A) (B) (A) (B)
                 (B) (B) (A) (A) (B) (A) (B) (B) (A) (A) (B) (A)
                 (A) (B) (B) (A) (B) (A) (B) (A) (A) (B) (A) (B)
                 (A) (B) (A) (B) (B) (A) (B) (B) (A) (B) (A) (B)
                 (B) (A) (A) (A) (B) (A) (A) (B) (A) (A) (B) (B)
                 (B) (A) (A) (B) (B) (A) (A) (B) (A) (B) (B) (B)
                 (A) (A) (B) (A) (B) (A) (B) (A) (B) (A) (A) (B)
                 (B) (A) (B) (A) (B) (A) (B) (A) (B) (A) (B) (A)
                 (B) (A) (A) (B) (B) (A) (B) (A) (A) (B) (A) (B)
                 (B) (A) (B) (A) (A) (B) (A) (A) (B) (B) (B) (A)
                 (A) (B) (B) (A) (B) (B) (A) (A) (B)
 The electronic state is 1-A.
 Alpha  occ. eigenvalues --  -20.63413 -20.63385  -1.47627  -1.21590  -0.71335
 Alpha  occ. eigenvalues --   -0.71217  -0.60973  -0.52043  -0.48881
 Alpha virt. eigenvalues --    0.03254   0.04179   0.11020   0.13174   0.15750
 Alpha virt. eigenvalues --    0.17038   0.18673   0.19415   0.19918   0.22582
 Alpha virt. eigenvalues --    0.25124   0.27175   0.32316   0.34218   0.34501
 Alpha virt. eigenvalues --    0.36952   0.37137   0.43427   0.45020   0.61559
 Alpha virt. eigenvalues --    0.64458   0.69989   0.72419   0.76452   0.78387
 Alpha virt. eigenvalues --    0.78661   0.79345   0.80665   0.83667   0.86187
 Alpha virt. eigenvalues --    0.90275   0.93495   0.93968   0.95581   0.98960
 Alpha virt. eigenvalues --    0.99844   1.01459   1.01790   1.02609   1.04843
 Alpha virt. eigenvalues --    1.10342   1.15554   1.24001   1.30901   1.35519
 Alpha virt. eigenvalues --    1.37790   1.44978   1.52602   1.54221   1.56473
 Alpha virt. eigenvalues --    1.67466   1.83098   1.94251   1.99297   2.03314
 Alpha virt. eigenvalues --    2.11585   2.11747   2.24491   2.24755   2.26540
 Alpha virt. eigenvalues --    2.30885   2.36463   2.38898   2.43812   2.48986
 Alpha virt. eigenvalues --    2.53600   2.57229   2.58892   2.64697   2.71011
 Alpha virt. eigenvalues --    2.71720   2.79190   2.80874   2.92245   2.93114
 Alpha virt. eigenvalues --    3.14595   3.20735   3.21197   3.28071   3.72209
 Alpha virt. eigenvalues --    3.81138   4.11344   4.17057   4.20595   4.21763
 Alpha virt. eigenvalues --    4.26151   4.32477   4.44663   4.44929   4.47250
 Alpha virt. eigenvalues --    4.55656   4.73332   4.75947   4.90942   5.04371
 Alpha virt. eigenvalues --    5.20057   5.29725   5.29751   5.41482   5.41759
 Alpha virt. eigenvalues --    5.83304   6.18143   6.37059   6.39844   6.47803
 Alpha virt. eigenvalues --    6.62232   6.65349   6.73872   6.92791   6.94607
 Alpha virt. eigenvalues --    7.06459   7.17482   7.18954   7.21612   7.23218
 Alpha virt. eigenvalues --    7.25012   7.26411   7.28943   7.33695   7.41372
 Alpha virt. eigenvalues --    7.54978   7.58129   7.81691   7.99967   8.14646
 Alpha virt. eigenvalues --    8.45980   8.53511  14.23941  15.39279
          Condensed to atoms (all electrons):
               1          2          3          4
     1  O    8.127688  -0.080915   0.245966  -0.010980
     2  O   -0.080915   8.127688  -0.010980   0.245966
     3  H    0.245966  -0.010980   0.477693   0.005561
     4  H   -0.010980   0.245966   0.005561   0.477693
 Mulliken charges:
               1
     1  O   -0.281760
     2  O   -0.281760
     3  H    0.281760
     4  H    0.281760
 Sum of Mulliken charges =  -0.00000
 Mulliken charges with hydrogens summed into heavy atoms:
               1
     1  O   -0.000000
     2  O   -0.000000
 Electronic spatial extent (au):  <R**2>=             66.3570
 Charge=              0.0000 electrons
 Dipole moment (field-independent basis, Debye):
    X=             -0.0000    Y=             -0.0000    Z=              1.8755  Tot=              1.8755
 Quadrupole moment (field-independent basis, Debye-Ang):
   XX=             -9.4919   YY=            -11.5161   ZZ=            -11.6227
   XY=              3.0177   XZ=             -0.0000   YZ=             -0.0000
 Traceless Quadrupole moment (field-independent basis, Debye-Ang):
   XX=              1.3850   YY=             -0.6392   ZZ=             -0.7458
   XY=              3.0177   XZ=             -0.0000   YZ=             -0.0000
 Octapole moment (field-independent basis, Debye-Ang**2):
  XXX=             -0.0000  YYY=             -0.0000  ZZZ=              1.1098  XYY=             -0.0000
  XXY=             -0.0000  XXZ=              1.6167  XZZ=              0.0000  YZZ=              0.0000
  YYZ=              1.9681  XYZ=              1.8077
 Hexadecapole moment (field-independent basis, Debye-Ang**3):
 XXXX=            -10.1236 YYYY=            -45.6435 ZZZZ=            -10.8987 XXXY=              0.4623
 XXXZ=             -0.0000 YYYX=              1.2205 YYYZ=             -0.0000 ZZZX=              0.0000
 ZZZY=             -0.0000 XXYY=             -8.4760 XXZZ=             -3.1261 YYZZ=            -10.0132
 XXYZ=             -0.0000 YYXZ=             -0.0000 ZZXY=              0.1605
 N-N= 3.678844599755D+01 E-N=-4.318022396815D+02  KE= 1.505570262470D+02
 Symmetry A    KE= 7.701373432092D+01
 Symmetry B    KE= 7.354329192608D+01
 1\1\GINC-N2228\FOpt\RMP2-FC\Aug-CC-pVTZ\H2O2\GDS001\07-Dec-2021\0\\# M
 P2/aug-cc-pVTZ opt freq=(vibrot,anharmonic)\\hydrogen peroxide\\0,1\O,
 -2.0231784974,2.2695530439,-0.3678571364\O,-0.6072355689,2.1287184919,
 -0.6663287077\H,-2.1802082781,1.422986908,0.0719014774\H,-0.6498890457
 ,2.0800686358,-1.6309706545\\Version=ES64L-G16RevA.03\State=1-A\HF=-15
 0.8387968\MP2=-151.3479864\RMSD=1.038e-09\RMSF=3.617e-05\Dipole=-0.130
 542,-0.5852435,-0.3431401\PG=C02 [X(H2O2)]\\@


 I think that all right-thinking people in this
 country are sick and tired of being told that
 ordinary, decent people are fed up in this country
 with being sick and tired.  I'm certainly not!
 But I'm sick and tired of being told that I am!
                               -- Monty Python
 Job cpu time:       0 days  0 hours 12 minutes 59.7 seconds.
 Elapsed time:       0 days  0 hours  0 minutes 33.5 seconds.
 File lengths (MBytes):  RWF=     72 Int=      0 D2E=      0 Chk=      8 Scr=      8
 Normal termination of Gaussian 16 at Tue Dec  7 15:24:33 2021.
 Link1:  Proceeding to internal job step number  2.
 ----------------------------------------------------------------------
 #N Geom=AllCheck Guess=TCheck SCRF=Check GenChk RMP2(FC)/Aug-CC-pVTZ F
 req
 ----------------------------------------------------------------------
 1/10=4,29=7,30=1,38=21,40=1,80=1/1,6,3;
 2/12=2,40=1/2;
 3/5=16,6=1,7=10,11=1,14=-4,25=1,30=1,70=2,71=2,116=1,140=1/1,2,3;
 4/5=101,69=2/1;
 5/5=2,38=6,98=1/2;
 8/6=3,8=1,10=1,19=11,30=-1/1;
 9/15=3,16=-3/6;
 11/6=1,8=1,15=11,17=12,24=-1,27=1,28=-2,29=300,32=6,42=3/1,2,10;
 10/6=2,21=1,60=-2/2;
 8/6=4,8=1,10=1,19=11,30=-1/11,4;
 10/5=1,20=4,60=-2/2;
 11/12=2,14=11,16=1,17=2,28=-2,42=3/2,10,12;
 6/7=2,8=2,9=2,10=2,22=-1/1;
 7/10=1,12=2,25=1,44=2,70=1,71=2/1,2,3,16;
 1/38=20,80=1/6(3);
 7/8=1,25=202,44=-1,70=1,71=1,92=10/16,17;
 1/10=4,30=1,38=20,80=1/3;
 99//99;
 3/5=16,6=1,7=10,11=1,14=-2,25=1,30=1,70=5,71=2,116=1,140=1/1,2,3;
 4/5=5,16=3,69=2/1;
 5/5=2,38=5,98=1/2;
 8/6=3,8=1,10=1,19=11,30=-1/1;
 9/15=3,16=-3/6;
 11/6=1,8=1,15=11,17=12,24=-1,27=1,28=-2,29=300,32=6,42=3/1,2,10;
 10/6=2,21=1,60=-2/2;
 8/6=4,8=1,10=1,19=11,30=-1/11,4;
 10/5=1,20=4,60=-2/2;
 11/12=2,14=11,16=1,17=2,28=-2,42=3/2,10,12;
 6/7=2,8=2,9=2,10=2,22=-1/1;
 7/7=1,10=1,12=2,25=1,44=2,70=1,71=1/1,2,3,16;
 1/38=20,80=1/6(-12);
 7/8=1,25=202,44=-1,70=1,71=1,92=10/16,17;
 1/10=4,30=1,38=20,80=1/3;
 99//99;
 Structure from the checkpoint file:  "/gscratch/scrubbed/gds001/Gau-17338.chk"
 -----------------
 hydrogen peroxide
 -----------------
 Charge =  0 Multiplicity = 1
 Redundant internal coordinates found in file.  (old form).
 O,0,-2.0231784974,2.2695530439,-0.3678571364
 O,0,-0.6072355689,2.1287184919,-0.6663287077
 H,0,-2.1802082781,1.422986908,0.0719014774
 H,0,-0.6498890457,2.0800686358,-1.6309706545
 Recover connectivity data from disk.
 Numerical evaluation of third derivatives.
 Nuclear step= 0.010000 Angstroms, electric field step= 0.000333 atomic units, NStep=1.

 GradGradGradGradGradGradGradGradGradGradGradGradGradGradGradGradGradGrad
 Berny optimization.
 Initialization pass.
                           ----------------------------
                           !    Initial Parameters    !
                           ! (Angstroms and Degrees)  !
 --------------------------                            --------------------------
 ! Name  Definition              Value          Derivative Info.                !
 --------------------------------------------------------------------------------
 ! R1    R(1,2)                  1.4539         calculate D2E/DX2 analytically  !
 ! R2    R(1,3)                  0.9668         calculate D2E/DX2 analytically  !
 ! R3    R(2,4)                  0.9668         calculate D2E/DX2 analytically  !
 ! A1    A(2,1,3)               99.5983         calculate D2E/DX2 analytically  !
 ! A2    A(1,2,4)               99.5983         calculate D2E/DX2 analytically  !
 ! D1    D(3,1,2,4)            112.6763         calculate D2E/DX2 analytically  !
 --------------------------------------------------------------------------------
 Trust Radius=3.00D-01 FncErr=1.00D-07 GrdErr=1.00D-07 EigMax=2.50D+02 EigMin=1.00D-04
 Number of steps in this run=      2 maximum allowed number of steps=      2.
 GradGradGradGradGradGradGradGradGradGradGradGradGradGradGradGradGradGrad

                          Input orientation:                          
 ---------------------------------------------------------------------
 Center     Atomic      Atomic             Coordinates (Angstroms)
 Number     Number       Type             X           Y           Z
 ---------------------------------------------------------------------
      1          8           0       -2.023178    2.269553   -0.367857
      2          8           0       -0.607236    2.128718   -0.666329
      3          1           0       -2.180208    1.422987    0.071901
      4          1           0       -0.649889    2.080069   -1.630971
 ---------------------------------------------------------------------
                    Distance matrix (angstroms):
                    1          2          3          4
     1  O    0.000000
     2  O    1.453896   0.000000
     3  H    0.966809   1.875442   0.000000
     4  H    1.875442   0.966809   2.381891   0.000000
 Stoichiometry    H2O2
 Framework group  C2[X(H2O2)]
 Deg. of freedom     4
 Full point group                 C2      NOp   2
 Largest Abelian subgroup         C2      NOp   2
 Largest concise Abelian subgroup C2      NOp   2
                         Standard orientation:                         
 ---------------------------------------------------------------------
 Center     Atomic      Atomic             Coordinates (Angstroms)
 Number     Number       Type             X           Y           Z
 ---------------------------------------------------------------------
      1          8           0        0.000000    0.726948   -0.058710
      2          8           0       -0.000000   -0.726948   -0.058710
      3          1           0        0.793433    0.888153    0.469681
      4          1           0       -0.793433   -0.888153    0.469681
 ---------------------------------------------------------------------
[...]
 Search for a local minimum.
 Step number   1 out of a maximum of    2
 All quantities printed in internal units (Hartrees-Bohrs-Radians)
 Second derivative matrix not updated -- analytic derivatives used.
 The second derivative matrix:
                          R1        R2        R3        A1        A2
           R1           0.30685
           R2          -0.00962   0.51402
           R3          -0.00962  -0.00051   0.51402
           A1           0.07398  -0.00164   0.00074   0.21798
           A2           0.07398   0.00074  -0.00164   0.01745   0.21798
           D1          -0.00030   0.00172   0.00172   0.00821   0.00821
                          D1
           D1           0.00926
 ITU=  0
     Eigenvalues ---    0.00853   0.16105   0.20051   0.38080   0.51455
     Eigenvalues ---    0.51467
 Angle between quadratic step and forces=  67.71 degrees.
 Linear search not attempted -- first point.
 Iteration  1 RMS(Cart)=  0.00069145 RMS(Int)=  0.00000045
 Iteration  2 RMS(Cart)=  0.00000032 RMS(Int)=  0.00000000
 ClnCor:  largest displacement from symmetrization is 3.26D-11 for atom     2.
 Variable       Old X    -DE/DX   Delta X   Delta X   Delta X     New X
                                 (Linear)    (Quad)   (Total)
    R1        2.74747  -0.00008   0.00000  -0.00037  -0.00037   2.74710
    R2        1.82700  -0.00002   0.00000  -0.00003  -0.00003   1.82697
    R3        1.82700  -0.00002   0.00000  -0.00003  -0.00003   1.82697
    A1        1.73832   0.00001   0.00000   0.00024   0.00024   1.73856
    A2        1.73832   0.00001   0.00000   0.00024   0.00024   1.73856
    D1        1.96657  -0.00001   0.00000  -0.00188  -0.00188   1.96469
         Item               Value     Threshold  Converged?
 Maximum Force            0.000076     0.000450     YES
 RMS     Force            0.000034     0.000300     YES
 Maximum Displacement     0.000826     0.001800     YES
 RMS     Displacement     0.000691     0.001200     YES
 Predicted change in Energy=-3.086575D-08
 Optimization completed.
    -- Stationary point found.
                           ----------------------------
                           !   Optimized Parameters   !
                           ! (Angstroms and Degrees)  !
 --------------------------                            --------------------------
 ! Name  Definition              Value          Derivative Info.                !
 --------------------------------------------------------------------------------
 ! R1    R(1,2)                  1.4539         -DE/DX =   -0.0001              !
 ! R2    R(1,3)                  0.9668         -DE/DX =    0.0                 !
 ! R3    R(2,4)                  0.9668         -DE/DX =    0.0                 !
 ! A1    A(2,1,3)               99.5983         -DE/DX =    0.0                 !
 ! A2    A(1,2,4)               99.5983         -DE/DX =    0.0                 !
 ! D1    D(3,1,2,4)            112.6763         -DE/DX =    0.0                 !
 --------------------------------------------------------------------------------
 GradGradGradGradGradGradGradGradGradGradGradGradGradGradGradGradGradGrad


 ----------------------------------------------------------------------

 Electric dipole moment (input orientation):
 (Debye = 10**-18 statcoulomb cm , SI units = C m)
                  (au)            (Debye)         (10**-30 SI)
   Tot        0.690866D+00      0.175601D+01      0.585741D+01
   x         -0.130542D+00     -0.331805D+00     -0.110678D+01
   y         -0.585243D+00     -0.148754D+01     -0.496190D+01
   z         -0.343140D+00     -0.872175D+00     -0.290926D+01

 Dipole polarizability, Alpha (input orientation).
 (esu units = cm**3 , SI units = C**2 m**2 J**-1)
 Alpha(0;0):
               (au)            (10**-24 esu)      (10**-40 SI)
   iso        0.149906D+02      0.222138D+01      0.247162D+01
   aniso      0.571306D+01      0.846588D+00      0.941956D+00
   xx         0.177246D+02      0.262651D+01      0.292239D+01
   yx         0.180698D+00      0.267767D-01      0.297931D-01
   yy         0.129924D+02      0.192528D+01      0.214216D+01
   zx        -0.217201D+01     -0.321859D+00     -0.358116D+00
   zy        -0.353668D+00     -0.524081D-01     -0.583119D-01
   zz         0.142549D+02      0.211235D+01      0.235031D+01

 ----------------------------------------------------------------------

 Dipole orientation:
     8         -4.05937641         -3.23025108         -2.56544994
     8         -1.31242404         -3.28335077         -2.56544994
     1         -4.33497420         -1.72527197         -1.56693593
     1         -1.03682625         -4.78832988         -1.56693593

 Electric dipole moment (dipole orientation):
 (Debye = 10**-18 statcoulomb cm , SI units = C m)
                  (au)            (Debye)         (10**-30 SI)
   Tot        0.690866D+00      0.175601D+01      0.585741D+01
   x          0.000000D+00      0.000000D+00      0.000000D+00
   y          0.000000D+00      0.000000D+00      0.000000D+00
   z          0.690866D+00      0.175601D+01      0.585741D+01

 Dipole polarizability, Alpha (dipole orientation).
 (esu units = cm**3 , SI units = C**2 m**2 J**-1)
 Alpha(0;0):
               (au)            (10**-24 esu)      (10**-40 SI)
   iso        0.149906D+02      0.222138D+01      0.247162D+01
   aniso      0.571306D+01      0.846588D+00      0.941956D+00
   xx         0.182958D+02      0.271115D+01      0.301657D+01
   yx        -0.155685D+01     -0.230701D+00     -0.256689D+00
   yy         0.138507D+02      0.205246D+01      0.228367D+01
   zx         0.000000D+00      0.000000D+00      0.000000D+00
   zy         0.000000D+00      0.000000D+00      0.000000D+00
   zz         0.128254D+02      0.190052D+01      0.211462D+01

 ----------------------------------------------------------------------
 1\1\GINC-N2228\Freq\RMP2-FC\Aug-CC-pVTZ\H2O2\GDS001\07-Dec-2021\0\\#N 
 Geom=AllCheck Guess=TCheck SCRF=Check GenChk RMP2(FC)/Aug-CC-pVTZ Freq
 \\hydrogen peroxide\\0,1\O,-2.0231784974,2.2695530439,-0.3678571364\O,
 -0.6072355689,2.1287184919,-0.6663287077\H,-2.1802082781,1.422986908,0
 .0719014774\H,-0.6498890457,2.0800686358,-1.6309706545\\Version=ES64L-
 G16RevA.03\State=1-A\HF=-150.8387968\MP2=-151.3479864\RMSD=1.126e-10\R
 MSF=3.617e-05\ZeroPoint=0.0264877\Thermal=0.0297106\Dipole=-0.130542,-
 0.5852434,-0.3431401\DipoleDeriv=-0.2717523,-0.0389494,-0.0220466,-0.0
 916914,-0.1707632,-0.0436645,-0.0493546,-0.0614709,-0.3329625,-0.21859
 56,0.0082234,0.0432135,0.0545806,-0.3719071,0.0069761,0.0814112,0.0223
 536,-0.1849753,0.2535557,0.0254691,0.0101814,0.0308979,0.2035128,0.045
 1061,0.0078521,0.0544103,0.3184096,0.2367922,0.0052568,-0.0313482,0.00
 6213,0.3391575,-0.0084177,-0.0399087,-0.0152929,0.1995283\Polar=17.724
 5663,0.1806984,12.9924188,-2.1720125,-0.3536676,14.2548672\Quadrupole=
 -0.8275795,-0.4219459,1.2495254,0.9867799,-1.6119823,-0.7488276\PG=C02
  [X(H2O2)]\NImag=0\\0.28223696,0.03448773,0.43825559,-0.10987887,-0.21
 252125,0.16421151,-0.21958795,-0.01219434,0.04187176,0.28632657,0.0349
 9794,-0.02843007,0.00655716,-0.00266192,0.02296174,0.07137641,0.014783
 23,-0.05937097,-0.02628598,0.01639631,0.57541577,-0.03671064,-0.022661
 62,0.01930774,-0.03112472,-0.03195964,0.02762560,0.07249522,-0.0736928
 9,-0.40766202,0.21146108,0.01558472,0.00815234,-0.00894975,0.05610351,
 0.39877443,0.04690326,0.19556368,-0.10617338,-0.00291122,0.00292689,-0
 .00379664,-0.04730127,-0.20143987,0.11092682,-0.02593837,0.00036822,0.
 04869936,-0.03561390,-0.00037638,-0.07271604,-0.00465986,0.00200466,0.
 00330924,0.06621212,0.00420722,-0.00216349,-0.00549699,-0.00072846,-0.
 00268400,-0.02222979,-0.00148225,0.00073526,0.00294930,-0.00199650,0.0
 0411223,-0.00840081,0.00217434,0.00133284,-0.01267456,-0.02588036,-0.5
 1224816,0.00036793,-0.00107146,-0.00095679,0.02070744,0.02477748,0.511
 87211\\-0.00008218,0.00002590,-0.00000569,0.00008353,-0.00001982,0.000
 00925,0.00000675,-0.00001338,0.00001303,-0.00000810,0.00000730,-0.0000
 1660\\-0.01862723,-0.05455739,-0.15774916,0.00152135,-0.14545255,0.173
 15896,0.00152548,0.02444496,0.01144106,-0.01170185,-0.01337883,0.01249
 758,0.02306993,-0.02479615,-0.03009165,-0.01133651,0.02037680,-0.01060
 162,-0.01497661,-0.22279752,0.03857604,0.01302040,0.04998289,-0.016360
 07,0.00646282,0.00387000,0.01816156,-0.01320363,0.05885897,0.14428492,
 0.12468949,-0.00512340,-0.00412966,-0.00150937,-0.05488687,-0.13968984
 ,0.01231652,0.12361059,-0.15809408,-0.00997256,0.00230990,-0.00174841,
 -0.00203926,-0.12242286,0.15767034,0.00408135,-0.01987045,0.00339766,0
 .00371355,0.03430498,0.00815156,-0.00627960,0.00115131,-0.00030470,-0.
 00151530,0.00907726,0.00096667,-0.00230687,0.00547459,0.02172373,0.203
 93009,0.00103399,-0.00046541,-0.00349763,-0.01558584,-0.02222498,-0.00
 250135,0.00146516,-0.00446326,0.01350811,0.19741769,-0.02622602,0.0002
 3776,-0.00075726,0.00217215,-0.01124452,-0.19812559,0.02851713,-0.2800
 1539,-0.00253373,0.02797985,0.09705314,0.01525532,-0.02140211,0.255068
 55,-0.02105880,-0.06124809,-0.26983173,-0.02773551,-0.01353072,-0.0025
 1769,0.01987285,0.02420505,-0.06577696,-0.00527115,0.00954841,0.109218
 35,0.00868338,-0.02781097,0.01726203,0.02225193,-0.01731323,0.01150807
 ,0.01079315,-0.01112302,-0.02990376,0.03438205,-0.01585172,-0.01442733
 ,0.00137856,-0.00844453,0.00410501,-0.03428302,0.02424685,-0.02666153,
 -0.00901082,0.01630111,0.00035797,0.00111177,0.00157644,0.02754987,0.0
 0893894,-0.01777646,0.00768481,0.00134060,-0.01849182,0.00325512,-0.00
 293049,-0.03231837,0.00113366,-0.00147759,-0.00124631,-0.01207358,-0.0
 0411281,0.00140259,0.00168970,-0.00019260,-0.00222981,-0.00751724,0.00
 123793,0.00004940,-0.00103989,0.00306748,0.00077782,-0.00461466,-0.000
 97335,-0.00444742,-0.04832822,-0.00727746,0.01668612,0.00088638,0.0013
 8338,-0.00010109,0.05205650,0.00686743,-0.01213762,-0.10861506,-0.0924
 8632,0.05200217,0.11324466,0.02448237,-0.01702090,-0.01224148,-0.02432
 617,-0.01907181,0.07047421,-0.02318050,0.03305949,-0.00827929,0.008346
 60,-0.03984009,-0.02102585,-0.00784344,-0.02081804,-0.15843116,0.00123
 711,0.04299979,0.07755168,0.12015434,-0.07986291,-0.04316955,-0.000677
 50,0.01935907,-0.03329829,0.11836725,-0.06733458,-0.01775547,0.0007052
 1,-0.01195649,0.01424472,-0.11694703,0.07837738,-0.07929033,-0.0187492
 3,0.01282265,0.01947620,0.01508464,0.00453201,0.06155110,0.00317471,-0
 .01752482,0.04330487,-0.00334185,-0.01430994,-0.01506318,0.01551139,0.
 16009794,-0.00108384,-0.00212543,-0.00173697,-0.02715785,-0.00270043,-
 0.01772709,0.00155239,0.01527436,0.01873709,-0.00763839,-0.00252982,0.
 00091369,0.00048988,-0.01004411,-0.00192369,-0.01292848,0.00211029,0.0
 2501629,0.15802678,-0.00804245,-0.02671376,-0.00104727,0.00033604,0.00
 017015,-0.14405102,0.00559612,0.00152732,0.00997228,0.08879098,-0.0286
 2952,-0.02274387,-0.02886537,-0.01361999,0.01736492,0.02819808,-0.0395
 1156,-0.04314578,0.01346981,-0.01303782,0.00673532,-0.02961655,-0.0226
 9987,-0.04608356,0.01598650,-0.00482453,-0.08358028,0.01311410,0.03356
 842,-0.07339169,-0.10527772,0.08200896,0.04842645,0.00900217,-0.017065
 37,0.02478802,-0.10121068,0.06129200,0.01541352,-0.00400659,0.01230969
 ,-0.01695548,0.10016037,-0.07314197,0.08048266,0.01038716,-0.00722064,
 -0.02115980,-0.01362374,-0.00864114,-0.06084899,0.00280218,0.01524008,
 0.04605449,-0.01171133,-0.01975353,-0.02264560,0.00714457,0.14672921,0
 .00017722,0.00505690,0.00152613,-0.02358611,-0.00105011,-0.01962467,0.
 00671653,0.00542506,0.02342799,-0.01214512,-0.00388481,-0.00045972,0.0
 0043440,-0.00049014,-0.00334360,-0.01165524,0.00249170,0.02566516,0.14
 425165,-0.00622567,-0.02010275,-0.00409459,-0.00126022,0.00062170,-0.1
 2850182,0.00499420,-0.00618411,-0.12040630,0.21825345,1.02194515,-0.12
 011745,-0.63237106,0.13617160,0.00781642,-0.02246695,-0.01541365,-0.15
 818460,0.01914841,-0.00928144,0.00269874,-0.00152088,-0.18943751,0.010
 67677,0.01027535,-0.01601087,0.06784914,0.07774934,1.38536223,0.118640
 31,-0.19360769,0.11154223,-0.00435172,-0.01843092,0.01278004,-0.109485
 01,-0.23430490,-1.01041934,0.63298988,0.02120109,-0.00030576,-0.009711
 06,0.21148186,1.00929784,0.13121545,0.62190943,-0.12302002,-0.00748576
 ,0.00151356,-0.00077808,-0.12502348,-0.62511096,0.12447680,-0.00605043
 ,-0.00217881,0.02398887,0.15471990,0.00080339,-0.09130595,-0.00480358,
 0.00162195,0.00129379,-0.14386588,-0.00309697,-0.00224437,-0.00331756,
 0.00278674,0.19902471,-0.07831362,0.00055675,0.00142726,0.00168796,-0.
 00024653,-0.19820760,-0.02177477,0.00018628,0.00285930,-0.04494972,-0.
 08196164,-1.36857328,0.00070121,0.00183214,-0.00067870,0.06602328,0.07
 994322,1.36639268,0.13271813,-0.21637320,-1.01350067,0.11733241,0.6315
 2882,-0.11698517,0.00044499,0.01888232,-0.03000197,-0.17008432,-0.0159
 0197,0.00441516,0.00376612,-0.00321390,-0.20428097,0.02932306,-0.00946
 691,-0.00485992,0.07230181,0.08183091,1.37210344,-0.12211916,0.1941434
 2,-0.11171641,0.01277934,0.01898141,-0.01063809,0.11002299,0.23039640,
 1.00976020,-0.63165230,-0.01665486,-0.00034110,0.00599121,-0.21173710,
 -1.00794366,-0.13030067,-0.62165872,0.12157566,0.00689437,-0.00376778,
 -0.00098880,0.12336778,0.62413551,-0.12274548,-0.01104396,0.00334746,0
 .02438597,0.15685999,0.00013445,-0.09098677,-0.00068317,-0.00200444,0.
 00003852,-0.14513286,0.00187876,-0.00067469,-0.00364265,0.00098644,0.2
 0020691,-0.07835520,-0.00138773,-0.00147544,0.00129098,-0.00147748,-0.
 19805678,-0.01635481,-0.00040319,0.00026944,-0.04919420,-0.08182925,-1
 .36625472,-0.00101327,0.00152558,0.00215863,0.06656229,0.08070686,1.36
 382665,0.06808271,-0.08853439,-0.50807919,0.10069705,0.37741384,0.0400
 3103,-0.01279007,0.01023658,-0.00547609,0.07093862,-0.00118502,-0.0071
 8599,-0.01623608,0.00186921,0.24510993,-0.01193382,-0.01516473,0.01470
 756,-0.03936188,-0.04651835,-0.71601412,-0.05853194,0.07556539,-0.0856
 6016,0.00402598,0.00766756,-0.00527227,0.05329055,0.09514306,0.5065814
 0,-0.36907642,-0.00885878,-0.00040295,0.00882484,-0.08390515,-0.504006
 44,-0.10192678,-0.36196472,-0.04659891,0.01410049,0.00761785,0.0001603
 9,0.08977121,0.35947984,0.04621129,0.00323930,0.00273242,-0.00956080,-
 0.06217452,-0.00835174,0.05656796,0.00121541,-0.00237913,-0.00194493,0
 .05771981,-0.00542366,0.00868379,0.00789865,-0.00324700,-0.23752098,0.
 05285823,0.00067219,-0.00217202,-0.00513297,0.00799846,0.23100921,0.01
 316354,-0.00028440,-0.00813966,0.03073747,0.05513657,0.70114618,0.0011
 6121,0.00077173,0.00022723,-0.04506223,-0.05562391,-0.69323375,0.25254
 055,-0.04784024,-0.07997241,-0.06479028,0.03292247,-0.02647226,-0.2414
 5629,0.03084656,0.06451899,0.26361830,0.02180550,0.03355213,-0.0003924
 2,-0.01767324,-0.03213519,0.05851277,-0.00355443,0.01823038,-0.0614375
 9,-0.00329490,-0.08538747,-0.00723806,0.01588597,-0.00349746,-0.007321
 40,-0.00148981,0.00241137,0.01305645,0.02231346,0.04645853,-0.03077221
 ,-0.00825228,0.00448458,0.00163637,-0.01383878,-0.05045213,-0.00443859
 ,-0.02978268,0.00710784,0.00254016,-0.00211452,0.00008650,0.00165174,0
 .03066357,-0.00684162,-0.00384619,0.00110770,0.00376875,-0.01484061,-0
 .00264246,0.00051345,0.00150301,-0.00022240,0.00024668,0.01718380,0.00
 372127,-0.00003825,-0.00175784,-0.00492105,-0.00590151,0.00521296,-0.0
 0055738,-0.00049098,0.00123363,0.00175715,0.00643074,0.01071609,0.0004
 1464,0.00113405,-0.00562156,0.00580184,0.06707060,-0.00056565,-0.00152
 773,-0.00035272,-0.00452889,-0.00468875,-0.06785193,0.15203973,-0.1166
 8314,-0.54869220,0.01832512,0.28069622,-0.10940793,-0.03864240,0.04463
 728,0.03696012,0.16773316,-0.02028188,0.05537327,0.00850885,-0.0183991
 3,0.01713834,-0.00550947,-0.01124429,0.05363790,-0.07166484,-0.0493346
 5,-0.69093241,-0.10798097,0.07633353,-0.02754676,-0.00547554,0.0238030
 2,-0.00367359,0.11297054,0.13972835,0.48743218,-0.28629706,-0.03539947
 ,-0.01330150,0.01988981,-0.10129811,-0.47173049,-0.05474526,-0.2675817
 9,0.07688552,0.02503145,-0.00309084,-0.00186801,0.03015823,0.26902331,
 -0.07283228,-0.00541636,-0.00428768,-0.02773847,-0.12361521,0.01487799
 ,0.08084791,0.00048597,-0.00303077,-0.00044441,0.12854559,-0.00276334,
 0.00588675,-0.00290801,0.00916132,-0.05921011,0.04068913,0.00116155,-0
 .00240019,0.00164932,-0.00755953,0.05572355,0.04192962,-0.00187014,-0.
 02111548,0.00967327,0.04391664,0.63916251,0.00106213,-0.00261606,-0.00
 218523,-0.05266503,-0.03943044,-0.61586180,0.10446303,-0.10172831,-0.4
 6799612,-0.00559329,0.26852078,-0.12379472,-0.01660419,0.02929147,0.04
 284801,0.13245513,-0.02799114,0.06109394,-0.01098541,0.01318170,-0.000
 27777,0.00833704,-0.01513382,0.06611944,-0.06309638,-0.01709253,-0.619
 50483,-0.06862976,0.06236158,-0.00784081,-0.02571603,0.02322432,-0.017
 13458,0.08183463,0.12408270,0.40877345,-0.25694262,-0.03958453,-0.0152
 7783,0.01203404,-0.08563747,-0.39643285,-0.04769752,-0.23959509,0.0775
 3110,0.02319157,-0.00034997,0.00003772,0.02860097,0.23907813,-0.078359
 43,-0.01922908,0.01007525,-0.02941391,-0.09013492,-0.00841487,0.071893
 92,0.01251116,0.00113930,-0.00409501,0.09685285,0.00563675,-0.00187126
 ,-0.00059276,-0.00288864,-0.04553834,0.02019232,0.00005157,0.00293723,
 0.00086693,-0.00279968,0.04447238,0.04495377,-0.01379187,-0.01985581,-
 0.00294320,0.02842792,0.55334768,-0.00362557,0.00583044,0.00079061,-0.
 03838500,-0.02046649,-0.53428249,-0.64190953,0.55402825,2.39386992,-0.
 28057339,-1.59422925,0.12383200,0.09041245,-0.00527172,-0.03236810,-0.
 72702451,-0.00313324,-0.01372305,0.00478137,0.01946024,-0.68919525,-0.
 03025371,0.00845834,-0.01013771,0.21024376,0.20366075,3.29205884,0.555
 77622,-0.54631789,0.29720139,-0.00826933,-0.01024892,0.00926008,-0.542
 15305,-0.55371333,-2.37686635,1.59312743,-0.00516790,0.00613300,-0.006
 56367,0.55600583,2.36882069,0.30410509,1.58852271,-0.11856095,0.000652
 15,-0.00359083,-0.00051037,-0.30604740,-1.58782339,0.11930103,-0.00427
 915,-0.00243864,0.01574010,0.64488139,-0.00607808,-0.18925013,-0.00535
 384,0.00287540,0.00129016,-0.63524841,0.00281832,-0.00328051,-0.003679
 56,-0.00902062,0.69678530,-0.20555542,0.00056098,0.00191265,0.00289151
 ,0.00564132,-0.69541744,0.00672201,-0.00275180,0.00486667,-0.17852781,
 -0.20485130,-3.28141075,-0.00041407,0.00125963,-0.00022971,0.17221988,
 0.20634347,3.27677378,-0.61696660,0.55130011,2.38862314,-0.28942810,-1
 .59389886,0.12556471,0.07150630,-0.00826128,-0.02239972,-0.70117293,-0
 .00370801,-0.01185149,0.00424743,0.01892160,-0.69162405,-0.02024129,0.
 00195652,-0.00854694,0.20178759,0.20170838,3.28990714,0.55375090,-0.54
 494233,0.29748751,-0.01320042,-0.00918267,0.00711436,-0.54124454,-0.55
 575311,-2.37437799,1.59436516,-0.00063418,0.00714550,-0.00237665,0.555
 39072,2.36786981,0.30784840,1.59035070,-0.12243440,-0.00561799,-0.0030
 4914,0.00078708,-0.30317972,-1.58987716,0.12248446,-0.00829060,0.00190
 349,0.01434032,0.64286705,-0.00603091,-0.18866065,0.00069406,0.0009965
 7,0.00094931,-0.63527051,0.00816101,-0.00239366,-0.00471374,-0.0100261
 3,0.69633005,-0.20128825,-0.00126572,-0.00063731,0.00257560,0.00313084
 ,-0.69329908,0.00182099,0.00159163,0.00541663,-0.17376988,-0.20290666,
 -3.28214727,-0.00142214,-0.00211135,-0.00083715,0.17337103,0.20342638,
 3.27756779\\@


 IF I AM NOT FOR MYSELF, WHO WILL BE?
 BUT IF I AM ONLY FOR MYSELF, WHAT AM I?
 THOUGH A SEEKER SINCE MY BIRTH,
 HERE IS ALL I'VE LEARNED ON EARTH,
 THIS IS THE GIST OF WHAT I KNOW:
 GIVE ADVICE AND BUY A FOE.

 PRESSED FOR RULES AND VERITIES,
 ALL I RECOLLECT ARE THESE:
 FEED A COLD TO STARVE A FEVER,
 ARGUE WITH NO TRUE-BELIEVER.
 THINK-TOO-LONG IS NEVER-ACT,
 SCRATCH A MYTH AND FIND A FACT.

 STITCH IN TIME SAVES TWENTY STITCHES,
 GIVE THE RICH TO PLEASE THEM, RICHES.
 GIVE TO LOVE YOU HEARTH AND HALL,
 BUT DO NOT GIVE ADVICE AT ALL.

                                  -- HILLEL
 Job cpu time:       0 days  6 hours 30 minutes 12.2 seconds.
 Elapsed time:       0 days  0 hours 14 minutes 14.7 seconds.
 File lengths (MBytes):  RWF=   1496 Int=      0 D2E=      0 Chk=     48 Scr=      8
 Normal termination of Gaussian 16 at Tue Dec  7 15:38:50 2021.
