 Entering Gaussian System, Link 0=g16
 Input=h2o2_mp2_avdz_opt_anharm.gjf
 Output=h2o2_mp2_avdz_opt_anharm.log
 Initial command:
 /sw/contrib/gaussian/g16/A03/g16/l1.exe "/gscratch/scrubbed/gds001/Gau-30785.inp" -scrdir="/gscratch/scrubbed/gds001/"
 Entering Link 1 = /sw/contrib/gaussian/g16/A03/g16/l1.exe PID=     30786.
  
 Copyright (c) 1988,1990,1992,1993,1995,1998,2003,2009,2016,
            Gaussian, Inc.  All Rights Reserved.
  
 This is part of the Gaussian(R) 16 program.  It is based on
 the Gaussian(R) 09 system (copyright 2009, Gaussian, Inc.),
 the Gaussian(R) 03 system (copyright 2003, Gaussian, Inc.),
 the Gaussian(R) 98 system (copyright 1998, Gaussian, Inc.),
 the Gaussian(R) 94 system (copyright 1995, Gaussian, Inc.),
 the Gaussian 92(TM) system (copyright 1992, Gaussian, Inc.),
 the Gaussian 90(TM) system (copyright 1990, Gaussian, Inc.),
 the Gaussian 88(TM) system (copyright 1988, Gaussian, Inc.),
 the Gaussian 86(TM) system (copyright 1986, Carnegie Mellon
 University), and the Gaussian 82(TM) system (copyright 1983,
 Carnegie Mellon University). Gaussian is a federally registered
 trademark of Gaussian, Inc.
  
 This software contains proprietary and confidential information,
 including trade secrets, belonging to Gaussian, Inc.
  
 This software is provided under written license and may be
 used, copied, transmitted, or stored only in accord with that
 written license.
  
 The following legend is applicable only to US Government
 contracts under FAR:
  
                    RESTRICTED RIGHTS LEGEND
  
 Use, reproduction and disclosure by the US Government is
 subject to restrictions as set forth in subparagraphs (a)
 and (c) of the Commercial Computer Software - Restricted
 Rights clause in FAR 52.227-19.
  
 Gaussian, Inc.
 340 Quinnipiac St., Bldg. 40, Wallingford CT 06492
  
  
 ---------------------------------------------------------------
 Warning -- This program may not be used in any manner that
 competes with the business of Gaussian, Inc. or will provide
 assistance to any competitor of Gaussian, Inc.  The licensee
 of this program is prohibited from giving any competitor of
 Gaussian, Inc. access to this program.  By using this program,
 the user acknowledges that Gaussian, Inc. is engaged in the
 business of creating and licensing software in the field of
 computational chemistry and represents and warrants to the
 licensee that it is not a competitor of Gaussian, Inc. and that
 it will not use this program in any manner prohibited above.
 ---------------------------------------------------------------
  

 Cite this work as:
 Gaussian 16, Revision A.03,
 M. J. Frisch, G. W. Trucks, H. B. Schlegel, G. E. Scuseria, 
 M. A. Robb, J. R. Cheeseman, G. Scalmani, V. Barone, 
 G. A. Petersson, H. Nakatsuji, X. Li, M. Caricato, A. V. Marenich, 
 J. Bloino, B. G. Janesko, R. Gomperts, B. Mennucci, H. P. Hratchian, 
 J. V. Ortiz, A. F. Izmaylov, J. L. Sonnenberg, D. Williams-Young, 
 F. Ding, F. Lipparini, F. Egidi, J. Goings, B. Peng, A. Petrone, 
 T. Henderson, D. Ranasinghe, V. G. Zakrzewski, J. Gao, N. Rega, 
 G. Zheng, W. Liang, M. Hada, M. Ehara, K. Toyota, R. Fukuda, 
 J. Hasegawa, M. Ishida, T. Nakajima, Y. Honda, O. Kitao, H. Nakai, 
 T. Vreven, K. Throssell, J. A. Montgomery, Jr., J. E. Peralta, 
 F. Ogliaro, M. J. Bearpark, J. J. Heyd, E. N. Brothers, K. N. Kudin, 
 V. N. Staroverov, T. A. Keith, R. Kobayashi, J. Normand, 
 K. Raghavachari, A. P. Rendell, J. C. Burant, S. S. Iyengar, 
 J. Tomasi, M. Cossi, J. M. Millam, M. Klene, C. Adamo, R. Cammi, 
 J. W. Ochterski, R. L. Martin, K. Morokuma, O. Farkas, 
 J. B. Foresman, and D. J. Fox, Gaussian, Inc., Wallingford CT, 2016.
 
 ******************************************
 Gaussian 16:  ES64L-G16RevA.03 25-Dec-2016
                 7-Dec-2021 
 ******************************************
 %nprocshared=28
 Will use up to   28 processors via shared memory.
 %mem=41GB
 ----------------------------------------------
 # MP2/aug-cc-pVDZ opt freq=(vibrot,anharmonic)
 ----------------------------------------------
 1/18=20,19=15,38=1,80=1/1,3;
 2/9=110,12=2,17=6,18=5,40=1/2;
 3/5=16,7=10,11=9,25=1,30=1,71=1/1,2,3;
 4//1;
 5/5=2,38=5/2;
 8/6=4,10=1/1;
 9/15=2,16=-3/6;
 10/5=1/2;
 6/7=2,8=2,9=2,10=2/1;
 7/12=2/1,2,3,16;
 1/18=20,19=15,80=1/3(2);
 2/9=110/2;
 99//99;
 2/9=110/2;
 3/5=16,7=10,11=9,25=1,30=1,71=1/1,2,3;
 4/5=5,16=3,69=1/1;
 5/5=2,38=5/2;
 8/6=4,10=1/1;
 9/15=2,16=-3/6;
 10/5=1/2;
 7/12=2/1,2,3,16;
 1/18=20,19=15,80=1/3(-8);
 2/9=110/2;
 6/7=2,8=2,9=2,10=2/1;
 99//99;
 -----------------
 hydrogen peroxide
 -----------------
 Symbolic Z-matrix:
 Charge =  0 Multiplicity = 1
 O                    -2.03802   2.24245  -0.43064 
 O                    -0.61391   2.05934  -0.66012 
 H                    -2.16675   1.45348   0.12943 
 H                    -0.64183   2.14606  -1.63193 
 

 GradGradGradGradGradGradGradGradGradGradGradGradGradGradGradGradGradGrad
 Berny optimization.
 Initialization pass.
                           ----------------------------
                           !    Initial Parameters    !
                           ! (Angstroms and Degrees)  !
 --------------------------                            --------------------------
 ! Name  Definition              Value          Derivative Info.                !
 --------------------------------------------------------------------------------
 ! R1    R(1,2)                  1.4541         estimate D2E/DX2                !
 ! R2    R(1,3)                  0.9761         estimate D2E/DX2                !
 ! R3    R(2,4)                  0.9761         estimate D2E/DX2                !
 ! A1    A(2,1,3)               96.7729         estimate D2E/DX2                !
 ! A2    A(1,2,4)               96.7729         estimate D2E/DX2                !
 ! D1    D(3,1,2,4)            129.3635         estimate D2E/DX2                !
 --------------------------------------------------------------------------------
 Trust Radius=3.00D-01 FncErr=1.00D-07 GrdErr=1.00D-07 EigMax=2.50D+02 EigMin=1.00D-04
 Number of steps in this run=     20 maximum allowed number of steps=    100.
 GradGradGradGradGradGradGradGradGradGradGradGradGradGradGradGradGradGrad

                          Input orientation:                          
 ---------------------------------------------------------------------
 Center     Atomic      Atomic             Coordinates (Angstroms)
 Number     Number       Type             X           Y           Z
 ---------------------------------------------------------------------
      1          8           0       -2.038019    2.242450   -0.430636
      2          8           0       -0.613915    2.059344   -0.660117
      3          1           0       -2.166747    1.453478    0.129428
      4          1           0       -0.641830    2.146056   -1.631930
 ---------------------------------------------------------------------
                    Distance matrix (angstroms):
                    1          2          3          4
     1  O    0.000000
     2  O    1.454051   0.000000
     3  H    0.976073   1.844382   0.000000
     4  H    1.844382   0.976073   2.430518   0.000000
 Stoichiometry    H2O2
 Framework group  C2[X(H2O2)]
 Deg. of freedom     4
 Full point group                 C2      NOp   2
 Largest Abelian subgroup         C2      NOp   2
 Largest concise Abelian subgroup C2      NOp   2
                         Standard orientation:                         
 ---------------------------------------------------------------------
 Center     Atomic      Atomic             Coordinates (Angstroms)
 Number     Number       Type             X           Y           Z
 ---------------------------------------------------------------------
      1          8           0        0.000000    0.727025   -0.046056
      2          8           0       -0.000000   -0.727025   -0.046056
      3          1           0        0.876160    0.842139    0.368445
      4          1           0       -0.876160   -0.842139    0.368445
 ---------------------------------------------------------------------
 Rotational constants (GHZ):         290.0480354          26.8894101          25.4143801
 Standard basis: Aug-CC-pVDZ (5D, 7F)
 There are    34 symmetry adapted cartesian basis functions of A   symmetry.
 There are    34 symmetry adapted cartesian basis functions of B   symmetry.
 There are    32 symmetry adapted basis functions of A   symmetry.
 There are    32 symmetry adapted basis functions of B   symmetry.
    64 basis functions,   108 primitive gaussians,    68 cartesian basis functions
     9 alpha electrons        9 beta electrons
       nuclear repulsion energy        36.7744351596 Hartrees.
 NAtoms=    4 NActive=    4 NUniq=    2 SFac= 4.00D+00 NAtFMM=   60 NAOKFM=F Big=F
 Integral buffers will be    131072 words long.
 Raffenetti 1 integral format.
 Two-electron integral symmetry is turned on.
 One-electron integrals computed using PRISM.
 NBasis=    64 RedAO= T EigKep=  1.19D-03  NBF=    32    32
 NBsUse=    64 1.00D-06 EigRej= -1.00D+00 NBFU=    32    32
 ExpMin= 2.97D-02 ExpMax= 1.17D+04 ExpMxC= 4.01D+02 IAcc=3 IRadAn=         5 AccDes= 0.00D+00
 Harris functional with IExCor=  205 and IRadAn=       5 diagonalized for initial guess.
 HarFok:  IExCor=  205 AccDes= 0.00D+00 IRadAn=         5 IDoV= 1 UseB2=F ITyADJ=14
 ICtDFT=  3500011 ScaDFX=  1.000000  1.000000  1.000000  1.000000
 FoFCou: FMM=F IPFlag=           0 FMFlag=      100000 FMFlg1=           0
         NFxFlg=           0 DoJE=T BraDBF=F KetDBF=T FulRan=T
         wScrn=  0.000000 ICntrl=       500 IOpCl=  0 I1Cent=   200000004 NGrid=           0
         NMat0=    1 NMatS0=      1 NMatT0=    0 NMatD0=    1 NMtDS0=    0 NMtDT0=    0
 Petite list used in FoFCou.
 Initial guess orbital symmetries:
       Occupied  (B) (A) (A) (B) (A) (B) (A) (A) (B)
       Virtual   (B) (A) (B) (A) (B) (A) (B) (A) (B) (A) (B) (A)
                 (B) (A) (B) (B) (A) (A) (B) (B) (A) (A) (B) (A)
                 (B) (A) (B) (A) (B) (A) (B) (A) (B) (B) (A) (A)
                 (B) (A) (B) (B) (A) (A) (B) (A) (A) (A) (B) (B)
                 (A) (B) (B) (A) (A) (B) (B)
 The electronic state of the initial guess is 1-A.
 Keep R1 ints in memory in symmetry-blocked form, NReq=7994417.
 Requested convergence on RMS density matrix=1.00D-08 within 128 cycles.
 Requested convergence on MAX density matrix=1.00D-06.
 Requested convergence on             energy=1.00D-06.
 No special actions if energy rises.
 SCF Done:  E(RHF) =  -150.799069944     A.U. after   11 cycles
            NFock= 11  Conv=0.95D-08     -V/T= 2.0018
 ExpMin= 2.97D-02 ExpMax= 1.17D+04 ExpMxC= 4.01D+02 IAcc=3 IRadAn=         5 AccDes= 0.00D+00
 HarFok:  IExCor=  205 AccDes= 0.00D+00 IRadAn=         5 IDoV=-2 UseB2=F ITyADJ=14
 ICtDFT= 12500011 ScaDFX=  1.000000  1.000000  1.000000  1.000000
 Range of M.O.s used for correlation:     3    64
 NBasis=    64 NAE=     9 NBE=     9 NFC=     2 NFV=     0
 NROrb=     62 NOA=     7 NOB=     7 NVA=    55 NVB=    55
 Fully direct method using O(ONN) memory.
 JobTyp=1 Pass  1:  I=   3 to   9 NPSUse= 28 ParTrn=T ParDer=T DoDerP=T.
 Spin components of T(2) and E(2):
     alpha-alpha T2 =       0.1540482119D-01 E2=     -0.5406845296D-01
     alpha-beta  T2 =       0.8797794130D-01 E2=     -0.3098521077D+00
     beta-beta   T2 =       0.1540482119D-01 E2=     -0.5406845296D-01
 ANorm=    0.1057727556D+01
 E2 =    -0.4179890136D+00 EUMP2 =    -0.15121705895738D+03
          IDoAtm=1111
          Differentiating once with respect to electric field.
                with respect to dipole field.
          Differentiating once with respect to nuclear coordinates.
 Keep R1 ints in memory in symmetry-blocked form, NReq=7995735.
          There are     1 degrees of freedom in the 1st order CPHF.  IDoFFX=0 NUNeed=     1.
 LinEq1:  Iter=  0 NonCon=     1 RMS=7.73D-03 Max=5.75D-02 NDo=     1
 AX will form     1 AO Fock derivatives at one time.
 LinEq1:  Iter=  1 NonCon=     1 RMS=1.11D-03 Max=7.06D-03 NDo=     1
 LinEq1:  Iter=  2 NonCon=     1 RMS=4.12D-04 Max=2.43D-03 NDo=     1
 LinEq1:  Iter=  3 NonCon=     1 RMS=7.34D-05 Max=5.07D-04 NDo=     1
 LinEq1:  Iter=  4 NonCon=     1 RMS=1.43D-05 Max=1.20D-04 NDo=     1
 LinEq1:  Iter=  5 NonCon=     1 RMS=2.95D-06 Max=1.86D-05 NDo=     1
 LinEq1:  Iter=  6 NonCon=     1 RMS=7.13D-07 Max=4.71D-06 NDo=     1
 LinEq1:  Iter=  7 NonCon=     1 RMS=1.04D-07 Max=6.04D-07 NDo=     1
 LinEq1:  Iter=  8 NonCon=     1 RMS=1.37D-08 Max=6.17D-08 NDo=     1
 LinEq1:  Iter=  9 NonCon=     1 RMS=1.92D-09 Max=8.86D-09 NDo=     1
 LinEq1:  Iter= 10 NonCon=     1 RMS=4.02D-10 Max=2.00D-09 NDo=     1
 LinEq1:  Iter= 11 NonCon=     0 RMS=6.78D-11 Max=3.41D-10 NDo=     1
 Linear equations converged to 1.000D-10 1.000D-09 after    11 iterations.
 End of Minotr F.D. properties file   721 does not exist.
 End of Minotr F.D. properties file   722 does not exist.
 End of Minotr F.D. properties file   788 does not exist.

 **********************************************************************

            Population analysis using the SCF density.

 **********************************************************************

 Orbital symmetries:
       Occupied  (A) (B) (A) (B) (B) (A) (A) (A) (B)
       Virtual   (A) (B) (B) (A) (B) (A) (A) (B) (A) (B) (B) (A)
                 (B) (A) (B) (B) (A) (A) (B) (B) (A) (A) (B) (A)
                 (B) (A) (B) (A) (B) (A) (B) (A) (B) (B) (A) (A)
                 (B) (A) (B) (B) (A) (A) (B) (A) (A) (A) (B) (B)
                 (A) (B) (B) (A) (A) (B) (B)
 The electronic state is 1-A.
 Alpha  occ. eigenvalues --  -20.64275 -20.64246  -1.48093  -1.21482  -0.72425
 Alpha  occ. eigenvalues --   -0.69407  -0.61368  -0.53432  -0.47620
 Alpha virt. eigenvalues --    0.04011   0.04985   0.13113   0.17347   0.19813
 Alpha virt. eigenvalues --    0.21168   0.22244   0.23828   0.24166   0.28446
 Alpha virt. eigenvalues --    0.31356   0.34221   0.41353   0.44398   0.44856
 Alpha virt. eigenvalues --    0.47416   0.51735   0.63068   0.64850   0.85139
 Alpha virt. eigenvalues --    0.88064   1.03769   1.08016   1.08327   1.12131
 Alpha virt. eigenvalues --    1.20367   1.24436   1.28232   1.29808   1.41263
 Alpha virt. eigenvalues --    1.44549   1.48641   1.54705   1.70214   1.78108
 Alpha virt. eigenvalues --    2.01348   2.04427   2.12972   2.22734   2.26928
 Alpha virt. eigenvalues --    2.40713   2.54138   2.70052   2.81296   3.40210
 Alpha virt. eigenvalues --    3.51370   3.54763   3.62572   3.67666   3.67679
 Alpha virt. eigenvalues --    3.77842   3.79343   4.07247   4.08380   4.32857
          Condensed to atoms (all electrons):
               1          2          3          4
     1  O    8.057926  -0.021789   0.326662  -0.087809
     2  O   -0.021789   8.057926  -0.087809   0.326662
     3  H    0.326662  -0.087809   0.479162   0.006996
     4  H   -0.087809   0.326662   0.006996   0.479162
 Mulliken charges:
               1
     1  O   -0.274990
     2  O   -0.274990
     3  H    0.274990
     4  H    0.274990
 Sum of Mulliken charges =   0.00000
 Mulliken charges with hydrogens summed into heavy atoms:
               1
     1  O    0.000000
     2  O    0.000000
 Electronic spatial extent (au):  <R**2>=             66.2699
 Charge=              0.0000 electrons
 Dipole moment (field-independent basis, Debye):
    X=              0.0000    Y=              0.0000    Z=              1.4766  Tot=              1.4766
 Quadrupole moment (field-independent basis, Debye-Ang):
   XX=             -8.8253   YY=            -11.7982   ZZ=            -12.2365
   XY=              3.1329   XZ=              0.0000   YZ=              0.0000
 Traceless Quadrupole moment (field-independent basis, Debye-Ang):
   XX=              2.1280   YY=             -0.8449   ZZ=             -1.2832
   XY=              3.1329   XZ=              0.0000   YZ=              0.0000
 Octapole moment (field-independent basis, Debye-Ang**2):
  XXX=              0.0000  YYY=              0.0000  ZZZ=              0.7966  XYY=             -0.0000
  XXY=              0.0000  XXZ=              1.4933  XZZ=              0.0000  YZZ=              0.0000
  YYZ=              1.4319  XYZ=              1.4963
 Hexadecapole moment (field-independent basis, Debye-Ang**3):
 XXXX=             -9.6375 YYYY=            -45.8266 ZZZZ=            -10.9472 XXXY=              0.9057
 XXXZ=             -0.0000 YYYX=              0.9628 YYYZ=              0.0000 ZZZX=              0.0000
 ZZZY=              0.0000 XXYY=             -8.2808 XXZZ=             -3.3941 YYZZ=            -10.4122
 XXYZ=              0.0000 YYXZ=             -0.0000 ZZXY=             -0.1325
 N-N= 3.677443515960D+01 E-N=-4.316256638648D+02  KE= 1.505256114072D+02
 Symmetry A    KE= 7.697944363242D+01
 Symmetry B    KE= 7.354616777477D+01
 Calling FoFJK, ICntrl=  10002127 FMM=F ISym2X=1 I1Cent= 0 IOpClX= 0 NMat=1 NMatS=1 NMatT=0.
 ***** Axes restored to original set *****
 -------------------------------------------------------------------
 Center     Atomic                   Forces (Hartrees/Bohr)
 Number     Number              X              Y              Z
 -------------------------------------------------------------------
      1        8          -0.010301737   -0.006311774    0.011553062
      2        8           0.009714025    0.003676957   -0.013097909
      3        1          -0.005069457    0.004747416   -0.003037250
      4        1           0.005657169   -0.002112599    0.004582096
 -------------------------------------------------------------------
 Cartesian Forces:  Max     0.013097909 RMS     0.007493328

 GradGradGradGradGradGradGradGradGradGradGradGradGradGradGradGradGradGrad
 Berny optimization.
 FormGI is forming the generalized inverse of G from B-inverse, IUseBI=4.
 Internal  Forces:  Max     0.016201615 RMS     0.009440738
 Search for a local minimum.
 Step number   1 out of a maximum of   20
 All quantities printed in internal units (Hartrees-Bohrs-Radians)
 Mixed Optimization -- RFO/linear search
 Second derivative matrix not updated -- first step.
 The second derivative matrix:
                          R1        R2        R3        A1        A2
           R1           0.37719
           R2           0.00000   0.52155
           R3           0.00000   0.00000   0.52155
           A1           0.00000   0.00000   0.00000   0.16000
           A2           0.00000   0.00000   0.00000   0.00000   0.16000
           D1           0.00000   0.00000   0.00000   0.00000   0.00000
                          D1
           D1           0.00580
 ITU=  0
     Eigenvalues ---    0.00580   0.16000   0.16000   0.37719   0.52155
     Eigenvalues ---    0.52155
 RFO step:  Lambda=-2.47746398D-03 EMin= 5.79818017D-03
 Linear search not attempted -- first point.
 Iteration  1 RMS(Cart)=  0.08221935 RMS(Int)=  0.00587708
 Iteration  2 RMS(Cart)=  0.00401569 RMS(Int)=  0.00000953
 Iteration  3 RMS(Cart)=  0.00001523 RMS(Int)=  0.00000000
 Iteration  4 RMS(Cart)=  0.00000000 RMS(Int)=  0.00000000
 ClnCor:  largest displacement from symmetrization is 1.02D-13 for atom     2.
 Variable       Old X    -DE/DX   Delta X   Delta X   Delta X     New X
                                 (Linear)    (Quad)   (Total)
    R1        2.74776   0.01620   0.00000   0.04267   0.04267   2.79043
    R2        1.84451  -0.00491   0.00000  -0.00937  -0.00937   1.83514
    R3        1.84451  -0.00491   0.00000  -0.00937  -0.00937   1.83514
    A1        1.68901   0.01052   0.00000   0.06474   0.06474   1.75374
    A2        1.68901   0.01052   0.00000   0.06474   0.06474   1.75374
    D1        2.25782  -0.00166   0.00000  -0.20033  -0.20033   2.05749
         Item               Value     Threshold  Converged?
 Maximum Force            0.016202     0.000450     NO 
 RMS     Force            0.009441     0.000300     NO 
 Maximum Displacement     0.105932     0.001800     NO 
 RMS     Displacement     0.081549     0.001200     NO 
 Predicted change in Energy=-1.301302D-03
 GradGradGradGradGradGradGradGradGradGradGradGradGradGradGradGradGradGrad

                          Input orientation:                          
 ---------------------------------------------------------------------
 Center     Atomic      Atomic             Coordinates (Angstroms)
 Number     Number       Type             X           Y           Z
 ---------------------------------------------------------------------
      1          8           0       -2.037654    2.255617   -0.374579
      2          8           0       -0.599516    2.112363   -0.677367
      3          1           0       -2.200131    1.428041    0.106857
      4          1           0       -0.623210    2.105305   -1.648166
 ---------------------------------------------------------------------
                    Distance matrix (angstroms):
                    1          2          3          4
     1  O    0.000000
     2  O    1.476632   0.000000
     3  H    0.971114   1.909259   0.000000
     4  H    1.909259   0.971114   2.454683   0.000000
 Stoichiometry    H2O2
 Framework group  C2[X(H2O2)]
 Deg. of freedom     4
 Full point group                 C2      NOp   2
 Largest Abelian subgroup         C2      NOp   2
 Largest concise Abelian subgroup C2      NOp   2
                         Standard orientation:                         
 ---------------------------------------------------------------------
 Center     Atomic      Atomic             Coordinates (Angstroms)
 Number     Number       Type             X           Y           Z
 ---------------------------------------------------------------------
      1          8           0        0.000000    0.738316   -0.054737
      2          8           0       -0.000000   -0.738316   -0.054737
      3          1           0        0.818022    0.914990    0.437896
      4          1           0       -0.818022   -0.914990    0.437896
 ---------------------------------------------------------------------
 Rotational constants (GHZ):         300.4915410          25.6370712          24.6835692
 Standard basis: Aug-CC-pVDZ (5D, 7F)
 There are    34 symmetry adapted cartesian basis functions of A   symmetry.
 There are    34 symmetry adapted cartesian basis functions of B   symmetry.
 There are    32 symmetry adapted basis functions of A   symmetry.
 There are    32 symmetry adapted basis functions of B   symmetry.
    64 basis functions,   108 primitive gaussians,    68 cartesian basis functions
     9 alpha electrons        9 beta electrons
       nuclear repulsion energy        36.3044132999 Hartrees.
 NAtoms=    4 NActive=    4 NUniq=    2 SFac= 4.00D+00 NAtFMM=   60 NAOKFM=F Big=F
 Integral buffers will be    131072 words long.
 Raffenetti 1 integral format.
 Two-electron integral symmetry is turned on.
 One-electron integrals computed using PRISM.
 NBasis=    64 RedAO= T EigKep=  1.26D-03  NBF=    32    32
 NBsUse=    64 1.00D-06 EigRej= -1.00D+00 NBFU=    32    32
 Initial guess from the checkpoint file:  "/gscratch/scrubbed/gds001/Gau-30786.chk"
 B after Tr=    -0.000000    0.000000   -0.000000
         Rot=    0.999952    0.000000    0.000000   -0.009753 Ang=  -1.12 deg.
 Initial guess orbital symmetries:
       Occupied  (A) (B) (A) (B) (B) (A) (A) (A) (B)
       Virtual   (A) (B) (B) (A) (B) (A) (A) (B) (A) (B) (B) (A)
                 (B) (A) (B) (B) (A) (A) (B) (B) (A) (A) (B) (A)
                 (B) (A) (B) (A) (B) (A) (B) (A) (B) (B) (A) (A)
                 (B) (A) (B) (B) (A) (A) (B) (A) (A) (A) (B) (B)
                 (A) (B) (B) (A) (A) (B) (B)
 ExpMin= 2.97D-02 ExpMax= 1.17D+04 ExpMxC= 4.01D+02 IAcc=3 IRadAn=         5 AccDes= 0.00D+00
 Harris functional with IExCor=  205 and IRadAn=       5 diagonalized for initial guess.
 HarFok:  IExCor=  205 AccDes= 0.00D+00 IRadAn=         5 IDoV= 1 UseB2=F ITyADJ=14
 ICtDFT=  3500011 ScaDFX=  1.000000  1.000000  1.000000  1.000000
 FoFCou: FMM=F IPFlag=           0 FMFlag=      100000 FMFlg1=           0
         NFxFlg=           0 DoJE=T BraDBF=F KetDBF=T FulRan=T
         wScrn=  0.000000 ICntrl=       500 IOpCl=  0 I1Cent=   200000004 NGrid=           0
         NMat0=    1 NMatS0=      1 NMatT0=    0 NMatD0=    1 NMtDS0=    0 NMtDT0=    0
 Petite list used in FoFCou.
 Keep R1 ints in memory in symmetry-blocked form, NReq=7993977.
 Requested convergence on RMS density matrix=1.00D-08 within 128 cycles.
 Requested convergence on MAX density matrix=1.00D-06.
 Requested convergence on             energy=1.00D-06.
 No special actions if energy rises.
 SCF Done:  E(RHF) =  -150.799041108     A.U. after   11 cycles
            NFock= 11  Conv=0.37D-08     -V/T= 2.0022
 ExpMin= 2.97D-02 ExpMax= 1.17D+04 ExpMxC= 4.01D+02 IAcc=3 IRadAn=         5 AccDes= 0.00D+00
 HarFok:  IExCor=  205 AccDes= 0.00D+00 IRadAn=         5 IDoV=-2 UseB2=F ITyADJ=14
 ICtDFT= 12500011 ScaDFX=  1.000000  1.000000  1.000000  1.000000
 Range of M.O.s used for correlation:     3    64
 NBasis=    64 NAE=     9 NBE=     9 NFC=     2 NFV=     0
 NROrb=     62 NOA=     7 NOB=     7 NVA=    55 NVB=    55

 **** Warning!!: The largest alpha MO coefficient is  0.11334304D+02

 Fully direct method using O(ONN) memory.
 JobTyp=1 Pass  1:  I=   3 to   9 NPSUse= 28 ParTrn=T ParDer=T DoDerP=T.
 Spin components of T(2) and E(2):
     alpha-alpha T2 =       0.1549609246D-01 E2=     -0.5403826896D-01
     alpha-beta  T2 =       0.8901801294D-01 E2=     -0.3106578606D+00
     beta-beta   T2 =       0.1549609246D-01 E2=     -0.5403826896D-01
 ANorm=    0.1058305342D+01
 E2 =    -0.4187343986D+00 EUMP2 =    -0.15121777550638D+03
          IDoAtm=1111
          Differentiating once with respect to electric field.
                with respect to dipole field.
          Differentiating once with respect to nuclear coordinates.
 Keep R1 ints in memory in symmetry-blocked form, NReq=7995647.
          There are     1 degrees of freedom in the 1st order CPHF.  IDoFFX=0 NUNeed=     1.
 LinEq1:  Iter=  0 NonCon=     1 RMS=7.87D-03 Max=5.73D-02 NDo=     1
 AX will form     1 AO Fock derivatives at one time.
 LinEq1:  Iter=  1 NonCon=     1 RMS=1.12D-03 Max=7.80D-03 NDo=     1
 LinEq1:  Iter=  2 NonCon=     1 RMS=4.22D-04 Max=2.36D-03 NDo=     1
 LinEq1:  Iter=  3 NonCon=     1 RMS=7.92D-05 Max=5.60D-04 NDo=     1
 LinEq1:  Iter=  4 NonCon=     1 RMS=1.54D-05 Max=1.18D-04 NDo=     1
 LinEq1:  Iter=  5 NonCon=     1 RMS=3.27D-06 Max=2.22D-05 NDo=     1
 LinEq1:  Iter=  6 NonCon=     1 RMS=7.99D-07 Max=5.03D-06 NDo=     1
 LinEq1:  Iter=  7 NonCon=     1 RMS=1.20D-07 Max=7.45D-07 NDo=     1
 LinEq1:  Iter=  8 NonCon=     1 RMS=1.69D-08 Max=8.63D-08 NDo=     1
 LinEq1:  Iter=  9 NonCon=     1 RMS=2.65D-09 Max=1.36D-08 NDo=     1
 LinEq1:  Iter= 10 NonCon=     1 RMS=5.10D-10 Max=2.46D-09 NDo=     1
 LinEq1:  Iter= 11 NonCon=     0 RMS=8.49D-11 Max=4.45D-10 NDo=     1
 Linear equations converged to 1.000D-10 1.000D-09 after    11 iterations.
 End of Minotr F.D. properties file   721 does not exist.
 End of Minotr F.D. properties file   722 does not exist.
 End of Minotr F.D. properties file   788 does not exist.
 Calling FoFJK, ICntrl=  10002127 FMM=F ISym2X=1 I1Cent= 0 IOpClX= 0 NMat=1 NMatS=1 NMatT=0.
 ***** Axes restored to original set *****
 -------------------------------------------------------------------
 Center     Atomic                   Forces (Hartrees/Bohr)
 Number     Number              X              Y              Z
 -------------------------------------------------------------------
      1        8           0.002324569    0.003257857   -0.004136376
      2        8          -0.001892031   -0.001318711    0.005273336
      3        1           0.003438311   -0.001678402   -0.000749860
      4        1          -0.003870849   -0.000260743   -0.000387100
 -------------------------------------------------------------------
 Cartesian Forces:  Max     0.005273336 RMS     0.002838079

 GradGradGradGradGradGradGradGradGradGradGradGradGradGradGradGradGradGrad
 Berny optimization.
 Using GEDIIS/GDIIS optimizer.
 FormGI is forming the generalized inverse of G from B-inverse, IUseBI=4.
 Internal  Forces:  Max     0.007004537 RMS     0.004858717
 Search for a local minimum.
 Step number   2 out of a maximum of   20
 All quantities printed in internal units (Hartrees-Bohrs-Radians)
 Mixed Optimization -- RFO/linear search
 Update second derivatives using D2CorX and points    1    2
 DE= -7.17D-04 DEPred=-1.30D-03 R= 5.51D-01
 TightC=F SS=  1.41D+00  RLast= 2.25D-01 DXNew= 5.0454D-01 6.7425D-01
 Trust test= 5.51D-01 RLast= 2.25D-01 DXMaxT set to 5.05D-01
 The second derivative matrix:
                          R1        R2        R3        A1        A2
           R1           0.41632
           R2          -0.00208   0.51985
           R3          -0.00208  -0.00170   0.51985
           A1           0.04454  -0.00595  -0.00595   0.20363
           A2           0.04454  -0.00595  -0.00595   0.04363   0.20363
           D1           0.00454  -0.00160  -0.00160   0.00248   0.00248
                          D1
           D1           0.00530
 ITU=  1  0
 Use linear search instead of GDIIS.
     Eigenvalues ---    0.00521   0.16000   0.22602   0.43675   0.51906
     Eigenvalues ---    0.52155
 RFO step:  Lambda=-2.46300964D-04 EMin= 5.21004825D-03
 Quartic linear search produced a step of -0.29458.
 Iteration  1 RMS(Cart)=  0.06271447 RMS(Int)=  0.00283113
 Iteration  2 RMS(Cart)=  0.00217838 RMS(Int)=  0.00000137
 Iteration  3 RMS(Cart)=  0.00000134 RMS(Int)=  0.00000000
 Iteration  4 RMS(Cart)=  0.00000000 RMS(Int)=  0.00000000
 ClnCor:  largest displacement from symmetrization is 2.18D-14 for atom     2.
 Variable       Old X    -DE/DX   Delta X   Delta X   Delta X     New X
                                 (Linear)    (Quad)   (Total)
    R1        2.79043  -0.00646  -0.01257   0.00393  -0.00864   2.78179
    R2        1.83514   0.00048   0.00276  -0.00286  -0.00010   1.83504
    R3        1.83514   0.00048   0.00276  -0.00286  -0.00010   1.83504
    A1        1.75374  -0.00700  -0.01907  -0.00659  -0.02566   1.72809
    A2        1.75374  -0.00700  -0.01907  -0.00659  -0.02566   1.72809
    D1        2.05749  -0.00114   0.05901  -0.19598  -0.13697   1.92052
         Item               Value     Threshold  Converged?
 Maximum Force            0.007005     0.000450     NO 
 RMS     Force            0.004859     0.000300     NO 
 Maximum Displacement     0.084439     0.001800     NO 
 RMS     Displacement     0.063358     0.001200     NO 
 Predicted change in Energy=-3.008248D-04
 GradGradGradGradGradGradGradGradGradGradGradGradGradGradGradGradGradGrad

                          Input orientation:                          
 ---------------------------------------------------------------------
 Center     Atomic      Atomic             Coordinates (Angstroms)
 Number     Number       Type             X           Y           Z
 ---------------------------------------------------------------------
      1          8           0       -2.029671    2.278186   -0.358514
      2          8           0       -0.596690    2.138260   -0.665016
      3          1           0       -2.180136    1.416011    0.062174
      4          1           0       -0.654016    2.068870   -1.631899
 ---------------------------------------------------------------------
                    Distance matrix (angstroms):
                    1          2          3          4
     1  O    0.000000
     2  O    1.472059   0.000000
     3  H    0.971063   1.886199   0.000000
     4  H    1.886199   0.971063   2.371739   0.000000
 Stoichiometry    H2O2
 Framework group  C2[X(H2O2)]
 Deg. of freedom     4
 Full point group                 C2      NOp   2
 Largest Abelian subgroup         C2      NOp   2
 Largest concise Abelian subgroup C2      NOp   2
                         Standard orientation:                         
 ---------------------------------------------------------------------
 Center     Atomic      Atomic             Coordinates (Angstroms)
 Number     Number       Type             X           Y           Z
 ---------------------------------------------------------------------
      1          8           0        0.000000    0.736029   -0.061094
      2          8           0       -0.000000   -0.736029   -0.061094
      3          1           0        0.785810    0.888139    0.488751
      4          1           0       -0.785810   -0.888139    0.488751
 ---------------------------------------------------------------------
 Rotational constants (GHZ):         296.1201304          25.7785975          25.0625272
 Standard basis: Aug-CC-pVDZ (5D, 7F)
 There are    34 symmetry adapted cartesian basis functions of A   symmetry.
 There are    34 symmetry adapted cartesian basis functions of B   symmetry.
 There are    32 symmetry adapted basis functions of A   symmetry.
 There are    32 symmetry adapted basis functions of B   symmetry.
    64 basis functions,   108 primitive gaussians,    68 cartesian basis functions
     9 alpha electrons        9 beta electrons
       nuclear repulsion energy        36.4378790493 Hartrees.
 NAtoms=    4 NActive=    4 NUniq=    2 SFac= 4.00D+00 NAtFMM=   60 NAOKFM=F Big=F
 Integral buffers will be    131072 words long.
 Raffenetti 1 integral format.
 Two-electron integral symmetry is turned on.
 One-electron integrals computed using PRISM.
 NBasis=    64 RedAO= T EigKep=  1.24D-03  NBF=    32    32
 NBsUse=    64 1.00D-06 EigRej= -1.00D+00 NBFU=    32    32
 Initial guess from the checkpoint file:  "/gscratch/scrubbed/gds001/Gau-30786.chk"
 B after Tr=     0.000000    0.000000   -0.000000
         Rot=    1.000000    0.000000    0.000000   -0.000647 Ang=  -0.07 deg.
 Initial guess orbital symmetries:
       Occupied  (A) (B) (A) (B) (B) (A) (A) (A) (B)
       Virtual   (A) (B) (B) (A) (B) (A) (A) (B) (A) (B) (B) (A)
                 (B) (A) (B) (B) (A) (A) (B) (B) (A) (A) (B) (A)
                 (B) (A) (B) (A) (B) (A) (B) (A) (B) (B) (A) (A)
                 (B) (A) (B) (B) (A) (A) (B) (A) (A) (B) (A) (B)
                 (A) (B) (B) (A) (B) (A) (B)
 ExpMin= 2.97D-02 ExpMax= 1.17D+04 ExpMxC= 4.01D+02 IAcc=3 IRadAn=         5 AccDes= 0.00D+00
 Harris functional with IExCor=  205 and IRadAn=       5 diagonalized for initial guess.
 HarFok:  IExCor=  205 AccDes= 0.00D+00 IRadAn=         5 IDoV= 1 UseB2=F ITyADJ=14
 ICtDFT=  3500011 ScaDFX=  1.000000  1.000000  1.000000  1.000000
 FoFCou: FMM=F IPFlag=           0 FMFlag=      100000 FMFlg1=           0
         NFxFlg=           0 DoJE=T BraDBF=F KetDBF=T FulRan=T
         wScrn=  0.000000 ICntrl=       500 IOpCl=  0 I1Cent=   200000004 NGrid=           0
         NMat0=    1 NMatS0=      1 NMatT0=    0 NMatD0=    1 NMtDS0=    0 NMtDT0=    0
 Petite list used in FoFCou.
 Keep R1 ints in memory in symmetry-blocked form, NReq=7994241.
 Requested convergence on RMS density matrix=1.00D-08 within 128 cycles.
 Requested convergence on MAX density matrix=1.00D-06.
 Requested convergence on             energy=1.00D-06.
 No special actions if energy rises.
 SCF Done:  E(RHF) =  -150.799265495     A.U. after   11 cycles
            NFock= 11  Conv=0.27D-08     -V/T= 2.0021
 ExpMin= 2.97D-02 ExpMax= 1.17D+04 ExpMxC= 4.01D+02 IAcc=3 IRadAn=         5 AccDes= 0.00D+00
 HarFok:  IExCor=  205 AccDes= 0.00D+00 IRadAn=         5 IDoV=-2 UseB2=F ITyADJ=14
 ICtDFT= 12500011 ScaDFX=  1.000000  1.000000  1.000000  1.000000
 Range of M.O.s used for correlation:     3    64
 NBasis=    64 NAE=     9 NBE=     9 NFC=     2 NFV=     0
 NROrb=     62 NOA=     7 NOB=     7 NVA=    55 NVB=    55

 **** Warning!!: The largest alpha MO coefficient is  0.12089360D+02

 Fully direct method using O(ONN) memory.
 JobTyp=1 Pass  1:  I=   3 to   9 NPSUse= 28 ParTrn=T ParDer=T DoDerP=T.
 Spin components of T(2) and E(2):
     alpha-alpha T2 =       0.1549091576D-01 E2=     -0.5407728902D-01
     alpha-beta  T2 =       0.8883698108D-01 E2=     -0.3105928765D+00
     beta-beta   T2 =       0.1549091576D-01 E2=     -0.5407728902D-01
 ANorm=    0.1058214918D+01
 E2 =    -0.4187474546D+00 EUMP2 =    -0.15121801294982D+03
          IDoAtm=1111
          Differentiating once with respect to electric field.
                with respect to dipole field.
          Differentiating once with respect to nuclear coordinates.
 Keep R1 ints in memory in symmetry-blocked form, NReq=7995735.
          There are     1 degrees of freedom in the 1st order CPHF.  IDoFFX=0 NUNeed=     1.
 LinEq1:  Iter=  0 NonCon=     1 RMS=7.85D-03 Max=5.59D-02 NDo=     1
 AX will form     1 AO Fock derivatives at one time.
 LinEq1:  Iter=  1 NonCon=     1 RMS=1.13D-03 Max=7.17D-03 NDo=     1
 LinEq1:  Iter=  2 NonCon=     1 RMS=4.24D-04 Max=2.31D-03 NDo=     1
 LinEq1:  Iter=  3 NonCon=     1 RMS=8.12D-05 Max=5.54D-04 NDo=     1
 LinEq1:  Iter=  4 NonCon=     1 RMS=1.60D-05 Max=1.32D-04 NDo=     1
 LinEq1:  Iter=  5 NonCon=     1 RMS=3.42D-06 Max=2.20D-05 NDo=     1
 LinEq1:  Iter=  6 NonCon=     1 RMS=8.26D-07 Max=5.69D-06 NDo=     1
 LinEq1:  Iter=  7 NonCon=     1 RMS=1.18D-07 Max=7.10D-07 NDo=     1
 LinEq1:  Iter=  8 NonCon=     1 RMS=1.63D-08 Max=1.00D-07 NDo=     1
 LinEq1:  Iter=  9 NonCon=     1 RMS=2.54D-09 Max=1.33D-08 NDo=     1
 LinEq1:  Iter= 10 NonCon=     1 RMS=5.15D-10 Max=2.43D-09 NDo=     1
 LinEq1:  Iter= 11 NonCon=     0 RMS=8.35D-11 Max=3.85D-10 NDo=     1
 Linear equations converged to 1.000D-10 1.000D-09 after    11 iterations.
 End of Minotr F.D. properties file   721 does not exist.
 End of Minotr F.D. properties file   722 does not exist.
 End of Minotr F.D. properties file   788 does not exist.
 Calling FoFJK, ICntrl=  10002127 FMM=F ISym2X=1 I1Cent= 0 IOpClX= 0 NMat=1 NMatS=1 NMatT=0.
 ***** Axes restored to original set *****
 -------------------------------------------------------------------
 Center     Atomic                   Forces (Hartrees/Bohr)
 Number     Number              X              Y              Z
 -------------------------------------------------------------------
      1        8           0.001084630    0.000128982   -0.000437126
      2        8          -0.001047937    0.000035521    0.000533577
      3        1          -0.000400931   -0.000387556    0.000618035
      4        1           0.000364238    0.000223053   -0.000714487
 -------------------------------------------------------------------
 Cartesian Forces:  Max     0.001084630 RMS     0.000588367

 GradGradGradGradGradGradGradGradGradGradGradGradGradGradGradGradGradGrad
 Berny optimization.
 Using GEDIIS/GDIIS optimizer.
 FormGI is forming the generalized inverse of G from B-inverse, IUseBI=4.
 Internal  Forces:  Max     0.000699633 RMS     0.000660767
 Search for a local minimum.
 Step number   3 out of a maximum of   20
 All quantities printed in internal units (Hartrees-Bohrs-Radians)
 Mixed Optimization -- En-DIIS/RFO-DIIS
 Update second derivatives using D2CorX and points    1    2    3
 DE= -2.37D-04 DEPred=-3.01D-04 R= 7.89D-01
 TightC=F SS=  1.41D+00  RLast= 1.42D-01 DXNew= 8.4853D-01 4.2587D-01
 Trust test= 7.89D-01 RLast= 1.42D-01 DXMaxT set to 5.05D-01
 The second derivative matrix:
                          R1        R2        R3        A1        A2
           R1           0.40529
           R2          -0.00081   0.52167
           R3          -0.00081   0.00012   0.52167
           A1           0.03384  -0.00038  -0.00038   0.20273
           A2           0.03384  -0.00038  -0.00038   0.04273   0.20273
           D1           0.00416   0.00122   0.00122   0.00813   0.00813
                          D1
           D1           0.00905
 ITU=  1  1  0
 Use linear search instead of GDIIS.
     Eigenvalues ---    0.00848   0.16000   0.23266   0.41863   0.52155
     Eigenvalues ---    0.52181
 RFO step:  Lambda=-1.93887331D-05 EMin= 8.48048563D-03
 Quartic linear search produced a step of -0.15119.
 Iteration  1 RMS(Cart)=  0.02188125 RMS(Int)=  0.00043601
 Iteration  2 RMS(Cart)=  0.00030613 RMS(Int)=  0.00000002
 Iteration  3 RMS(Cart)=  0.00000003 RMS(Int)=  0.00000000
 ClnCor:  largest displacement from symmetrization is 1.57D-14 for atom     2.
 Variable       Old X    -DE/DX   Delta X   Delta X   Delta X     New X
                                 (Linear)    (Quad)   (Total)
    R1        2.78179  -0.00065   0.00131  -0.00371  -0.00241   2.77938
    R2        1.83504   0.00067   0.00001   0.00114   0.00116   1.83620
    R3        1.83504   0.00067   0.00001   0.00114   0.00116   1.83620
    A1        1.72809   0.00070   0.00388  -0.00259   0.00129   1.72937
    A2        1.72809   0.00070   0.00388  -0.00259   0.00129   1.72937
    D1        1.92052   0.00055   0.02071   0.03601   0.05671   1.97723
         Item               Value     Threshold  Converged?
 Maximum Force            0.000700     0.000450     NO 
 RMS     Force            0.000661     0.000300     NO 
 Maximum Displacement     0.028079     0.001800     NO 
 RMS     Displacement     0.021884     0.001200     NO 
 Predicted change in Energy=-1.891815D-05
 GradGradGradGradGradGradGradGradGradGradGradGradGradGradGradGradGradGrad

                          Input orientation:                          
 ---------------------------------------------------------------------
 Center     Atomic      Atomic             Coordinates (Angstroms)
 Number     Number       Type             X           Y           Z
 ---------------------------------------------------------------------
      1          8           0       -2.031784    2.271301   -0.368393
      2          8           0       -0.598785    2.126273   -0.666202
      3          1           0       -2.182754    1.421032    0.077032
      4          1           0       -0.647188    2.082721   -1.635693
 ---------------------------------------------------------------------
                    Distance matrix (angstroms):
                    1          2          3          4
     1  O    0.000000
     2  O    1.470785   0.000000
     3  H    0.971675   1.886457   0.000000
     4  H    1.886457   0.971675   2.393579   0.000000
 Stoichiometry    H2O2
 Framework group  C2[X(H2O2)]
 Deg. of freedom     4
 Full point group                 C2      NOp   2
 Largest Abelian subgroup         C2      NOp   2
 Largest concise Abelian subgroup C2      NOp   2
                         Standard orientation:                         
 ---------------------------------------------------------------------
 Center     Atomic      Atomic             Coordinates (Angstroms)
 Number     Number       Type             X           Y           Z
 ---------------------------------------------------------------------
      1          8           0        0.000000    0.735393   -0.058619
      2          8           0       -0.000000   -0.735393   -0.058619
      3          1           0        0.801424    0.888833    0.468949
      4          1           0       -0.801424   -0.888833    0.468949
 ---------------------------------------------------------------------
 Rotational constants (GHZ):         296.2373203          25.8681521          25.0346210
 Standard basis: Aug-CC-pVDZ (5D, 7F)
 There are    34 symmetry adapted cartesian basis functions of A   symmetry.
 There are    34 symmetry adapted cartesian basis functions of B   symmetry.
 There are    32 symmetry adapted basis functions of A   symmetry.
 There are    32 symmetry adapted basis functions of B   symmetry.
    64 basis functions,   108 primitive gaussians,    68 cartesian basis functions
     9 alpha electrons        9 beta electrons
       nuclear repulsion energy        36.4496557732 Hartrees.
 NAtoms=    4 NActive=    4 NUniq=    2 SFac= 4.00D+00 NAtFMM=   60 NAOKFM=F Big=F
 Integral buffers will be    131072 words long.
 Raffenetti 1 integral format.
 Two-electron integral symmetry is turned on.
 One-electron integrals computed using PRISM.
 NBasis=    64 RedAO= T EigKep=  1.24D-03  NBF=    32    32
 NBsUse=    64 1.00D-06 EigRej= -1.00D+00 NBFU=    32    32
 Initial guess from the checkpoint file:  "/gscratch/scrubbed/gds001/Gau-30786.chk"
 B after Tr=    -0.000000   -0.000000    0.000000
         Rot=    0.999999   -0.000000   -0.000000    0.001159 Ang=   0.13 deg.
 Initial guess orbital symmetries:
       Occupied  (A) (B) (A) (B) (A) (B) (A) (A) (B)
       Virtual   (A) (B) (B) (A) (B) (A) (A) (B) (A) (B) (B) (A)
                 (B) (A) (B) (B) (A) (A) (B) (B) (A) (A) (A) (B)
                 (B) (A) (B) (A) (B) (B) (A) (A) (B) (B) (A) (A)
                 (B) (A) (B) (B) (A) (A) (B) (A) (A) (B) (A) (B)
                 (A) (B) (B) (A) (B) (A) (B)
 ExpMin= 2.97D-02 ExpMax= 1.17D+04 ExpMxC= 4.01D+02 IAcc=3 IRadAn=         5 AccDes= 0.00D+00
 Harris functional with IExCor=  205 and IRadAn=       5 diagonalized for initial guess.
 HarFok:  IExCor=  205 AccDes= 0.00D+00 IRadAn=         5 IDoV= 1 UseB2=F ITyADJ=14
 ICtDFT=  3500011 ScaDFX=  1.000000  1.000000  1.000000  1.000000
 FoFCou: FMM=F IPFlag=           0 FMFlag=      100000 FMFlg1=           0
         NFxFlg=           0 DoJE=T BraDBF=F KetDBF=T FulRan=T
         wScrn=  0.000000 ICntrl=       500 IOpCl=  0 I1Cent=   200000004 NGrid=           0
         NMat0=    1 NMatS0=      1 NMatT0=    0 NMatD0=    1 NMtDS0=    0 NMtDT0=    0
 Petite list used in FoFCou.
 Keep R1 ints in memory in symmetry-blocked form, NReq=7994241.
 Requested convergence on RMS density matrix=1.00D-08 within 128 cycles.
 Requested convergence on MAX density matrix=1.00D-06.
 Requested convergence on             energy=1.00D-06.
 No special actions if energy rises.
 SCF Done:  E(RHF) =  -150.799383838     A.U. after   10 cycles
            NFock= 10  Conv=0.54D-08     -V/T= 2.0021
 ExpMin= 2.97D-02 ExpMax= 1.17D+04 ExpMxC= 4.01D+02 IAcc=3 IRadAn=         5 AccDes= 0.00D+00
 HarFok:  IExCor=  205 AccDes= 0.00D+00 IRadAn=         5 IDoV=-2 UseB2=F ITyADJ=14
 ICtDFT= 12500011 ScaDFX=  1.000000  1.000000  1.000000  1.000000
 Range of M.O.s used for correlation:     3    64
 NBasis=    64 NAE=     9 NBE=     9 NFC=     2 NFV=     0
 NROrb=     62 NOA=     7 NOB=     7 NVA=    55 NVB=    55

 **** Warning!!: The largest alpha MO coefficient is  0.11823546D+02

 Fully direct method using O(ONN) memory.
 JobTyp=1 Pass  1:  I=   3 to   9 NPSUse= 28 ParTrn=T ParDer=T DoDerP=T.
 Spin components of T(2) and E(2):
     alpha-alpha T2 =       0.1548085090D-01 E2=     -0.5406674283D-01
     alpha-beta  T2 =       0.8876356867D-01 E2=     -0.3105125312D+00
     beta-beta   T2 =       0.1548085090D-01 E2=     -0.5406674283D-01
 ANorm=    0.1058170719D+01
 E2 =    -0.4186460169D+00 EUMP2 =    -0.15121802985492D+03
          IDoAtm=1111
          Differentiating once with respect to electric field.
                with respect to dipole field.
          Differentiating once with respect to nuclear coordinates.
 Keep R1 ints in memory in symmetry-blocked form, NReq=7995735.
          There are     1 degrees of freedom in the 1st order CPHF.  IDoFFX=0 NUNeed=     1.
 LinEq1:  Iter=  0 NonCon=     1 RMS=7.84D-03 Max=5.63D-02 NDo=     1
 AX will form     1 AO Fock derivatives at one time.
 LinEq1:  Iter=  1 NonCon=     1 RMS=1.12D-03 Max=7.24D-03 NDo=     1
 LinEq1:  Iter=  2 NonCon=     1 RMS=4.23D-04 Max=2.33D-03 NDo=     1
 LinEq1:  Iter=  3 NonCon=     1 RMS=8.01D-05 Max=5.50D-04 NDo=     1
 LinEq1:  Iter=  4 NonCon=     1 RMS=1.57D-05 Max=1.28D-04 NDo=     1
 LinEq1:  Iter=  5 NonCon=     1 RMS=3.34D-06 Max=2.16D-05 NDo=     1
 LinEq1:  Iter=  6 NonCon=     1 RMS=8.10D-07 Max=5.53D-06 NDo=     1
 LinEq1:  Iter=  7 NonCon=     1 RMS=1.17D-07 Max=7.04D-07 NDo=     1
 LinEq1:  Iter=  8 NonCon=     1 RMS=1.61D-08 Max=9.39D-08 NDo=     1
 LinEq1:  Iter=  9 NonCon=     1 RMS=2.49D-09 Max=1.29D-08 NDo=     1
 LinEq1:  Iter= 10 NonCon=     1 RMS=5.03D-10 Max=2.30D-09 NDo=     1
 LinEq1:  Iter= 11 NonCon=     0 RMS=8.24D-11 Max=3.90D-10 NDo=     1
 Linear equations converged to 1.000D-10 1.000D-09 after    11 iterations.
 End of Minotr F.D. properties file   721 does not exist.
 End of Minotr F.D. properties file   722 does not exist.
 End of Minotr F.D. properties file   788 does not exist.
 Calling FoFJK, ICntrl=  10002127 FMM=F ISym2X=1 I1Cent= 0 IOpClX= 0 NMat=1 NMatS=1 NMatT=0.
 ***** Axes restored to original set *****
 -------------------------------------------------------------------
 Center     Atomic                   Forces (Hartrees/Bohr)
 Number     Number              X              Y              Z
 -------------------------------------------------------------------
      1        8           0.000202481   -0.000091822    0.000065484
      2        8          -0.000205126    0.000079963   -0.000072437
      3        1          -0.000058738    0.000040949   -0.000033402
      4        1           0.000061383   -0.000029090    0.000040355
 -------------------------------------------------------------------
 Cartesian Forces:  Max     0.000205126 RMS     0.000099967

 GradGradGradGradGradGradGradGradGradGradGradGradGradGradGradGradGradGrad
 Berny optimization.
 Using GEDIIS/GDIIS optimizer.
 FormGI is forming the generalized inverse of G from B-inverse, IUseBI=4.
 Internal  Forces:  Max     0.000138566 RMS     0.000091926
 Search for a local minimum.
 Step number   4 out of a maximum of   20
 All quantities printed in internal units (Hartrees-Bohrs-Radians)
 Mixed Optimization -- En-DIIS/RFO-DIIS
 Swapping is turned off.
 Update second derivatives using D2CorX and points    1    2    3    4
 DE= -1.69D-05 DEPred=-1.89D-05 R= 8.94D-01
 TightC=F SS=  1.41D+00  RLast= 5.68D-02 DXNew= 8.4853D-01 1.7045D-01
 Trust test= 8.94D-01 RLast= 5.68D-02 DXMaxT set to 5.05D-01
 The second derivative matrix:
                          R1        R2        R3        A1        A2
           R1           0.39422
           R2           0.00370   0.52169
           R3           0.00370   0.00014   0.52169
           A1           0.03971  -0.00278  -0.00278   0.20163
           A2           0.03971  -0.00278  -0.00278   0.04163   0.20163
           D1           0.00571   0.00227   0.00227   0.00661   0.00661
                          D1
           D1           0.01042
 ITU=  1  1  1  0
     Eigenvalues ---    0.00999   0.16000   0.22474   0.41290   0.52155
     Eigenvalues ---    0.52211
 En-DIIS/RFO-DIIS/Sim-DIIS IScMMF=       -3 using points:     4    3
 RFO step:  Lambda=-4.44379941D-07.
 DidBck=F Rises=F RFO-DIIS coefs:    0.91269    0.08731
 Iteration  1 RMS(Cart)=  0.00181287 RMS(Int)=  0.00000323
 Iteration  2 RMS(Cart)=  0.00000226 RMS(Int)=  0.00000000
 Iteration  3 RMS(Cart)=  0.00000000 RMS(Int)=  0.00000000
 ClnCor:  largest displacement from symmetrization is 1.05D-12 for atom     2.
 Variable       Old X    -DE/DX   Delta X   Delta X   Delta X     New X
                                 (Linear)    (Quad)   (Total)
    R1        2.77938  -0.00014   0.00021  -0.00062  -0.00041   2.77897
    R2        1.83620  -0.00004  -0.00010   0.00005  -0.00005   1.83615
    R3        1.83620  -0.00004  -0.00010   0.00005  -0.00005   1.83615
    A1        1.72937   0.00011  -0.00011   0.00078   0.00067   1.73004
    A2        1.72937   0.00011  -0.00011   0.00078   0.00067   1.73004
    D1        1.97723  -0.00005  -0.00495  -0.00006  -0.00502   1.97222
         Item               Value     Threshold  Converged?
 Maximum Force            0.000139     0.000450     YES
 RMS     Force            0.000092     0.000300     YES
 Maximum Displacement     0.002196     0.001800     NO 
 RMS     Displacement     0.001813     0.001200     NO 
 Predicted change in Energy=-2.221928D-07
 GradGradGradGradGradGradGradGradGradGradGradGradGradGradGradGradGradGrad

                          Input orientation:                          
 ---------------------------------------------------------------------
 Center     Atomic      Atomic             Coordinates (Angstroms)
 Number     Number       Type             X           Y           Z
 ---------------------------------------------------------------------
      1          8           0       -2.031417    2.271780   -0.367400
      2          8           0       -0.598786    2.127435   -0.666232
      3          1           0       -2.182863    1.420544    0.075956
      4          1           0       -0.647445    2.081567   -1.635578
 ---------------------------------------------------------------------
                    Distance matrix (angstroms):
                    1          2          3          4
     1  O    0.000000
     2  O    1.470567   0.000000
     3  H    0.971649   1.886753   0.000000
     4  H    1.886753   0.971649   2.392448   0.000000
 Stoichiometry    H2O2
 Framework group  C2[X(H2O2)]
 Deg. of freedom     4
 Full point group                 C2      NOp   2
 Largest Abelian subgroup         C2      NOp   2
 Largest concise Abelian subgroup C2      NOp   2
                         Standard orientation:                         
 ---------------------------------------------------------------------
 Center     Atomic      Atomic             Coordinates (Angstroms)
 Number     Number       Type             X           Y           Z
 ---------------------------------------------------------------------
      1          8           0       -0.000000    0.735283   -0.058834
      2          8           0        0.000000   -0.735283   -0.058834
      3          1           0        0.799992    0.889362    0.470671
      4          1           0       -0.799992   -0.889362    0.470671
 ---------------------------------------------------------------------
 Rotational constants (GHZ):         296.3166438          25.8676804          25.0443807
 Standard basis: Aug-CC-pVDZ (5D, 7F)
 There are    34 symmetry adapted cartesian basis functions of A   symmetry.
 There are    34 symmetry adapted cartesian basis functions of B   symmetry.
 There are    32 symmetry adapted basis functions of A   symmetry.
 There are    32 symmetry adapted basis functions of B   symmetry.
    64 basis functions,   108 primitive gaussians,    68 cartesian basis functions
     9 alpha electrons        9 beta electrons
       nuclear repulsion energy        36.4527073063 Hartrees.
 NAtoms=    4 NActive=    4 NUniq=    2 SFac= 4.00D+00 NAtFMM=   60 NAOKFM=F Big=F
 Integral buffers will be    131072 words long.
 Raffenetti 1 integral format.
 Two-electron integral symmetry is turned on.
 One-electron integrals computed using PRISM.
 NBasis=    64 RedAO= T EigKep=  1.24D-03  NBF=    32    32
 NBsUse=    64 1.00D-06 EigRej= -1.00D+00 NBFU=    32    32
 Initial guess from the checkpoint file:  "/gscratch/scrubbed/gds001/Gau-30786.chk"
 B after Tr=     0.000000   -0.000000    0.000000
         Rot=    1.000000   -0.000000   -0.000000   -0.000147 Ang=  -0.02 deg.
 Initial guess orbital symmetries:
       Occupied  (A) (B) (A) (B) (B) (A) (A) (A) (B)
       Virtual   (A) (B) (B) (A) (B) (A) (A) (B) (A) (B) (B) (A)
                 (B) (A) (B) (B) (A) (A) (B) (B) (A) (A) (A) (B)
                 (B) (A) (B) (A) (B) (B) (A) (A) (B) (B) (A) (A)
                 (B) (A) (B) (B) (A) (A) (B) (A) (A) (B) (A) (B)
                 (A) (B) (B) (A) (B) (A) (B)
 Keep R1 ints in memory in symmetry-blocked form, NReq=7994241.
 Requested convergence on RMS density matrix=1.00D-08 within 128 cycles.
 Requested convergence on MAX density matrix=1.00D-06.
 Requested convergence on             energy=1.00D-06.
 No special actions if energy rises.
 SCF Done:  E(RHF) =  -150.799409063     A.U. after    9 cycles
            NFock=  9  Conv=0.36D-08     -V/T= 2.0021
 ExpMin= 2.97D-02 ExpMax= 1.17D+04 ExpMxC= 4.01D+02 IAcc=3 IRadAn=         5 AccDes= 0.00D+00
 HarFok:  IExCor=  205 AccDes= 0.00D+00 IRadAn=         5 IDoV=-2 UseB2=F ITyADJ=14
 ICtDFT= 12500011 ScaDFX=  1.000000  1.000000  1.000000  1.000000
 Range of M.O.s used for correlation:     3    64
 NBasis=    64 NAE=     9 NBE=     9 NFC=     2 NFV=     0
 NROrb=     62 NOA=     7 NOB=     7 NVA=    55 NVB=    55

 **** Warning!!: The largest alpha MO coefficient is  0.11857508D+02

 Fully direct method using O(ONN) memory.
 JobTyp=1 Pass  1:  I=   3 to   9 NPSUse= 28 ParTrn=T ParDer=T DoDerP=T.
 Spin components of T(2) and E(2):
     alpha-alpha T2 =       0.1547862669D-01 E2=     -0.5406399182D-01
     alpha-beta  T2 =       0.8874608863D-01 E2=     -0.3104930948D+00
     beta-beta   T2 =       0.1547862669D-01 E2=     -0.5406399182D-01
 ANorm=    0.1058160357D+01
 E2 =    -0.4186210784D+00 EUMP2 =    -0.15121803014180D+03
          IDoAtm=1111
          Differentiating once with respect to electric field.
                with respect to dipole field.
          Differentiating once with respect to nuclear coordinates.
 Keep R1 ints in memory in symmetry-blocked form, NReq=7995735.
          There are     1 degrees of freedom in the 1st order CPHF.  IDoFFX=0 NUNeed=     1.
 LinEq1:  Iter=  0 NonCon=     1 RMS=7.84D-03 Max=5.62D-02 NDo=     1
 AX will form     1 AO Fock derivatives at one time.
 LinEq1:  Iter=  1 NonCon=     1 RMS=1.12D-03 Max=7.23D-03 NDo=     1
 LinEq1:  Iter=  2 NonCon=     1 RMS=4.23D-04 Max=2.33D-03 NDo=     1
 LinEq1:  Iter=  3 NonCon=     1 RMS=8.01D-05 Max=5.49D-04 NDo=     1
 LinEq1:  Iter=  4 NonCon=     1 RMS=1.57D-05 Max=1.29D-04 NDo=     1
 LinEq1:  Iter=  5 NonCon=     1 RMS=3.35D-06 Max=2.16D-05 NDo=     1
 LinEq1:  Iter=  6 NonCon=     1 RMS=8.11D-07 Max=5.54D-06 NDo=     1
 LinEq1:  Iter=  7 NonCon=     1 RMS=1.17D-07 Max=7.03D-07 NDo=     1
 LinEq1:  Iter=  8 NonCon=     1 RMS=1.61D-08 Max=9.41D-08 NDo=     1
 LinEq1:  Iter=  9 NonCon=     1 RMS=2.49D-09 Max=1.29D-08 NDo=     1
 LinEq1:  Iter= 10 NonCon=     1 RMS=5.03D-10 Max=2.31D-09 NDo=     1
 LinEq1:  Iter= 11 NonCon=     0 RMS=8.24D-11 Max=3.89D-10 NDo=     1
 Linear equations converged to 1.000D-10 1.000D-09 after    11 iterations.
 End of Minotr F.D. properties file   721 does not exist.
 End of Minotr F.D. properties file   722 does not exist.
 End of Minotr F.D. properties file   788 does not exist.
 Calling FoFJK, ICntrl=  10002127 FMM=F ISym2X=1 I1Cent= 0 IOpClX= 0 NMat=1 NMatS=1 NMatT=0.
 ***** Axes restored to original set *****
 -------------------------------------------------------------------
 Center     Atomic                   Forces (Hartrees/Bohr)
 Number     Number              X              Y              Z
 -------------------------------------------------------------------
      1        8           0.000134396   -0.000032880   -0.000003826
      2        8          -0.000136044    0.000025495   -0.000000504
      3        1          -0.000012641    0.000012421   -0.000007599
      4        1           0.000014288   -0.000005035    0.000011929
 -------------------------------------------------------------------
 Cartesian Forces:  Max     0.000136044 RMS     0.000057052

 GradGradGradGradGradGradGradGradGradGradGradGradGradGradGradGradGradGrad
 Berny optimization.
 Using GEDIIS/GDIIS optimizer.
 FormGI is forming the generalized inverse of G from B-inverse, IUseBI=4.
 Internal  Forces:  Max     0.000122947 RMS     0.000052963
 Search for a local minimum.
 Step number   5 out of a maximum of   20
 All quantities printed in internal units (Hartrees-Bohrs-Radians)
 Mixed Optimization -- En-DIIS/RFO-DIIS
 Swapping is turned off.
 Update second derivatives using D2CorX and points    1    2    3    4    5
 DE= -2.87D-07 DEPred=-2.22D-07 R= 1.29D+00
 Trust test= 1.29D+00 RLast= 5.12D-03 DXMaxT set to 5.05D-01
 The second derivative matrix:
                          R1        R2        R3        A1        A2
           R1           0.33769
           R2          -0.00438   0.51985
           R3          -0.00438  -0.00170   0.51985
           A1           0.07180   0.00023   0.00023   0.19698
           A2           0.07180   0.00023   0.00023   0.03698   0.19698
           D1          -0.00542   0.00130   0.00130   0.00784   0.00784
                          D1
           D1           0.01012
 ITU=  0  1  1  1  0
     Eigenvalues ---    0.00918   0.16000   0.17268   0.39964   0.51841
     Eigenvalues ---    0.52155
 En-DIIS/RFO-DIIS/Sim-DIIS IScMMF=       -3 using points:     5    4    3
 RFO step:  Lambda=-9.46840371D-08.
 DidBck=F Rises=F RFO-DIIS coefs:    1.58234   -0.55847   -0.02387
 Iteration  1 RMS(Cart)=  0.00058832 RMS(Int)=  0.00000032
 Iteration  2 RMS(Cart)=  0.00000023 RMS(Int)=  0.00000000
 ClnCor:  largest displacement from symmetrization is 4.01D-14 for atom     4.
 Variable       Old X    -DE/DX   Delta X   Delta X   Delta X     New X
                                 (Linear)    (Quad)   (Total)
    R1        2.77897  -0.00012  -0.00030  -0.00026  -0.00056   2.77841
    R2        1.83615  -0.00001  -0.00000  -0.00003  -0.00003   1.83612
    R3        1.83615  -0.00001  -0.00000  -0.00003  -0.00003   1.83612
    A1        1.73004   0.00003   0.00042  -0.00009   0.00033   1.73038
    A2        1.73004   0.00003   0.00042  -0.00009   0.00033   1.73038
    D1        1.97222  -0.00001  -0.00157  -0.00000  -0.00157   1.97065
         Item               Value     Threshold  Converged?
 Maximum Force            0.000123     0.000450     YES
 RMS     Force            0.000053     0.000300     YES
 Maximum Displacement     0.000704     0.001800     YES
 RMS     Displacement     0.000588     0.001200     YES
 Predicted change in Energy=-4.716581D-08
 Optimization completed.
    -- Stationary point found.
                           ----------------------------
                           !   Optimized Parameters   !
                           ! (Angstroms and Degrees)  !
 --------------------------                            --------------------------
 ! Name  Definition              Value          Derivative Info.                !
 --------------------------------------------------------------------------------
 ! R1    R(1,2)                  1.4706         -DE/DX =   -0.0001              !
 ! R2    R(1,3)                  0.9716         -DE/DX =    0.0                 !
 ! R3    R(2,4)                  0.9716         -DE/DX =    0.0                 !
 ! A1    A(2,1,3)               99.1242         -DE/DX =    0.0                 !
 ! A2    A(1,2,4)               99.1242         -DE/DX =    0.0                 !
 ! D1    D(3,1,2,4)            112.9998         -DE/DX =    0.0                 !
 --------------------------------------------------------------------------------
 GradGradGradGradGradGradGradGradGradGradGradGradGradGradGradGradGradGrad

                          Input orientation:                          
 ---------------------------------------------------------------------
 Center     Atomic      Atomic             Coordinates (Angstroms)
 Number     Number       Type             X           Y           Z
 ---------------------------------------------------------------------
      1          8           0       -2.031417    2.271780   -0.367400
      2          8           0       -0.598786    2.127435   -0.666232
      3          1           0       -2.182863    1.420544    0.075956
      4          1           0       -0.647445    2.081567   -1.635578
 ---------------------------------------------------------------------
                    Distance matrix (angstroms):
                    1          2          3          4
     1  O    0.000000
     2  O    1.470567   0.000000
     3  H    0.971649   1.886753   0.000000
     4  H    1.886753   0.971649   2.392448   0.000000
 Stoichiometry    H2O2
 Framework group  C2[X(H2O2)]
 Deg. of freedom     4
 Full point group                 C2      NOp   2
 Largest Abelian subgroup         C2      NOp   2
 Largest concise Abelian subgroup C2      NOp   2
                         Standard orientation:                         
 ---------------------------------------------------------------------
 Center     Atomic      Atomic             Coordinates (Angstroms)
 Number     Number       Type             X           Y           Z
 ---------------------------------------------------------------------
      1          8           0        0.000000    0.735283   -0.058834
      2          8           0       -0.000000   -0.735283   -0.058834
      3          1           0        0.799992    0.889362    0.470671
      4          1           0       -0.799992   -0.889362    0.470671
 ---------------------------------------------------------------------
 Rotational constants (GHZ):         296.3166438          25.8676804          25.0443807

 **********************************************************************

            Population analysis using the SCF density.

 **********************************************************************

 Orbital symmetries:
       Occupied  (A) (B) (A) (B) (B) (A) (A) (A) (B)
       Virtual   (A) (B) (B) (A) (B) (A) (A) (B) (A) (B) (B) (A)
                 (B) (A) (B) (B) (A) (A) (B) (B) (A) (A) (A) (B)
                 (B) (A) (B) (A) (B) (B) (A) (A) (B) (B) (A) (A)
                 (B) (A) (B) (B) (A) (A) (B) (A) (A) (B) (A) (B)
                 (A) (B) (B) (A) (B) (A) (B)
 The electronic state is 1-A.
 Alpha  occ. eigenvalues --  -20.64492 -20.64465  -1.47301  -1.22161  -0.71092
 Alpha  occ. eigenvalues --   -0.70961  -0.60644  -0.52252  -0.49076
 Alpha virt. eigenvalues --    0.03902   0.04958   0.13223   0.16856   0.19787
 Alpha virt. eigenvalues --    0.21379   0.23046   0.23408   0.24234   0.27764
 Alpha virt. eigenvalues --    0.30441   0.35211   0.41967   0.42693   0.45490
 Alpha virt. eigenvalues --    0.47904   0.49922   0.63076   0.65267   0.84288
 Alpha virt. eigenvalues --    0.88449   1.05190   1.06560   1.07184   1.14089
 Alpha virt. eigenvalues --    1.18406   1.23261   1.28433   1.30794   1.43177
 Alpha virt. eigenvalues --    1.43663   1.50999   1.54131   1.69081   1.76762
 Alpha virt. eigenvalues --    2.04615   2.06814   2.10884   2.18605   2.28013
 Alpha virt. eigenvalues --    2.37684   2.53939   2.70389   2.85035   3.41013
 Alpha virt. eigenvalues --    3.54569   3.55079   3.63712   3.66607   3.66931
 Alpha virt. eigenvalues --    3.76411   3.77320   4.04424   4.11579   4.30174
          Condensed to atoms (all electrons):
               1          2          3          4
     1  O    8.015116  -0.006876   0.324400  -0.074430
     2  O   -0.006876   8.015116  -0.074430   0.324400
     3  H    0.324400  -0.074430   0.490125   0.001696
     4  H   -0.074430   0.324400   0.001696   0.490125
 Mulliken charges:
               1
     1  O   -0.258210
     2  O   -0.258210
     3  H    0.258210
     4  H    0.258210
 Sum of Mulliken charges =  -0.00000
 Mulliken charges with hydrogens summed into heavy atoms:
               1
     1  O   -0.000000
     2  O   -0.000000
 Electronic spatial extent (au):  <R**2>=             67.2513
 Charge=              0.0000 electrons
 Dipole moment (field-independent basis, Debye):
    X=             -0.0000    Y=              0.0000    Z=              1.8936  Tot=              1.8936
 Quadrupole moment (field-independent basis, Debye-Ang):
   XX=             -9.5341   YY=            -11.4793   ZZ=            -11.7524
   XY=              3.0558   XZ=              0.0000   YZ=             -0.0000
 Traceless Quadrupole moment (field-independent basis, Debye-Ang):
   XX=              1.3879   YY=             -0.5574   ZZ=             -0.8305
   XY=              3.0558   XZ=              0.0000   YZ=             -0.0000
 Octapole moment (field-independent basis, Debye-Ang**2):
  XXX=              0.0000  YYY=              0.0000  ZZZ=              1.2003  XYY=             -0.0000
  XXY=              0.0000  XXZ=              1.6310  XZZ=              0.0000  YZZ=              0.0000
  YYZ=              1.9958  XYZ=              1.8335
 Hexadecapole moment (field-independent basis, Debye-Ang**3):
 XXXX=            -10.2126 YYYY=            -46.4002 ZZZZ=            -11.0946 XXXY=              0.5125
 XXXZ=              0.0000 YYYX=              1.2588 YYYZ=             -0.0000 ZZZX=              0.0000
 ZZZY=              0.0000 XXYY=             -8.6334 XXZZ=             -3.1821 YYZZ=            -10.2276
 XXYZ=              0.0000 YYXZ=              0.0000 ZZXY=              0.1585
 N-N= 3.645270730626D+01 E-N=-4.309461613783D+02  KE= 1.504908112217D+02
 Symmetry A    KE= 7.698458867320D+01
 Symmetry B    KE= 7.350622254853D+01
 1\1\GINC-N2209\FOpt\RMP2-FC\Aug-CC-pVDZ\H2O2\GDS001\07-Dec-2021\0\\# M
 P2/aug-cc-pVDZ opt freq=(vibrot,anharmonic)\\hydrogen peroxide\\0,1\O,
 -2.0314171031,2.2717803312,-0.3673998989\O,-0.5987864109,2.1274351484,
 -0.6662324919\H,-2.182863124,1.4205443682,0.0759555995\H,-0.647444752,
 2.0815672318,-1.63557823\\Version=ES64L-G16RevA.03\State=1-A\HF=-150.7
 994091\MP2=-151.2180301\RMSD=3.610e-09\RMSF=5.705e-05\Dipole=-0.131293
 9,-0.5886142,-0.3451165\PG=C02 [X(H2O2)]\\@


 FESTINA LENTE!
     - IMPERATOR AUGUSTUS 
 Job cpu time:       0 days  0 hours  4 minutes  7.6 seconds.
 Elapsed time:       0 days  0 hours  0 minutes 11.4 seconds.
 File lengths (MBytes):  RWF=     72 Int=      0 D2E=      0 Chk=      8 Scr=      8
 Normal termination of Gaussian 16 at Tue Dec  7 15:22:40 2021.
 Link1:  Proceeding to internal job step number  2.
 ----------------------------------------------------------------------
 #N Geom=AllCheck Guess=TCheck SCRF=Check GenChk RMP2(FC)/Aug-CC-pVDZ F
 req
 ----------------------------------------------------------------------
 1/10=4,29=7,30=1,38=21,40=1,80=1/1,6,3;
 2/12=2,40=1/2;
 3/5=16,7=10,11=1,14=-4,25=1,30=1,70=2,71=2,116=1,140=1/1,2,3;
 4/5=101,69=2/1;
 5/5=2,38=6,98=1/2;
 8/6=3,8=1,10=1,19=11,30=-1/1;
 9/15=3,16=-3/6;
 11/6=1,8=1,15=11,17=12,24=-1,27=1,28=-2,29=300,32=6,42=3/1,2,10;
 10/6=2,21=1,60=-2/2;
 8/6=4,8=1,10=1,19=11,30=-1/11,4;
 10/5=1,20=4,60=-2/2;
 11/12=2,14=11,16=1,17=2,28=-2,42=3/2,10,12;
 6/7=2,8=2,9=2,10=2,22=-1/1;
 7/10=1,12=2,25=1,44=2,70=1,71=2/1,2,3,16;
 1/38=20,80=1/6(3);
 7/8=1,25=202,44=-1,70=1,71=1,92=10/16,17;
 1/10=4,30=1,38=20,80=1/3;
 99//99;
 3/5=16,7=10,11=1,14=-2,25=1,30=1,70=5,71=2,116=1,140=1/1,2,3;
 4/5=5,16=3,69=2/1;
 5/5=2,38=5,98=1/2;
 8/6=3,8=1,10=1,19=11,30=-1/1;
 9/15=3,16=-3/6;
 11/6=1,8=1,15=11,17=12,24=-1,27=1,28=-2,29=300,32=6,42=3/1,2,10;
 10/6=2,21=1,60=-2/2;
 8/6=4,8=1,10=1,19=11,30=-1/11,4;
 10/5=1,20=4,60=-2/2;
 11/12=2,14=11,16=1,17=2,28=-2,42=3/2,10,12;
 6/7=2,8=2,9=2,10=2,22=-1/1;
 7/7=1,10=1,12=2,25=1,44=2,70=1,71=1/1,2,3,16;
 1/38=20,80=1/6(-12);
 7/8=1,25=202,44=-1,70=1,71=1,92=10/16,17;
 1/10=4,30=1,38=20,80=1/3;
 99//99;
 Structure from the checkpoint file:  "/gscratch/scrubbed/gds001/Gau-30786.chk"
 -----------------
 hydrogen peroxide
 -----------------
 Charge =  0 Multiplicity = 1
 Redundant internal coordinates found in file.  (old form).
 O,0,-2.0314171031,2.2717803312,-0.3673998989
 O,0,-0.5987864109,2.1274351484,-0.6662324919
 H,0,-2.182863124,1.4205443682,0.0759555995
 H,0,-0.647444752,2.0815672318,-1.63557823
 Recover connectivity data from disk.
 Numerical evaluation of third derivatives.
 Nuclear step= 0.010000 Angstroms, electric field step= 0.000333 atomic units, NStep=1.

 GradGradGradGradGradGradGradGradGradGradGradGradGradGradGradGradGradGrad
 Berny optimization.
 Initialization pass.
                           ----------------------------
                           !    Initial Parameters    !
                           ! (Angstroms and Degrees)  !
 --------------------------                            --------------------------
 ! Name  Definition              Value          Derivative Info.                !
 --------------------------------------------------------------------------------
 ! R1    R(1,2)                  1.4706         calculate D2E/DX2 analytically  !
 ! R2    R(1,3)                  0.9716         calculate D2E/DX2 analytically  !
 ! R3    R(2,4)                  0.9716         calculate D2E/DX2 analytically  !
 ! A1    A(2,1,3)               99.1242         calculate D2E/DX2 analytically  !
 ! A2    A(1,2,4)               99.1242         calculate D2E/DX2 analytically  !
 ! D1    D(3,1,2,4)            112.9998         calculate D2E/DX2 analytically  !
 --------------------------------------------------------------------------------
 Trust Radius=3.00D-01 FncErr=1.00D-07 GrdErr=1.00D-07 EigMax=2.50D+02 EigMin=1.00D-04
 Number of steps in this run=      2 maximum allowed number of steps=      2.
 GradGradGradGradGradGradGradGradGradGradGradGradGradGradGradGradGradGrad

                          Input orientation:                          
 ---------------------------------------------------------------------
 Center     Atomic      Atomic             Coordinates (Angstroms)
 Number     Number       Type             X           Y           Z
 ---------------------------------------------------------------------
      1          8           0       -2.031417    2.271780   -0.367400
      2          8           0       -0.598786    2.127435   -0.666232
      3          1           0       -2.182863    1.420544    0.075956
      4          1           0       -0.647445    2.081567   -1.635578
 ---------------------------------------------------------------------
                    Distance matrix (angstroms):
                    1          2          3          4
     1  O    0.000000
     2  O    1.470567   0.000000
     3  H    0.971649   1.886753   0.000000
     4  H    1.886753   0.971649   2.392448   0.000000
 Stoichiometry    H2O2
 Framework group  C2[X(H2O2)]
 Deg. of freedom     4
 Full point group                 C2      NOp   2
 Largest Abelian subgroup         C2      NOp   2
 Largest concise Abelian subgroup C2      NOp   2
                         Standard orientation:                         
 ---------------------------------------------------------------------
 Center     Atomic      Atomic             Coordinates (Angstroms)
 Number     Number       Type             X           Y           Z
 ---------------------------------------------------------------------
      1          8           0        0.000000    0.735283   -0.058834
      2          8           0       -0.000000   -0.735283   -0.058834
      3          1           0        0.799992    0.889362    0.470671
      4          1           0       -0.799992   -0.889362    0.470671
 ---------------------------------------------------------------------
 Rotational constants (GHZ):         296.3166438          25.8676804          25.0443807
 Standard basis: Aug-CC-pVDZ (5D, 7F)
 There are    34 symmetry adapted cartesian basis functions of A   symmetry.
 There are    34 symmetry adapted cartesian basis functions of B   symmetry.
 There are    32 symmetry adapted basis functions of A   symmetry.
 There are    32 symmetry adapted basis functions of B   symmetry.
    64 basis functions,   108 primitive gaussians,    68 cartesian basis functions
     9 alpha electrons        9 beta electrons
       nuclear repulsion energy        36.4527073063 Hartrees.
 NAtoms=    4 NActive=    4 NUniq=    2 SFac= 4.00D+00 NAtFMM=   60 NAOKFM=F Big=F
 Integral buffers will be    131072 words long.
 Raffenetti 1 integral format.
 Two-electron integral symmetry is turned on.
 One-electron integrals computed using PRISM.
 NBasis=    64 RedAO= T EigKep=  1.24D-03  NBF=    32    32
 NBsUse=    64 1.00D-06 EigRej= -1.00D+00 NBFU=    32    32
 Initial guess from the checkpoint file:  "/gscratch/scrubbed/gds001/Gau-30786.chk"
 B after Tr=    -0.000000    0.000000   -0.000000
         Rot=    1.000000    0.000000    0.000000    0.000000 Ang=   0.00 deg.
 Initial guess orbital symmetries:
       Occupied  (A) (B) (A) (B) (B) (A) (A) (A) (B)
       Virtual   (A) (B) (B) (A) (B) (A) (A) (B) (A) (B) (B) (A)
                 (B) (A) (B) (B) (A) (A) (B) (B) (A) (A) (A) (B)
                 (B) (A) (B) (A) (B) (B) (A) (A) (B) (B) (A) (A)
                 (B) (A) (B) (B) (A) (A) (B) (A) (A) (B) (A) (B)
                 (A) (B) (B) (A) (B) (A) (B)
 Keep R1 ints in memory in symmetry-blocked form, NReq=7994241.
 Requested convergence on RMS density matrix=1.00D-08 within 128 cycles.
 Requested convergence on MAX density matrix=1.00D-06.
 Requested convergence on             energy=1.00D-06.
 No special actions if energy rises.
 SCF Done:  E(RHF) =  -150.799409063     A.U. after    1 cycles
            NFock=  1  Conv=0.23D-09     -V/T= 2.0021
 ExpMin= 2.97D-02 ExpMax= 1.17D+04 ExpMxC= 4.01D+02 IAcc=3 IRadAn=         5 AccDes= 0.00D+00
 HarFok:  IExCor=  205 AccDes= 0.00D+00 IRadAn=         5 IDoV=-2 UseB2=F ITyADJ=14
 ICtDFT= 12500011 ScaDFX=  1.000000  1.000000  1.000000  1.000000
 Range of M.O.s used for correlation:     3    64
 NBasis=    64 NAE=     9 NBE=     9 NFC=     2 NFV=     0
 NROrb=     62 NOA=     7 NOB=     7 NVA=    55 NVB=    55

 **** Warning!!: The largest alpha MO coefficient is  0.11857508D+02

 Disk-based method using ON**2 memory for  7 occupieds at a time.
 Permanent disk used for amplitudes=      298485 words.
 Estimated scratch disk usage=     2185216 words.
 Actual    scratch disk usage=     2185216 words.
 JobTyp=1 Pass  1:  I=   3 to   9 NPSUse= 28 ParTrn=T ParDer=T DoDerP=T.
 (rs|ai) integrals will be sorted in core.
 Spin components of T(2) and E(2):
     alpha-alpha T2 =       0.1547862668D-01 E2=     -0.5406399181D-01
     alpha-beta  T2 =       0.8874608854D-01 E2=     -0.3104930947D+00
     beta-beta   T2 =       0.1547862668D-01 E2=     -0.5406399181D-01
 ANorm=    0.1058160357D+01
 E2 =    -0.4186210783D+00 EUMP2 =    -0.15121803014167D+03
 G2DrvN: will do     5 centers at a time, making    1 passes.
 Calling FoFCou, ICntrl=  3107 FMM=F I1Cent=   0 AccDes= 0.00D+00.
 End of G2Drv F.D. properties file   721 does not exist.
 End of G2Drv F.D. properties file   722 does not exist.
 End of G2Drv F.D. properties file   788 does not exist.
          IDoAtm=1111
          Differentiating once with respect to electric field.
                with respect to dipole field.
          Differentiating once with respect to nuclear coordinates.
 Keep R1 ints in memory in symmetry-blocked form, NReq=7994943.
          There are    15 degrees of freedom in the 1st order CPHF.  IDoFFX=6 NUNeed=    15.
     12 vectors produced by pass  0 Test12= 3.30D-15 6.67D-09 XBig12= 4.20D+00 8.91D-01.
 AX will form    12 AO Fock derivatives at one time.
     12 vectors produced by pass  1 Test12= 3.30D-15 6.67D-09 XBig12= 3.16D-01 1.10D-01.
     12 vectors produced by pass  2 Test12= 3.30D-15 6.67D-09 XBig12= 1.23D-02 3.99D-02.
     12 vectors produced by pass  3 Test12= 3.30D-15 6.67D-09 XBig12= 1.29D-04 2.57D-03.
     12 vectors produced by pass  4 Test12= 3.30D-15 6.67D-09 XBig12= 1.14D-06 3.02D-04.
     12 vectors produced by pass  5 Test12= 3.30D-15 6.67D-09 XBig12= 8.55D-09 2.82D-05.
     12 vectors produced by pass  6 Test12= 3.30D-15 6.67D-09 XBig12= 5.73D-11 1.94D-06.
      3 vectors produced by pass  7 Test12= 3.30D-15 6.67D-09 XBig12= 2.51D-13 1.06D-07.
      2 vectors produced by pass  8 Test12= 3.30D-15 6.67D-09 XBig12= 1.61D-15 1.06D-08.
 InvSVY:  IOpt=1 It=  1 EMax= 1.44D-15
 Solved reduced A of dimension    89 with    12 vectors.
 End of Minotr F.D. properties file   721 does not exist.
 End of Minotr F.D. properties file   722 does not exist.
 End of Minotr F.D. properties file   788 does not exist.
 MDV=  5502926848.
 Form MO integral derivatives with frozen-active canonical formalism.
 Discarding MO integrals.
 Reordered first order wavefunction length =       490050
 In DefCFB: NBatch=  1 ICI=  9 ICA= 55 LFMax= 55
            Large arrays: LIAPS=     8616960 LIARS=     5890500 words.
 Semi-Direct transformation.
 ModeAB=           4 MOrb=             9 LenV=    5502677797
 LASXX=      1052046 LTotXX=     1052046 LenRXX=     2152971
 LTotAB=     1100925 MaxLAS=      737280 LenRXY=           0
 NonZer=     3205017 LenScr=     5242880 LnRSAI=      737280
 LnScr1=     1572864 LExtra=           0 Total=      9705995
 MaxDsk=          -1 SrtSym=           T ITran=            4
 JobTyp=0 Pass  1:  I=   1 to   9.
 (rs|ai) integrals will be sorted in core.
 Spin components of T(2) and E(2):
     alpha-alpha T2 =       0.1547862668D-01 E2=     -0.5406399181D-01
     alpha-beta  T2 =       0.8874608854D-01 E2=     -0.3104930947D+00
[...]


 GradGradGradGradGradGradGradGradGradGradGradGradGradGradGradGradGradGrad
 Berny optimization.
 Internal  Forces:  Max     0.000122946 RMS     0.000052963
 Search for a local minimum.
 Step number   1 out of a maximum of    2
 All quantities printed in internal units (Hartrees-Bohrs-Radians)
 Second derivative matrix not updated -- analytic derivatives used.
 The second derivative matrix:
                          R1        R2        R3        A1        A2
           R1           0.27969
           R2          -0.01067   0.50890
           R3          -0.01067  -0.00059   0.50890
           A1           0.07232  -0.00105   0.00067   0.21759
           A2           0.07232   0.00067  -0.00105   0.01783   0.21759
           D1          -0.00035   0.00181   0.00181   0.00803   0.00803
                          D1
           D1           0.00977
 ITU=  0
     Eigenvalues ---    0.00906   0.15324   0.19975   0.36136   0.50950
     Eigenvalues ---    0.50953
 Angle between quadratic step and forces=  59.14 degrees.
 Linear search not attempted -- first point.
 Iteration  1 RMS(Cart)=  0.00053162 RMS(Int)=  0.00000026
 Iteration  2 RMS(Cart)=  0.00000019 RMS(Int)=  0.00000000
 ClnCor:  largest displacement from symmetrization is 1.47D-14 for atom     2.
 Variable       Old X    -DE/DX   Delta X   Delta X   Delta X     New X
                                 (Linear)    (Quad)   (Total)
    R1        2.77897  -0.00012   0.00000  -0.00062  -0.00062   2.77834
    R2        1.83615  -0.00001   0.00000  -0.00003  -0.00003   1.83612
    R3        1.83615  -0.00001   0.00000  -0.00003  -0.00003   1.83612
    A1        1.73004   0.00003   0.00000   0.00035   0.00035   1.73039
    A2        1.73004   0.00003   0.00000   0.00035   0.00035   1.73039
    D1        1.97222  -0.00001   0.00000  -0.00139  -0.00139   1.97083
         Item               Value     Threshold  Converged?
 Maximum Force            0.000123     0.000450     YES
 RMS     Force            0.000053     0.000300     YES
 Maximum Displacement     0.000633     0.001800     YES
 RMS     Displacement     0.000532     0.001200     YES
 Predicted change in Energy=-5.332205D-08
 Optimization completed.
    -- Stationary point found.
                           ----------------------------
                           !   Optimized Parameters   !
                           ! (Angstroms and Degrees)  !
 --------------------------                            --------------------------
 ! Name  Definition              Value          Derivative Info.                !
 --------------------------------------------------------------------------------
 ! R1    R(1,2)                  1.4706         -DE/DX =   -0.0001              !
 ! R2    R(1,3)                  0.9716         -DE/DX =    0.0                 !
 ! R3    R(2,4)                  0.9716         -DE/DX =    0.0                 !
 ! A1    A(2,1,3)               99.1242         -DE/DX =    0.0                 !
 ! A2    A(1,2,4)               99.1242         -DE/DX =    0.0                 !
 ! D1    D(3,1,2,4)            112.9998         -DE/DX =    0.0                 !
 --------------------------------------------------------------------------------
 GradGradGradGradGradGradGradGradGradGradGradGradGradGradGradGradGradGrad


 ----------------------------------------------------------------------

 Electric dipole moment (input orientation):
 (Debye = 10**-18 statcoulomb cm , SI units = C m)
                  (au)            (Debye)         (10**-30 SI)
   Tot        0.694845D+00      0.176612D+01      0.589114D+01
   x         -0.131294D+00     -0.333716D+00     -0.111316D+01
   y         -0.588614D+00     -0.149611D+01     -0.499048D+01
   z         -0.345116D+00     -0.877199D+00     -0.292602D+01

 Dipole polarizability, Alpha (input orientation).
 (esu units = cm**3 , SI units = C**2 m**2 J**-1)
 Alpha(0;0):
               (au)            (10**-24 esu)      (10**-40 SI)
   iso        0.147483D+02      0.218547D+01      0.243167D+01
   aniso      0.588497D+01      0.872063D+00      0.970300D+00
   xx         0.175808D+02      0.260521D+01      0.289868D+01
   yx         0.151796D+00      0.224938D-01      0.250277D-01
   yy         0.126624D+02      0.187637D+01      0.208775D+01
   zx        -0.220977D+01     -0.327454D+00     -0.364341D+00
   zy        -0.415261D+00     -0.615354D-01     -0.684674D-01
   zz         0.140017D+02      0.207484D+01      0.230857D+01

 ----------------------------------------------------------------------

 Dipole orientation:
     8         -4.07518713         -3.23337507         -2.56650280
     8         -1.29661332         -3.28022677         -2.56650280
     1         -4.34082543         -1.71691596         -1.56588307
     1         -1.03097503         -4.79668589         -1.56588307

 Electric dipole moment (dipole orientation):
 (Debye = 10**-18 statcoulomb cm , SI units = C m)
                  (au)            (Debye)         (10**-30 SI)
   Tot        0.694845D+00      0.176612D+01      0.589114D+01
   x          0.000000D+00      0.000000D+00      0.000000D+00
   y          0.000000D+00      0.000000D+00      0.000000D+00
   z          0.694845D+00      0.176612D+01      0.589114D+01

 Dipole polarizability, Alpha (dipole orientation).
 (esu units = cm**3 , SI units = C**2 m**2 J**-1)
 Alpha(0;0):
               (au)            (10**-24 esu)      (10**-40 SI)
   iso        0.147483D+02      0.218547D+01      0.243167D+01
   aniso      0.588497D+01      0.872063D+00      0.970300D+00
   xx         0.181634D+02      0.269154D+01      0.299475D+01
   yx        -0.156562D+01     -0.232001D+00     -0.258136D+00
   yy         0.136287D+02      0.201956D+01      0.224706D+01
   zx         0.000000D+00      0.000000D+00      0.000000D+00
   zy         0.000000D+00      0.000000D+00      0.000000D+00
   zz         0.124528D+02      0.184531D+01      0.205319D+01

 ----------------------------------------------------------------------
 1\1\GINC-N2209\Freq\RMP2-FC\Aug-CC-pVDZ\H2O2\GDS001\07-Dec-2021\0\\#N 
 Geom=AllCheck Guess=TCheck SCRF=Check GenChk RMP2(FC)/Aug-CC-pVDZ Freq
 \\hydrogen peroxide\\0,1\O,-2.0314171031,2.2717803312,-0.3673998989\O,
 -0.5987864109,2.1274351484,-0.6662324919\H,-2.182863124,1.4205443682,0
 .0759555995\H,-0.647444752,2.0815672318,-1.63557823\\Version=ES64L-G16
 RevA.03\State=1-A\HF=-150.7994091\MP2=-151.2180301\RMSD=2.327e-10\RMSF
 =5.705e-05\ZeroPoint=0.0262762\Thermal=0.0294999\Dipole=-0.1312939,-0.
 5886142,-0.3451165\DipoleDeriv=-0.2720613,-0.0372593,-0.0250464,-0.089
 415,-0.1649746,-0.0476726,-0.049743,-0.0658556,-0.3287647,-0.2192138,0
 .0102179,0.0417763,0.0540099,-0.3713036,0.0061332,0.0807377,0.0211344,
 -0.1752832,0.253669,0.0222511,0.0128185,0.0289044,0.1960755,0.0505382,
 0.0087904,0.0595499,0.3160561,0.2376061,0.0047904,-0.0295484,0.0065008
 ,0.3402027,-0.0089988,-0.0397851,-0.0148288,0.1879919\Polar=17.5807971
 ,0.1517957,12.6623923,-2.2097674,-0.4152614,14.0016949\Quadrupole=-0.7
 729137,-0.4640794,1.2369932,0.9812204,-1.6435509,-0.7656532\PG=C02 [X(
 H2O2)]\NImag=0\\0.25758171,0.03413074,0.43224670,-0.10228455,-0.211315
 58,0.16166497,-0.19627949,-0.01389160,0.03656066,0.26207101,0.03311090
 ,-0.02714055,0.00703000,-0.00151893,0.02236886,0.06582943,0.01469737,-
 0.05663236,-0.01927260,0.01423024,0.56705350,-0.03614733,-0.02042038,0
 .01797381,-0.03003715,-0.03152039,0.02726079,0.07091961,-0.07131227,-0
 .40303038,0.21001246,0.01601988,0.00749897,-0.00863995,0.05331045,0.39
 481764,0.04574302,0.19428069,-0.10610268,-0.00341720,0.00286121,-0.003
 62241,-0.04556962,-0.20021033,0.11069056,-0.02515489,0.00018124,0.0477
 5008,-0.03575436,-0.00007158,-0.07381762,-0.00473512,0.00198193,0.0032
 4380,0.06564437,0.00407063,-0.00207577,-0.00572687,-0.00060934,-0.0027
 2729,-0.02028766,-0.00136969,0.00071377,0.00306843,-0.00209159,0.00408
 929,-0.00928790,0.00233753,0.00107007,-0.01387085,-0.02412145,-0.50679
 874,0.00033502,-0.00116218,-0.00096547,0.02282373,0.02294610,0.5066941
 4\\-0.00013440,0.00003288,0.00000382,0.00013604,-0.00002550,0.00000051
 ,0.00001264,-0.00001242,0.00000760,-0.00001429,0.00000504,-0.00001193\
 \-0.01823393,-0.05353911,-0.15540237,0.00232575,-0.14197869,0.17093677
 ,0.00189832,0.02366115,0.01114408,-0.01166884,-0.01340599,0.01144079,0
 .02222508,-0.02460489,-0.02791884,-0.01122209,0.01938743,-0.01068765,-
 0.01454413,-0.21891907,0.03688815,0.01207471,0.04892318,-0.01714063,0.
 00633446,0.00337435,0.01764848,-0.01236707,0.05787339,0.14270947,0.121
 90781,-0.00515732,-0.00370441,-0.00132750,-0.05368292,-0.13846137,0.01
 122335,0.12119878,-0.15591118,-0.00975740,0.00257670,-0.00145499,-0.00
 068803,-0.12000576,0.15510269,0.00426090,-0.01904522,0.00367080,0.0034
 3606,0.03463653,0.00811774,-0.00604209,0.00096685,-0.00077792,-0.00165
 487,0.00907170,0.00125210,-0.00215420,0.00610107,0.02018245,0.20085914
 ,0.00138539,-0.00054370,-0.00376972,-0.01655816,-0.02089085,-0.0023270
 0,0.00139249,-0.00433794,0.01315744,0.19411728,-0.02474551,0.00018018,
 -0.00057455,0.00226347,-0.01101062,-0.19493522,0.02681998,-0.25199904,
 -0.00427958,0.02427475,0.08927514,0.01669978,-0.02375143,0.22798463,-0
 .01784963,-0.05473452,-0.24221322,-0.02503135,-0.01106886,-0.00288906,
 0.01730122,0.02109186,-0.05960096,-0.00582845,0.01077570,0.10088055,0.
 01013588,-0.03035435,0.01600080,0.02072158,-0.01620139,0.01158502,0.01
 062858,-0.01117367,-0.02865512,0.03335705,-0.01447057,-0.01547947,0.00
 068935,-0.00794768,0.00415383,-0.03254494,0.02240353,-0.02586040,-0.00
 998740,0.01715664,0.00055442,0.00085052,0.00146003,0.02645252,0.010048
 89,-0.01843569,0.00801361,0.00140763,-0.01833923,0.00264357,-0.0028984
 5,-0.03010592,0.00106930,-0.00150146,-0.00114654,-0.01172648,-0.004046
 12,0.00126468,0.00166875,-0.00014094,-0.00207532,-0.00846126,0.0011947
 8,0.00001473,-0.00091201,0.00299228,0.00079591,-0.00381378,-0.00088394
 ,-0.00418091,-0.04670044,-0.00809733,0.01811861,0.00092254,0.00127675,
 -0.00018099,0.04959168,0.00770451,-0.01375671,-0.10632340,-0.09185896,
 0.04946416,0.11203765,0.02436409,-0.01808183,-0.01218252,-0.02452320,-
 0.01844401,0.06876210,-0.02301119,0.03174998,-0.00766644,0.00890917,-0
 .03828085,-0.02102282,-0.00709123,-0.01956746,-0.15638655,0.00140893,0
 .04445982,0.07544692,0.11951927,-0.07933522,-0.04284637,-0.00054937,0.
 01923959,-0.03152370,0.11777458,-0.06420607,-0.01826405,0.00121566,-0.
 01136374,0.01382032,-0.11665809,0.07474606,-0.07871780,-0.01885706,0.0
 1362199,0.01858747,0.01442107,0.00413189,0.06148013,0.00398254,-0.0180
 0697,0.04305900,-0.00313710,-0.01425842,-0.01373321,0.01465139,0.15816
 978,-0.00107685,-0.00233215,-0.00134980,-0.02824894,-0.00290443,-0.017
 00807,0.00156640,0.01439837,0.01789462,-0.00813802,-0.00231181,0.00082
 376,0.00045345,-0.00918214,-0.00171031,-0.01229702,0.00158420,0.024027
 30,0.15624310,-0.00816356,-0.02902425,-0.00138450,0.00046119,0.0002530
 9,-0.14256157,0.00611817,0.00474386,0.01346461,0.08744995,-0.02718156,
 -0.02394261,-0.02864569,-0.01373501,0.01240345,0.02891073,-0.03834182,
 -0.03874846,0.01395089,-0.01217950,0.00608600,-0.02912484,-0.02300780,
 -0.04505288,0.01532224,-0.00351656,-0.08342783,0.01354466,0.03430429,-
 0.07131901,-0.10511551,0.08167299,0.04750150,0.00870849,-0.01693381,0.
 02308482,-0.10056749,0.05850167,0.01572563,-0.00464032,0.01203433,-0.0
 1633220,0.10030545,-0.07003863,0.07979967,0.01101967,-0.00742200,-0.02
 050900,-0.01291925,-0.00855190,-0.06058542,0.00191671,0.01507271,0.045
 45096,-0.01124517,-0.01938855,-0.02115649,0.00646546,0.14541452,0.0007
 3269,0.00490235,0.00129475,-0.02502716,-0.00083335,-0.01914060,0.00683
 406,0.00485443,0.02315297,-0.01253471,-0.00389844,-0.00049737,-0.00001
 713,-0.00012265,-0.00351501,-0.01080418,0.00230378,0.02467357,0.142278
 65,-0.00671141,-0.02223583,-0.00415375,-0.00131015,0.00090120,-0.12732
 072,0.00571778,-0.00333894,-0.12295270,0.21169294,1.03379043,-0.115574
 07,-0.63882029,0.14309583,0.00882002,-0.02203900,-0.01517725,-0.157375
 56,0.01837461,-0.00932843,0.00271350,-0.00158234,-0.18665081,0.0101654
 1,0.01009880,-0.01595374,0.07788055,0.07351315,1.39795990,0.11916170,-
 0.18708049,0.10801515,-0.00303851,-0.01748896,0.01230421,-0.11098678,-
 0.22721703,-1.02229899,0.63939048,0.02141460,-0.00025422,-0.00972627,0
 .20412507,1.02115922,0.12791859,0.62833471,-0.13056885,-0.00832916,0.0
 0129807,-0.00047253,-0.12112563,-0.63146955,0.13189452,-0.00502902,-0.
 00257344,0.02273617,0.15159404,0.00069668,-0.10035017,-0.00513641,0.00
 167737,0.00153621,-0.14142861,-0.00285051,-0.00216300,-0.00328369,0.00
 220675,0.19623346,-0.07388567,0.00044438,0.00139400,0.00183677,0.00019
 939,-0.19546445,-0.02250993,0.00038678,0.00342676,-0.05437414,-0.07752
 471,-1.38153363,0.00080627,0.00180534,-0.00085313,0.07607780,0.0753325
 9,1.37896000,0.13270259,-0.20976939,-1.02527340,0.11450790,0.63797077,
 -0.12552548,0.00061547,0.01931556,-0.02989885,-0.16640056,-0.01559140,
 0.00432589,0.00369420,-0.00253637,-0.20104427,0.02963680,-0.00958558,-
 0.00494136,0.08087935,0.07703305,1.38554114,-0.12263145,0.18724164,-0.
 10811513,0.01201696,0.01820189,-0.01016153,0.11127174,0.22362781,1.021
 56617,-0.63822948,-0.01745709,-0.00061106,0.00625193,-0.20418871,-1.01
 965385,-0.12688786,-0.62818849,0.12936364,0.00737095,-0.00351241,-0.00
 120385,0.11938806,0.63055053,-0.13011831,-0.01068660,0.00321219,0.0235
 0609,0.15376813,-0.00007412,-0.10035462,-0.00065725,-0.00198201,0.0001
 2885,-0.14242428,0.00173298,-0.00061865,-0.00343549,0.00067790,0.19732
 943,-0.07369939,-0.00125482,-0.00130126,0.00115037,-0.00115606,-0.1954
 0952,-0.01725683,-0.00019670,0.00110319,-0.05835145,-0.07721483,-1.379
 39594,-0.00111140,0.00142702,0.00195851,0.07671968,0.07598451,1.376334
 23,0.06810812,-0.08524329,-0.50859800,0.09800261,0.37504805,0.03489138
 ,-0.01226197,0.00944995,-0.00598136,0.06942465,-0.00066839,-0.00806435
 ,-0.01537041,0.00109780,0.23910744,-0.01183775,-0.01502875,0.01331639,
 -0.04274370,-0.04450254,-0.71413050,-0.05840257,0.07245277,-0.08354121
 ,0.00322480,0.00705942,-0.00495241,0.05437402,0.09161121,0.50719350,-0
 .36777447,-0.00837010,0.00073429,0.00901527,-0.08009999,-0.50496111,-0
 .09966677,-0.36006205,-0.04068597,0.01479987,0.00776029,0.00054435,0.0
 8661854,0.35809918,0.04054158,0.00255640,0.00334057,-0.00848003,-0.060
 38746,-0.00748884,0.05953385,0.00080375,-0.00314112,-0.00175164,0.0570
 2731,-0.00569953,0.00946884,0.00809683,-0.00217766,-0.23177737,0.05051
 602,0.00058780,-0.00296668,-0.00579742,0.00728939,0.22527521,0.0135019
 1,0.00004274,-0.00752180,0.03392519,0.05211266,0.70026978,0.00187507,0
 .00066003,-0.00039997,-0.04930218,-0.05281543,-0.69234801,0.23717845,-
 0.04438844,-0.07267209,-0.06039441,0.03078628,-0.02231848,-0.22650924,
 0.02861897,0.05955289,0.24742497,0.02059227,0.02886065,-0.00032869,-0.
 01639531,-0.02761989,0.05427172,-0.00290632,0.01450809,-0.05744621,-0.
 00316368,-0.07761717,-0.00695940,0.01473033,-0.00303510,-0.00695790,-0
 .00157143,0.00240138,0.01243262,0.02021615,0.04380259,-0.02896199,-0.0
 0739378,0.00439145,0.00132242,-0.01256329,-0.04776662,-0.00356183,-0.0
 2826083,0.00656563,0.00219019,-0.00180243,0.00011032,0.00107863,0.0290
 3572,-0.00638838,-0.00370979,0.00103914,0.00387662,-0.01395782,-0.0026
 2553,0.00077311,0.00148469,-0.00025908,0.00029302,0.01618293,0.0035800
 2,0.00000886,-0.00149560,-0.00482988,-0.00563220,0.00474757,-0.0005956
 1,-0.00042742,0.00102754,0.00184547,0.00605075,0.00968453,0.00038087,0
 .00124477,-0.00429686,0.00529479,0.06299877,-0.00044492,-0.00139616,-0
 .00028756,-0.00494275,-0.00427950,-0.06395597,0.15216727,-0.11327518,-
 0.54846075,0.01693769,0.28317011,-0.11109458,-0.03901962,0.04351626,0.
 03604213,0.16656212,-0.01976079,0.05279156,0.00813220,-0.01782984,0.01
 801505,-0.00543472,-0.01148724,0.05149645,-0.07463461,-0.04611445,-0.6
 9196532,-0.10734116,0.07342013,-0.02591180,-0.00604203,0.02344311,-0.0
 0392660,0.11225034,0.13573548,0.48997639,-0.28856422,-0.03476236,-0.01
 180235,0.01950555,-0.09807065,-0.47594751,-0.05332946,-0.27030821,0.07
 918398,0.02481116,-0.00363534,-0.00185509,0.02923454,0.27218147,-0.075
 69616,-0.00580648,-0.00366121,-0.02706802,-0.12150047,0.01414752,0.083
 99593,0.00113285,-0.00290247,-0.00071624,0.12617410,-0.00269951,0.0056
 9281,-0.00273808,0.00907595,-0.05900426,0.03809615,0.00120741,-0.00222
 653,0.00176208,-0.00758384,0.05553798,0.04182649,-0.00137465,-0.019585
 85,0.01378132,0.04161759,0.64232396,0.00060386,-0.00312279,-0.00163272
 ,-0.05621167,-0.03712015,-0.62110540,0.10336999,-0.09851060,-0.4716451
 9,-0.00548970,0.27115629,-0.12621069,-0.01569183,0.02912075,0.04193192
 ,0.12942090,-0.02812716,0.05918026,-0.01134063,0.01249667,0.00009088,0
 .00763773,-0.01460696,0.06438277,-0.06593868,-0.01505037,-0.62399783,-
 0.06913663,0.06054787,-0.00721469,-0.02455707,0.02378949,-0.01638147,0
 .08360781,0.12090147,0.41480341,-0.26004500,-0.03877694,-0.01398095,0.
 01170367,-0.08310347,-0.40362700,-0.04631752,-0.24411583,0.08050392,0.
 02222875,-0.00061738,-0.00101796,0.02555753,0.24273365,-0.07865740,-0.
 01854154,0.00884199,-0.02922753,-0.08917201,-0.00815900,0.07468242,0.0
 1008589,0.00097894,-0.00146876,0.09762765,0.00573630,-0.00233848,0.000
 22933,-0.00284048,-0.04529019,0.01795366,-0.00123388,0.00280453,0.0019
 9956,-0.00166193,0.04482414,0.04416949,-0.01243350,-0.01867601,0.00177
 801,0.02700838,0.56063302,-0.00196137,0.00560767,-0.00082856,-0.043986
 13,-0.02018255,-0.54112845,-0.64860235,0.53726192,2.41012536,-0.272069
 51,-1.60741513,0.13205783,0.08512101,-0.00504504,-0.02833748,-0.725386
 14,-0.00462744,-0.01182552,0.00371474,0.01931601,-0.69069441,-0.027276
 51,0.00737357,-0.00853075,0.23144796,0.19333260,3.30966123,0.56605765,
 -0.52928814,0.28803006,-0.00567973,-0.00788943,0.00768827,-0.55378906,
 -0.53556838,-2.39503284,1.60685227,-0.00416444,0.00504587,-0.00625830,
 0.53715094,2.38825323,0.29476411,1.60247067,-0.12833332,-0.00086894,-0
 .00333361,-0.00040315,-0.29636603,-1.60213805,0.12984850,-0.00257631,-
 0.00292874,0.01237692,0.64594484,-0.00679913,-0.21185971,-0.00658886,0
 .00258189,0.00247087,-0.63677968,0.00293391,-0.00326698,-0.00315188,-0
 .01010653,0.69747406,-0.19444786,0.00002664,0.00173374,0.00300099,0.00
 714598,-0.69594082,0.00458192,-0.00242911,0.00480625,-0.20224153,-0.19
 371373,-3.30072734,0.00064770,0.00154409,-0.00111203,0.19701192,0.1945
 9875,3.29703312,-0.62544276,0.53354882,2.40514214,-0.27931951,-1.60763
 261,0.13402075,0.06888351,-0.00890547,-0.01999543,-0.70114873,-0.00458
 819,-0.01096989,0.00320366,0.01832031,-0.69297488,-0.01792106,0.001155
 15,-0.00770172,0.22489534,0.19068353,3.30784385,0.56362200,-0.52657477
 ,0.28815140,-0.01093261,-0.00685867,0.00515608,-0.55320134,-0.53664555
 ,-2.39196487,1.60832022,0.00112913,0.00677327,-0.00245283,0.53502546,2
 .38610087,0.29774453,1.60459080,-0.13258642,-0.00661294,-0.00300309,0.
 00115652,-0.29263986,-1.60403573,0.13296679,-0.00706278,0.00193141,0.0
 1116354,0.64319783,-0.00687344,-0.21213037,0.00051194,0.00049095,0.001
 50827,-0.63664698,0.00768492,-0.00220740,-0.00389128,-0.01054398,0.697
 17151,-0.18938585,-0.00159202,-0.00090927,0.00244802,0.00445108,-0.694
 05485,-0.00050396,0.00188664,0.00626739,-0.19828697,-0.19088410,-3.301
 29864,-0.00066763,-0.00183166,-0.00153689,0.19945856,0.19082912,3.2965
 6814\\@


 OUR LITTLE SYSTEMS HAVE THEIR DAY,    
   THEY HAVE THEIR DAY AND CEASE TO BE.
   THEY ARE BUT BROKEN LIGHTS OF THEE, 
 AND THOU, OH LORD, ART MORE THAN THEY.
          -------------------          
 LET KNOWLEDGE GROW FROM MORE TO MORE, 
   BUT MORE OF REVERENCE IN US DWELL.  
   THAT MIND AND SOUL, ACCORDING WELL, 
 MAY MAKE ONE MUSIC AS BEFORE.....     
          -------------------          
                    LORD TENNYSON      
 Job cpu time:       0 days  0 hours 53 minutes 34.1 seconds.
 Elapsed time:       0 days  0 hours  2 minutes  4.3 seconds.
 File lengths (MBytes):  RWF=    224 Int=      0 D2E=      0 Chk=     44 Scr=      8
 Normal termination of Gaussian 16 at Tue Dec  7 15:24:48 2021.
