 Entering Gaussian System, Link 0=g16
 Input=h2o_mp2_avtz_opt_anharm.gjf
 Output=h2o_mp2_avtz_opt_anharm.log
 Initial command:
 /sw/contrib/gaussian/g16/A03/g16/l1.exe "/gscratch/scrubbed/gds001/Gau-15555.inp" -scrdir="/gscratch/scrubbed/gds001/"
 Entering Link 1 = /sw/contrib/gaussian/g16/A03/g16/l1.exe PID=     15556.
  
 Copyright (c) 1988,1990,1992,1993,1995,1998,2003,2009,2016,
            Gaussian, Inc.  All Rights Reserved.
  
 This is part of the Gaussian(R) 16 program.  It is based on
 the Gaussian(R) 09 system (copyright 2009, Gaussian, Inc.),
 the Gaussian(R) 03 system (copyright 2003, Gaussian, Inc.),
 the Gaussian(R) 98 system (copyright 1998, Gaussian, Inc.),
 the Gaussian(R) 94 system (copyright 1995, Gaussian, Inc.),
 the Gaussian 92(TM) system (copyright 1992, Gaussian, Inc.),
 the Gaussian 90(TM) system (copyright 1990, Gaussian, Inc.),
 the Gaussian 88(TM) system (copyright 1988, Gaussian, Inc.),
 the Gaussian 86(TM) system (copyright 1986, Carnegie Mellon
 University), and the Gaussian 82(TM) system (copyright 1983,
 Carnegie Mellon University). Gaussian is a federally registered
 trademark of Gaussian, Inc.
  
 This software contains proprietary and confidential information,
 including trade secrets, belonging to Gaussian, Inc.
  
 This software is provided under written license and may be
 used, copied, transmitted, or stored only in accord with that
 written license.
  
 The following legend is applicable only to US Government
 contracts under FAR:
  
                    RESTRICTED RIGHTS LEGEND
  
 Use, reproduction and disclosure by the US Government is
 subject to restrictions as set forth in subparagraphs (a)
 and (c) of the Commercial Computer Software - Restricted
 Rights clause in FAR 52.227-19.
  
 Gaussian, Inc.
 340 Quinnipiac St., Bldg. 40, Wallingford CT 06492
  
  
 ---------------------------------------------------------------
 Warning -- This program may not be used in any manner that
 competes with the business of Gaussian, Inc. or will provide
 assistance to any competitor of Gaussian, Inc.  The licensee
 of this program is prohibited from giving any competitor of
 Gaussian, Inc. access to this program.  By using this program,
 the user acknowledges that Gaussian, Inc. is engaged in the
 business of creating and licensing software in the field of
 computational chemistry and represents and warrants to the
 licensee that it is not a competitor of Gaussian, Inc. and that
 it will not use this program in any manner prohibited above.
 ---------------------------------------------------------------
  

 Cite this work as:
 Gaussian 16, Revision A.03,
 M. J. Frisch, G. W. Trucks, H. B. Schlegel, G. E. Scuseria, 
 M. A. Robb, J. R. Cheeseman, G. Scalmani, V. Barone, 
 G. A. Petersson, H. Nakatsuji, X. Li, M. Caricato, A. V. Marenich, 
 J. Bloino, B. G. Janesko, R. Gomperts, B. Mennucci, H. P. Hratchian, 
 J. V. Ortiz, A. F. Izmaylov, J. L. Sonnenberg, D. Williams-Young, 
 F. Ding, F. Lipparini, F. Egidi, J. Goings, B. Peng, A. Petrone, 
 T. Henderson, D. Ranasinghe, V. G. Zakrzewski, J. Gao, N. Rega, 
 G. Zheng, W. Liang, M. Hada, M. Ehara, K. Toyota, R. Fukuda, 
 J. Hasegawa, M. Ishida, T. Nakajima, Y. Honda, O. Kitao, H. Nakai, 
 T. Vreven, K. Throssell, J. A. Montgomery, Jr., J. E. Peralta, 
 F. Ogliaro, M. J. Bearpark, J. J. Heyd, E. N. Brothers, K. N. Kudin, 
 V. N. Staroverov, T. A. Keith, R. Kobayashi, J. Normand, 
 K. Raghavachari, A. P. Rendell, J. C. Burant, S. S. Iyengar, 
 J. Tomasi, M. Cossi, J. M. Millam, M. Klene, C. Adamo, R. Cammi, 
 J. W. Ochterski, R. L. Martin, K. Morokuma, O. Farkas, 
 J. B. Foresman, and D. J. Fox, Gaussian, Inc., Wallingford CT, 2016.
 
 ******************************************
 Gaussian 16:  ES64L-G16RevA.03 25-Dec-2016
                30-Nov-2021 
 ******************************************
 %nprocshared=28
 Will use up to   28 processors via shared memory.
 %mem=41GB
 ----------------------------------------------
 # MP2/aug-cc-pVTZ opt freq=(vibrot,anharmonic)
 ----------------------------------------------
 1/18=20,19=15,38=1,80=1/1,3;
 2/9=110,12=2,17=6,18=5,40=1/2;
 3/5=16,6=1,7=10,11=9,25=1,30=1,71=1/1,2,3;
 4//1;
 5/5=2,38=5/2;
 8/6=4,10=1/1;
 9/15=2,16=-3/6;
 10/5=1/2;
 6/7=2,8=2,9=2,10=2/1;
 7/12=2/1,2,3,16;
 1/18=20,19=15,80=1/3(2);
 2/9=110/2;
 99//99;
 2/9=110/2;
 3/5=16,6=1,7=10,11=9,25=1,30=1,71=1/1,2,3;
 4/5=5,16=3,69=1/1;
 5/5=2,38=5/2;
 8/6=4,10=1/1;
 9/15=2,16=-3/6;
 10/5=1/2;
 7/12=2/1,2,3,16;
 1/18=20,19=15,80=1/3(-8);
 2/9=110/2;
 6/7=2,8=2,9=2,10=2/1;
 99//99;
 -----
 water
 -----
 Symbolic Z-matrix:
 Charge =  0 Multiplicity = 1
 O
 H                    1    R1
 H                    1    R1       2    A1
       Variables:
  R1                    0.97                     
  A1                  105.                       
 

 GradGradGradGradGradGradGradGradGradGradGradGradGradGradGradGradGradGrad
 Berny optimization.
 Initialization pass.
                           ----------------------------
                           !    Initial Parameters    !
                           ! (Angstroms and Degrees)  !
 --------------------------                            --------------------------
 ! Name  Definition              Value          Derivative Info.                !
 --------------------------------------------------------------------------------
 ! R1    R(1,2)                  0.97           estimate D2E/DX2                !
 ! R2    R(1,3)                  0.97           estimate D2E/DX2                !
 ! A1    A(2,1,3)              105.0            estimate D2E/DX2                !
 --------------------------------------------------------------------------------
 Trust Radius=3.00D-01 FncErr=1.00D-07 GrdErr=1.00D-07 EigMax=2.50D+02 EigMin=1.00D-04
 Number of steps in this run=     20 maximum allowed number of steps=    100.
 GradGradGradGradGradGradGradGradGradGradGradGradGradGradGradGradGradGrad

                          Input orientation:                          
 ---------------------------------------------------------------------
 Center     Atomic      Atomic             Coordinates (Angstroms)
 Number     Number       Type             X           Y           Z
 ---------------------------------------------------------------------
      1          8           0        0.000000    0.000000    0.000000
      2          1           0        0.000000    0.000000    0.970000
      3          1           0        0.936948    0.000000   -0.251054
 ---------------------------------------------------------------------
                    Distance matrix (angstroms):
                    1          2          3
     1  O    0.000000
     2  H    0.970000   0.000000
     3  H    0.970000   1.539105   0.000000
 Stoichiometry    H2O
 Framework group  C2V[C2(O),SGV(H2)]
 Deg. of freedom     2
 Full point group                 C2V     NOp   4
 Largest Abelian subgroup         C2V     NOp   4
 Largest concise Abelian subgroup C2      NOp   2
                         Standard orientation:                         
 ---------------------------------------------------------------------
 Center     Atomic      Atomic             Coordinates (Angstroms)
 Number     Number       Type             X           Y           Z
 ---------------------------------------------------------------------
      1          8           0       -0.000000    0.000000    0.118100
      2          1           0       -0.000000    0.769553   -0.472399
      3          1           0       -0.000000   -0.769553   -0.472399
 ---------------------------------------------------------------------
 Rotational constants (GHZ):         809.6731545         423.3750716         278.0065066
 Standard basis: Aug-CC-pVTZ (5D, 7F)
 There are    42 symmetry adapted cartesian basis functions of A1  symmetry.
 There are    12 symmetry adapted cartesian basis functions of A2  symmetry.
 There are    20 symmetry adapted cartesian basis functions of B1  symmetry.
 There are    31 symmetry adapted cartesian basis functions of B2  symmetry.
 There are    35 symmetry adapted basis functions of A1  symmetry.
 There are    12 symmetry adapted basis functions of A2  symmetry.
 There are    18 symmetry adapted basis functions of B1  symmetry.
 There are    27 symmetry adapted basis functions of B2  symmetry.
    92 basis functions,   126 primitive gaussians,   105 cartesian basis functions
     5 alpha electrons        5 beta electrons
       nuclear repulsion energy         9.0725175391 Hartrees.
 NAtoms=    3 NActive=    3 NUniq=    2 SFac= 2.25D+00 NAtFMM=   60 NAOKFM=F Big=F
 Integral buffers will be    131072 words long.
 Raffenetti 1 integral format.
 Two-electron integral symmetry is turned on.
 One-electron integrals computed using PRISM.
 NBasis=    92 RedAO= T EigKep=  3.95D-04  NBF=    35    12    18    27
 NBsUse=    92 1.00D-06 EigRej= -1.00D+00 NBFU=    35    12    18    27
 ExpMin= 2.53D-02 ExpMax= 1.53D+04 ExpMxC= 5.22D+02 IAcc=3 IRadAn=         5 AccDes= 0.00D+00
 Harris functional with IExCor=  205 and IRadAn=       5 diagonalized for initial guess.
 HarFok:  IExCor=  205 AccDes= 0.00D+00 IRadAn=         5 IDoV= 1 UseB2=F ITyADJ=14
 ICtDFT=  3500011 ScaDFX=  1.000000  1.000000  1.000000  1.000000
 FoFCou: FMM=F IPFlag=           0 FMFlag=      100000 FMFlg1=           0
         NFxFlg=           0 DoJE=T BraDBF=F KetDBF=T FulRan=T
         wScrn=  0.000000 ICntrl=       500 IOpCl=  0 I1Cent=   200000004 NGrid=           0
         NMat0=    1 NMatS0=      1 NMatT0=    0 NMatD0=    1 NMtDS0=    0 NMtDT0=    0
 Petite list used in FoFCou.
 Initial guess orbital symmetries:
       Occupied  (A1) (A1) (B2) (A1) (B1)
       Virtual   (A1) (B2) (A1) (B1) (A1) (B2) (B2) (A1) (A2) (A1)
                 (B1) (B2) (A1) (B2) (B2) (A1) (A1) (B1) (A2) (A1)
                 (B1) (A1) (B1) (B2) (A2) (A1) (B2) (B2) (A1) (B1)
                 (B2) (A1) (A2) (B2) (A2) (A1) (B1) (A1) (B2) (B2)
                 (A1) (B1) (A2) (A1) (A1) (B1) (B2) (A1) (B1) (B2)
                 (A1) (B2) (A2) (B2) (A1) (B1) (A2) (A1) (B2) (B1)
                 (A2) (B1) (A1) (B2) (A1) (B2) (A2) (B2) (A1) (B2)
                 (B1) (A1) (A1) (B2) (B1) (A1) (B1) (B1) (A1) (A2)
                 (B2) (A2) (A1) (A1) (B2) (B2) (A1)
 The electronic state of the initial guess is 1-A1.
 Keep R1 ints in memory in symmetry-blocked form, NReq=22813362.
 Requested convergence on RMS density matrix=1.00D-08 within 128 cycles.
 Requested convergence on MAX density matrix=1.00D-06.
 Requested convergence on             energy=1.00D-06.
 No special actions if energy rises.
 SCF Done:  E(RHF) =  -76.0594826752     A.U. after   10 cycles
            NFock= 10  Conv=0.43D-08     -V/T= 2.0020
 ExpMin= 2.53D-02 ExpMax= 1.53D+04 ExpMxC= 5.22D+02 IAcc=3 IRadAn=         5 AccDes= 0.00D+00
 HarFok:  IExCor=  205 AccDes= 0.00D+00 IRadAn=         5 IDoV=-2 UseB2=F ITyADJ=14
 ICtDFT= 12500011 ScaDFX=  1.000000  1.000000  1.000000  1.000000
 Range of M.O.s used for correlation:     2    92
 NBasis=    92 NAE=     5 NBE=     5 NFC=     1 NFV=     0
 NROrb=     91 NOA=     4 NOB=     4 NVA=    87 NVB=    87

 **** Warning!!: The largest alpha MO coefficient is  0.15638335D+02

 Fully direct method using O(ONN) memory.
 JobTyp=1 Pass  1:  I=   2 to   5 NPSUse= 28 ParTrn=T ParDer=T DoDerP=T.
 Spin components of T(2) and E(2):
     alpha-alpha T2 =       0.8226286224D-02 E2=     -0.3268025413D-01
     alpha-beta  T2 =       0.4783647389D-01 E2=     -0.2039750700D+00
     beta-beta   T2 =       0.8226286224D-02 E2=     -0.3268025413D-01
 ANorm=    0.1031643856D+01
 E2 =    -0.2693355783D+00 EUMP2 =    -0.76328818253521D+02
          IDoAtm=111
          Differentiating once with respect to electric field.
                with respect to dipole field.
          Differentiating once with respect to nuclear coordinates.
 Keep R1 ints in memory in symmetry-blocked form, NReq=22814254.
          There are     1 degrees of freedom in the 1st order CPHF.  IDoFFX=0 NUNeed=     1.
 LinEq1:  Iter=  0 NonCon=     1 RMS=4.71D-03 Max=5.01D-02 NDo=     1
 AX will form     1 AO Fock derivatives at one time.
 LinEq1:  Iter=  1 NonCon=     1 RMS=6.44D-04 Max=4.91D-03 NDo=     1
 LinEq1:  Iter=  2 NonCon=     1 RMS=2.36D-04 Max=2.03D-03 NDo=     1
 LinEq1:  Iter=  3 NonCon=     1 RMS=6.35D-05 Max=4.78D-04 NDo=     1
 LinEq1:  Iter=  4 NonCon=     1 RMS=9.72D-06 Max=6.59D-05 NDo=     1
 LinEq1:  Iter=  5 NonCon=     1 RMS=1.66D-06 Max=1.14D-05 NDo=     1
 LinEq1:  Iter=  6 NonCon=     1 RMS=2.52D-07 Max=1.84D-06 NDo=     1
 LinEq1:  Iter=  7 NonCon=     1 RMS=2.89D-08 Max=2.48D-07 NDo=     1
 LinEq1:  Iter=  8 NonCon=     1 RMS=3.44D-09 Max=3.62D-08 NDo=     1
 LinEq1:  Iter=  9 NonCon=     1 RMS=3.38D-10 Max=2.23D-09 NDo=     1
 LinEq1:  Iter= 10 NonCon=     0 RMS=2.57D-11 Max=2.27D-10 NDo=     1
 Linear equations converged to 1.000D-10 1.000D-09 after    10 iterations.
 End of Minotr F.D. properties file   721 does not exist.
 End of Minotr F.D. properties file   722 does not exist.
 End of Minotr F.D. properties file   788 does not exist.

 **********************************************************************

            Population analysis using the SCF density.

 **********************************************************************

 Orbital symmetries:
       Occupied  (A1) (A1) (B2) (A1) (B1)
       Virtual   (A1) (B2) (A1) (B1) (A1) (B2) (B2) (A1) (A2) (B1)
                 (A1) (B2) (A1) (B2) (B2) (A1) (A1) (A2) (B1) (A1)
                 (B1) (A1) (B2) (B1) (A2) (B2) (A1) (A1) (B2) (B1)
                 (B2) (A2) (A1) (B2) (A2) (A1) (B1) (B2) (A1) (B2)
                 (A1) (B1) (A2) (A1) (A1) (B1) (B2) (A1) (B2) (B1)
                 (A1) (B2) (A2) (B2) (A1) (A2) (B1) (A1) (B2) (B1)
                 (A2) (A1) (B1) (B2) (A1) (B2) (B2) (A2) (B2) (A1)
                 (B1) (A1) (A1) (B2) (B1) (A1) (B1) (B1) (A2) (B2)
                 (A1) (A2) (A1) (B2) (A1) (B2) (A1)
 The electronic state is 1-A1.
 Alpha  occ. eigenvalues --  -20.56922  -1.34676  -0.71181  -0.58155  -0.50917
 Alpha virt. eigenvalues --    0.02931   0.04760   0.13598   0.15907   0.17466
 Alpha virt. eigenvalues --    0.18288   0.22661   0.24440   0.26499   0.30051
 Alpha virt. eigenvalues --    0.31039   0.36532   0.43549   0.46440   0.59925
 Alpha virt. eigenvalues --    0.65664   0.70830   0.72209   0.73201   0.82679
 Alpha virt. eigenvalues --    0.84462   0.89351   0.91057   0.92053   0.92088
 Alpha virt. eigenvalues --    0.92920   0.96237   1.01750   1.04030   1.08163
 Alpha virt. eigenvalues --    1.10721   1.17311   1.17749   1.26405   1.50751
 Alpha virt. eigenvalues --    1.54292   1.57966   1.80501   1.80823   1.97570
 Alpha virt. eigenvalues --    2.10727   2.26079   2.31369   2.32733   2.41553
 Alpha virt. eigenvalues --    2.41721   2.44245   2.47877   2.68553   2.70097
 Alpha virt. eigenvalues --    2.75898   2.82158   2.87868   3.63480   3.73444
 Alpha virt. eigenvalues --    4.00645   4.07319   4.16845   4.22873   4.29255
 Alpha virt. eigenvalues --    4.37319   4.38326   4.39487   4.50394   4.70790
 Alpha virt. eigenvalues --    4.81061   5.11811   5.12670   5.24444   5.28660
 Alpha virt. eigenvalues --    5.48908   5.65730   6.15419   6.51949   6.70576
 Alpha virt. eigenvalues --    6.86957   7.12314   7.24248   7.28729   7.29292
 Alpha virt. eigenvalues --    7.31825   7.35460   7.50584   7.88570   7.89350
 Alpha virt. eigenvalues --    8.74568  15.44470
          Condensed to atoms (all electrons):
               1          2          3
     1  O    7.922193   0.267979   0.267979
     2  H    0.267979   0.480867   0.022078
     3  H    0.267979   0.022078   0.480867
 Mulliken charges:
               1
     1  O   -0.458151
     2  H    0.229076
     3  H    0.229076
 Sum of Mulliken charges =   0.00000
 Mulliken charges with hydrogens summed into heavy atoms:
               1
     1  O    0.000000
 Electronic spatial extent (au):  <R**2>=             19.6410
 Charge=              0.0000 electrons
 Dipole moment (field-independent basis, Debye):
    X=             -0.0000    Y=              0.0000    Z=             -1.9849  Tot=              1.9849
 Quadrupole moment (field-independent basis, Debye-Ang):
   XX=             -7.5882   YY=             -4.1937   ZZ=             -6.2671
   XY=              0.0000   XZ=              0.0000   YZ=             -0.0000
 Traceless Quadrupole moment (field-independent basis, Debye-Ang):
   XX=             -1.5719   YY=              1.8226   ZZ=             -0.2507
   XY=              0.0000   XZ=              0.0000   YZ=             -0.0000
 Octapole moment (field-independent basis, Debye-Ang**2):
  XXX=              0.0000  YYY=              0.0000  ZZZ=             -1.1220  XYY=             -0.0000
  XXY=              0.0000  XXZ=             -0.2455  XZZ=              0.0000  YZZ=              0.0000
  YYZ=             -1.4456  XYZ=             -0.0000
 Hexadecapole moment (field-independent basis, Debye-Ang**3):
 XXXX=             -6.7725 YYYY=             -6.0218 ZZZZ=             -7.3349 XXXY=             -0.0000
 XXXZ=             -0.0000 YYYX=             -0.0000 YYYZ=              0.0000 ZZZX=             -0.0000
 ZZZY=             -0.0000 XXYY=             -2.4817 XXZZ=             -2.4022 YYZZ=             -1.8684
 XXYZ=             -0.0000 YYXZ=              0.0000 ZZXY=              0.0000
 N-N= 9.072517539138D+00 E-N=-1.987351874914D+02  KE= 7.590821586680D+01
 Symmetry A1   KE= 6.789342295933D+01
 Symmetry A2   KE= 8.602053475147D-30
 Symmetry B1   KE= 4.467599446674D+00
 Symmetry B2   KE= 3.547193460800D+00
 Calling FoFJK, ICntrl=  10002127 FMM=F ISym2X=1 I1Cent= 0 IOpClX= 0 NMat=1 NMatS=1 NMatT=0.
 ***** Axes restored to original set *****
 -------------------------------------------------------------------
 Center     Atomic                   Forces (Hartrees/Bohr)
 Number     Number              X              Y              Z
 -------------------------------------------------------------------
      1        8           0.006245355    0.000000000    0.004792230
      2        1           0.001888435   -0.000000000   -0.008926723
      3        1          -0.008133790   -0.000000000    0.004134494
 -------------------------------------------------------------------
 Cartesian Forces:  Max     0.008926723 RMS     0.005038464

 GradGradGradGradGradGradGradGradGradGradGradGradGradGradGradGradGradGrad
 Berny optimization.
 FormGI is forming the generalized inverse of G from B-inverse, IUseBI=4.
 Internal  Forces:  Max     0.008926723 RMS     0.007557672
 Search for a local minimum.
 Step number   1 out of a maximum of   20
 All quantities printed in internal units (Hartrees-Bohrs-Radians)
 Mixed Optimization -- RFO/linear search
 Second derivative matrix not updated -- first step.
 The second derivative matrix:
                          R1        R2        A1
           R1           0.53377
           R2           0.00000   0.53377
           A1           0.00000   0.00000   0.16000
 ITU=  0
     Eigenvalues ---    0.16000   0.53377   0.53377
 RFO step:  Lambda=-3.73086854D-04 EMin= 1.60000000D-01
 Linear search not attempted -- first point.
 Iteration  1 RMS(Cart)=  0.02080711 RMS(Int)=  0.00014342
 Iteration  2 RMS(Cart)=  0.00009633 RMS(Int)=  0.00000001
 Iteration  3 RMS(Cart)=  0.00000001 RMS(Int)=  0.00000000
 ClnCor:  largest displacement from symmetrization is 3.76D-15 for atom     3.
 Variable       Old X    -DE/DX   Delta X   Delta X   Delta X     New X
                                 (Linear)    (Quad)   (Total)
    R1        1.83303  -0.00893   0.00000  -0.01671  -0.01671   1.81632
    R2        1.83303  -0.00893   0.00000  -0.01671  -0.01671   1.81632
    A1        1.83260  -0.00346   0.00000  -0.02158  -0.02158   1.81101
         Item               Value     Threshold  Converged?
 Maximum Force            0.008927     0.000450     NO 
 RMS     Force            0.007558     0.000300     NO 
 Maximum Displacement     0.021130     0.001800     NO 
 RMS     Displacement     0.020789     0.001200     NO 
 Predicted change in Energy=-1.867347D-04
 GradGradGradGradGradGradGradGradGradGradGradGradGradGradGradGradGradGrad

                          Input orientation:                          
 ---------------------------------------------------------------------
 Center     Atomic      Atomic             Coordinates (Angstroms)
 Number     Number       Type             X           Y           Z
 ---------------------------------------------------------------------
      1          8           0       -0.001487   -0.000000   -0.001141
      2          1           0        0.008886   -0.000000    0.959959
      3          1           0        0.929549    0.000000   -0.239873
 ---------------------------------------------------------------------
                    Distance matrix (angstroms):
                    1          2          3
     1  O    0.000000
     2  H    0.961156   0.000000
     3  H    0.961156   1.512355   0.000000
 Stoichiometry    H2O
 Framework group  C2V[C2(O),SGV(H2)]
 Deg. of freedom     2
 Full point group                 C2V     NOp   4
 Largest Abelian subgroup         C2V     NOp   4
 Largest concise Abelian subgroup C2      NOp   2
                         Standard orientation:                         
 ---------------------------------------------------------------------
 Center     Atomic      Atomic             Coordinates (Angstroms)
 Number     Number       Type             X           Y           Z
 ---------------------------------------------------------------------
      1          8           0       -0.000000    0.000000    0.118662
      2          1           0        0.000000    0.756178   -0.474648
      3          1           0       -0.000000   -0.756178   -0.474648
 ---------------------------------------------------------------------
 Rotational constants (GHZ):         802.0177792         438.4847559         283.4920205
 Standard basis: Aug-CC-pVTZ (5D, 7F)
 There are    42 symmetry adapted cartesian basis functions of A1  symmetry.
 There are    12 symmetry adapted cartesian basis functions of A2  symmetry.
 There are    20 symmetry adapted cartesian basis functions of B1  symmetry.
 There are    31 symmetry adapted cartesian basis functions of B2  symmetry.
 There are    35 symmetry adapted basis functions of A1  symmetry.
 There are    12 symmetry adapted basis functions of A2  symmetry.
 There are    18 symmetry adapted basis functions of B1  symmetry.
 There are    27 symmetry adapted basis functions of B2  symmetry.
    92 basis functions,   126 primitive gaussians,   105 cartesian basis functions
     5 alpha electrons        5 beta electrons
       nuclear repulsion energy         9.1589130450 Hartrees.
 NAtoms=    3 NActive=    3 NUniq=    2 SFac= 2.25D+00 NAtFMM=   60 NAOKFM=F Big=F
 Integral buffers will be    131072 words long.
 Raffenetti 1 integral format.
 Two-electron integral symmetry is turned on.
 One-electron integrals computed using PRISM.
 NBasis=    92 RedAO= T EigKep=  3.89D-04  NBF=    35    12    18    27
 NBsUse=    92 1.00D-06 EigRej= -1.00D+00 NBFU=    35    12    18    27
 Initial guess from the checkpoint file:  "/gscratch/scrubbed/gds001/Gau-15556.chk"
 B after Tr=     0.000000    0.000000   -0.000000
         Rot=    1.000000    0.000000    0.000000    0.000000 Ang=   0.00 deg.
 Initial guess orbital symmetries:
       Occupied  (A1) (A1) (B2) (A1) (B1)
       Virtual   (A1) (B2) (A1) (B1) (A1) (B2) (B2) (A1) (A2) (B1)
                 (A1) (B2) (A1) (B2) (B2) (A1) (A1) (A2) (B1) (A1)
                 (B1) (A1) (B2) (B1) (A2) (B2) (A1) (A1) (B2) (B1)
                 (B2) (A2) (A1) (B2) (A2) (A1) (B1) (B2) (A1) (B2)
                 (A1) (B1) (A2) (A1) (A1) (B1) (B2) (A1) (B2) (B1)
                 (A1) (B2) (A2) (B2) (A1) (A2) (B1) (A1) (B2) (B1)
                 (A2) (A1) (B1) (B2) (A1) (B2) (B2) (A2) (B2) (A1)
                 (B1) (A1) (A1) (B2) (B1) (A1) (B1) (B1) (A2) (B2)
                 (A1) (A2) (A1) (B2) (A1) (B2) (A1)
 ExpMin= 2.53D-02 ExpMax= 1.53D+04 ExpMxC= 5.22D+02 IAcc=3 IRadAn=         5 AccDes= 0.00D+00
 Harris functional with IExCor=  205 and IRadAn=       5 diagonalized for initial guess.
 HarFok:  IExCor=  205 AccDes= 0.00D+00 IRadAn=         5 IDoV= 1 UseB2=F ITyADJ=14
 ICtDFT=  3500011 ScaDFX=  1.000000  1.000000  1.000000  1.000000
 FoFCou: FMM=F IPFlag=           0 FMFlag=      100000 FMFlg1=           0
         NFxFlg=           0 DoJE=T BraDBF=F KetDBF=T FulRan=T
         wScrn=  0.000000 ICntrl=       500 IOpCl=  0 I1Cent=   200000004 NGrid=           0
         NMat0=    1 NMatS0=      1 NMatT0=    0 NMatD0=    1 NMtDS0=    0 NMtDT0=    0
 Petite list used in FoFCou.
 Keep R1 ints in memory in symmetry-blocked form, NReq=22813450.
 Requested convergence on RMS density matrix=1.00D-08 within 128 cycles.
 Requested convergence on MAX density matrix=1.00D-06.
 Requested convergence on             energy=1.00D-06.
 No special actions if energy rises.
 SCF Done:  E(RHF) =  -76.0602685437     A.U. after    8 cycles
            NFock=  8  Conv=0.58D-08     -V/T= 2.0015
 ExpMin= 2.53D-02 ExpMax= 1.53D+04 ExpMxC= 5.22D+02 IAcc=3 IRadAn=         5 AccDes= 0.00D+00
 HarFok:  IExCor=  205 AccDes= 0.00D+00 IRadAn=         5 IDoV=-2 UseB2=F ITyADJ=14
 ICtDFT= 12500011 ScaDFX=  1.000000  1.000000  1.000000  1.000000
 Range of M.O.s used for correlation:     2    92
 NBasis=    92 NAE=     5 NBE=     5 NFC=     1 NFV=     0
 NROrb=     91 NOA=     4 NOB=     4 NVA=    87 NVB=    87

 **** Warning!!: The largest alpha MO coefficient is  0.15867940D+02

 Fully direct method using O(ONN) memory.
 JobTyp=1 Pass  1:  I=   2 to   5 NPSUse= 28 ParTrn=T ParDer=T DoDerP=T.
 Spin components of T(2) and E(2):
     alpha-alpha T2 =       0.8158969290D-02 E2=     -0.3261189545D-01
     alpha-beta  T2 =       0.4738276330D-01 E2=     -0.2034968530D+00
     beta-beta   T2 =       0.8158969290D-02 E2=     -0.3261189545D-01
 ANorm=    0.1031358668D+01
 E2 =    -0.2687206439D+00 EUMP2 =    -0.76328989187661D+02
          IDoAtm=111
          Differentiating once with respect to electric field.
                with respect to dipole field.
          Differentiating once with respect to nuclear coordinates.
 Keep R1 ints in memory in symmetry-blocked form, NReq=22814254.
          There are     1 degrees of freedom in the 1st order CPHF.  IDoFFX=0 NUNeed=     1.
 LinEq1:  Iter=  0 NonCon=     1 RMS=4.65D-03 Max=4.92D-02 NDo=     1
 AX will form     1 AO Fock derivatives at one time.
 LinEq1:  Iter=  1 NonCon=     1 RMS=6.31D-04 Max=4.83D-03 NDo=     1
 LinEq1:  Iter=  2 NonCon=     1 RMS=2.30D-04 Max=1.98D-03 NDo=     1
 LinEq1:  Iter=  3 NonCon=     1 RMS=6.20D-05 Max=4.64D-04 NDo=     1
 LinEq1:  Iter=  4 NonCon=     1 RMS=9.52D-06 Max=6.39D-05 NDo=     1
 LinEq1:  Iter=  5 NonCon=     1 RMS=1.60D-06 Max=1.10D-05 NDo=     1
 LinEq1:  Iter=  6 NonCon=     1 RMS=2.42D-07 Max=1.74D-06 NDo=     1
 LinEq1:  Iter=  7 NonCon=     1 RMS=2.77D-08 Max=2.37D-07 NDo=     1
 LinEq1:  Iter=  8 NonCon=     1 RMS=3.31D-09 Max=3.46D-08 NDo=     1
 LinEq1:  Iter=  9 NonCon=     1 RMS=3.24D-10 Max=2.14D-09 NDo=     1
 LinEq1:  Iter= 10 NonCon=     0 RMS=2.44D-11 Max=2.14D-10 NDo=     1
 Linear equations converged to 1.000D-10 1.000D-09 after    10 iterations.
 End of Minotr F.D. properties file   721 does not exist.
 End of Minotr F.D. properties file   722 does not exist.
 End of Minotr F.D. properties file   788 does not exist.
 Calling FoFJK, ICntrl=  10002127 FMM=F ISym2X=1 I1Cent= 0 IOpClX= 0 NMat=1 NMatS=1 NMatT=0.
 ***** Axes restored to original set *****
 -------------------------------------------------------------------
 Center     Atomic                   Forces (Hartrees/Bohr)
 Number     Number              X              Y              Z
 -------------------------------------------------------------------
      1        8           0.000276203    0.000000000    0.000211938
      2        1          -0.000538411   -0.000000000    0.000415724
      3        1           0.000262208   -0.000000000   -0.000627662
 -------------------------------------------------------------------
 Cartesian Forces:  Max     0.000627662 RMS     0.000341017

 GradGradGradGradGradGradGradGradGradGradGradGradGradGradGradGradGradGrad
 Berny optimization.
 Using GEDIIS/GDIIS optimizer.
 FormGI is forming the generalized inverse of G from B-inverse, IUseBI=4.
 Internal  Forces:  Max     0.000986019 RMS     0.000660367
 Search for a local minimum.
 Step number   2 out of a maximum of   20
 All quantities printed in internal units (Hartrees-Bohrs-Radians)
 Mixed Optimization -- En-DIIS/RFO-DIIS
 Update second derivatives using D2CorX and points    1    2
 DE= -1.71D-04 DEPred=-1.87D-04 R= 9.15D-01
 TightC=F SS=  1.41D+00  RLast= 3.20D-02 DXNew= 5.0454D-01 9.6023D-02
 Trust test= 9.15D-01 RLast= 3.20D-02 DXMaxT set to 3.00D-01
 The second derivative matrix:
                          R1        R2        A1
           R1           0.53388
           R2           0.00011   0.53388
           A1           0.01910   0.01910   0.17647
 ITU=  1  0
 Use linear search instead of GDIIS.
     Eigenvalues ---    0.17444   0.53377   0.53603
 RFO step:  Lambda=-2.77425360D-06 EMin= 1.74444248D-01
 Quartic linear search produced a step of -0.08360.
 Iteration  1 RMS(Cart)=  0.00325570 RMS(Int)=  0.00000542
 Iteration  2 RMS(Cart)=  0.00000424 RMS(Int)=  0.00000000
 Iteration  3 RMS(Cart)=  0.00000000 RMS(Int)=  0.00000000
 ClnCor:  largest displacement from symmetrization is 5.20D-15 for atom     3.
 Variable       Old X    -DE/DX   Delta X   Delta X   Delta X     New X
                                 (Linear)    (Quad)   (Total)
    R1        1.81632   0.00041   0.00140  -0.00085   0.00055   1.81687
    R2        1.81632   0.00041   0.00140  -0.00085   0.00055   1.81687
    A1        1.81101   0.00099   0.00180   0.00356   0.00536   1.81638
         Item               Value     Threshold  Converged?
 Maximum Force            0.000986     0.000450     NO 
 RMS     Force            0.000660     0.000300     NO 
 Maximum Displacement     0.003435     0.001800     NO 
 RMS     Displacement     0.003254     0.001200     NO 
 Predicted change in Energy=-2.926830D-06
 GradGradGradGradGradGradGradGradGradGradGradGradGradGradGradGradGradGrad

                          Input orientation:                          
 ---------------------------------------------------------------------
 Center     Atomic      Atomic             Coordinates (Angstroms)
 Number     Number       Type             X           Y           Z
 ---------------------------------------------------------------------
      1          8           0       -0.000508   -0.000000   -0.000390
      2          1           0        0.007289   -0.000000    0.961026
      3          1           0        0.930166    0.000000   -0.241691
 ---------------------------------------------------------------------
                    Distance matrix (angstroms):
                    1          2          3
     1  O    0.000000
     2  H    0.961447   0.000000
     3  H    0.961447   1.515991   0.000000
 Stoichiometry    H2O
 Framework group  C2V[C2(O),SGV(H2)]
 Deg. of freedom     2
 Full point group                 C2V     NOp   4
 Largest Abelian subgroup         C2V     NOp   4
 Largest concise Abelian subgroup C2      NOp   2
                         Standard orientation:                         
 ---------------------------------------------------------------------
 Center     Atomic      Atomic             Coordinates (Angstroms)
 Number     Number       Type             X           Y           Z
 ---------------------------------------------------------------------
      1          8           0        0.000000    0.000000    0.118292
      2          1           0       -0.000000    0.757995   -0.473167
      3          1           0       -0.000000   -0.757995   -0.473167
 ---------------------------------------------------------------------
 Rotational constants (GHZ):         807.0474523         436.3840972         283.2344684
 Standard basis: Aug-CC-pVTZ (5D, 7F)
 There are    42 symmetry adapted cartesian basis functions of A1  symmetry.
 There are    12 symmetry adapted cartesian basis functions of A2  symmetry.
 There are    20 symmetry adapted cartesian basis functions of B1  symmetry.
 There are    31 symmetry adapted cartesian basis functions of B2  symmetry.
 There are    35 symmetry adapted basis functions of A1  symmetry.
 There are    12 symmetry adapted basis functions of A2  symmetry.
 There are    18 symmetry adapted basis functions of B1  symmetry.
 There are    27 symmetry adapted basis functions of B2  symmetry.
    92 basis functions,   126 primitive gaussians,   105 cartesian basis functions
     5 alpha electrons        5 beta electrons
       nuclear repulsion energy         9.1554113535 Hartrees.
 NAtoms=    3 NActive=    3 NUniq=    2 SFac= 2.25D+00 NAtFMM=   60 NAOKFM=F Big=F
 Integral buffers will be    131072 words long.
 Raffenetti 1 integral format.
 Two-electron integral symmetry is turned on.
 One-electron integrals computed using PRISM.
 NBasis=    92 RedAO= T EigKep=  3.89D-04  NBF=    35    12    18    27
 NBsUse=    92 1.00D-06 EigRej= -1.00D+00 NBFU=    35    12    18    27
 Initial guess from the checkpoint file:  "/gscratch/scrubbed/gds001/Gau-15556.chk"
 B after Tr=    -0.000000   -0.000000    0.000000
         Rot=    1.000000    0.000000   -0.000000   -0.000000 Ang=   0.00 deg.
 Initial guess orbital symmetries:
       Occupied  (A1) (A1) (B2) (A1) (B1)
       Virtual   (A1) (B2) (A1) (B1) (A1) (B2) (B2) (A1) (A2) (B1)
                 (A1) (B2) (A1) (B2) (B2) (A1) (A1) (A2) (B1) (A1)
                 (B1) (A1) (B2) (B1) (A2) (B2) (A1) (A1) (B2) (B1)
                 (B2) (A2) (A1) (B2) (A2) (A1) (B1) (A1) (B2) (B2)
                 (A1) (B1) (A2) (A1) (A1) (B1) (B2) (A1) (B2) (B1)
                 (A1) (B2) (A2) (B2) (A1) (A2) (B1) (A1) (B2) (B1)
                 (A1) (A2) (B1) (B2) (A1) (B2) (A2) (B2) (B2) (A1)
                 (B1) (A1) (A1) (B2) (B1) (A1) (B1) (B1) (B2) (A2)
                 (A1) (A2) (A1) (A1) (B2) (B2) (A1)
 Keep R1 ints in memory in symmetry-blocked form, NReq=22813450.
 Requested convergence on RMS density matrix=1.00D-08 within 128 cycles.
 Requested convergence on MAX density matrix=1.00D-06.
 Requested convergence on             energy=1.00D-06.
 No special actions if energy rises.
 SCF Done:  E(RHF) =  -76.0602727015     A.U. after    6 cycles
            NFock=  6  Conv=0.65D-08     -V/T= 2.0015
 ExpMin= 2.53D-02 ExpMax= 1.53D+04 ExpMxC= 5.22D+02 IAcc=3 IRadAn=         5 AccDes= 0.00D+00
 HarFok:  IExCor=  205 AccDes= 0.00D+00 IRadAn=         5 IDoV=-2 UseB2=F ITyADJ=14
 ICtDFT= 12500011 ScaDFX=  1.000000  1.000000  1.000000  1.000000
 Range of M.O.s used for correlation:     2    92
 NBasis=    92 NAE=     5 NBE=     5 NFC=     1 NFV=     0
 NROrb=     91 NOA=     4 NOB=     4 NVA=    87 NVB=    87

 **** Warning!!: The largest alpha MO coefficient is  0.15871232D+02

 Fully direct method using O(ONN) memory.
 JobTyp=1 Pass  1:  I=   2 to   5 NPSUse= 28 ParTrn=T ParDer=T DoDerP=T.
 Spin components of T(2) and E(2):
     alpha-alpha T2 =       0.8159612137D-02 E2=     -0.3261122924D-01
     alpha-beta  T2 =       0.4738970187D-01 E2=     -0.2034971176D+00
     beta-beta   T2 =       0.8159612137D-02 E2=     -0.3261122924D-01
 ANorm=    0.1031362655D+01
 E2 =    -0.2687195761D+00 EUMP2 =    -0.76328992277543D+02
          IDoAtm=111
          Differentiating once with respect to electric field.
                with respect to dipole field.
          Differentiating once with respect to nuclear coordinates.
 Keep R1 ints in memory in symmetry-blocked form, NReq=22814254.
          There are     1 degrees of freedom in the 1st order CPHF.  IDoFFX=0 NUNeed=     1.
 LinEq1:  Iter=  0 NonCon=     1 RMS=4.65D-03 Max=4.92D-02 NDo=     1
 AX will form     1 AO Fock derivatives at one time.
 LinEq1:  Iter=  1 NonCon=     1 RMS=6.31D-04 Max=4.82D-03 NDo=     1
 LinEq1:  Iter=  2 NonCon=     1 RMS=2.30D-04 Max=1.98D-03 NDo=     1
 LinEq1:  Iter=  3 NonCon=     1 RMS=6.20D-05 Max=4.65D-04 NDo=     1
 LinEq1:  Iter=  4 NonCon=     1 RMS=9.51D-06 Max=6.36D-05 NDo=     1
 LinEq1:  Iter=  5 NonCon=     1 RMS=1.61D-06 Max=1.10D-05 NDo=     1
 LinEq1:  Iter=  6 NonCon=     1 RMS=2.42D-07 Max=1.75D-06 NDo=     1
 LinEq1:  Iter=  7 NonCon=     1 RMS=2.77D-08 Max=2.37D-07 NDo=     1
 LinEq1:  Iter=  8 NonCon=     1 RMS=3.32D-09 Max=3.46D-08 NDo=     1
 LinEq1:  Iter=  9 NonCon=     1 RMS=3.24D-10 Max=2.14D-09 NDo=     1
 LinEq1:  Iter= 10 NonCon=     0 RMS=2.44D-11 Max=2.14D-10 NDo=     1
 Linear equations converged to 1.000D-10 1.000D-09 after    10 iterations.
 End of Minotr F.D. properties file   721 does not exist.
 End of Minotr F.D. properties file   722 does not exist.
 End of Minotr F.D. properties file   788 does not exist.
 Calling FoFJK, ICntrl=  10002127 FMM=F ISym2X=1 I1Cent= 0 IOpClX= 0 NMat=1 NMatS=1 NMatT=0.
 ***** Axes restored to original set *****
 -------------------------------------------------------------------
 Center     Atomic                   Forces (Hartrees/Bohr)
 Number     Number              X              Y              Z
 -------------------------------------------------------------------
      1        8           0.000121102    0.000000000    0.000092924
      2        1          -0.000053830   -0.000000000   -0.000055221
      3        1          -0.000067271   -0.000000000   -0.000037704
 -------------------------------------------------------------------
 Cartesian Forces:  Max     0.000121102 RMS     0.000062534

 GradGradGradGradGradGradGradGradGradGradGradGradGradGradGradGradGradGrad
 Berny optimization.
 Using GEDIIS/GDIIS optimizer.
 FormGI is forming the generalized inverse of G from B-inverse, IUseBI=4.
 Internal  Forces:  Max     0.000096986 RMS     0.000072114
 Search for a local minimum.
 Step number   3 out of a maximum of   20
 All quantities printed in internal units (Hartrees-Bohrs-Radians)
 Mixed Optimization -- En-DIIS/RFO-DIIS
 Swapping is turned off.
 Update second derivatives using D2CorX and points    1    2    3
 DE= -3.09D-06 DEPred=-2.93D-06 R= 1.06D+00
 TightC=F SS=  1.41D+00  RLast= 5.42D-03 DXNew= 5.0454D-01 1.6262D-02
 Trust test= 1.06D+00 RLast= 5.42D-03 DXMaxT set to 3.00D-01
 The second derivative matrix:
                          R1        R2        A1
           R1           0.54372
           R2           0.00995   0.54372
           A1           0.03010   0.03010   0.15956
 ITU=  1  1  0
     Eigenvalues ---    0.15501   0.53377   0.55822
 En-DIIS/RFO-DIIS/Sim-DIIS IScMMF=       -3 using points:     3    2
 RFO step:  Lambda=-7.91217737D-08.
 DidBck=F Rises=F RFO-DIIS coefs:    1.11528   -0.11528
 Iteration  1 RMS(Cart)=  0.00033780 RMS(Int)=  0.00000009
 Iteration  2 RMS(Cart)=  0.00000008 RMS(Int)=  0.00000000
 ClnCor:  largest displacement from symmetrization is 6.51D-15 for atom     3.
 Variable       Old X    -DE/DX   Delta X   Delta X   Delta X     New X
                                 (Linear)    (Quad)   (Total)
    R1        1.81687  -0.00006   0.00006  -0.00020  -0.00014   1.81673
    R2        1.81687  -0.00006   0.00006  -0.00020  -0.00014   1.81673
    A1        1.81638   0.00010   0.00062   0.00004   0.00066   1.81704
         Item               Value     Threshold  Converged?
 Maximum Force            0.000097     0.000450     YES
 RMS     Force            0.000072     0.000300     YES
 Maximum Displacement     0.000320     0.001800     YES
 RMS     Displacement     0.000338     0.001200     YES
 Predicted change in Energy=-3.956089D-08
 Optimization completed.
    -- Stationary point found.
                           ----------------------------
                           !   Optimized Parameters   !
                           ! (Angstroms and Degrees)  !
 --------------------------                            --------------------------
 ! Name  Definition              Value          Derivative Info.                !
 --------------------------------------------------------------------------------
 ! R1    R(1,2)                  0.9614         -DE/DX =   -0.0001              !
 ! R2    R(1,3)                  0.9614         -DE/DX =   -0.0001              !
 ! A1    A(2,1,3)              104.0707         -DE/DX =    0.0001              !
 --------------------------------------------------------------------------------
 GradGradGradGradGradGradGradGradGradGradGradGradGradGradGradGradGradGrad

                          Input orientation:                          
 ---------------------------------------------------------------------
 Center     Atomic      Atomic             Coordinates (Angstroms)
 Number     Number       Type             X           Y           Z
 ---------------------------------------------------------------------
      1          8           0       -0.000508   -0.000000   -0.000390
      2          1           0        0.007289   -0.000000    0.961026
      3          1           0        0.930166    0.000000   -0.241691
 ---------------------------------------------------------------------
                    Distance matrix (angstroms):
                    1          2          3
     1  O    0.000000
     2  H    0.961447   0.000000
     3  H    0.961447   1.515991   0.000000
 Stoichiometry    H2O
 Framework group  C2V[C2(O),SGV(H2)]
 Deg. of freedom     2
 Full point group                 C2V     NOp   4
 Largest Abelian subgroup         C2V     NOp   4
 Largest concise Abelian subgroup C2      NOp   2
                         Standard orientation:                         
 ---------------------------------------------------------------------
 Center     Atomic      Atomic             Coordinates (Angstroms)
 Number     Number       Type             X           Y           Z
 ---------------------------------------------------------------------
      1          8           0        0.000000    0.000000    0.118292
      2          1           0       -0.000000    0.757995   -0.473167
      3          1           0       -0.000000   -0.757995   -0.473167
 ---------------------------------------------------------------------
 Rotational constants (GHZ):         807.0474523         436.3840972         283.2344684

 **********************************************************************

            Population analysis using the SCF density.

 **********************************************************************

 Orbital symmetries:
       Occupied  (A1) (A1) (B2) (A1) (B1)
       Virtual   (A1) (B2) (A1) (B1) (A1) (B2) (B2) (A1) (A2) (B1)
                 (A1) (B2) (A1) (B2) (B2) (A1) (A1) (A2) (B1) (A1)
                 (B1) (A1) (B2) (B1) (A2) (B2) (A1) (A1) (B2) (B1)
                 (B2) (A2) (A1) (B2) (A2) (A1) (B1) (A1) (B2) (B2)
                 (A1) (B1) (A2) (A1) (A1) (B1) (B2) (A1) (B2) (B1)
                 (A1) (B2) (A2) (B2) (A1) (A2) (B1) (A1) (B2) (B1)
                 (A1) (A2) (B1) (B2) (A1) (B2) (A2) (B2) (B2) (A1)
                 (B1) (A1) (A1) (B2) (B1) (A1) (B1) (B1) (B2) (A2)
                 (A1) (A2) (A1) (A1) (B2) (B2) (A1)
 The electronic state is 1-A1.
 Alpha  occ. eigenvalues --  -20.56813  -1.35175  -0.71468  -0.58501  -0.51015
 Alpha virt. eigenvalues --    0.02936   0.04770   0.13588   0.15879   0.17517
 Alpha virt. eigenvalues --    0.18309   0.22710   0.24492   0.26541   0.29996
 Alpha virt. eigenvalues --    0.31010   0.36579   0.43731   0.46601   0.59915
 Alpha virt. eigenvalues --    0.65850   0.70791   0.72268   0.73166   0.83052
 Alpha virt. eigenvalues --    0.84635   0.89223   0.91245   0.91821   0.92237
 Alpha virt. eigenvalues --    0.93081   0.96127   1.02078   1.04303   1.08245
 Alpha virt. eigenvalues --    1.10835   1.17615   1.18181   1.26105   1.50999
 Alpha virt. eigenvalues --    1.53477   1.58238   1.80540   1.82051   1.98356
 Alpha virt. eigenvalues --    2.11713   2.26261   2.31558   2.32680   2.41818
 Alpha virt. eigenvalues --    2.42052   2.44307   2.47961   2.67726   2.69800
 Alpha virt. eigenvalues --    2.77064   2.81493   2.88376   3.65199   3.74031
 Alpha virt. eigenvalues --    4.01753   4.08232   4.16280   4.24681   4.28632
 Alpha virt. eigenvalues --    4.37381   4.37692   4.40440   4.51712   4.72427
 Alpha virt. eigenvalues --    4.84195   5.14687   5.14783   5.24841   5.32135
 Alpha virt. eigenvalues --    5.52006   5.66077   6.17693   6.51290   6.70877
 Alpha virt. eigenvalues --    6.89727   7.13090   7.25081   7.29737   7.31103
 Alpha virt. eigenvalues --    7.32853   7.35405   7.52954   7.89504   7.92115
 Alpha virt. eigenvalues --    8.79830  15.70119
          Condensed to atoms (all electrons):
               1          2          3
     1  O    7.904480   0.270234   0.270234
     2  H    0.270234   0.487610   0.019682
     3  H    0.270234   0.019682   0.487610
 Mulliken charges:
               1
     1  O   -0.444949
     2  H    0.222474
     3  H    0.222474
 Sum of Mulliken charges =   0.00000
 Mulliken charges with hydrogens summed into heavy atoms:
               1
     1  O    0.000000
 Electronic spatial extent (au):  <R**2>=             19.5261
 Charge=              0.0000 electrons
 Dipole moment (field-independent basis, Debye):
    X=             -0.0000    Y=              0.0000    Z=             -1.9933  Tot=              1.9933
 Quadrupole moment (field-independent basis, Debye-Ang):
   XX=             -7.5670   YY=             -4.2552   ZZ=             -6.2333
   XY=              0.0000   XZ=              0.0000   YZ=             -0.0000
 Traceless Quadrupole moment (field-independent basis, Debye-Ang):
   XX=             -1.5485   YY=              1.7633   ZZ=             -0.2148
   XY=              0.0000   XZ=              0.0000   YZ=             -0.0000
 Octapole moment (field-independent basis, Debye-Ang**2):
  XXX=              0.0000  YYY=              0.0000  ZZZ=             -1.1481  XYY=             -0.0000
  XXY=              0.0000  XXZ=             -0.2526  XZZ=              0.0000  YZZ=              0.0000
  YYZ=             -1.4157  XYZ=             -0.0000
 Hexadecapole moment (field-independent basis, Debye-Ang**3):
 XXXX=             -6.7391 YYYY=             -5.9974 ZZZZ=             -7.2691 XXXY=             -0.0000
 XXXZ=             -0.0000 YYYX=             -0.0000 YYYZ=             -0.0000 ZZZX=             -0.0000
 ZZZY=             -0.0000 XXYY=             -2.4520 XXZZ=             -2.3862 YYZZ=             -1.8524
 XXYZ=              0.0000 YYXZ=              0.0000 ZZXY=              0.0000
 N-N= 9.155411353504D+00 E-N=-1.989148023242D+02  KE= 7.594287287217D+01
 Symmetry A1   KE= 6.790319506885D+01
 Symmetry A2   KE= 7.425375663180D-31
 Symmetry B1   KE= 4.467266761494D+00
 Symmetry B2   KE= 3.572411041822D+00
 B after Tr=     0.000672    0.000000    0.000515
         Rot=    1.000000    0.000000   -0.000000    0.000000 Ang=   0.00 deg.
 Final structure in terms of initial Z-matrix:
 O
 H,1,R1
 H,1,R1,2,A1
      Variables:
 R1=0.96144686
 A1=104.07067734
 1\1\GINC-N2209\FOpt\RMP2-FC\Aug-CC-pVTZ\H2O1\GDS001\30-Nov-2021\0\\# M
 P2/aug-cc-pVTZ opt freq=(vibrot,anharmonic)\\water\\0,1\O,-0.000507642
 4,0.,-0.0003895277\H,0.0072894813,0.,0.961025713\H,0.9301662126,0.,-0.
 2416906591\\Version=ES64L-G16RevA.03\State=1-A1\HF=-76.0602727\MP2=-76
 .3289923\RMSD=6.467e-09\RMSF=6.253e-05\Dipole=0.580571,0.,0.4454878\PG
 =C02V [C2(O1),SGV(H2)]\\@


 TERRY FORSTER, PORTLY ATLANTA BRAVES RELIEVER,
 ANNOUNCING THAT HE WAS GOING TO A FAT FARM:
 "A WAIST IS A TERRIBLE THING TO MIND."
 Job cpu time:       0 days  0 hours  4 minutes 45.8 seconds.
 Elapsed time:       0 days  0 hours  0 minutes 12.3 seconds.
 File lengths (MBytes):  RWF=     72 Int=      0 D2E=      0 Chk=      8 Scr=      8
 Normal termination of Gaussian 16 at Tue Nov 30 10:34:19 2021.
 Link1:  Proceeding to internal job step number  2.
 ----------------------------------------------------------------------
 #N Geom=AllCheck Guess=TCheck SCRF=Check GenChk RMP2(FC)/Aug-CC-pVTZ F
 req
 ----------------------------------------------------------------------
 1/10=4,29=7,30=1,38=21,40=1,80=1/1,6,3;
 2/12=2,40=1/2;
 3/5=16,6=1,7=10,11=1,14=-4,25=1,30=1,70=2,71=2,116=1,140=1/1,2,3;
 4/5=101,69=2/1;
 5/5=2,38=6,98=1/2;
 8/6=3,8=1,10=1,19=11,30=-1/1;
 9/15=3,16=-3/6;
 11/6=1,8=1,15=11,17=12,24=-1,27=1,28=-2,29=300,32=6,42=3/1,2,10;
 10/6=2,21=1,60=-2/2;
 8/6=4,8=1,10=1,19=11,30=-1/11,4;
 10/5=1,20=4,60=-2/2;
 11/12=2,14=11,16=1,17=2,28=-2,42=3/2,10,12;
 6/7=2,8=2,9=2,10=2,22=-1/1;
 7/10=1,12=2,25=1,44=2,70=1,71=2/1,2,3,16;
 1/38=20,80=1/6(3);
 7/8=1,25=202,44=-1,70=1,71=1,92=10/16,17;
 1/10=4,30=1,38=20,80=1/3;
 99//99;
 3/5=16,6=1,7=10,11=1,14=-2,25=1,30=1,70=5,71=2,116=1,140=1/1,2,3;
 4/5=5,16=3,69=2/1;
 5/5=2,38=5,98=1/2;
 8/6=3,8=1,10=1,19=11,30=-1/1;
 9/15=3,16=-3/6;
 11/6=1,8=1,15=11,17=12,24=-1,27=1,28=-2,29=300,32=6,42=3/1,2,10;
 10/6=2,21=1,60=-2/2;
 8/6=4,8=1,10=1,19=11,30=-1/11,4;
 10/5=1,20=4,60=-2/2;
 11/12=2,14=11,16=1,17=2,28=-2,42=3/2,10,12;
 6/7=2,8=2,9=2,10=2,22=-1/1;
 7/7=1,10=1,12=2,25=1,44=2,70=1,71=1/1,2,3,16;
 1/38=20,80=1/6(-12);
 7/8=1,25=202,44=-1,70=1,71=1,92=10/16,17;
 1/10=4,30=1,38=20,80=1/3;
 99//99;
 Structure from the checkpoint file:  "/gscratch/scrubbed/gds001/Gau-15556.chk"
 -----
 water
 -----
 Charge =  0 Multiplicity = 1
 Redundant internal coordinates found in file.  (old form).
 O,0,-0.0005076424,0.,-0.0003895277
 H,0,0.0072894813,0.,0.961025713
 H,0,0.9301662126,0.,-0.2416906591
 Recover connectivity data from disk.
 Numerical evaluation of third derivatives.
 Nuclear step= 0.010000 Angstroms, electric field step= 0.000333 atomic units, NStep=1.

 GradGradGradGradGradGradGradGradGradGradGradGradGradGradGradGradGradGrad
 Berny optimization.
 Initialization pass.
                           ----------------------------
                           !    Initial Parameters    !
                           ! (Angstroms and Degrees)  !
 --------------------------                            --------------------------
 ! Name  Definition              Value          Derivative Info.                !
 --------------------------------------------------------------------------------
 ! R1    R(1,2)                  0.9614         calculate D2E/DX2 analytically  !
 ! R2    R(1,3)                  0.9614         calculate D2E/DX2 analytically  !
 ! A1    A(2,1,3)              104.0707         calculate D2E/DX2 analytically  !
 --------------------------------------------------------------------------------
 Trust Radius=3.00D-01 FncErr=1.00D-07 GrdErr=1.00D-07 EigMax=2.50D+02 EigMin=1.00D-04
 Number of steps in this run=      2 maximum allowed number of steps=      2.
 GradGradGradGradGradGradGradGradGradGradGradGradGradGradGradGradGradGrad

                          Input orientation:                          
 ---------------------------------------------------------------------
 Center     Atomic      Atomic             Coordinates (Angstroms)
 Number     Number       Type             X           Y           Z
 ---------------------------------------------------------------------
      1          8           0       -0.000508   -0.000000   -0.000390
      2          1           0        0.007289   -0.000000    0.961026
      3          1           0        0.930166    0.000000   -0.241691
 ---------------------------------------------------------------------
                    Distance matrix (angstroms):
                    1          2          3
     1  O    0.000000
     2  H    0.961447   0.000000
     3  H    0.961447   1.515991   0.000000
 Stoichiometry    H2O
 Framework group  C2V[C2(O),SGV(H2)]
 Deg. of freedom     2
 Full point group                 C2V     NOp   4
 Largest Abelian subgroup         C2V     NOp   4
 Largest concise Abelian subgroup C2      NOp   2
                         Standard orientation:                         
 ---------------------------------------------------------------------
 Center     Atomic      Atomic             Coordinates (Angstroms)
 Number     Number       Type             X           Y           Z
 ---------------------------------------------------------------------
      1          8           0       -0.000000    0.000000    0.118292
      2          1           0        0.000000    0.757995   -0.473167
      3          1           0       -0.000000   -0.757995   -0.473167
 ---------------------------------------------------------------------
 Rotational constants (GHZ):         807.0474523         436.3840972         283.2344684
 Standard basis: Aug-CC-pVTZ (5D, 7F)
 There are    42 symmetry adapted cartesian basis functions of A1  symmetry.
 There are    12 symmetry adapted cartesian basis functions of A2  symmetry.
 There are    20 symmetry adapted cartesian basis functions of B1  symmetry.
 There are    31 symmetry adapted cartesian basis functions of B2  symmetry.
 There are    35 symmetry adapted basis functions of A1  symmetry.
 There are    12 symmetry adapted basis functions of A2  symmetry.
 There are    18 symmetry adapted basis functions of B1  symmetry.
 There are    27 symmetry adapted basis functions of B2  symmetry.
    92 basis functions,   126 primitive gaussians,   105 cartesian basis functions
     5 alpha electrons        5 beta electrons
       nuclear repulsion energy         9.1554113535 Hartrees.
 NAtoms=    3 NActive=    3 NUniq=    2 SFac= 2.25D+00 NAtFMM=   60 NAOKFM=F Big=F
 Integral buffers will be    131072 words long.
 Raffenetti 1 integral format.
 Two-electron integral symmetry is turned on.
 One-electron integrals computed using PRISM.
 NBasis=    92 RedAO= T EigKep=  3.89D-04  NBF=    35    12    18    27
 NBsUse=    92 1.00D-06 EigRej= -1.00D+00 NBFU=    35    12    18    27
 Initial guess from the checkpoint file:  "/gscratch/scrubbed/gds001/Gau-15556.chk"
 B after Tr=     0.000000    0.000000   -0.000000
         Rot=    1.000000   -0.000000    0.000000    0.000000 Ang=   0.00 deg.
 Initial guess orbital symmetries:
       Occupied  (A1) (A1) (B2) (A1) (B1)
       Virtual   (A1) (B2) (A1) (B1) (A1) (B2) (B2) (A1) (A2) (B1)
                 (A1) (B2) (A1) (B2) (B2) (A1) (A1) (A2) (B1) (A1)
                 (B1) (A1) (B2) (B1) (A2) (B2) (A1) (A1) (B2) (B1)
                 (B2) (A2) (A1) (B2) (A2) (A1) (B1) (A1) (B2) (B2)
                 (A1) (B1) (A2) (A1) (A1) (B1) (B2) (A1) (B2) (B1)
                 (A1) (B2) (A2) (B2) (A1) (A2) (B1) (A1) (B2) (B1)
                 (A1) (A2) (B1) (B2) (A1) (B2) (A2) (B2) (B2) (A1)
                 (B1) (A1) (A1) (B2) (B1) (A1) (B1) (B1) (B2) (A2)
                 (A1) (A2) (A1) (A1) (B2) (B2) (A1)
 Keep R1 ints in memory in symmetry-blocked form, NReq=22813450.
 Requested convergence on RMS density matrix=1.00D-08 within 128 cycles.
 Requested convergence on MAX density matrix=1.00D-06.
 Requested convergence on             energy=1.00D-06.
 No special actions if energy rises.
 SCF Done:  E(RHF) =  -76.0602727015     A.U. after    1 cycles
            NFock=  1  Conv=0.16D-08     -V/T= 2.0015
 ExpMin= 2.53D-02 ExpMax= 1.53D+04 ExpMxC= 5.22D+02 IAcc=3 IRadAn=         5 AccDes= 0.00D+00
 HarFok:  IExCor=  205 AccDes= 0.00D+00 IRadAn=         5 IDoV=-2 UseB2=F ITyADJ=14
 ICtDFT= 12500011 ScaDFX=  1.000000  1.000000  1.000000  1.000000
 Range of M.O.s used for correlation:     2    92
 NBasis=    92 NAE=     5 NBE=     5 NFC=     1 NFV=     0
 NROrb=     91 NOA=     4 NOB=     4 NVA=    87 NVB=    87

 **** Warning!!: The largest alpha MO coefficient is  0.15871233D+02

 Disk-based method using ON**2 memory for  4 occupieds at a time.
 Permanent disk used for amplitudes=      226635 words.
 Estimated scratch disk usage=     5456360 words.
 Actual    scratch disk usage=     5456360 words.
 JobTyp=1 Pass  1:  I=   2 to   5 NPSUse= 28 ParTrn=T ParDer=T DoDerP=T.
 (rs|ai) integrals will be sorted in core.
 Spin components of T(2) and E(2):
     alpha-alpha T2 =       0.8159612433D-02 E2=     -0.3261123008D-01
     alpha-beta  T2 =       0.4738970270D-01 E2=     -0.2034971196D+00
     beta-beta   T2 =       0.8159612433D-02 E2=     -0.3261123008D-01
 ANorm=    0.1031362656D+01
 E2 =    -0.2687195797D+00 EUMP2 =    -0.76328992281222D+02
 G2DrvN: will do     4 centers at a time, making    1 passes.
 Calling FoFCou, ICntrl=  3107 FMM=F I1Cent=   0 AccDes= 0.00D+00.
 End of G2Drv F.D. properties file   721 does not exist.
 End of G2Drv F.D. properties file   722 does not exist.
 End of G2Drv F.D. properties file   788 does not exist.
          IDoAtm=111
          Differentiating once with respect to electric field.
                with respect to dipole field.
          Differentiating once with respect to nuclear coordinates.
 Keep R1 ints in memory in symmetry-blocked form, NReq=22814166.
          There are    12 degrees of freedom in the 1st order CPHF.  IDoFFX=6 NUNeed=    12.
      9 vectors produced by pass  0 Test12= 3.62D-15 8.33D-09 XBig12= 1.91D+00 5.63D-01.
 AX will form     9 AO Fock derivatives at one time.
      9 vectors produced by pass  1 Test12= 3.62D-15 8.33D-09 XBig12= 1.13D-01 1.08D-01.
      9 vectors produced by pass  2 Test12= 3.62D-15 8.33D-09 XBig12= 3.23D-03 2.03D-02.
      9 vectors produced by pass  3 Test12= 3.62D-15 8.33D-09 XBig12= 4.45D-05 1.88D-03.
      9 vectors produced by pass  4 Test12= 3.62D-15 8.33D-09 XBig12= 7.32D-07 4.12D-04.
      9 vectors produced by pass  5 Test12= 3.62D-15 8.33D-09 XBig12= 3.55D-09 1.78D-05.
      7 vectors produced by pass  6 Test12= 3.62D-15 8.33D-09 XBig12= 1.06D-11 1.22D-06.
      3 vectors produced by pass  7 Test12= 3.62D-15 8.33D-09 XBig12= 7.07D-14 8.01D-08.
 InvSVY:  IOpt=1 It=  1 EMax= 4.44D-16
 Solved reduced A of dimension    64 with     9 vectors.
 End of Minotr F.D. properties file   721 does not exist.
 End of Minotr F.D. properties file   722 does not exist.
 End of Minotr F.D. properties file   788 does not exist.
 MDV=  5502926848.
 Form MO integral derivatives with frozen-active canonical formalism.
 Discarding MO integrals.
 Reordered first order wavefunction length =       378450
 In DefCFB: NBatch=  1 ICI=  5 ICA= 87 LFMax= 87
            Large arrays: LIAPS=    16808400 LIARS=    17584875 words.
 Semi-Direct transformation.
 ModeAB=           4 MOrb=             5 LenV=    5502538498
 LASXX=      1858375 LTotXX=     1858375 LenRXX=     3776950
 LTotAB=     1918575 MaxLAS=     1743400 LenRXY=           0
 NonZer=     5635325 LenScr=     8912896 LnRSAI=     1743400
 LnScr1=     2621440 LExtra=           0 Total=     17054686
 MaxDsk=          -1 SrtSym=           T ITran=            4
 JobTyp=0 Pass  1:  I=   1 to   5.
 (rs|ai) integrals will be sorted in core.
 Spin components of T(2) and E(2):
     alpha-alpha T2 =       0.8159612433D-02 E2=     -0.3261123008D-01
     alpha-beta  T2 =       0.4738970270D-01 E2=     -0.2034971196D+00
     beta-beta   T2 =       0.8159612433D-02 E2=     -0.3261123008D-01
 ANorm=    0.1458567055D+01
 E2 =    -0.2687195797D+00 EUMP2 =    -0.76328992281222D+02
          IDoAtm=111
          Differentiating once with respect to electric field.
                with respect to dipole field.
          Differentiating once with respect to nuclear coordinates.
          There are     1 degrees of freedom in the 1st order CPHF.  IDoFFX=0 NUNeed=     1.
 LinEq1:  Iter=  0 NonCon=     1 RMS=4.65D-03 Max=4.92D-02 NDo=     1
 LinEq1:  Iter=  1 NonCon=     1 RMS=6.31D-04 Max=4.82D-03 NDo=     1
 LinEq1:  Iter=  2 NonCon=     1 RMS=2.30D-04 Max=1.98D-03 NDo=     1
 LinEq1:  Iter=  3 NonCon=     1 RMS=6.20D-05 Max=4.65D-04 NDo=     1
 LinEq1:  Iter=  4 NonCon=     1 RMS=9.51D-06 Max=6.36D-05 NDo=     1
 LinEq1:  Iter=  5 NonCon=     1 RMS=1.61D-06 Max=1.10D-05 NDo=     1
 LinEq1:  Iter=  6 NonCon=     1 RMS=2.42D-07 Max=1.75D-06 NDo=     1
 LinEq1:  Iter=  7 NonCon=     1 RMS=2.77D-08 Max=2.37D-07 NDo=     1
 LinEq1:  Iter=  8 NonCon=     1 RMS=3.32D-09 Max=3.46D-08 NDo=     1
 LinEq1:  Iter=  9 NonCon=     1 RMS=3.24D-10 Max=2.14D-09 NDo=     1
 LinEq1:  Iter= 10 NonCon=     0 RMS=2.44D-11 Max=2.14D-10 NDo=     1
 Linear equations converged to 1.000D-10 1.000D-09 after    10 iterations.
 End of Minotr F.D. properties file   721 does not exist.
 End of Minotr F.D. properties file   722 does not exist.
 End of Minotr F.D. properties file   788 does not exist.
 Symmetrizing basis deriv contribution to polar:
 IMax=3 JMax=2 DiffMx= 0.00D+00
 G2DrvN: will do     4 centers at a time, making    1 passes.
 Calling FoFCou, ICntrl=  3107 FMM=F I1Cent=   0 AccDes= 0.00D+00.
 End of G2Drv F.D. properties file   721 does not exist.
 End of G2Drv F.D. properties file   722 does not exist.
 End of G2Drv F.D. properties file   788 does not exist.
 R2 and R3 integrals will be kept in memory, NReq=    32914790.
 DD1Dir will call FoFMem   1 times, MxPair=        30
 NAB=    15 NAA=     0 NBB=     0.
 Discarding MO integrals.

 **********************************************************************

            Population analysis using the MP2 density.

 **********************************************************************

 Orbital symmetries:
       Occupied  (A1) (A1) (B2) (A1) (B1)
       Virtual   (A1) (B2) (A1) (B1) (A1) (B2) (B2) (A1) (A2) (B1)
                 (A1) (B2) (A1) (B2) (B2) (A1) (A1) (A2) (B1) (A1)
                 (B1) (A1) (B2) (B1) (A2) (B2) (A1) (A1) (B2) (B1)
                 (B2) (A2) (A1) (B2) (A2) (A1) (B1) (A1) (B2) (B2)
                 (A1) (B1) (A2) (A1) (A1) (B1) (B2) (A1) (B2) (B1)
                 (A1) (B2) (A2) (B2) (A1) (A2) (B1) (A1) (B2) (B1)
                 (A1) (A2) (B1) (B2) (A1) (B2) (A2) (B2) (B2) (A1)
                 (B1) (A1) (A1) (B2) (B1) (A1) (B1) (B1) (B2) (A2)
                 (A1) (A2) (A1) (A1) (B2) (B2) (A1)
 The electronic state is 1-A1.
 Alpha  occ. eigenvalues --  -20.56813  -1.35175  -0.71468  -0.58501  -0.51015
 Alpha virt. eigenvalues --    0.02936   0.04770   0.13588   0.15879   0.17517
 Alpha virt. eigenvalues --    0.18309   0.22710   0.24492   0.26541   0.29996
 Alpha virt. eigenvalues --    0.31010   0.36579   0.43731   0.46601   0.59915
 Alpha virt. eigenvalues --    0.65850   0.70791   0.72268   0.73166   0.83052
 Alpha virt. eigenvalues --    0.84635   0.89223   0.91245   0.91821   0.92237
 Alpha virt. eigenvalues --    0.93081   0.96127   1.02078   1.04303   1.08245
 Alpha virt. eigenvalues --    1.10835   1.17615   1.18181   1.26105   1.50999
 Alpha virt. eigenvalues --    1.53477   1.58238   1.80540   1.82051   1.98356
 Alpha virt. eigenvalues --    2.11713   2.26261   2.31558   2.32680   2.41818
 Alpha virt. eigenvalues --    2.42052   2.44307   2.47961   2.67726   2.69800
 Alpha virt. eigenvalues --    2.77064   2.81493   2.88376   3.65199   3.74031
 Alpha virt. eigenvalues --    4.01753   4.08232   4.16280   4.24681   4.28632
 Alpha virt. eigenvalues --    4.37381   4.37692   4.40440   4.51712   4.72427
 Alpha virt. eigenvalues --    4.84195   5.14687   5.14783   5.24841   5.32135
 Alpha virt. eigenvalues --    5.52006   5.66077   6.17693   6.51290   6.70877
 Alpha virt. eigenvalues --    6.89727   7.13090   7.25081   7.29737   7.31103
 Alpha virt. eigenvalues --    7.32853   7.35405   7.52954   7.89504   7.92115
 Alpha virt. eigenvalues --    8.79830  15.70119
          Condensed to atoms (all electrons):
               1          2          3
     1  O    8.010992   0.209349   0.209349
     2  H    0.209349   0.562254   0.013553
     3  H    0.209349   0.013553   0.562254
 Mulliken charges:
               1
     1  O   -0.429689
     2  H    0.214845
     3  H    0.214845
 Sum of Mulliken charges =   0.00000
 Mulliken charges with hydrogens summed into heavy atoms:
               1
     1  O    0.000000
 APT charges:
               1
     1  O   -0.512545
     2  H    0.256273
     3  H    0.256273
 Sum of APT charges =   0.00000
 APT charges with hydrogens summed into heavy atoms:
               1
     1  O    0.000000
 Electronic spatial extent (au):  <R**2>=             20.0711
 Charge=              0.0000 electrons
 Dipole moment (field-independent basis, Debye):
    X=             -0.0000    Y=              0.0000    Z=             -1.8600  Tot=              1.8600
 Quadrupole moment (field-independent basis, Debye-Ang):
   XX=             -7.8538   YY=             -4.4612   ZZ=             -6.4735
   XY=              0.0000   XZ=              0.0000   YZ=             -0.0000
 Traceless Quadrupole moment (field-independent basis, Debye-Ang):
   XX=             -1.5910   YY=              1.8016   ZZ=             -0.2107
   XY=              0.0000   XZ=              0.0000   YZ=             -0.0000
 Octapole moment (field-independent basis, Debye-Ang**2):
  XXX=              0.0000  YYY=              0.0000  ZZZ=             -0.9511  XYY=             -0.0000
  XXY=             -0.0000  XXZ=             -0.1859  XZZ=              0.0000  YZZ=              0.0000
  YYZ=             -1.3308  XYZ=             -0.0000
 Hexadecapole moment (field-independent basis, Debye-Ang**3):
 XXXX=             -7.7253 YYYY=             -6.5753 ZZZZ=             -8.0245 XXXY=             -0.0000
 XXXZ=             -0.0000 YYYX=             -0.0000 YYYZ=              0.0000 ZZZX=             -0.0000
 ZZZY=              0.0000 XXYY=             -2.7204 XXZZ=             -2.6752 YYZZ=             -2.1085
 XXYZ=              0.0000 YYXZ=              0.0000 ZZXY=             -0.0000
 N-N= 9.155411353504D+00 E-N=-1.989534687963D+02  KE= 7.625514579276D+01
 Symmetry A1   KE= 6.805011029341D+01
 Symmetry A2   KE= 2.548163059812D-02
 Symmetry B1   KE= 4.452120947426D+00
 Symmetry B2   KE= 3.727432921327D+00
  Exact polarizability:   9.249   0.000  10.018   0.000  -0.000   9.555
 Approx polarizability:   6.199   0.000   7.863   0.000  -0.000   7.274
 Calling FoFJK, ICntrl=  10100127 FMM=F ISym2X=1 I1Cent= 0 IOpClX= 0 NMat=1 NMatS=1 NMatT=0.
 Full mass-weighted force constant matrix:
 Low frequencies ---   -0.0024   -0.0020    0.0013   14.2294   28.9679   44.9058
 Low frequencies --- 1628.8841 3821.0390 3946.5882
 Diagonal vibrational polarizability:
        0.0000000       0.1301175       0.7365519
 Harmonic frequencies (cm**-1), IR intensities (KM/Mole), Raman scattering
 activities (A**4/AMU), depolarization ratios for plane and unpolarized
 incident light, reduced masses (AMU), force constants (mDyne/A),
 and normal coordinates:
                      1                      2                      3
                     A1                     A1                     B2
 Frequencies --   1628.8841              3821.0390              3946.5882
 Red. masses --      1.0828                 1.0451                 1.0814
 Frc consts  --      1.6927                 8.9899                 9.9241
 IR Inten    --     71.6087                 5.5596                75.3089
  Atom  AN      X      Y      Z        X      Y      Z        X      Y      Z
     1   8    -0.00  -0.00  -0.07     0.00  -0.00   0.05    -0.00  -0.07  -0.00
     2   1     0.00   0.43   0.56     0.00   0.59  -0.40    -0.00   0.56  -0.43
     3   1     0.00  -0.43   0.56    -0.00  -0.59  -0.40     0.00   0.56   0.43

 -------------------
 - Thermochemistry -
 -------------------
 Temperature   298.150 Kelvin.  Pressure   1.00000 Atm.
 Atom     1 has atomic number  8 and mass  15.99491
 Atom     2 has atomic number  1 and mass   1.00783
 Atom     3 has atomic number  1 and mass   1.00783
 Molecular mass:    18.01056 amu.
 Principal axes and moments of inertia in atomic units:
                           1         2         3
     Eigenvalues --     2.23623   4.13567   6.37190
           X            0.00000   0.00000   1.00000
           Y            1.00000   0.00000  -0.00000
           Z           -0.00000   1.00000  -0.00000
 This molecule is an asymmetric top.
 Rotational symmetry number  2.
 Rotational temperatures (Kelvin)     38.73217    20.94313    13.59311
 Rotational constants (GHZ):         807.04745   436.38410   283.23447
 Zero-point vibrational energy      56203.6 (Joules/Mol)
                                   13.43299 (Kcal/Mol)
 Vibrational temperatures:   2343.60  5497.62  5678.26
          (Kelvin)
 
 Zero-point correction=                           0.021407 (Hartree/Particle)
 Thermal correction to Energy=                    0.024242
 Thermal correction to Enthalpy=                  0.025186
 Thermal correction to Gibbs Free Energy=         0.003762
 Sum of electronic and zero-point Energies=            -76.307585
 Sum of electronic and thermal Energies=               -76.304750
 Sum of electronic and thermal Enthalpies=             -76.303806
 Sum of electronic and thermal Free Energies=          -76.325230
 
                     E (Thermal)             CV                S
                      KCal/Mol        Cal/Mol-Kelvin    Cal/Mol-Kelvin
 Total                   15.212              6.009             45.091
 Electronic               0.000              0.000              0.000
 Translational            0.889              2.981             34.608
 Rotational               0.889              2.981             10.476
 Vibrational             13.435              0.047              0.007
                       Q            Log10(Q)             Ln(Q)
 Total Bot       0.185971D-01         -1.730555         -3.984751
 Total V=0       0.130585D+09          8.115893         18.687535
 Vib (Bot)       0.142469D-09         -9.846281        -22.671900
 Vib (V=0)       0.100039D+01          0.000168          0.000386
 Electronic      0.100000D+01          0.000000          0.000000
 Translational   0.300431D+07          6.477745         14.915559
 Rotational      0.434491D+02          1.637981          3.771591

     ==================================================
      Anharmonic Data: Displacement Vectors Definition
     ==================================================

 Framework definition based on atomic masses: C2V 

 **********************************************************************

                  Harmonic vibro-rotational analysis

 **********************************************************************


     ==================================================
               Analysis of the Rotor Symmetry
     ==================================================

 Framework Group : C2V 
 Rotor Type      : Asymmetric Top
 Asymm. param.   : Kappa = -0.415251
 Inertia moments : X=     1.78431 , Y=     0.62621 , Z=     1.15811
 Representation  : IIr Representation, Iy < Iz < Ix

 Axes Definition for the Symmetric-Top Representation
 ----------------------------------------------------
 Axis Z automatically chosen to be collinear with X from Eckart orient.
 NOTE: In Vibro-rotational analysis, this will be referred to as the
       spectroscopic orientation.

     ==================================================
        Vibro-Rotational Analysis Based on Symmetry
     ==================================================

 Representation A1  
 ------------------
    Z Translation
    2 Vibrations with frequencies:
   3821.04   1628.88

 Representation A2  
 ------------------
    Y Rotation
 No Vibration

 Representation B1  
 ------------------
    X Translation
    X Rotation
 No Vibration

 Representation B2  
 ------------------
    Y Translation
    Z Rotation
    1 Vibrations with frequencies:
   3946.59

 Input/Output information
 ------------------------
 Normal modes will be PRINTED in DESCENDING order (imag. freq. first)
   and sorted by irreducible representation
 The connection between this new numbering (A) and the one used before
   (H) is reported in the present equivalency table:
 ----+------+------+------+
 (H) |     1|     2|     3|
 (A) |     2|     1|     3|
 ----+------+------+------+

 Normal modes will be READ in ASCENDING order (imag. freq. first)

 Analysis of symmetry-allowed terms
 ----------------------------------

     ==================================================
                   Coriolis Couplings
     ==================================================

 Coriolis Couplings along the X axis
 -----------------------------------
                1             2             3 
      1   0.000000D+00
      2   0.000000D+00  0.000000D+00
      3   0.117699D-01  0.999931D+00  0.000000D+00

 Coriolis Couplings along the Y axis
 -----------------------------------
                1             2             3 
      1   0.000000D+00
      2   0.000000D+00  0.000000D+00
      3   0.000000D+00  0.000000D+00  0.000000D+00

 Coriolis Couplings along the Z axis
 -----------------------------------
                1             2             3 
      1   0.000000D+00
      2   0.000000D+00  0.000000D+00
      3   0.000000D+00  0.000000D+00  0.000000D+00

    2 Coriolis couplings larger than .100D-02 along the X axis
    No Coriolis coupling larger than .100D-02 along the Y axis
    No Coriolis coupling larger than .100D-02 along the Z axis

     ==================================================
      Inertia Moments Derivatives w.r.t. Normal Modes
     ==================================================

 Units: amu^1/2.Ang

                 Ixx        Ixy        Iyy        Ixz        Iyz        Izz
 Q(     1)     2.67138   -0.00000    0.92252   -0.00000    0.00000    1.74886
 Q(     2)    -0.03144   -0.00000   -1.28600    0.00000    0.00000    1.25455
 Q(     3)    -0.00000    0.00000   -0.00000    0.00000    1.27505   -0.00000

     ==================================================
               Vibro-rotational Alpha Matrix
     ==================================================

 Vibro-Rot alpha Matrix (in cm^-1)
 ---------------------------------
                 A(y)           B(z)           C(x)
 Q(     1)       -0.38663       -0.21967       -0.13975
 Q(     2)       -1.76246       -0.26517        0.19953
 Q(     3)       -0.38666       -0.20908       -0.17322

 Vibro-Rot alpha Matrix (in MHz)
 -------------------------------
                 A(y)           B(z)           C(x)
 Q(     1)   -11590.91761    -6585.51278    -4189.46159
 Q(     2)   -52837.36946    -7949.66428     5981.81537
 Q(     3)   -11591.88074    -6267.92439    -5193.01404

     ==================================================
          Quartic Centrifugal Distortion Constants
     ==================================================

 NOTE: Values in Cartesian coords. refer to the structure in Eckart orientation.

 Quartic Centrifugal Distortion Constants Tau Prime
 --------------------------------------------------
                      cm^-1                    MHz
 TauP aaaa     -0.8493809059D-01        -0.2546379895D+04
 TauP bbaa      0.1052258690D-01         0.3154592190D+03
 TauP bbbb     -0.8550632892D-02        -0.2563415252D+03
 TauP ccaa     -0.2824626313D-02        -0.8468016653D+02
 TauP ccbb     -0.1369227604D-02        -0.4104841090D+02
 TauP cccc     -0.9247068477D-03        -0.2772201388D+02

 Asymmetric Top Reduction
 ------------------------
       Asymmetry parameter     | Reference formula
  Kappa :        -0.4152507343 |    [2B-A-C]/[A-C]
  Delta :         0.2923746328 |       [B-C]/[A-C]
  Sigma :        -1.8271232710 | [2A'-B'-C']/[B'-C']

 (A,B,C)   : equilibrium rotational constants
 (A',B',C'): effective rotational constants

 Constants in the Asymmetrically reduced Hamiltonian
 ---------------------------------------------------
                        cm^-1                   MHz
  DELTA J  :    0.1168609043D-01         0.3503401776D+03
  DELTA K  :    0.2518554083D-01         0.7550435190D+03
  DELTA JK :   -0.3664045455D-01        -0.1098453193D+04
  delta J  :    0.4774216106D-02         0.1431273981D+03
  delta K  :   -0.1767151308D-01        -0.5297786343D+03

 Effective Rotational Constants
 (Include Terms due to Quartic Centrifugal Distortion Constants)
 ---------------------------------------------------------------
           Be in cm^-1             B(A) in cm^-1            B(A) in MHz
 a         26.920205320            26.908363613             806692.44684
 b         14.556206654            14.596681835             437597.51259
 c          9.447684917             9.419051442             282376.05840

 Nielsen Centrifugal Distortion Constants
 ----------------------------------------
                cm^-1                    MHz
 DJ     0.8106906145D-02         0.2430389320D+03
 DJK   -0.1516534881D-01        -0.4546457196D+03
 DK     0.7289619378D-02         0.2185372911D+03
 dJ     0.4774216106D-02         0.1431273981D+03
 R5     0.2296145634D-02         0.6883671434D+02
 R6    -0.1789592145D-02        -0.5365062279D+02

 Constants in the Symmetrically Reduced Hamiltonian
 --------------------------------------------------
                    cm^-1                     MHz
  D J  :    0.6850206244D-02         0.2053640168D+03
  D JK :   -0.7625149405D-02        -0.2285962283D+03
  D K  :    0.1006119873D-02         0.3016271498D+02
  d 1  :   -0.4774216106D-02        -0.1431273981D+03
  d 2  :   -0.2417942095D-02        -0.7248808040D+02


 Effective Rotational Constants
 (Include Terms due to Quartic Centrifugal Distortion Constants)
 ---------------------------------------------------------------
           Be in cm^-1             B(S) in cm^-1            B(S) in MHz
 a         26.920205320            26.934034871             807462.05178
 b         14.556206654            14.551667040             436248.00300
 c          9.447684917             9.443230863             283100.93920

 Wilson Centrifugal Distortion Constants
 ---------------------------------------
                cm^-1                    MHz
 DJ     0.2123452265D-01         0.6365949739D+03
 DJK   -0.4105673214D-01        -0.1230849864D+04
 DK     0.2005338620D-01         0.6011853941D+03

 Nielsen Centrifugal Distortion Constants
 ----------------------------------------
                cm^-1                    MHz
 DJ     0.8106906145D-02         0.2430389320D+03
 DJK   -0.1516534881D-01        -0.4546457196D+03
 DK     0.7289619378D-02         0.2185372911D+03
 dJ     0.4774216106D-02         0.1431273981D+03
 R5     0.2296145634D-02         0.6883671434D+02
 R6    -0.1789592145D-02        -0.5365062279D+02

     ==================================================
       Average Coordinates and Mean Square Amplitudes
     ==================================================

 NOTE: Temperature is given in K between parentheses
       For Cartesian and internal coords., units are given between
       parentheses next to each label

 Mean Square Amplitudes of Normal Coordinates (in amu.bohr^2)
 -----------------------------------------------------------
 Mode    <Q^2> (0)    <Q^2> (298.15)    <Q^2> (298.15) class.
    1     0.015755       0.015755          0.067462
    2     0.036958       0.036986          0.371232
    3     0.015254       0.015254          0.063239

 Mean Square Amplitudes of Cartesian Coordinates
 -----------------------------------------------
    Label        <(S-Se)^2>^1/2 (0)    <(S-Se)^2>^1/2 (298.15)
 X(1)  (Angs)        0.000000              0.000000
 Y(1)  (Angs)        0.004404              0.004404
 Z(1)  (Angs)        0.007635              0.007638
 X(2)  (Angs)        0.000000              0.000000
 Y(2)  (Angs)        0.066416              0.066426
 Z(2)  (Angs)        0.066443              0.066461
 X(3)  (Angs)        0.000000              0.000000
 Y(3)  (Angs)        0.066416              0.066426
 Z(3)  (Angs)        0.066443              0.066461
 ***** Axes restored to original set *****
 -------------------------------------------------------------------
 Center     Atomic                   Forces (Hartrees/Bohr)
 Number     Number              X              Y              Z
 -------------------------------------------------------------------
      1        8           0.000121120    0.000000000    0.000092938
      2        1          -0.000053831    0.000000000   -0.000055239
      3        1          -0.000067289   -0.000000000   -0.000037699
 -------------------------------------------------------------------
[...]
                1             2             3
      1 -0.878897D+02
      2  0.593425D+02 -0.130368D+02
      3 -0.343728D+03  0.441951D+02 -0.932116D+02

 4th Deriv. contributions to X Matrix (in cm^-1)
 -----------------------------------------------
                1             2             3
      1  0.470375D+02
      2 -0.762636D+02 -0.278196D+01
      3  0.188652D+03 -0.911958D+02  0.470258D+02

 Total Anharmonic X Matrix (in cm^-1)
 ------------------------------------
                1             2             3
      1 -0.408523D+02
      2 -0.169210D+02 -0.158187D+02
      3 -0.155073D+03 -0.202145D+02 -0.461859D+02

     ==================================================
                Anharmonic Zero Point Energy
     ==================================================

 Anharmonic X0 Term
 ------------------
 U term         : cm-1 =   -12.73102 ; Kcal/mol =  -0.036 ; KJ/mol =  -0.152
 Coriolis       : cm-1 =    -4.72384 ; Kcal/mol =  -0.014 ; KJ/mol =  -0.057
 Anharmonic     : cm-1 =    19.80945 ; Kcal/mol =   0.057 ; KJ/mol =   0.237
 Total X0       : cm-1 =     2.35458 ; Kcal/mol =   0.007 ; KJ/mol =   0.028

 Anharmonic Zero Point Energy
 ----------------------------
 Harmonic       : cm-1 =  4698.25565 ; Kcal/mol =  13.433 ; KJ/mol =  56.204
 Anharmonic Pot.: cm-1 =   -60.65411 ; Kcal/mol =  -0.173 ; KJ/mol =  -0.726
 Watson+Coriolis: cm-1 =   -10.75765 ; Kcal/mol =  -0.031 ; KJ/mol =  -0.129
 Total Anharm   : cm-1 =  4626.84389 ; Kcal/mol =  13.229 ; KJ/mol =  55.349

     ==================================================
          Vibrational Energies at Anharmonic Level
     ==================================================

 Units: Vibrational energies and rotational constants in cm^-1.
 NOTE: Transition energies are given with respect to the ground state.

 Reference Data
 --------------
                              E(harm)  E(anharm)     Aa(y)      Ba(z)      Ca(x)
 Equilibrium Geometry                             26.908364  14.596682   9.419051
 Ground State                 4698.256  4626.844  27.273790  14.533575   9.191870

 Fundamental Bands
 -----------------
     Mode(n)      Status      E(harm)  E(anharm)     Aa(y)      Ba(z)      Ca(x)
        1(1)      active      3821.039  3653.337  26.596352  14.323881   9.019682
        2(1)      active      1628.884  1578.679  29.798877  14.709089   9.048498
        3(1)      active      3946.588  3766.573  26.156995  14.441540   9.053067

 Overtones
 ---------
     Mode(n)                  E(harm)  E(anharm)     Aa(y)      Ba(z)      Ca(x)
        1(2)                  7642.078  7224.970  25.918914  14.114188   8.847495
        2(2)                  3257.768  3125.720  32.323964  14.884602   8.905126
        3(2)                  7893.176  7440.774  25.040200  14.349505   8.914264

 Combination Bands
 -----------------
     Mode(n)     Mode(n)      E(harm)  E(anharm)     Aa(y)      Ba(z)      Ca(x)
        2(1)        1(1)      5449.923  5215.095  29.121439  14.499395   8.876310
        3(1)        1(1)      7767.627  7264.837  25.479557  14.231847   8.880879
        3(1)        2(1)      5575.472  5325.037  28.682082  14.617054   8.909695

     ==================================================
      Thermodynamic properties and Partition Functions
     ==================================================

 ZPE(harm) = 0.56204D+02 kJ/mol        ZPE(anh)= 0.55349D+02 kJ/mol

 Input values of T(K) and P(atm): 298.15   1.00
                    Harmonic value     SPT anharmonic value
 Qvib               0.14247D-09          0.20111D-09
 QZvib              0.10004D+01          0.10005D+01
 Energy             0.63648D+02          0.62796D+02         kJ/mol
 Enthalpy           0.66127D+02          0.65274D+02         kJ/mol
 Entropy            0.18866D+03          0.18867D+03         J/(mol K)
 Sp.Heat(V)         0.25142D+02          0.25181D+02         J/(mol K)
 Sp.Heat(P)         0.33456D+02          0.33495D+02         J/(mol K)

 T =  298.15 K;  P =   1.00 atm
                    Harmonic value     SPT anharmonic value
 Qvib               0.14247D-09          0.20111D-09
 QZvib              0.10004D+01          0.10005D+01
 Energy             0.63648D+02          0.62796D+02         kJ/mol
 Enthalpy           0.66127D+02          0.65274D+02         kJ/mol
 Entropy            0.18866D+03          0.18867D+03         J/(mol K)
 Sp.Heat(V)         0.25142D+02          0.25181D+02         J/(mol K)
 Sp.Heat(P)         0.33456D+02          0.33495D+02         J/(mol K)

 T =  500.00 K;  P =   1.00 atm
                    Harmonic value     SPT anharmonic value
 Qvib               0.13570D-05          0.16691D-05
 QZvib              0.10093D+01          0.10108D+01
 Energy             0.68858D+02          0.68026D+02         kJ/mol
 Enthalpy           0.73015D+02          0.72184D+02         kJ/mol
 Entropy            0.20627D+03          0.20633D+03         J/(mol K)
 Sp.Heat(V)         0.26687D+02          0.26853D+02         J/(mol K)
 Sp.Heat(P)         0.35002D+02          0.35168D+02         J/(mol K)

 T = 1000.00 K;  P =   1.00 atm
                    Harmonic value     SPT anharmonic value
 Qvib               0.12923D-02          0.14467D-02
 QZvib              0.11145D+01          0.11259D+01
 Energy             0.83566D+02          0.82895D+02         kJ/mol
 Enthalpy           0.91880D+02          0.91209D+02         kJ/mol
 Entropy            0.23220D+03          0.23247D+03         J/(mol K)
 Sp.Heat(V)         0.32268D+02          0.32748D+02         J/(mol K)
 Sp.Heat(P)         0.40582D+02          0.41062D+02         J/(mol K)

 T = 1500.00 K;  P =   1.00 atm
                    Harmonic value     SPT anharmonic value
 Qvib               0.14664D-01          0.16056D-01
 QZvib              0.13286D+01          0.13584D+01
 Energy             0.10108D+03          0.10069D+03         kJ/mol
 Enthalpy           0.11356D+03          0.11317D+03         kJ/mol
 Entropy            0.24970D+03          0.25020D+03         J/(mol K)
 Sp.Heat(V)         0.37598D+02          0.38191D+02         J/(mol K)
 Sp.Heat(P)         0.45912D+02          0.46506D+02         J/(mol K)

 T = 2000.00 K;  P =   1.00 atm
                    Harmonic value     SPT anharmonic value
 Qvib               0.55984D-01          0.60978D-01
 QZvib              0.16441D+01          0.17011D+01
 Energy             0.12089D+03          0.12079D+03         kJ/mol
 Enthalpy           0.13752D+03          0.13742D+03         kJ/mol
 Entropy            0.26347D+03          0.26412D+03         J/(mol K)
 Sp.Heat(V)         0.41379D+02          0.41900D+02         J/(mol K)
 Sp.Heat(P)         0.49694D+02          0.50215D+02         J/(mol K)

     ==================================================
               Anharmonic Transition Moments
     ==================================================

 Electric dipole : Fundamental Bands
 ------------------------------------------------------------------------
   Mode(n)                            X               Y               Z
      1(1)                      -0.297570D-12   -0.865484D-11   -0.858366D-02
      2(1)                       0.439329D-13    0.260755D-10   -0.531941D-01
      3(1)                       0.131837D-12    0.343753D-01    0.215378D-10

 Electric dipole : Overtones
 ------------------------------------------------------------------------
   Mode(n)                            X               Y               Z
      1(2)                      -0.253081D-12   -0.480982D-12    0.167483D-02
      2(2)                      -0.119028D-11    0.441288D-11    0.347254D-02
      3(2)                      -0.338404D-14   -0.427418D-12   -0.375963D-03

 Electric dipole : Combination Bands
 ------------------------------------------------------------------------
   Mode(n)     Mode(n)                X               Y               Z
      2(1)        1(1)           0.644281D-13   -0.876496D-12    0.853283D-03
      3(1)        1(1)           0.267336D-12   -0.437947D-02   -0.995867D-12
      3(1)        2(1)          -0.872973D-13   -0.677256D-02    0.274137D-11

     ==================================================
              Anharmonic Infrared Spectroscopy
     ==================================================

 Units: Transition energies (E) in cm^-1
        Integrated intensity (I) in km.mol^-1

 Fundamental Bands
 -----------------
   Mode(n)                  E(harm)   E(anharm)        I(harm)       I(anharm)
      1(1)                  3821.039   3653.337      5.55957949      4.35905191
      2(1)                  1628.884   1578.679     71.60873544     72.33984286
      3(1)                  3946.588   3766.573     75.30889678     72.07699519

 Overtones
 ---------
   Mode(n)                  E(harm)   E(anharm)                      I(anharm)
      1(2)                  7642.078   7224.970                      0.32819508
      2(2)                  3257.768   3125.720                      0.61038355
      3(2)                  7893.176   7440.774                      0.01703195

 Combination Bands
 -----------------
   Mode(n)     Mode(n)      E(harm)   E(anharm)                      I(anharm)
      2(1)        1(1)      5449.923   5215.095                      0.06149007
      3(1)        1(1)      7767.627   7264.837                      2.25645069
      3(1)        2(1)      5575.472   5325.037                      3.95535143

 Units: Transition energies (E) in cm^-1
        Dipole strengths (DS) in 10^-40 esu^2.cm^2

 Fundamental Bands
 -----------------
   Mode(n)                  E(harm)   E(anharm)       DS(harm)      DS(anharm)
      1(1)                  3821.039   3653.337      5.80454099      4.76002967
      2(1)                  1628.884   1578.679    175.38127522    182.80630424
      3(1)                  3946.588   3766.573     76.12580028     76.34097778

 Overtones
 ---------
   Mode(n)                  E(harm)   E(anharm)                     DS(anharm)
      1(2)                  7642.078   7224.970                      0.18121886
      2(2)                  3257.768   3125.720                      0.77904065
      3(2)                  7893.176   7440.774                      0.00913174

 Combination Bands
 -----------------
   Mode(n)     Mode(n)      E(harm)   E(anharm)                     DS(anharm)
      2(1)        1(1)      5449.923   5215.095                      0.04703814
      3(1)        1(1)      7767.627   7264.837                      1.23910288
      3(1)        2(1)      5575.472   5325.037                      2.96326055


 GradGradGradGradGradGradGradGradGradGradGradGradGradGradGradGradGradGrad
 Berny optimization.
 Internal  Forces:  Max     0.000096986 RMS     0.000072123
 Search for a local minimum.
 Step number   1 out of a maximum of    2
 All quantities printed in internal units (Hartrees-Bohrs-Radians)
 Second derivative matrix not updated -- analytic derivatives used.
 The second derivative matrix:
                          R1        R2        A1
           R1           0.54205
           R2          -0.00884   0.54205
           A1           0.03202   0.03202   0.15871
 ITU=  0
     Eigenvalues ---    0.15331   0.53860   0.55089
 Angle between quadratic step and forces=  22.08 degrees.
 Linear search not attempted -- first point.
 Iteration  1 RMS(Cart)=  0.00034191 RMS(Int)=  0.00000009
 Iteration  2 RMS(Cart)=  0.00000009 RMS(Int)=  0.00000000
 ClnCor:  largest displacement from symmetrization is 1.80D-15 for atom     1.
 Variable       Old X    -DE/DX   Delta X   Delta X   Delta X     New X
                                 (Linear)    (Quad)   (Total)
    R1        1.81687  -0.00006   0.00000  -0.00014  -0.00014   1.81673
    R2        1.81687  -0.00006   0.00000  -0.00014  -0.00014   1.81673
    A1        1.81638   0.00010   0.00000   0.00067   0.00067   1.81705
         Item               Value     Threshold  Converged?
 Maximum Force            0.000097     0.000450     YES
 RMS     Force            0.000072     0.000300     YES
 Maximum Displacement     0.000322     0.001800     YES
 RMS     Displacement     0.000342     0.001200     YES
 Predicted change in Energy=-4.051434D-08
 Optimization completed.
    -- Stationary point found.
                           ----------------------------
                           !   Optimized Parameters   !
                           ! (Angstroms and Degrees)  !
 --------------------------                            --------------------------
 ! Name  Definition              Value          Derivative Info.                !
 --------------------------------------------------------------------------------
 ! R1    R(1,2)                  0.9614         -DE/DX =   -0.0001              !
 ! R2    R(1,3)                  0.9614         -DE/DX =   -0.0001              !
 ! A1    A(2,1,3)              104.0707         -DE/DX =    0.0001              !
 --------------------------------------------------------------------------------
 GradGradGradGradGradGradGradGradGradGradGradGradGradGradGradGradGradGrad


 ----------------------------------------------------------------------

 Electric dipole moment (input orientation):
 (Debye = 10**-18 statcoulomb cm , SI units = C m)
                  (au)            (Debye)         (10**-30 SI)
   Tot        0.731794D+00      0.186003D+01      0.620441D+01
   x          0.580571D+00      0.147566D+01      0.492229D+01
   y          0.000000D+00      0.000000D+00      0.000000D+00
   z          0.445488D+00      0.113232D+01      0.377700D+01

 Dipole polarizability, Alpha (input orientation).
 (esu units = cm**3 , SI units = C**2 m**2 J**-1)
 Alpha(0;0):
               (au)            (10**-24 esu)      (10**-40 SI)
   iso        0.960738D+01      0.142367D+01      0.158404D+01
   aniso      0.670746D+00      0.993943D-01      0.110591D+00
   xx         0.972644D+01      0.144131D+01      0.160367D+01
   yx         0.000000D+00      0.000000D+00      0.000000D+00
   yy         0.924923D+01      0.137059D+01      0.152499D+01
   zx        -0.223969D+00     -0.331888D-01     -0.369275D-01
   zy         0.000000D+00      0.000000D+00      0.000000D+00
   zz         0.984647D+01      0.145910D+01      0.162346D+01

 ----------------------------------------------------------------------

 Dipole orientation:
     8          0.00000000         -0.00000000         -0.00120918
     1         -1.43240372         -0.00000000          1.11648519
     1          1.43240372          0.00000000          1.11648519

 Electric dipole moment (dipole orientation):
 (Debye = 10**-18 statcoulomb cm , SI units = C m)
                  (au)            (Debye)         (10**-30 SI)
   Tot        0.731794D+00      0.186003D+01      0.620441D+01
   x          0.000000D+00      0.000000D+00      0.000000D+00
   y          0.000000D+00      0.000000D+00      0.000000D+00
   z          0.731794D+00      0.186003D+01      0.620441D+01

 Dipole polarizability, Alpha (dipole orientation).
 (esu units = cm**3 , SI units = C**2 m**2 J**-1)
 Alpha(0;0):
               (au)            (10**-24 esu)      (10**-40 SI)
   iso        0.960738D+01      0.142367D+01      0.158404D+01
   aniso      0.670746D+00      0.993943D-01      0.110591D+00
   xx         0.100183D+02      0.148456D+01      0.165180D+01
   yx         0.000000D+00      0.000000D+00      0.000000D+00
   yy         0.924923D+01      0.137059D+01      0.152499D+01
   zx         0.000000D+00      0.000000D+00      0.000000D+00
   zy         0.000000D+00      0.000000D+00      0.000000D+00
   zz         0.955458D+01      0.141584D+01      0.157534D+01

 ----------------------------------------------------------------------
 1\1\GINC-N2209\Freq\RMP2-FC\Aug-CC-pVTZ\H2O1\GDS001\30-Nov-2021\0\\#N 
 Geom=AllCheck Guess=TCheck SCRF=Check GenChk RMP2(FC)/Aug-CC-pVTZ Freq
 \\water\\0,1\O,-0.0005076424,0.,-0.0003895277\H,0.0072894813,0.,0.9610
 25713\H,0.9301662126,0.,-0.2416906591\\Version=ES64L-G16RevA.03\State=
 1-A1\HF=-76.0602727\MP2=-76.3289923\RMSD=1.556e-09\RMSF=6.254e-05\Zero
 Point=0.0214068\Thermal=0.0242422\Dipole=0.5805711,0.,0.4454879\Dipole
 Deriv=-0.418696,0.,0.08492,0.,-0.6547353,0.,0.08492,0.,-0.4642045,0.26
 60943,0.,-0.0478294,0.,0.3273677,0.,-0.0675009,0.,0.1753559,0.1526016,
 0.,-0.0370906,0.,0.3273677,0.,-0.0174191,0.,0.2888486\Polar=9.7264405,
 0.,9.2492284,-0.2239688,0.,9.846465\Quadrupole=0.3978155,-1.1828498,0.
 7850343,0.,-0.7225602,0.\PG=C02V [C2(O1),SGV(H2)]\NImag=0\\0.54002034,
 0.,0.00013660,-0.11117367,0.,0.59959813,-0.04275827,0.,-0.03719648,0.0
 4785564,0.,-0.00006830,0.,0.,0.00003801,0.02658622,0.,-0.52705097,-0.0
 1364442,0.,0.54230338,-0.49726207,0.,0.14837015,-0.00509738,0.,-0.0129
 4180,0.50235945,0.,-0.00006830,0.,0.,0.00003029,0.,0.,0.00003801,0.084
 58745,0.,-0.07254716,0.05084090,0.,-0.01525241,-0.13542835,0.,0.087799
 57\\-0.00012112,0.,-0.00009294,0.00005383,0.,0.00005524,0.00006729,0.,
 0.00003770\\-0.04196615,0.,0.09757689,0.34862756,0.,-0.22879510,0.0107
 4100,0.,-0.17216801,0.02188888,0.,-0.04878844,0.,0.,0.00989118,-0.1709
 7085,0.,0.12463963,0.14428522,0.,-0.07738818,0.03122516,0.,-0.17645955
 ,-0.03262988,0.,0.02668563,0.00140472,0.,-0.04878844,0.,0.,0.03889727,
 0.,0.,0.00989117,-0.17765671,0.,0.10415548,0.02788279,0.,-0.04725145,0
 .14977392,0.,-0.05690402,-1.11723573,0.,0.38572002,0.37487075,0.,-1.31
 812837,-0.16454562,0.,0.03725167,0.15622381,0.,-0.19286001,0.,0.,0.207
 74205,-0.02458027,0.,1.38222768,0.02214794,0.,-1.40581382,1.28178136,0
 .,-0.41212242,0.00832181,0.,0.00243233,-1.29010317,0.,-0.19286001,0.,0
 .,-0.01488204,0.,0.,0.20774205,-0.35029048,0.,-0.06409931,-0.05939961,
 0.,0.02358615,0.40969009,0.,0.04051316,1.54133558,0.,0.,-0.41299962,0.
 ,-1.54133558,-0.19701079,0.,0.02839389,0.18369405,0.,-0.22189263,0.,0.
 ,0.22189263,0.02839389,0.,1.43977146,-0.02482568,0.,-1.42645472,-1.344
 32479,0.,0.38460573,0.01331674,0.,-0.00356821,1.33100804,0.,0.22189263
 ,0.,0.,0.,0.,0.,-0.22189263,0.38460573,0.,0.10156412,-0.00356821,0.,-0
 .01331674,-0.38103752,0.,-0.08824737,-0.65157303,0.00000054,0.02473337
 ,-0.11711659,-0.00000023,-0.58880922,-0.04785011,-0.00000011,0.2337337
 9,0.08681335,-0.00000065,-0.01236671,-0.00000023,0.00000015,0.01149524
 ,0.08361402,0.00000009,0.66804065,-0.13960492,0.00000030,-0.63929657,0
 .69942314,-0.00000042,-0.11661721,-0.03896324,0.00000050,0.05599090,-0
 .66045990,0.00000011,-0.01236663,0.00000046,-0.00000004,0.00087148,-0.
 00000039,-0.00000008,0.01149515,0.03350256,0.00000014,-0.07923143,-0.0
 9412887,-0.00000007,-0.02874409,0.06062631,-0.00000007,0.10797552,2.43
 241850,-0.00000046,-1.35896543,-0.92879623,0.00000026,2.93015897,0.642
 76752,-0.00000004,-0.07783530,-0.64613617,0.00000083,0.67948275,0.0000
 0025,-0.00000008,-0.71637185,0.01040918,-0.00000027,-3.32405586,-0.003
 21885,-0.00000025,3.34047869,-3.07518601,0.00000051,1.00663152,0.00336
 864,-0.00000074,-0.00719032,3.07181736,-0.00000037,0.67948272,-0.00000
 051,0.00000012,0.03688910,0.00000053,0.00000023,-0.71637182,0.91838705
 ,0.,0.39389690,0.08105415,0.,-0.01642283,-0.99944120,-0.00000001,-0.37
 747407,2.53861631,0.00000001,-1.51713898,-0.78030375,0.00000041,2.9567
 7988,0.71367167,-0.00000003,-0.13936957,-0.71954076,0.00000020,0.75856
 949,-0.00000013,-0.00000002,-0.75409071,-0.14300236,-0.00000038,-3.461
 36977,0.13982409,0.00000010,3.45623049,-3.25228798,0.00000003,0.919673
 31,0.00586909,-0.00000018,0.00317826,3.24641889,-0.00000022,0.75856951
 ,-0.00000028,0.00000005,-0.00447877,0.00000028,0.00000016,-0.75409074,
 0.92330610,-0.00000002,0.50458989,-0.00045452,0.00000002,0.00513929,-0
 .92285158,0.,-0.50972918\\@


 STEINBACH'S GUIDELINES FOR SYSTEMS PROGRAMMING:
 NEVER TEST FOR AN ERROR CONDITION YOU DON'T KNOW HOW
 TO HANDLE.
 Job cpu time:       0 days  1 hours 11 minutes 23.4 seconds.
 Elapsed time:       0 days  0 hours  2 minutes 38.9 seconds.
 File lengths (MBytes):  RWF=    380 Int=      0 D2E=      0 Chk=     44 Scr=      8
 Normal termination of Gaussian 16 at Tue Nov 30 10:37:01 2021.
