 Entering Gaussian System, Link 0=g16
 Input=h2o_anharm.gjf
 Output=h2o_anharm.log
 Initial command:
 /sw/contrib/gaussian/g16/A03/g16/l1.exe "/gscratch/scrubbed/gds001/Gau-28885.inp" -scrdir="/gscratch/scrubbed/gds001/"
 Entering Link 1 = /sw/contrib/gaussian/g16/A03/g16/l1.exe PID=     28887.
  
 Copyright (c) 1988,1990,1992,1993,1995,1998,2003,2009,2016,
            Gaussian, Inc.  All Rights Reserved.
  
 This is part of the Gaussian(R) 16 program.  It is based on
 the Gaussian(R) 09 system (copyright 2009, Gaussian, Inc.),
 the Gaussian(R) 03 system (copyright 2003, Gaussian, Inc.),
 the Gaussian(R) 98 system (copyright 1998, Gaussian, Inc.),
 the Gaussian(R) 94 system (copyright 1995, Gaussian, Inc.),
 the Gaussian 92(TM) system (copyright 1992, Gaussian, Inc.),
 the Gaussian 90(TM) system (copyright 1990, Gaussian, Inc.),
 the Gaussian 88(TM) system (copyright 1988, Gaussian, Inc.),
 the Gaussian 86(TM) system (copyright 1986, Carnegie Mellon
 University), and the Gaussian 82(TM) system (copyright 1983,
 Carnegie Mellon University). Gaussian is a federally registered
 trademark of Gaussian, Inc.
  
 This software contains proprietary and confidential information,
 including trade secrets, belonging to Gaussian, Inc.
  
 This software is provided under written license and may be
 used, copied, transmitted, or stored only in accord with that
 written license.
  
 The following legend is applicable only to US Government
 contracts under FAR:
  
                    RESTRICTED RIGHTS LEGEND
  
 Use, reproduction and disclosure by the US Government is
 subject to restrictions as set forth in subparagraphs (a)
 and (c) of the Commercial Computer Software - Restricted
 Rights clause in FAR 52.227-19.
  
 Gaussian, Inc.
 340 Quinnipiac St., Bldg. 40, Wallingford CT 06492
  
  
 ---------------------------------------------------------------
 Warning -- This program may not be used in any manner that
 competes with the business of Gaussian, Inc. or will provide
 assistance to any competitor of Gaussian, Inc.  The licensee
 of this program is prohibited from giving any competitor of
 Gaussian, Inc. access to this program.  By using this program,
 the user acknowledges that Gaussian, Inc. is engaged in the
 business of creating and licensing software in the field of
 computational chemistry and represents and warrants to the
 licensee that it is not a competitor of Gaussian, Inc. and that
 it will not use this program in any manner prohibited above.
 ---------------------------------------------------------------
  

 Cite this work as:
 Gaussian 16, Revision A.03,
 M. J. Frisch, G. W. Trucks, H. B. Schlegel, G. E. Scuseria, 
 M. A. Robb, J. R. Cheeseman, G. Scalmani, V. Barone, 
 G. A. Petersson, H. Nakatsuji, X. Li, M. Caricato, A. V. Marenich, 
 J. Bloino, B. G. Janesko, R. Gomperts, B. Mennucci, H. P. Hratchian, 
 J. V. Ortiz, A. F. Izmaylov, J. L. Sonnenberg, D. Williams-Young, 
 F. Ding, F. Lipparini, F. Egidi, J. Goings, B. Peng, A. Petrone, 
 T. Henderson, D. Ranasinghe, V. G. Zakrzewski, J. Gao, N. Rega, 
 G. Zheng, W. Liang, M. Hada, M. Ehara, K. Toyota, R. Fukuda, 
 J. Hasegawa, M. Ishida, T. Nakajima, Y. Honda, O. Kitao, H. Nakai, 
 T. Vreven, K. Throssell, J. A. Montgomery, Jr., J. E. Peralta, 
 F. Ogliaro, M. J. Bearpark, J. J. Heyd, E. N. Brothers, K. N. Kudin, 
 V. N. Staroverov, T. A. Keith, R. Kobayashi, J. Normand, 
 K. Raghavachari, A. P. Rendell, J. C. Burant, S. S. Iyengar, 
 J. Tomasi, M. Cossi, J. M. Millam, M. Klene, C. Adamo, R. Cammi, 
 J. W. Ochterski, R. L. Martin, K. Morokuma, O. Farkas, 
 J. B. Foresman, and D. J. Fox, Gaussian, Inc., Wallingford CT, 2016.
 
 ******************************************
 Gaussian 16:  ES64L-G16RevA.03 25-Dec-2016
                 3-Aug-2020 
 ******************************************
 %nprocshared=28
 Will use up to   28 processors via shared memory.
 %mem=41GB
 %chk=h2o.chk
 ----------------------------------------------
 # MP2/aug-cc-pVDZ Opt Freq=(vibrot,anharmonic)
 ----------------------------------------------
 1/18=20,19=15,38=1,80=1/1,3;
 2/9=110,12=2,17=6,18=5,40=1/2;
 3/5=16,7=10,11=9,25=1,30=1,71=1/1,2,3;
 4//1;
 5/5=2,38=5/2;
 8/6=4,10=1/1;
 9/15=2,16=-3/6;
 10/5=1/2;
 6/7=2,8=2,9=2,10=2/1;
 7/12=2/1,2,3,16;
 1/18=20,19=15,80=1/3(2);
 2/9=110/2;
 99//99;
 2/9=110/2;
 3/5=16,7=10,11=9,25=1,30=1,71=1/1,2,3;
 4/5=5,16=3,69=1/1;
 5/5=2,38=5/2;
 8/6=4,10=1/1;
 9/15=2,16=-3/6;
 10/5=1/2;
 7/12=2/1,2,3,16;
 1/18=20,19=15,80=1/3(-8);
 2/9=110/2;
 6/7=2,8=2,9=2,10=2/1;
 99//99;
 ----------------------------
 Water Anharmonic Frequencies
 ----------------------------
 Symbolic Z-matrix:
 Charge =  0 Multiplicity = 1
 O                     0.        0.       -0.134 
 H                    -0.759     0.        0.462 
 H                     0.759     0.        0.462 
 

 GradGradGradGradGradGradGradGradGradGradGradGradGradGradGradGradGradGrad
 Berny optimization.
 Initialization pass.
                           ----------------------------
                           !    Initial Parameters    !
                           ! (Angstroms and Degrees)  !
 --------------------------                            --------------------------
 ! Name  Definition              Value          Derivative Info.                !
 --------------------------------------------------------------------------------
 ! R1    R(1,2)                  0.965          estimate D2E/DX2                !
 ! R2    R(1,3)                  0.965          estimate D2E/DX2                !
 ! A1    A(2,1,3)              103.7189         estimate D2E/DX2                !
 --------------------------------------------------------------------------------
 Trust Radius=3.00D-01 FncErr=1.00D-07 GrdErr=1.00D-07 EigMax=2.50D+02 EigMin=1.00D-04
 Number of steps in this run=     20 maximum allowed number of steps=    100.
 GradGradGradGradGradGradGradGradGradGradGradGradGradGradGradGradGradGrad

                          Input orientation:                          
 ---------------------------------------------------------------------
 Center     Atomic      Atomic             Coordinates (Angstroms)
 Number     Number       Type             X           Y           Z
 ---------------------------------------------------------------------
      1          8           0        0.000000    0.000000   -0.134000
      2          1           0       -0.759000    0.000000    0.462000
      3          1           0        0.759000    0.000000    0.462000
 ---------------------------------------------------------------------
                    Distance matrix (angstroms):
                    1          2          3
     1  O    0.000000
     2  H    0.965037   0.000000
     3  H    0.965037   1.518000   0.000000
 Stoichiometry    H2O
 Framework group  C2V[C2(O),SGV(H2)]
 Deg. of freedom     2
 Full point group                 C2V     NOp   4
 Largest Abelian subgroup         C2V     NOp   4
 Largest concise Abelian subgroup C2      NOp   2
                         Standard orientation:                         
 ---------------------------------------------------------------------
 Center     Atomic      Atomic             Coordinates (Angstroms)
 Number     Number       Type             X           Y           Z
 ---------------------------------------------------------------------
      1          8           0        0.000000   -0.000000    0.119200
      2          1           0        0.000000    0.759000   -0.476800
      3          1           0       -0.000000   -0.759000   -0.476800
 ---------------------------------------------------------------------
 Rotational constants (GHZ):         794.7946677         435.2296851         281.2287677
 Standard basis: Aug-CC-pVDZ (5D, 7F)
 There are    20 symmetry adapted cartesian basis functions of A1  symmetry.
 There are     4 symmetry adapted cartesian basis functions of A2  symmetry.
 There are     7 symmetry adapted cartesian basis functions of B1  symmetry.
 There are    12 symmetry adapted cartesian basis functions of B2  symmetry.
 There are    18 symmetry adapted basis functions of A1  symmetry.
 There are     4 symmetry adapted basis functions of A2  symmetry.
 There are     7 symmetry adapted basis functions of B1  symmetry.
 There are    12 symmetry adapted basis functions of B2  symmetry.
    41 basis functions,    65 primitive gaussians,    43 cartesian basis functions
     5 alpha electrons        5 beta electrons
       nuclear repulsion energy         9.1221850871 Hartrees.
 NAtoms=    3 NActive=    3 NUniq=    2 SFac= 2.25D+00 NAtFMM=   60 NAOKFM=F Big=F
 Integral buffers will be    131072 words long.
 Raffenetti 1 integral format.
 Two-electron integral symmetry is turned on.
 One-electron integrals computed using PRISM.
 NBasis=    41 RedAO= T EigKep=  2.72D-03  NBF=    18     4     7    12
 NBsUse=    41 1.00D-06 EigRej= -1.00D+00 NBFU=    18     4     7    12
 ExpMin= 2.97D-02 ExpMax= 1.17D+04 ExpMxC= 4.01D+02 IAcc=3 IRadAn=         5 AccDes= 0.00D+00
 Harris functional with IExCor=  205 and IRadAn=       5 diagonalized for initial guess.
 HarFok:  IExCor=  205 AccDes= 0.00D+00 IRadAn=         5 IDoV= 1 UseB2=F ITyADJ=14
 ICtDFT=  3500011 ScaDFX=  1.000000  1.000000  1.000000  1.000000
 FoFCou: FMM=F IPFlag=           0 FMFlag=      100000 FMFlg1=           0
         NFxFlg=           0 DoJE=T BraDBF=F KetDBF=T FulRan=T
         wScrn=  0.000000 ICntrl=       500 IOpCl=  0 I1Cent=   200000004 NGrid=           0
         NMat0=    1 NMatS0=      1 NMatT0=    0 NMatD0=    1 NMtDS0=    0 NMtDT0=    0
 Petite list used in FoFCou.
 Initial guess orbital symmetries:
       Occupied  (A1) (A1) (B2) (A1) (B1)
       Virtual   (A1) (B2) (A1) (B1) (A1) (B2) (B2) (A1) (A2) (A1)
                 (B1) (B2) (A1) (B2) (B2) (A1) (B1) (A1) (A2) (A1)
                 (B1) (B2) (A1) (B2) (A2) (B1) (B2) (A1) (A1) (B2)
                 (A1) (B1) (A1) (A2) (A1) (B2)
 The electronic state of the initial guess is 1-A1.
 Keep R1 ints in memory in symmetry-blocked form, NReq=6153603.
 Requested convergence on RMS density matrix=1.00D-08 within 128 cycles.
 Requested convergence on MAX density matrix=1.00D-06.
 Requested convergence on             energy=1.00D-06.
 No special actions if energy rises.
 SCF Done:  E(RHF) =  -76.0408272798     A.U. after   10 cycles
            NFock= 10  Conv=0.61D-08     -V/T= 2.0019
 ExpMin= 2.97D-02 ExpMax= 1.17D+04 ExpMxC= 4.01D+02 IAcc=3 IRadAn=         5 AccDes= 0.00D+00
 HarFok:  IExCor=  205 AccDes= 0.00D+00 IRadAn=         5 IDoV=-2 UseB2=F ITyADJ=14
 ICtDFT= 12500011 ScaDFX=  1.000000  1.000000  1.000000  1.000000
 Range of M.O.s used for correlation:     2    41
 NBasis=    41 NAE=     5 NBE=     5 NFC=     1 NFV=     0
 NROrb=     40 NOA=     4 NOB=     4 NVA=    36 NVB=    36
 Fully direct method using O(ONN) memory.
 JobTyp=1 Pass  1:  I=   2 to   5 NPSUse= 28 ParTrn=T ParDer=T DoDerP=T.
 Spin components of T(2) and E(2):
     alpha-alpha T2 =       0.7783123750D-02 E2=     -0.2799409109D-01
     alpha-beta  T2 =       0.4405301615D-01 E2=     -0.1640919418D+00
     beta-beta   T2 =       0.7783123750D-02 E2=     -0.2799409109D-01
 ANorm=    0.1029378096D+01
 E2 =    -0.2200801240D+00 EUMP2 =    -0.76260907403747D+02
          IDoAtm=111
          Differentiating once with respect to electric field.
                with respect to dipole field.
          Differentiating once with respect to nuclear coordinates.
 Keep R1 ints in memory in symmetry-blocked form, NReq=6154254.
          There are     1 degrees of freedom in the 1st order CPHF.  IDoFFX=0 NUNeed=     1.
 LinEq1:  Iter=  0 NonCon=     1 RMS=8.33D-03 Max=6.67D-02 NDo=     1
 AX will form     1 AO Fock derivatives at one time.
 LinEq1:  Iter=  1 NonCon=     1 RMS=1.78D-03 Max=1.04D-02 NDo=     1
 LinEq1:  Iter=  2 NonCon=     1 RMS=6.69D-04 Max=5.03D-03 NDo=     1
 LinEq1:  Iter=  3 NonCon=     1 RMS=6.79D-05 Max=4.00D-04 NDo=     1
 LinEq1:  Iter=  4 NonCon=     1 RMS=7.23D-06 Max=3.00D-05 NDo=     1
 LinEq1:  Iter=  5 NonCon=     1 RMS=1.47D-06 Max=6.72D-06 NDo=     1
 LinEq1:  Iter=  6 NonCon=     1 RMS=2.30D-07 Max=1.18D-06 NDo=     1
 LinEq1:  Iter=  7 NonCon=     1 RMS=2.26D-08 Max=1.69D-07 NDo=     1
 LinEq1:  Iter=  8 NonCon=     1 RMS=2.51D-09 Max=1.70D-08 NDo=     1
 LinEq1:  Iter=  9 NonCon=     1 RMS=2.01D-10 Max=1.23D-09 NDo=     1
 LinEq1:  Iter= 10 NonCon=     0 RMS=1.62D-11 Max=9.51D-11 NDo=     1
 Linear equations converged to 1.000D-10 1.000D-09 after    10 iterations.
 End of Minotr F.D. properties file   721 does not exist.
 End of Minotr F.D. properties file   722 does not exist.
 End of Minotr F.D. properties file   788 does not exist.

 **********************************************************************

            Population analysis using the SCF density.

 **********************************************************************

 Orbital symmetries:
       Occupied  (A1) (A1) (B2) (A1) (B1)
       Virtual   (A1) (B2) (A1) (B1) (A1) (B2) (B2) (A1) (A2) (A1)
                 (B1) (B2) (A1) (B2) (B2) (A1) (B1) (A1) (A2) (A1)
                 (B2) (B1) (A1) (B2) (A2) (B1) (A1) (B2) (A1) (B2)
                 (A1) (B1) (A1) (A2) (A1) (B2)
 The electronic state is 1-A1.
 Alpha  occ. eigenvalues --  -20.57893  -1.35320  -0.71349  -0.58571  -0.50903
 Alpha virt. eigenvalues --    0.03524   0.05796   0.17406   0.19715   0.22218
 Alpha virt. eigenvalues --    0.23193   0.28812   0.33163   0.38568   0.40141
 Alpha virt. eigenvalues --    0.43147   0.53884   0.64639   0.65800   0.80620
 Alpha virt. eigenvalues --    0.92991   1.10258   1.11681   1.14814   1.30112
 Alpha virt. eigenvalues --    1.46354   1.47984   1.58211   1.99965   2.00495
 Alpha virt. eigenvalues --    2.10654   2.35589   2.46884   2.61255   2.71032
 Alpha virt. eigenvalues --    2.97152   3.67314   3.68951   3.70097   4.01254
 Alpha virt. eigenvalues --    4.29419
          Condensed to atoms (all electrons):
               1          2          3
     1  O    7.645723   0.333837   0.333837
     2  H    0.333837   0.541980  -0.032516
     3  H    0.333837  -0.032516   0.541980
 Mulliken charges:
               1
     1  O   -0.313398
     2  H    0.156699
     3  H    0.156699
 Sum of Mulliken charges =   0.00000
 Mulliken charges with hydrogens summed into heavy atoms:
               1
     1  O    0.000000
 Electronic spatial extent (au):  <R**2>=             19.6352
 Charge=              0.0000 electrons
 Dipole moment (field-independent basis, Debye):
    X=             -0.0000    Y=              0.0000    Z=             -2.0178  Tot=              2.0178
 Quadrupole moment (field-independent basis, Debye-Ang):
   XX=             -7.6063   YY=             -4.2958   ZZ=             -6.2439
   XY=              0.0000   XZ=              0.0000   YZ=              0.0000
 Traceless Quadrupole moment (field-independent basis, Debye-Ang):
   XX=             -1.5576   YY=              1.7529   ZZ=             -0.1953
   XY=              0.0000   XZ=              0.0000   YZ=              0.0000
 Octapole moment (field-independent basis, Debye-Ang**2):
  XXX=              0.0000  YYY=             -0.0000  ZZZ=             -1.2074  XYY=             -0.0000
  XXY=             -0.0000  XXZ=             -0.2922  XZZ=              0.0000  YZZ=              0.0000
  YYZ=             -1.4101  XYZ=             -0.0000
 Hexadecapole moment (field-independent basis, Debye-Ang**3):
 XXXX=             -6.8355 YYYY=             -6.0866 ZZZZ=             -7.3784 XXXY=             -0.0000
 XXXZ=             -0.0000 YYYX=             -0.0000 YYYZ=              0.0000 ZZZX=             -0.0000
 ZZZY=              0.0000 XXYY=             -2.4725 XXZZ=             -2.4234 YYZZ=             -1.9011
 XXYZ=              0.0000 YYXZ=              0.0000 ZZXY=             -0.0000
 N-N= 9.122185087058D+00 E-N=-1.987431137237D+02  KE= 7.589781511893D+01
 Symmetry A1   KE= 6.790779987394D+01
 Symmetry A2   KE= 1.391372526947D-33
 Symmetry B1   KE= 4.446288798218D+00
 Symmetry B2   KE= 3.543726446767D+00
 Calling FoFJK, ICntrl=  10002127 FMM=F ISym2X=1 I1Cent= 0 IOpClX= 0 NMat=1 NMatS=1 NMatT=0.
 ***** Axes restored to original set *****
 -------------------------------------------------------------------
 Center     Atomic                   Forces (Hartrees/Bohr)
 Number     Number              X              Y              Z
 -------------------------------------------------------------------
      1        8          -0.000000000    0.000000000   -0.000746326
      2        1          -0.000948865   -0.000000000    0.000373163
      3        1           0.000948865   -0.000000000    0.000373163
 -------------------------------------------------------------------
 Cartesian Forces:  Max     0.000948865 RMS     0.000541212

 GradGradGradGradGradGradGradGradGradGradGradGradGradGradGradGradGradGrad
 Berny optimization.
 FormGI is forming the generalized inverse of G from B-inverse, IUseBI=4.
 Internal  Forces:  Max     0.000976743 RMS     0.000854913
 Search for a local minimum.
 Step number   1 out of a maximum of   20
 All quantities printed in internal units (Hartrees-Bohrs-Radians)
 Mixed Optimization -- En-DIIS/RFO-DIIS
 Second derivative matrix not updated -- first step.
 The second derivative matrix:
                          R1        R2        A1
           R1           0.54404
           R2           0.00000   0.54404
           A1           0.00000   0.00000   0.16000
 ITU=  0
     Eigenvalues ---    0.16000   0.54404   0.54404
 RFO step:  Lambda=-5.28579697D-06 EMin= 1.60000000D-01
 Linear search not attempted -- first point.
 Iteration  1 RMS(Cart)=  0.00275306 RMS(Int)=  0.00000280
 Iteration  2 RMS(Cart)=  0.00000185 RMS(Int)=  0.00000000
 Iteration  3 RMS(Cart)=  0.00000000 RMS(Int)=  0.00000000
 ClnCor:  largest displacement from symmetrization is 9.93D-16 for atom     3.
 Variable       Old X    -DE/DX   Delta X   Delta X   Delta X     New X
                                 (Linear)    (Quad)   (Total)
    R1        1.82366   0.00098   0.00000   0.00180   0.00180   1.82545
    R2        1.82366   0.00098   0.00000   0.00180   0.00180   1.82545
    A1        1.81024   0.00053   0.00000   0.00333   0.00333   1.81357
         Item               Value     Threshold  Converged?
 Maximum Force            0.000977     0.000450     NO 
 RMS     Force            0.000855     0.000300     NO 
 Maximum Displacement     0.003289     0.001800     NO 
 RMS     Displacement     0.002753     0.001200     NO 
 Predicted change in Energy=-2.642898D-06
 GradGradGradGradGradGradGradGradGradGradGradGradGradGradGradGradGradGrad

                          Input orientation:                          
 ---------------------------------------------------------------------
 Center     Atomic      Atomic             Coordinates (Angstroms)
 Number     Number       Type             X           Y           Z
 ---------------------------------------------------------------------
      1          8           0        0.000000   -0.000000   -0.133546
      2          1           0       -0.760741   -0.000000    0.461773
      3          1           0        0.760741    0.000000    0.461773
 ---------------------------------------------------------------------
                    Distance matrix (angstroms):
                    1          2          3
     1  O    0.000000
     2  H    0.965987   0.000000
     3  H    0.965987   1.521481   0.000000
 Stoichiometry    H2O
 Framework group  C2V[C2(O),SGV(H2)]
 Deg. of freedom     2
 Full point group                 C2V     NOp   4
 Largest Abelian subgroup         C2V     NOp   4
 Largest concise Abelian subgroup C2      NOp   2
                         Standard orientation:                         
 ---------------------------------------------------------------------
 Center     Atomic      Atomic             Coordinates (Angstroms)
 Number     Number       Type             X           Y           Z
 ---------------------------------------------------------------------
      1          8           0        0.000000   -0.000000    0.119064
      2          1           0       -0.000000    0.760741   -0.476256
      3          1           0       -0.000000   -0.760741   -0.476256
 ---------------------------------------------------------------------
 Rotational constants (GHZ):         796.6129476         433.2402497         280.6227549
 Standard basis: Aug-CC-pVDZ (5D, 7F)
 There are    20 symmetry adapted cartesian basis functions of A1  symmetry.
 There are     4 symmetry adapted cartesian basis functions of A2  symmetry.
 There are     7 symmetry adapted cartesian basis functions of B1  symmetry.
 There are    12 symmetry adapted cartesian basis functions of B2  symmetry.
 There are    18 symmetry adapted basis functions of A1  symmetry.
 There are     4 symmetry adapted basis functions of A2  symmetry.
 There are     7 symmetry adapted basis functions of B1  symmetry.
 There are    12 symmetry adapted basis functions of B2  symmetry.
    41 basis functions,    65 primitive gaussians,    43 cartesian basis functions
     5 alpha electrons        5 beta electrons
       nuclear repulsion energy         9.1127585957 Hartrees.
 NAtoms=    3 NActive=    3 NUniq=    2 SFac= 2.25D+00 NAtFMM=   60 NAOKFM=F Big=F
 Integral buffers will be    131072 words long.
 Raffenetti 1 integral format.
 Two-electron integral symmetry is turned on.
 One-electron integrals computed using PRISM.
 NBasis=    41 RedAO= T EigKep=  2.74D-03  NBF=    18     4     7    12
 NBsUse=    41 1.00D-06 EigRej= -1.00D+00 NBFU=    18     4     7    12
 Initial guess from the checkpoint file:  "h2o.chk"
 B after Tr=    -0.000000    0.000000    0.000000
         Rot=    1.000000    0.000000    0.000000    0.000000 Ang=   0.00 deg.
 Initial guess orbital symmetries:
       Occupied  (A1) (A1) (B2) (A1) (B1)
       Virtual   (A1) (B2) (A1) (B1) (A1) (B2) (B2) (A1) (A2) (A1)
                 (B1) (B2) (A1) (B2) (B2) (A1) (B1) (A1) (A2) (A1)
                 (B2) (B1) (A1) (B2) (A2) (B1) (A1) (B2) (A1) (B2)
                 (A1) (B1) (A1) (A2) (A1) (B2)
 Keep R1 ints in memory in symmetry-blocked form, NReq=6153603.
 Requested convergence on RMS density matrix=1.00D-08 within 128 cycles.
 Requested convergence on MAX density matrix=1.00D-06.
 Requested convergence on             energy=1.00D-06.
 No special actions if energy rises.
 SCF Done:  E(RHF) =  -76.0407586822     A.U. after    8 cycles
            NFock=  8  Conv=0.14D-08     -V/T= 2.0019
 ExpMin= 2.97D-02 ExpMax= 1.17D+04 ExpMxC= 4.01D+02 IAcc=3 IRadAn=         5 AccDes= 0.00D+00
 HarFok:  IExCor=  205 AccDes= 0.00D+00 IRadAn=         5 IDoV=-2 UseB2=F ITyADJ=14
 ICtDFT= 12500011 ScaDFX=  1.000000  1.000000  1.000000  1.000000
 Range of M.O.s used for correlation:     2    41
 NBasis=    41 NAE=     5 NBE=     5 NFC=     1 NFV=     0
 NROrb=     40 NOA=     4 NOB=     4 NVA=    36 NVB=    36
 Fully direct method using O(ONN) memory.
 JobTyp=1 Pass  1:  I=   2 to   5 NPSUse= 28 ParTrn=T ParDer=T DoDerP=T.
 Spin components of T(2) and E(2):
     alpha-alpha T2 =       0.7790014093D-02 E2=     -0.2800168091D-01
     alpha-beta  T2 =       0.4409962384D-01 E2=     -0.1641476784D+00
     beta-beta   T2 =       0.7790014093D-02 E2=     -0.2800168091D-01
 ANorm=    0.1029407428D+01
 E2 =    -0.2201510402D+00 EUMP2 =    -0.76260909722403D+02
          IDoAtm=111
          Differentiating once with respect to electric field.
                with respect to dipole field.
          Differentiating once with respect to nuclear coordinates.
 Keep R1 ints in memory in symmetry-blocked form, NReq=6154254.
          There are     1 degrees of freedom in the 1st order CPHF.  IDoFFX=0 NUNeed=     1.
 LinEq1:  Iter=  0 NonCon=     1 RMS=8.33D-03 Max=6.68D-02 NDo=     1
 AX will form     1 AO Fock derivatives at one time.
 LinEq1:  Iter=  1 NonCon=     1 RMS=1.79D-03 Max=1.05D-02 NDo=     1
 LinEq1:  Iter=  2 NonCon=     1 RMS=6.71D-04 Max=5.04D-03 NDo=     1
 LinEq1:  Iter=  3 NonCon=     1 RMS=6.81D-05 Max=4.01D-04 NDo=     1
 LinEq1:  Iter=  4 NonCon=     1 RMS=7.27D-06 Max=3.01D-05 NDo=     1
 LinEq1:  Iter=  5 NonCon=     1 RMS=1.48D-06 Max=6.75D-06 NDo=     1
 LinEq1:  Iter=  6 NonCon=     1 RMS=2.31D-07 Max=1.19D-06 NDo=     1
 LinEq1:  Iter=  7 NonCon=     1 RMS=2.27D-08 Max=1.69D-07 NDo=     1
 LinEq1:  Iter=  8 NonCon=     1 RMS=2.52D-09 Max=1.71D-08 NDo=     1
 LinEq1:  Iter=  9 NonCon=     1 RMS=2.02D-10 Max=1.23D-09 NDo=     1
 LinEq1:  Iter= 10 NonCon=     0 RMS=1.63D-11 Max=9.57D-11 NDo=     1
 Linear equations converged to 1.000D-10 1.000D-09 after    10 iterations.
 End of Minotr F.D. properties file   721 does not exist.
 End of Minotr F.D. properties file   722 does not exist.
 End of Minotr F.D. properties file   788 does not exist.
 Calling FoFJK, ICntrl=  10002127 FMM=F ISym2X=1 I1Cent= 0 IOpClX= 0 NMat=1 NMatS=1 NMatT=0.
 ***** Axes restored to original set *****
 -------------------------------------------------------------------
 Center     Atomic                   Forces (Hartrees/Bohr)
 Number     Number              X              Y              Z
 -------------------------------------------------------------------
      1        8          -0.000000000    0.000000000    0.000002827
      2        1           0.000098325   -0.000000000   -0.000001414
      3        1          -0.000098325   -0.000000000   -0.000001414
 -------------------------------------------------------------------
 Cartesian Forces:  Max     0.000098325 RMS     0.000046365

 GradGradGradGradGradGradGradGradGradGradGradGradGradGradGradGradGradGrad
 Berny optimization.
 Using GEDIIS/GDIIS optimizer.
 FormGI is forming the generalized inverse of G from B-inverse, IUseBI=4.
 Internal  Forces:  Max     0.000108583 RMS     0.000089543
 Search for a local minimum.
 Step number   2 out of a maximum of   20
 All quantities printed in internal units (Hartrees-Bohrs-Radians)
 Mixed Optimization -- En-DIIS/RFO-DIIS
 Swapping is turned off.
 Update second derivatives using D2CorX and points    1    2
 DE= -2.32D-06 DEPred=-2.64D-06 R= 8.77D-01
 TightC=F SS=  1.41D+00  RLast= 4.19D-03 DXNew= 5.0454D-01 1.2572D-02
 Trust test= 8.77D-01 RLast= 4.19D-03 DXMaxT set to 3.00D-01
 The second derivative matrix:
                          R1        R2        A1
           R1           0.55129
           R2           0.00725   0.55129
           A1           0.01568   0.01568   0.17569
 ITU=  1  0
     Eigenvalues ---    0.17441   0.54404   0.55983
 En-DIIS/RFO-DIIS/Sim-DIIS IScMMF=       -3 using points:     2    1
 RFO step:  Lambda=-8.40520297D-08.
 DidBck=F Rises=F RFO-DIIS coefs:    0.86161    0.13839
 Iteration  1 RMS(Cart)=  0.00039022 RMS(Int)=  0.00000007
 Iteration  2 RMS(Cart)=  0.00000005 RMS(Int)=  0.00000000
 ClnCor:  largest displacement from symmetrization is 1.50D-16 for atom     1.
 Variable       Old X    -DE/DX   Delta X   Delta X   Delta X     New X
                                 (Linear)    (Quad)   (Total)
    R1        1.82545  -0.00008  -0.00025   0.00012  -0.00012   1.82533
    R2        1.82545  -0.00008  -0.00025   0.00012  -0.00012   1.82533
    A1        1.81357  -0.00011  -0.00046  -0.00013  -0.00060   1.81297
         Item               Value     Threshold  Converged?
 Maximum Force            0.000109     0.000450     YES
 RMS     Force            0.000090     0.000300     YES
 Maximum Displacement     0.000433     0.001800     YES
 RMS     Displacement     0.000390     0.001200     YES
 Predicted change in Energy=-4.202601D-08
 Optimization completed.
    -- Stationary point found.
                           ----------------------------
                           !   Optimized Parameters   !
                           ! (Angstroms and Degrees)  !
 --------------------------                            --------------------------
 ! Name  Definition              Value          Derivative Info.                !
 --------------------------------------------------------------------------------
 ! R1    R(1,2)                  0.966          -DE/DX =   -0.0001              !
 ! R2    R(1,3)                  0.966          -DE/DX =   -0.0001              !
 ! A1    A(2,1,3)              103.9099         -DE/DX =   -0.0001              !
 --------------------------------------------------------------------------------
 GradGradGradGradGradGradGradGradGradGradGradGradGradGradGradGradGradGrad

                          Input orientation:                          
 ---------------------------------------------------------------------
 Center     Atomic      Atomic             Coordinates (Angstroms)
 Number     Number       Type             X           Y           Z
 ---------------------------------------------------------------------
      1          8           0       -0.000000    0.000000   -0.133546
      2          1           0       -0.760741   -0.000000    0.461773
      3          1           0        0.760741    0.000000    0.461773
 ---------------------------------------------------------------------
                    Distance matrix (angstroms):
                    1          2          3
     1  O    0.000000
     2  H    0.965987   0.000000
     3  H    0.965987   1.521481   0.000000
 Stoichiometry    H2O
 Framework group  C2V[C2(O),SGV(H2)]
 Deg. of freedom     2
 Full point group                 C2V     NOp   4
 Largest Abelian subgroup         C2V     NOp   4
 Largest concise Abelian subgroup C2      NOp   2
                         Standard orientation:                         
 ---------------------------------------------------------------------
 Center     Atomic      Atomic             Coordinates (Angstroms)
 Number     Number       Type             X           Y           Z
 ---------------------------------------------------------------------
      1          8           0       -0.000000    0.000000    0.119064
      2          1           0        0.000000    0.760741   -0.476256
      3          1           0       -0.000000   -0.760741   -0.476256
 ---------------------------------------------------------------------
 Rotational constants (GHZ):         796.6129476         433.2402497         280.6227549

 **********************************************************************

            Population analysis using the SCF density.

 **********************************************************************

 Orbital symmetries:
       Occupied  (A1) (A1) (B2) (A1) (B1)
       Virtual   (A1) (B2) (A1) (B1) (A1) (B2) (B2) (A1) (A2) (A1)
                 (B1) (B2) (A1) (B2) (B2) (A1) (B1) (A1) (A2) (A1)
                 (B2) (B1) (A1) (B2) (A2) (B1) (A1) (B2) (A1) (B2)
                 (A1) (B1) (A1) (A2) (A1) (B2)
 The electronic state is 1-A1.
 Alpha  occ. eigenvalues --  -20.57900  -1.35258  -0.71335  -0.58515  -0.50890
 Alpha virt. eigenvalues --    0.03524   0.05794   0.17411   0.19717   0.22208
 Alpha virt. eigenvalues --    0.23190   0.28795   0.33120   0.38550   0.40164
 Alpha virt. eigenvalues --    0.43161   0.53851   0.64619   0.65790   0.80625
 Alpha virt. eigenvalues --    0.92900   1.10250   1.11658   1.14806   1.30169
 Alpha virt. eigenvalues --    1.46354   1.47978   1.58163   1.99839   2.00490
 Alpha virt. eigenvalues --    2.10531   2.35760   2.46667   2.61011   2.71044
 Alpha virt. eigenvalues --    2.96965   3.67295   3.68909   3.70083   4.01245
 Alpha virt. eigenvalues --    4.29169
          Condensed to atoms (all electrons):
               1          2          3
     1  O    7.648693   0.333586   0.333586
     2  H    0.333586   0.540902  -0.032421
     3  H    0.333586  -0.032421   0.540902
 Mulliken charges:
               1
     1  O   -0.315865
     2  H    0.157932
     3  H    0.157932
 Sum of Mulliken charges =   0.00000
 Mulliken charges with hydrogens summed into heavy atoms:
               1
     1  O    0.000000
 Electronic spatial extent (au):  <R**2>=             19.6482
 Charge=              0.0000 electrons
 Dipole moment (field-independent basis, Debye):
    X=             -0.0000    Y=              0.0000    Z=             -2.0154  Tot=              2.0154
 Quadrupole moment (field-independent basis, Debye-Ang):
   XX=             -7.6089   YY=             -4.2851   ZZ=             -6.2503
   XY=              0.0000   XZ=              0.0000   YZ=              0.0000
 Traceless Quadrupole moment (field-independent basis, Debye-Ang):
   XX=             -1.5608   YY=              1.7630   ZZ=             -0.2022
   XY=              0.0000   XZ=              0.0000   YZ=              0.0000
 Octapole moment (field-independent basis, Debye-Ang**2):
  XXX=              0.0000  YYY=             -0.0000  ZZZ=             -1.2030  XYY=             -0.0000
  XXY=             -0.0000  XXZ=             -0.2911  XZZ=              0.0000  YZZ=              0.0000
  YYZ=             -1.4138  XYZ=             -0.0000
 Hexadecapole moment (field-independent basis, Debye-Ang**3):
 XXXX=             -6.8401 YYYY=             -6.0867 ZZZZ=             -7.3856 XXXY=             -0.0000
 XXXZ=             -0.0000 YYYX=             -0.0000 YYYZ=              0.0000 ZZZX=             -0.0000
 ZZZY=             -0.0000 XXYY=             -2.4763 XXZZ=             -2.4251 YYZZ=             -1.9036
 XXYZ=              0.0000 YYXZ=              0.0000 ZZXY=             -0.0000
 N-N= 9.112758595714D+00 E-N=-1.987229384148D+02  KE= 7.589386833387D+01
 Symmetry A1   KE= 6.790699799123D+01
 Symmetry A2   KE= 2.007650116588D-33
 Symmetry B1   KE= 4.446190635900D+00
 Symmetry B2   KE= 3.540679706732D+00
 1\1\GINC-N2301\FOpt\RMP2-FC\Aug-CC-pVDZ\H2O1\GDS001\03-Aug-2020\0\\# M
 P2/aug-cc-pVDZ Opt Freq=(vibrot,anharmonic)\\Water Anharmonic Frequenc
 ies\\0,1\O,0.,0.,-0.1335462816\H,-0.7607406647,0.,0.4617731408\H,0.760
 7406647,0.,0.4617731408\\Version=ES64L-G16RevA.03\State=1-A1\HF=-76.04
 07587\MP2=-76.2609097\RMSD=1.408e-09\RMSF=4.637e-05\Dipole=0.,0.,0.739
 2423\PG=C02V [C2(O1),SGV(H2)]\\@


 BULLDOZER: SOMEONE WHO SLEEPS THROUGH SPEECHES.
 Job cpu time:       0 days  0 hours  2 minutes 38.9 seconds.
 Elapsed time:       0 days  0 hours  0 minutes  7.7 seconds.
 File lengths (MBytes):  RWF=     72 Int=      0 D2E=      0 Chk=      8 Scr=      8
 Normal termination of Gaussian 16 at Mon Aug  3 14:14:10 2020.
 Link1:  Proceeding to internal job step number  2.
 ----------------------------------------------------------------------
 #N Geom=AllCheck Guess=TCheck SCRF=Check GenChk RMP2(FC)/Aug-CC-pVDZ F
 req
 ----------------------------------------------------------------------
 1/10=4,29=7,30=1,38=21,40=1,80=1/1,6,3;
 2/12=2,40=1/2;
 3/5=16,7=10,11=1,14=-4,25=1,30=1,70=2,71=2,116=1,140=1/1,2,3;
 4/5=101,69=2/1;
 5/5=2,38=6,98=1/2;
 8/6=3,8=1,10=1,19=11,30=-1/1;
 9/15=3,16=-3/6;
 11/6=1,8=1,15=11,17=12,24=-1,27=1,28=-2,29=300,32=6,42=3/1,2,10;
 10/6=2,21=1,60=-2/2;
 8/6=4,8=1,10=1,19=11,30=-1/11,4;
 10/5=1,20=4,60=-2/2;
 11/12=2,14=11,16=1,17=2,28=-2,42=3/2,10,12;
 6/7=2,8=2,9=2,10=2,22=-1/1;
 7/10=1,12=2,25=1,44=2,70=1,71=2/1,2,3,16;
 1/38=20,80=1/6(3);
 7/8=1,25=202,44=-1,70=1,71=1,92=10/16,17;
 1/10=4,30=1,38=20,80=1/3;
 99//99;
 3/5=16,7=10,11=1,14=-2,25=1,30=1,70=5,71=2,116=1,140=1/1,2,3;
 4/5=5,16=3,69=2/1;
 5/5=2,38=5,98=1/2;
 8/6=3,8=1,10=1,19=11,30=-1/1;
 9/15=3,16=-3/6;
 11/6=1,8=1,15=11,17=12,24=-1,27=1,28=-2,29=300,32=6,42=3/1,2,10;
 10/6=2,21=1,60=-2/2;
 8/6=4,8=1,10=1,19=11,30=-1/11,4;
 10/5=1,20=4,60=-2/2;
 11/12=2,14=11,16=1,17=2,28=-2,42=3/2,10,12;
 6/7=2,8=2,9=2,10=2,22=-1/1;
 7/7=1,10=1,12=2,25=1,44=2,70=1,71=1/1,2,3,16;
 1/38=20,80=1/6(-12);
 7/8=1,25=202,44=-1,70=1,71=1,92=10/16,17;
 1/10=4,30=1,38=20,80=1/3;
 99//99;
 Structure from the checkpoint file:  "h2o.chk"
 ----------------------------
 Water Anharmonic Frequencies
 ----------------------------
 Charge =  0 Multiplicity = 1
 Redundant internal coordinates found in file.  (old form).
 O,0,0.,0.,-0.1335462816
 H,0,-0.7607406647,0.,0.4617731408
 H,0,0.7607406647,0.,0.4617731408
 Recover connectivity data from disk.
 Numerical evaluation of third derivatives.
 Nuclear step= 0.010000 Angstroms, electric field step= 0.000333 atomic units, NStep=1.

 GradGradGradGradGradGradGradGradGradGradGradGradGradGradGradGradGradGrad
 Berny optimization.
 Initialization pass.
                           ----------------------------
                           !    Initial Parameters    !
                           ! (Angstroms and Degrees)  !
 --------------------------                            --------------------------
 ! Name  Definition              Value          Derivative Info.                !
 --------------------------------------------------------------------------------
 ! R1    R(1,2)                  0.966          calculate D2E/DX2 analytically  !
 ! R2    R(1,3)                  0.966          calculate D2E/DX2 analytically  !
 ! A1    A(2,1,3)              103.9099         calculate D2E/DX2 analytically  !
 --------------------------------------------------------------------------------
 Trust Radius=3.00D-01 FncErr=1.00D-07 GrdErr=1.00D-07 EigMax=2.50D+02 EigMin=1.00D-04
 Number of steps in this run=      2 maximum allowed number of steps=      2.
 GradGradGradGradGradGradGradGradGradGradGradGradGradGradGradGradGradGrad

                          Input orientation:                          
 ---------------------------------------------------------------------
 Center     Atomic      Atomic             Coordinates (Angstroms)
 Number     Number       Type             X           Y           Z
 ---------------------------------------------------------------------
      1          8           0       -0.000000    0.000000   -0.133546
      2          1           0       -0.760741   -0.000000    0.461773
      3          1           0        0.760741    0.000000    0.461773
 ---------------------------------------------------------------------
                    Distance matrix (angstroms):
                    1          2          3
     1  O    0.000000
     2  H    0.965987   0.000000
     3  H    0.965987   1.521481   0.000000
 Stoichiometry    H2O
 Framework group  C2V[C2(O),SGV(H2)]
 Deg. of freedom     2
 Full point group                 C2V     NOp   4
 Largest Abelian subgroup         C2V     NOp   4
 Largest concise Abelian subgroup C2      NOp   2
                         Standard orientation:                         
 ---------------------------------------------------------------------
 Center     Atomic      Atomic             Coordinates (Angstroms)
 Number     Number       Type             X           Y           Z
 ---------------------------------------------------------------------
      1          8           0        0.000000    0.000000    0.119064
      2          1           0        0.000000    0.760741   -0.476256
      3          1           0       -0.000000   -0.760741   -0.476256
 ---------------------------------------------------------------------
 Rotational constants (GHZ):         796.6129476         433.2402497         280.6227549
 Standard basis: Aug-CC-pVDZ (5D, 7F)
 There are    20 symmetry adapted cartesian basis functions of A1  symmetry.
 There are     4 symmetry adapted cartesian basis functions of A2  symmetry.
 There are     7 symmetry adapted cartesian basis functions of B1  symmetry.
 There are    12 symmetry adapted cartesian basis functions of B2  symmetry.
 There are    18 symmetry adapted basis functions of A1  symmetry.
 There are     4 symmetry adapted basis functions of A2  symmetry.
 There are     7 symmetry adapted basis functions of B1  symmetry.
 There are    12 symmetry adapted basis functions of B2  symmetry.
    41 basis functions,    65 primitive gaussians,    43 cartesian basis functions
     5 alpha electrons        5 beta electrons
       nuclear repulsion energy         9.1127585957 Hartrees.
 NAtoms=    3 NActive=    3 NUniq=    2 SFac= 2.25D+00 NAtFMM=   60 NAOKFM=F Big=F
 Integral buffers will be    131072 words long.
 Raffenetti 1 integral format.
 Two-electron integral symmetry is turned on.
 One-electron integrals computed using PRISM.
 NBasis=    41 RedAO= T EigKep=  2.74D-03  NBF=    18     4     7    12
 NBsUse=    41 1.00D-06 EigRej= -1.00D+00 NBFU=    18     4     7    12
 Initial guess from the checkpoint file:  "h2o.chk"
 B after Tr=    -0.000000    0.000000   -0.000000
         Rot=    1.000000    0.000000    0.000000    0.000000 Ang=   0.00 deg.
 Initial guess orbital symmetries:
       Occupied  (A1) (A1) (B2) (A1) (B1)
       Virtual   (A1) (B2) (A1) (B1) (A1) (B2) (B2) (A1) (A2) (A1)
                 (B1) (B2) (A1) (B2) (B2) (A1) (B1) (A1) (A2) (A1)
                 (B2) (B1) (A1) (B2) (A2) (B1) (A1) (B2) (A1) (B2)
                 (A1) (B1) (A1) (A2) (A1) (B2)
 Keep R1 ints in memory in symmetry-blocked form, NReq=6153603.
 Requested convergence on RMS density matrix=1.00D-08 within 128 cycles.
 Requested convergence on MAX density matrix=1.00D-06.
 Requested convergence on             energy=1.00D-06.
 No special actions if energy rises.
 SCF Done:  E(RHF) =  -76.0407586822     A.U. after    1 cycles
            NFock=  1  Conv=0.13D-09     -V/T= 2.0019
 ExpMin= 2.97D-02 ExpMax= 1.17D+04 ExpMxC= 4.01D+02 IAcc=3 IRadAn=         5 AccDes= 0.00D+00
 HarFok:  IExCor=  205 AccDes= 0.00D+00 IRadAn=         5 IDoV=-2 UseB2=F ITyADJ=14
 ICtDFT= 12500011 ScaDFX=  1.000000  1.000000  1.000000  1.000000
 Range of M.O.s used for correlation:     2    41
 NBasis=    41 NAE=     5 NBE=     5 NFC=     1 NFV=     0
 NROrb=     40 NOA=     4 NOB=     4 NVA=    36 NVB=    36
 Disk-based method using ON**2 memory for  4 occupieds at a time.
 Permanent disk used for amplitudes=       38700 words.
 Estimated scratch disk usage=      733661 words.
 Actual    scratch disk usage=      733661 words.
 JobTyp=1 Pass  1:  I=   2 to   5 NPSUse= 28 ParTrn=T ParDer=T DoDerP=T.
 (rs|ai) integrals will be sorted in core.
 Spin components of T(2) and E(2):
     alpha-alpha T2 =       0.7790014081D-02 E2=     -0.2800168088D-01
     alpha-beta  T2 =       0.4409962380D-01 E2=     -0.1641476783D+00
     beta-beta   T2 =       0.7790014081D-02 E2=     -0.2800168088D-01
 ANorm=    0.1029407428D+01
 E2 =    -0.2201510401D+00 EUMP2 =    -0.76260909722269D+02
 G2DrvN: will do     4 centers at a time, making    1 passes.
 Calling FoFCou, ICntrl=  3107 FMM=F I1Cent=   0 AccDes= 0.00D+00.
 End of G2Drv F.D. properties file   721 does not exist.
 End of G2Drv F.D. properties file   722 does not exist.
 End of G2Drv F.D. properties file   788 does not exist.
          IDoAtm=111
          Differentiating once with respect to electric field.
                with respect to dipole field.
          Differentiating once with respect to nuclear coordinates.
 Keep R1 ints in memory in symmetry-blocked form, NReq=6154166.
          There are    12 degrees of freedom in the 1st order CPHF.  IDoFFX=6 NUNeed=    12.
      9 vectors produced by pass  0 Test12= 1.50D-15 8.33D-09 XBig12= 1.90D+00 6.78D-01.
 AX will form     9 AO Fock derivatives at one time.
      9 vectors produced by pass  1 Test12= 1.50D-15 8.33D-09 XBig12= 1.26D-01 1.37D-01.
      9 vectors produced by pass  2 Test12= 1.50D-15 8.33D-09 XBig12= 5.55D-03 2.75D-02.
      9 vectors produced by pass  3 Test12= 1.50D-15 8.33D-09 XBig12= 6.62D-05 2.62D-03.
      9 vectors produced by pass  4 Test12= 1.50D-15 8.33D-09 XBig12= 5.99D-07 3.08D-04.
      9 vectors produced by pass  5 Test12= 1.50D-15 8.33D-09 XBig12= 9.44D-10 1.17D-05.
      7 vectors produced by pass  6 Test12= 1.50D-15 8.33D-09 XBig12= 6.20D-12 8.45D-07.
      2 vectors produced by pass  7 Test12= 1.50D-15 8.33D-09 XBig12= 2.92D-14 5.89D-08.
 InvSVY:  IOpt=1 It=  1 EMax= 4.44D-16
 Solved reduced A of dimension    63 with     9 vectors.
 End of Minotr F.D. properties file   721 does not exist.
 End of Minotr F.D. properties file   722 does not exist.
 End of Minotr F.D. properties file   788 does not exist.
 MDV=  5502926848.
 Form MO integral derivatives with frozen-active canonical formalism.
 Discarding MO integrals.
 Reordered first order wavefunction length =        64800
 In DefCFB: NBatch=  1 ICI=  5 ICA= 36 LFMax= 36
            Large arrays: LIAPS=     1269360 LIARS=     1354500 words.
 Semi-Direct transformation.
 ModeAB=           4 MOrb=             5 LenV=    5502721053
 LASXX=       153955 LTotXX=      153955 LenRXX=      319150
 LTotAB=      165195 MaxLAS=      141655 LenRXY=           0
 NonZer=      473105 LenScr=     1048576 LnRSAI=      141655
 LnScr1=      524288 LExtra=           0 Total=      2033669
 MaxDsk=          -1 SrtSym=           T ITran=            4
 JobTyp=0 Pass  1:  I=   1 to   5.
 (rs|ai) integrals will be sorted in core.
 Spin components of T(2) and E(2):
     alpha-alpha T2 =       0.7790014081D-02 E2=     -0.2800168088D-01
     alpha-beta  T2 =       0.4409962380D-01 E2=     -0.1641476783D+00
     beta-beta   T2 =       0.7790014081D-02 E2=     -0.2800168088D-01
 ANorm=    0.1455801945D+01
 E2 =    -0.2201510401D+00 EUMP2 =    -0.76260909722269D+02
          IDoAtm=111
          Differentiating once with respect to electric field.
                with respect to dipole field.
          Differentiating once with respect to nuclear coordinates.
          There are     1 degrees of freedom in the 1st order CPHF.  IDoFFX=0 NUNeed=     1.
 LinEq1:  Iter=  0 NonCon=     1 RMS=8.33D-03 Max=6.68D-02 NDo=     1
 LinEq1:  Iter=  1 NonCon=     1 RMS=1.79D-03 Max=1.05D-02 NDo=     1
 LinEq1:  Iter=  2 NonCon=     1 RMS=6.71D-04 Max=5.04D-03 NDo=     1
 LinEq1:  Iter=  3 NonCon=     1 RMS=6.81D-05 Max=4.01D-04 NDo=     1
 LinEq1:  Iter=  4 NonCon=     1 RMS=7.27D-06 Max=3.01D-05 NDo=     1
 LinEq1:  Iter=  5 NonCon=     1 RMS=1.48D-06 Max=6.75D-06 NDo=     1
 LinEq1:  Iter=  6 NonCon=     1 RMS=2.31D-07 Max=1.19D-06 NDo=     1
 LinEq1:  Iter=  7 NonCon=     1 RMS=2.27D-08 Max=1.69D-07 NDo=     1
 LinEq1:  Iter=  8 NonCon=     1 RMS=2.52D-09 Max=1.71D-08 NDo=     1
 LinEq1:  Iter=  9 NonCon=     1 RMS=2.02D-10 Max=1.23D-09 NDo=     1
 LinEq1:  Iter= 10 NonCon=     0 RMS=1.63D-11 Max=9.57D-11 NDo=     1
 Linear equations converged to 1.000D-10 1.000D-09 after    10 iterations.
 End of Minotr F.D. properties file   721 does not exist.
 End of Minotr F.D. properties file   722 does not exist.
 End of Minotr F.D. properties file   788 does not exist.
 Symmetrizing basis deriv contribution to polar:
 IMax=3 JMax=2 DiffMx= 0.00D+00
 G2DrvN: will do     4 centers at a time, making    1 passes.
 Calling FoFCou, ICntrl=  3107 FMM=F I1Cent=   0 AccDes= 0.00D+00.
 End of G2Drv F.D. properties file   721 does not exist.
 End of G2Drv F.D. properties file   722 does not exist.
 End of G2Drv F.D. properties file   788 does not exist.
 R2 and R3 integrals will be kept in memory, NReq=     1715862.
 DD1Dir will call FoFMem   1 times, MxPair=        30
 NAB=    15 NAA=     0 NBB=     0.
 Discarding MO integrals.

 **********************************************************************

            Population analysis using the MP2 density.

 **********************************************************************

 Orbital symmetries:
       Occupied  (A1) (A1) (B2) (A1) (B1)
       Virtual   (A1) (B2) (A1) (B1) (A1) (B2) (B2) (A1) (A2) (A1)
                 (B1) (B2) (A1) (B2) (B2) (A1) (B1) (A1) (A2) (A1)
                 (B2) (B1) (A1) (B2) (A2) (B1) (A1) (B2) (A1) (B2)
                 (A1) (B1) (A1) (A2) (A1) (B2)
 The electronic state is 1-A1.
 Alpha  occ. eigenvalues --  -20.57900  -1.35258  -0.71335  -0.58515  -0.50890
 Alpha virt. eigenvalues --    0.03524   0.05794   0.17411   0.19717   0.22208
 Alpha virt. eigenvalues --    0.23190   0.28795   0.33120   0.38550   0.40164
 Alpha virt. eigenvalues --    0.43161   0.53851   0.64619   0.65790   0.80625
 Alpha virt. eigenvalues --    0.92900   1.10250   1.11658   1.14806   1.30169
 Alpha virt. eigenvalues --    1.46354   1.47978   1.58163   1.99839   2.00490
 Alpha virt. eigenvalues --    2.10531   2.35760   2.46667   2.61011   2.71044
 Alpha virt. eigenvalues --    2.96965   3.67295   3.68909   3.70083   4.01245
 Alpha virt. eigenvalues --    4.29169
          Condensed to atoms (all electrons):
               1          2          3
     1  O    7.603170   0.317733   0.317733
     2  H    0.317733   0.611933  -0.048984
     3  H    0.317733  -0.048984   0.611933
 Mulliken charges:
               1
     1  O   -0.238636
     2  H    0.119318
     3  H    0.119318
 Sum of Mulliken charges =  -0.00000
 Mulliken charges with hydrogens summed into heavy atoms:
               1
     1  O   -0.000000
 APT charges:
               1
     1  O   -0.502536
     2  H    0.251268
     3  H    0.251268
 Sum of APT charges =  -0.00000
 APT charges with hydrogens summed into heavy atoms:
               1
     1  O   -0.000000
 Electronic spatial extent (au):  <R**2>=             20.2966
 Charge=             -0.0000 electrons
 Dipole moment (field-independent basis, Debye):
    X=             -0.0000    Y=              0.0000    Z=             -1.8790  Tot=              1.8790
 Quadrupole moment (field-independent basis, Debye-Ang):
   XX=             -7.9363   YY=             -4.5466   ZZ=             -6.5335
   XY=              0.0000   XZ=              0.0000   YZ=              0.0000
 Traceless Quadrupole moment (field-independent basis, Debye-Ang):
   XX=             -1.5975   YY=              1.7922   ZZ=             -0.1947
   XY=              0.0000   XZ=              0.0000   YZ=              0.0000
 Octapole moment (field-independent basis, Debye-Ang**2):
  XXX=              0.0000  YYY=             -0.0000  ZZZ=             -1.0063  XYY=             -0.0000
  XXY=             -0.0000  XXZ=             -0.2314  XZZ=              0.0000  YZZ=              0.0000
  YYZ=             -1.3078  XYZ=             -0.0000
 Hexadecapole moment (field-independent basis, Debye-Ang**3):
 XXXX=             -7.9507 YYYY=             -6.8005 ZZZZ=             -8.2559 XXXY=             -0.0000
 XXXZ=             -0.0000 YYYX=             -0.0000 YYYZ=              0.0000 ZZZX=             -0.0000
 ZZZY=             -0.0000 XXYY=             -2.7904 XXZZ=             -2.7533 YYZZ=             -2.2116
 XXYZ=             -0.0000 YYXZ=              0.0000 ZZXY=             -0.0000
 N-N= 9.112758595714D+00 E-N=-1.985145673523D+02  KE= 7.601351185720D+01
 Symmetry A1   KE= 6.797288288466D+01
 Symmetry A2   KE= 1.785015924005D-02
 Symmetry B1   KE= 4.364734285196D+00
 Symmetry B2   KE= 3.658044528107D+00
  Exact polarizability:   8.776   0.000   9.959   0.000  -0.000   9.173
 Approx polarizability:   5.939   0.000   7.870   0.000   0.000   7.098
 Calling FoFJK, ICntrl=  10100127 FMM=F ISym2X=1 I1Cent= 0 IOpClX= 0 NMat=1 NMatS=1 NMatT=0.
 Full mass-weighted force constant matrix:
 Low frequencies ---   -0.0018    0.0021    0.0024    6.0905   34.2716   42.3488
 Low frequencies --- 1622.0941 3802.3360 3936.8416
 Diagonal vibrational polarizability:
        0.0000000       0.1165972       0.6981949
 Harmonic frequencies (cm**-1), IR intensities (KM/Mole), Raman scattering
 activities (A**4/AMU), depolarization ratios for plane and unpolarized
 incident light, reduced masses (AMU), force constants (mDyne/A),
 and normal coordinates:
                      1                      2                      3
                     A1                     A1                     B2
 Frequencies --   1622.0941              3802.3360              3936.8416
 Red. masses --      1.0824                 1.0455                 1.0813
 Frc consts  --      1.6779                 8.9055                 9.8737
 IR Inten    --     67.5112                 4.1399                67.1507
  Atom  AN      X      Y      Z        X      Y      Z        X      Y      Z
     1   8    -0.00  -0.00  -0.07     0.00  -0.00   0.05    -0.00  -0.07  -0.00
     2   1     0.00   0.43   0.56     0.00   0.58  -0.40    -0.00   0.56  -0.43
     3   1     0.00  -0.43   0.56    -0.00  -0.58  -0.40     0.00   0.56   0.43

 -------------------
 - Thermochemistry -
 -------------------
 Temperature   298.150 Kelvin.  Pressure   1.00000 Atm.
 Atom     1 has atomic number  8 and mass  15.99491
 Atom     2 has atomic number  1 and mass   1.00783
 Atom     3 has atomic number  1 and mass   1.00783
 Molecular mass:    18.01056 amu.
 Principal axes and moments of inertia in atomic units:
                           1         2         3
     Eigenvalues --     2.26552   4.16568   6.43120
           X            0.00000   0.00000   1.00000
           Y            1.00000   0.00000   0.00000
           Z            0.00000   1.00000   0.00000
 This molecule is an asymmetric top.
 Rotational symmetry number  2.
 Rotational temperatures (Kelvin)     38.23139    20.79225    13.46777
 Rotational constants (GHZ):         796.61295   433.24025   280.62275
 Zero-point vibrational energy      55992.8 (Joules/Mol)
                                   13.38261 (Kcal/Mol)
 Vibrational temperatures:   2333.83  5470.71  5664.24
          (Kelvin)
 
 Zero-point correction=                           0.021327 (Hartree/Particle)
 Thermal correction to Energy=                    0.024162
 Thermal correction to Enthalpy=                  0.025106
 Thermal correction to Gibbs Free Energy=         0.003668
 Sum of electronic and zero-point Energies=            -76.239583
 Sum of electronic and thermal Energies=               -76.236748
 Sum of electronic and thermal Enthalpies=             -76.235803
 Sum of electronic and thermal Free Energies=          -76.257242
 
                     E (Thermal)             CV                S
                      KCal/Mol        Cal/Mol-Kelvin    Cal/Mol-Kelvin
 Total                   15.162              6.010             45.120
 Electronic               0.000              0.000              0.000
 Translational            0.889              2.981             34.608
 Rotational               0.889              2.981             10.505
 Vibrational             13.384              0.049              0.007
                       Q            Log10(Q)             Ln(Q)
 Total Bot       0.205487D-01         -1.687215         -3.884956
 Total V=0       0.132528D+09          8.122306         18.702302
 Vib (Bot)       0.155114D-09         -9.809349        -22.586860
 Vib (V=0)       0.100040D+01          0.000173          0.000399
 Electronic      0.100000D+01          0.000000          0.000000
 Translational   0.300431D+07          6.477745         14.915559
 Rotational      0.440949D+02          1.644388          3.786344

     ==================================================
      Anharmonic Data: Displacement Vectors Definition
     ==================================================

 Framework definition based on atomic masses: C2V 

 **********************************************************************

                  Harmonic vibro-rotational analysis

 **********************************************************************


     ==================================================
               Analysis of the Rotor Symmetry
     ==================================================

 Framework Group : C2V 
 Rotor Type      : Asymmetric Top
 Asymm. param.   : Kappa = -0.408448
 Inertia moments : X=     1.80092 , Y=     0.63441 , Z=     1.16651
 Representation  : IIr Representation, Iy < Iz < Ix

 Axes Definition for the Symmetric-Top Representation
 ----------------------------------------------------
 Axis Z automatically chosen to be collinear with X from Eckart orient.
 NOTE: In Vibro-rotational analysis, this will be referred to as the
       spectroscopic orientation.

     ==================================================
        Vibro-Rotational Analysis Based on Symmetry
     ==================================================

 Representation A1  
 ------------------
    Z Translation
    2 Vibrations with frequencies:
   3802.34   1622.09

 Representation A2  
 ------------------
    Y Rotation
 No Vibration

 Representation B1  
 ------------------
    X Translation
    X Rotation
 No Vibration

 Representation B2  
 ------------------
    Y Translation
    Z Rotation
    1 Vibrations with frequencies:
   3936.84

 Input/Output information
 ------------------------
 Normal modes will be PRINTED in DESCENDING order (imag. freq. first)
   and sorted by irreducible representation
 The connection between this new numbering (A) and the one used before
   (H) is reported in the present equivalency table:
 ----+------+------+------+
 (H) |     1|     2|     3|
 (A) |     2|     1|     3|
 ----+------+------+------+

 Normal modes will be READ in ASCENDING order (imag. freq. first)

 Analysis of symmetry-allowed terms
 ----------------------------------

     ==================================================
                   Coriolis Couplings
     ==================================================

 Coriolis Couplings along the X axis
 -----------------------------------
                1             2             3 
      1   0.000000D+00
      2   0.000000D+00  0.000000D+00
      3   0.948357D-02  0.999955D+00  0.000000D+00

 Coriolis Couplings along the Y axis
 -----------------------------------
                1             2             3 
      1   0.000000D+00
      2   0.000000D+00  0.000000D+00
      3   0.000000D+00  0.000000D+00  0.000000D+00

 Coriolis Couplings along the Z axis
 -----------------------------------
                1             2             3 
      1   0.000000D+00
      2   0.000000D+00  0.000000D+00
      3   0.000000D+00  0.000000D+00  0.000000D+00

    2 Coriolis couplings larger than .100D-02 along the X axis
    No Coriolis coupling larger than .100D-02 along the Y axis
    No Coriolis coupling larger than .100D-02 along the Z axis

     ==================================================
      Inertia Moments Derivatives w.r.t. Normal Modes
     ==================================================

 Units: amu^1/2.Ang

                 Ixx        Ixy        Iyy        Ixz        Iyz        Izz
 Q(     1)     2.68385   -0.00000    0.93328   -0.00000    0.00000    1.75057
 Q(     2)    -0.02545   -0.00000   -1.29098    0.00000    0.00000    1.26553
 Q(     3)    -0.00000    0.00000   -0.00000    0.00000    1.28207   -0.00000

     ==================================================
               Vibro-rotational Alpha Matrix
     ==================================================

 Vibro-Rot alpha Matrix (in cm^-1)
 ---------------------------------
                 A(y)           B(z)           C(x)
 Q(     1)       -0.38243       -0.21643       -0.13802
 Q(     2)       -1.71529       -0.26515        0.19635
 Q(     3)       -0.37908       -0.20616       -0.17017

 Vibro-Rot alpha Matrix (in MHz)
 -------------------------------
                 A(y)           B(z)           C(x)
 Q(     1)   -11464.85303    -6488.53316    -4137.61167
 Q(     2)   -51423.08107    -7948.87750     5886.44298
 Q(     3)   -11364.56581    -6180.65190    -5101.46436

     ==================================================
          Quartic Centrifugal Distortion Constants
     ==================================================

 NOTE: Values in Cartesian coords. refer to the structure in Eckart orientation.

 Quartic Centrifugal Distortion Constants Tau Prime
 --------------------------------------------------
                      cm^-1                    MHz
 TauP aaaa     -0.8205694092D-01        -0.2460005202D+04
 TauP bbaa      0.1035021720D-01         0.3102917055D+03
 TauP bbbb     -0.8492780270D-02        -0.2546071472D+03
 TauP ccaa     -0.2726584666D-02        -0.8174095191D+02
 TauP ccbb     -0.1357819063D-02        -0.4070639143D+02
 TauP cccc     -0.9080318231D-03        -0.2722210922D+02

 Asymmetric Top Reduction
 ------------------------
       Asymmetry parameter     | Reference formula
  Kappa :        -0.4084480792 |    [2B-A-C]/[A-C]
  Delta :         0.2957759604 |       [B-C]/[A-C]
  Sigma :        -1.8407706595 | [2A'-B'-C']/[B'-C']

 (A,B,C)   : equilibrium rotational constants
 (A',B',C'): effective rotational constants

 Constants in the Asymmetrically reduced Hamiltonian
 ---------------------------------------------------
                        cm^-1                   MHz
  DELTA J  :    0.1131871515D-01         0.3393265436D+03
  DELTA K  :    0.2443089162D-01         0.7324197050D+03
  DELTA JK :   -0.3552259882D-01        -0.1064940721D+04
  delta J  :    0.4597760041D-02         0.1378373784D+03
  delta K  :   -0.1722579073D-01        -0.5164162145D+03

 Effective Rotational Constants
 (Include Terms due to Quartic Centrifugal Distortion Constants)
 ---------------------------------------------------------------
           Be in cm^-1             B(A) in cm^-1            B(A) in MHz
 a         26.572147708            26.560455724             796262.43071
 b         14.451339188            14.490843710             434424.56543
 c          9.360567532             9.332754993             279788.95592

 Nielsen Centrifugal Distortion Constants
 ----------------------------------------
                cm^-1                    MHz
 DJ     0.7842147787D-02         0.2351016761D+03
 DJK   -0.1466319464D-01        -0.4395915164D+03
 DK     0.7048054811D-02         0.2112953676D+03
 dJ     0.4597760041D-02         0.1378373784D+03
 R5     0.2213332170D-02         0.6635402917D+02
 R6    -0.1738283681D-02        -0.5211243375D+02

 Constants in the Symmetrically Reduced Hamiltonian
 --------------------------------------------------
                    cm^-1                     MHz
  D J  :    0.6639753475D-02         0.1990548015D+03
  D JK :   -0.7448828771D-02        -0.2233102687D+03
  D K  :    0.1036083252D-02         0.3106099448D+02
  d 1  :   -0.4597760041D-02        -0.1378373784D+03
  d 2  :   -0.2339480837D-02        -0.7013587106D+02


 Effective Rotational Constants
 (Include Terms due to Quartic Centrifugal Distortion Constants)
 ---------------------------------------------------------------
           Be in cm^-1             B(S) in cm^-1            B(S) in MHz
 a         26.572147708            26.585549382             797014.71966
 b         14.451339188            14.447034205             433111.18952
 c          9.360567532             9.356149801             280490.31463

 Wilson Centrifugal Distortion Constants
 ---------------------------------------
                cm^-1                    MHz
 DJ     0.2051423523D-01         0.6150013004D+03
 DJK   -0.3966517813D-01        -0.1189132125D+04
 DK     0.1937795085D-01         0.5809363517D+03

 Nielsen Centrifugal Distortion Constants
 ----------------------------------------
                cm^-1                    MHz
 DJ     0.7842147787D-02         0.2351016761D+03
 DJK   -0.1466319464D-01        -0.4395915164D+03
 DK     0.7048054811D-02         0.2112953676D+03
 dJ     0.4597760041D-02         0.1378373784D+03
 R5     0.2213332170D-02         0.6635402917D+02
 R6    -0.1738283681D-02        -0.5211243375D+02

     ==================================================
       Average Coordinates and Mean Square Amplitudes
     ==================================================

 NOTE: Temperature is given in K between parentheses
       For Cartesian and internal coords., units are given between
       parentheses next to each label

 Mean Square Amplitudes of Normal Coordinates (in amu.bohr^2)
 -----------------------------------------------------------
 Mode    <Q^2> (0)    <Q^2> (298.15)    <Q^2> (298.15) class.
    1     0.015832       0.015832          0.068128
    2     0.037112       0.037142          0.374346
    3     0.015291       0.015291          0.063552

 Mean Square Amplitudes of Cartesian Coordinates
 -----------------------------------------------
    Label        <(S-Se)^2>^1/2 (0)    <(S-Se)^2>^1/2 (298.15)
 X(1)  (Angs)        0.000000              0.000000
 Y(1)  (Angs)        0.004405              0.004405
 Z(1)  (Angs)        0.007642              0.007645
 X(2)  (Angs)        0.000000              0.000000
 Y(2)  (Angs)        0.066606              0.066616
 Z(2)  (Angs)        0.066529              0.066547
 X(3)  (Angs)        0.000000              0.000000
 Y(3)  (Angs)        0.066606              0.066616
 Z(3)  (Angs)        0.066529              0.066547
 ***** Axes restored to original set *****
 -------------------------------------------------------------------
 Center     Atomic                   Forces (Hartrees/Bohr)
 Number     Number              X              Y              Z
 -------------------------------------------------------------------
      1        8           0.000000000    0.000000000    0.000002827
      2        1           0.000098325    0.000000000   -0.000001413
      3        1          -0.000098325   -0.000000000   -0.000001413
 -------------------------------------------------------------------
 Cartesian Forces:  Max     0.000098325 RMS     0.000046365
 FormGI is forming the generalized inverse of G from B-inverse, IUseBI=4.
 NDeriv=      3 NFrqRd=  0 NDerD0=      0 MskFDP=       0 MskDFD=       0 MskDF0=       0
 At 1st pt F.D. properties file   721 does not exist.
 At 1st pt F.D. properties file   722 does not exist.
 D2Numr ... symmetry will not be used.
 Standard basis: Aug-CC-pVDZ (5D, 7F)
    41 basis functions,    65 primitive gaussians,    43 cartesian basis functions
     5 alpha electrons        5 beta electrons
       nuclear repulsion energy         9.1100231740 Hartrees.
 NAtoms=    3 NActive=    3 NUniq=    3 SFac= 1.00D+00 NAtFMM=   60 NAOKFM=F Big=F
 Integral buffers will be    131072 words long.
 Raffenetti 1 integral format.
 Two-electron integral symmetry is turned off.
 One-electron integrals computed using PRISM.
 NBasis=    41 RedAO= T EigKep=  2.70D-03  NBF=    41
 NBsUse=    41 1.00D-06 EigRej= -1.00D+00 NBFU=    41
 Initial guess from the checkpoint file:  "h2o.chk"
 B after Tr=    -0.000000    0.000000   -0.001008
         Rot=    1.000000    0.000000   -0.000000    0.000000 Ang=   0.00 deg.
 Keep R1 ints in memory in canonical form, NReq=6150322.
 Requested convergence on RMS density matrix=1.00D-08 within 128 cycles.
 Requested convergence on MAX density matrix=1.00D-06.
 Requested convergence on             energy=1.00D-06.
 No special actions if energy rises.
 SCF Done:  E(RHF) =  -76.0406359907     A.U. after    8 cycles
            NFock=  8  Conv=0.51D-08     -V/T= 2.0019
 ExpMin= 2.97D-02 ExpMax= 1.17D+04 ExpMxC= 4.01D+02 IAcc=3 IRadAn=         5 AccDes= 0.00D+00
 HarFok:  IExCor=  205 AccDes= 0.00D+00 IRadAn=         5 IDoV=-2 UseB2=F ITyADJ=14
 ICtDFT= 12500011 ScaDFX=  1.000000  1.000000  1.000000  1.000000
 Range of M.O.s used for correlation:     2    41
 NBasis=    41 NAE=     5 NBE=     5 NFC=     1 NFV=     0
 NROrb=     40 NOA=     4 NOB=     4 NVA=    36 NVB=    36
 Disk-based method using ON**2 memory for  4 occupieds at a time.
 Permanent disk used for amplitudes=       38700 words.
 Estimated scratch disk usage=      826379 words.
 Actual    scratch disk usage=      826379 words.
 JobTyp=1 Pass  1:  I=   2 to   5 NPSUse= 28 ParTrn=T ParDer=T DoDerP=T.
 (rs|ai) integrals will be sorted in core.
 Spin components of T(2) and E(2):
     alpha-alpha T2 =       0.7798996015D-02 E2=     -0.2801554867D-01
     alpha-beta  T2 =       0.4415212075D-01 E2=     -0.1642262902D+00
     beta-beta   T2 =       0.7798996015D-02 E2=     -0.2801554867D-01
 ANorm=    0.1029441651D+01
 E2 =    -0.2202573876D+00 EUMP2 =    -0.76260893378258D+02
 G2DrvN: will do     4 centers at a time, making    1 passes.
 Calling FoFCou, ICntrl=  3107 FMM=F I1Cent=   0 AccDes= 0.00D+00.
 End of G2Drv F.D. properties file   721 does not exist.
 End of G2Drv F.D. properties file   722 does not exist.
 End of G2Drv F.D. properties file   788 does not exist.
          IDoAtm=111
          Differentiating once with respect to electric field.
                with respect to dipole field.
          Differentiating once with respect to nuclear coordinates.
 Keep R1 ints in memory in canonical form, NReq=6150876.
          There are    12 degrees of freedom in the 1st order CPHF.  IDoFFX=6 NUNeed=    12.
      9 vectors produced by pass  0 Test12= 1.50D-15 8.33D-09 XBig12= 1.90D+00 6.77D-01.
 AX will form     9 AO Fock derivatives at one time.
      9 vectors produced by pass  1 Test12= 1.50D-15 8.33D-09 XBig12= 1.28D-01 1.39D-01.
      9 vectors produced by pass  2 Test12= 1.50D-15 8.33D-09 XBig12= 5.60D-03 2.73D-02.
      9 vectors produced by pass  3 Test12= 1.50D-15 8.33D-09 XBig12= 6.66D-05 2.65D-03.
      9 vectors produced by pass  4 Test12= 1.50D-15 8.33D-09 XBig12= 5.97D-07 3.07D-04.
      9 vectors produced by pass  5 Test12= 1.50D-15 8.33D-09 XBig12= 9.46D-10 1.18D-05.
      7 vectors produced by pass  6 Test12= 1.50D-15 8.33D-09 XBig12= 6.22D-12 8.29D-07.
      2 vectors produced by pass  7 Test12= 1.50D-15 8.33D-09 XBig12= 2.86D-14 5.75D-08.
 InvSVY:  IOpt=1 It=  1 EMax= 6.66D-16
 Solved reduced A of dimension    63 with     9 vectors.
 End of Minotr F.D. properties file   721 does not exist.
 End of Minotr F.D. properties file   722 does not exist.
 End of Minotr F.D. properties file   788 does not exist.
 MDV=  5502926848.
 Form MO integral derivatives with frozen-active canonical formalism.
 Discarding MO integrals.
 Reordered first order wavefunction length =        64800
 In DefCFB: NBatch=  1 ICI=  5 ICA= 36 LFMax= 36
            Large arrays: LIAPS=     1269360 LIARS=     1354500 words.
 Semi-Direct transformation.
 ModeAB=           2 MOrb=             5 LenV=    5502721653
 LASXX=       153955 LTotXX=      153955 LenRXX=      153955
 LTotAB=      165195 MaxLAS=      193930 LenRXY=      193930
 NonZer=      307910 LenScr=      524288 LnRSAI=           0
 LnScr1=           0 LExtra=           0 Total=       872173
 MaxDsk=          -1 SrtSym=           F ITran=            4
 JobTyp=0 Pass  1:  I=   1 to   5.
 (rs|ai) integrals will be sorted in core.
 Spin components of T(2) and E(2):
     alpha-alpha T2 =       0.7798996015D-02 E2=     -0.2801554867D-01
     alpha-beta  T2 =       0.4415212075D-01 E2=     -0.1642262902D+00
     beta-beta   T2 =       0.7798996015D-02 E2=     -0.2801554867D-01
 ANorm=    0.1455850344D+01
 E2 =    -0.2202573876D+00 EUMP2 =    -0.76260893378258D+02
          IDoAtm=111
          Differentiating once with respect to electric field.
                with respect to dipole field.
          Differentiating once with respect to nuclear coordinates.
          There are     1 degrees of freedom in the 1st order CPHF.  IDoFFX=0 NUNeed=     1.
 LinEq1:  Iter=  0 NonCon=     1 RMS=8.34D-03 Max=6.69D-02 NDo=     1
 LinEq1:  Iter=  1 NonCon=     1 RMS=1.79D-03 Max=1.05D-02 NDo=     1
 LinEq1:  Iter=  2 NonCon=     1 RMS=6.73D-04 Max=5.07D-03 NDo=     1
 LinEq1:  Iter=  3 NonCon=     1 RMS=6.87D-05 Max=4.03D-04 NDo=     1
 LinEq1:  Iter=  4 NonCon=     1 RMS=7.29D-06 Max=3.04D-05 NDo=     1
 LinEq1:  Iter=  5 NonCon=     1 RMS=1.47D-06 Max=6.72D-06 NDo=     1
 LinEq1:  Iter=  6 NonCon=     1 RMS=2.32D-07 Max=1.18D-06 NDo=     1
 LinEq1:  Iter=  7 NonCon=     1 RMS=2.28D-08 Max=1.69D-07 NDo=     1
 LinEq1:  Iter=  8 NonCon=     1 RMS=2.51D-09 Max=1.72D-08 NDo=     1
 LinEq1:  Iter=  9 NonCon=     1 RMS=2.03D-10 Max=1.23D-09 NDo=     1
 LinEq1:  Iter= 10 NonCon=     0 RMS=1.64D-11 Max=9.63D-11 NDo=     1
 Linear equations converged to 1.000D-10 1.000D-09 after    10 iterations.
 End of Minotr F.D. properties file   721 does not exist.
 End of Minotr F.D. properties file   722 does not exist.
 End of Minotr F.D. properties file   788 does not exist.
 Symmetrizing basis deriv contribution to polar:
 IMax=3 JMax=2 DiffMx= 0.00D+00
 G2DrvN: will do     4 centers at a time, making    1 passes.
 Calling FoFCou, ICntrl=  3107 FMM=F I1Cent=   0 AccDes= 0.00D+00.
 End of G2Drv F.D. properties file   721 does not exist.
 End of G2Drv F.D. properties file   722 does not exist.
 End of G2Drv F.D. properties file   788 does not exist.
 R2 and R3 integrals will be kept in memory, NReq=     1715862.
 DD1Dir will call FoFMem   1 times, MxPair=        30
 NAB=    15 NAA=     0 NBB=     0.
 Discarding MO integrals.

 **********************************************************************

            Population analysis using the MP2 density.

 **********************************************************************

 Alpha  occ. eigenvalues --  -20.57948  -1.35294  -0.71138  -0.58677  -0.50911
 Alpha virt. eigenvalues --    0.03515   0.05801   0.17401   0.19730   0.22217
 Alpha virt. eigenvalues --    0.23219   0.28731   0.33248   0.38596   0.39990
 Alpha virt. eigenvalues --    0.43025   0.53930   0.64580   0.65805   0.80384
 Alpha virt. eigenvalues --    0.93159   1.10341   1.11783   1.14797   1.29741
 Alpha virt. eigenvalues --    1.46205   1.47857   1.58234   2.00032   2.00237
 Alpha virt. eigenvalues --    2.10770   2.34742   2.46711   2.61050   2.70810
 Alpha virt. eigenvalues --    2.97704   3.67352   3.68986   3.70037   4.00695
 Alpha virt. eigenvalues --    4.29249
          Condensed to atoms (all electrons):
               1          2          3
     1  O    7.604478   0.316846   0.316846
     2  H    0.316846   0.612218  -0.048148
     3  H    0.316846  -0.048148   0.612218
 Mulliken charges:
               1
     1  O   -0.238169
     2  H    0.119084
     3  H    0.119084
 Sum of Mulliken charges =  -0.00000
 Mulliken charges with hydrogens summed into heavy atoms:
               1
     1  O   -0.000000
 APT charges:
               1
     1  O   -0.499144
     2  H    0.249572
     3  H    0.249572
 Sum of APT charges =  -0.00000
 APT charges with hydrogens summed into heavy atoms:
               1
     1  O   -0.000000
 Electronic spatial extent (au):  <R**2>=             20.2988
 Charge=             -0.0000 electrons
 Dipole moment (field-independent basis, Debye):
    X=              0.0000    Y=             -0.0000    Z=             -1.8915  Tot=              1.8915
 Quadrupole moment (field-independent basis, Debye-Ang):
   XX=             -7.9359   YY=             -4.5826   ZZ=             -6.5053
   XY=              0.0000   XZ=             -0.0000   YZ=              0.0000
 Traceless Quadrupole moment (field-independent basis, Debye-Ang):
   XX=             -1.5946   YY=              1.7586   ZZ=             -0.1640
   XY=              0.0000   XZ=             -0.0000   YZ=              0.0000
 Octapole moment (field-independent basis, Debye-Ang**2):
  XXX=              0.0000  YYY=             -0.0000  ZZZ=             -1.0085  XYY=              0.0000
  XXY=             -0.0000  XXZ=             -0.2278  XZZ=              0.0000  YZZ=             -0.0000
  YYZ=             -1.3029  XYZ=             -0.0000
 Hexadecapole moment (field-independent basis, Debye-Ang**3):
 XXXX=             -7.9461 YYYY=             -6.8281 ZZZZ=             -8.2584 XXXY=              0.0000
 XXXZ=             -0.0000 YYYX=              0.0000 YYYZ=             -0.0000 ZZZX=             -0.0000
 ZZZY=              0.0000 XXYY=             -2.7864 XXZZ=             -2.7550 YYZZ=             -2.2033
 XXYZ=              0.0000 YYXZ=             -0.0000 ZZXY=              0.0000
 N-N= 9.110023173983D+00 E-N=-1.985075952300D+02  KE= 7.601326874301D+01
  Exact polarizability:   8.780  -0.000   9.944  -0.000   0.000   9.197
 Approx polarizability:   5.941  -0.000   7.857  -0.000   0.000   7.133
 Calling FoFJK, ICntrl=  10100127 FMM=F ISym2X=0 I1Cent= 0 IOpClX= 0 NMat=1 NMatS=1 NMatT=0.
 -------------------------------------------------------------------
 Center     Atomic                   Forces (Hartrees/Bohr)
 Number     Number              X              Y              Z
 -------------------------------------------------------------------
      1        8           0.000000000   -0.000000000   -0.002068267
      2        1           0.000000000    0.000678334    0.001034134
      3        1          -0.000000000   -0.000678334    0.001034134
 -------------------------------------------------------------------
 Cartesian Forces:  Max     0.002068267 RMS     0.000902888
 NDeriv=      3 NFrqRd=  0 NDerD0=      0 MskFDP=       0 MskDFD=       0 MskDF0=       0
 Re-enter D2Numr:  normal mode   1 step-up   number 1
 Standard basis: Aug-CC-pVDZ (5D, 7F)
    41 basis functions,    65 primitive gaussians,    43 cartesian basis functions
     5 alpha electrons        5 beta electrons
       nuclear repulsion energy         9.1150165094 Hartrees.
 NAtoms=    3 NActive=    3 NUniq=    3 SFac= 1.00D+00 NAtFMM=   60 NAOKFM=F Big=F
 Integral buffers will be    131072 words long.
 Raffenetti 1 integral format.
 Two-electron integral symmetry is turned off.
 One-electron integrals computed using PRISM.
 NBasis=    41 RedAO= T EigKep=  2.77D-03  NBF=    41
 NBsUse=    41 1.00D-06 EigRej= -1.00D+00 NBFU=    41
 Initial guess from the checkpoint file:  "h2o.chk"
 B after Tr=     0.000000    0.000000    0.001008
         Rot=    1.000000    0.000000    0.000000    0.000000 Ang=   0.00 deg.
 Keep R1 ints in memory in canonical form, NReq=6150322.
 Requested convergence on RMS density matrix=1.00D-08 within 128 cycles.
 Requested convergence on MAX density matrix=1.00D-06.
 Requested convergence on             energy=1.00D-06.
 No special actions if energy rises.
 SCF Done:  E(RHF) =  -76.0408368729     A.U. after    8 cycles
            NFock=  8  Conv=0.52D-08     -V/T= 2.0019
 ExpMin= 2.97D-02 ExpMax= 1.17D+04 ExpMxC= 4.01D+02 IAcc=3 IRadAn=         5 AccDes= 0.00D+00
 HarFok:  IExCor=  205 AccDes= 0.00D+00 IRadAn=         5 IDoV=-2 UseB2=F ITyADJ=14
 ICtDFT= 12500011 ScaDFX=  1.000000  1.000000  1.000000  1.000000
 Range of M.O.s used for correlation:     2    41
 NBasis=    41 NAE=     5 NBE=     5 NFC=     1 NFV=     0
 NROrb=     40 NOA=     4 NOB=     4 NVA=    36 NVB=    36
 Disk-based method using ON**2 memory for  4 occupieds at a time.
 Permanent disk used for amplitudes=       38700 words.
 Estimated scratch disk usage=      826379 words.
 Actual    scratch disk usage=      826379 words.
 JobTyp=1 Pass  1:  I=   2 to   5 NPSUse= 28 ParTrn=T ParDer=T DoDerP=T.
 (rs|ai) integrals will be sorted in core.
 Spin components of T(2) and E(2):
     alpha-alpha T2 =       0.7781862105D-02 E2=     -0.2798924703D-01
     alpha-beta  T2 =       0.4405144608D-01 E2=     -0.1640751410D+00
     beta-beta   T2 =       0.7781862105D-02 E2=     -0.2798924703D-01
 ANorm=    0.1029376107D+01
 E2 =    -0.2200536350D+00 EUMP2 =    -0.76260890507985D+02
 G2DrvN: will do     4 centers at a time, making    1 passes.
 Calling FoFCou, ICntrl=  3107 FMM=F I1Cent=   0 AccDes= 0.00D+00.
 End of G2Drv F.D. properties file   721 does not exist.
 End of G2Drv F.D. properties file   722 does not exist.
 End of G2Drv F.D. properties file   788 does not exist.
          IDoAtm=111
          Differentiating once with respect to electric field.
                with respect to dipole field.
          Differentiating once with respect to nuclear coordinates.
 Keep R1 ints in memory in canonical form, NReq=6150876.
          There are    12 degrees of freedom in the 1st order CPHF.  IDoFFX=6 NUNeed=    12.
      9 vectors produced by pass  0 Test12= 1.50D-15 8.33D-09 XBig12= 1.90D+00 6.79D-01.
 AX will form     9 AO Fock derivatives at one time.
      9 vectors produced by pass  1 Test12= 1.50D-15 8.33D-09 XBig12= 1.24D-01 1.35D-01.
      9 vectors produced by pass  2 Test12= 1.50D-15 8.33D-09 XBig12= 5.49D-03 2.77D-02.
      9 vectors produced by pass  3 Test12= 1.50D-15 8.33D-09 XBig12= 6.57D-05 2.59D-03.
      9 vectors produced by pass  4 Test12= 1.50D-15 8.33D-09 XBig12= 6.01D-07 3.10D-04.
      9 vectors produced by pass  5 Test12= 1.50D-15 8.33D-09 XBig12= 9.43D-10 1.17D-05.
      7 vectors produced by pass  6 Test12= 1.50D-15 8.33D-09 XBig12= 6.18D-12 8.56D-07.
      2 vectors produced by pass  7 Test12= 1.50D-15 8.33D-09 XBig12= 2.97D-14 5.94D-08.
 InvSVY:  IOpt=1 It=  1 EMax= 4.44D-16
 Solved reduced A of dimension    63 with     9 vectors.
 End of Minotr F.D. properties file   721 does not exist.
[...]
                1             2             3
      1  0.000000D+00
      2  0.000000D+00  0.000000D+00
      3  0.168476D-02  0.265726D+02  0.000000D+00

 3rd Deriv. contributions to X Matrix (in cm^-1)
 -----------------------------------------------
                1             2             3
      1 -0.921378D+02
      2  0.554188D+02 -0.122822D+02
      3 -0.357209D+03  0.428741D+02 -0.965764D+02

 4th Deriv. contributions to X Matrix (in cm^-1)
 -----------------------------------------------
                1             2             3
      1  0.480779D+02
      2 -0.754130D+02 -0.175866D+01
      3  0.190819D+03 -0.924886D+02  0.475295D+02

 Total Anharmonic X Matrix (in cm^-1)
 ------------------------------------
                1             2             3
      1 -0.440599D+02
      2 -0.199942D+02 -0.140408D+02
      3 -0.166389D+03 -0.230418D+02 -0.490469D+02

     ==================================================
                Anharmonic Zero Point Energy
     ==================================================

 Anharmonic X0 Term
 ------------------
 U term         : cm-1 =   -12.59601 ; Kcal/mol =  -0.036 ; KJ/mol =  -0.151
 Coriolis       : cm-1 =    -4.68028 ; Kcal/mol =  -0.013 ; KJ/mol =  -0.056
 Anharmonic     : cm-1 =    20.80183 ; Kcal/mol =   0.059 ; KJ/mol =   0.249
 Total X0       : cm-1 =     3.52553 ; Kcal/mol =   0.010 ; KJ/mol =   0.042

 Anharmonic Zero Point Energy
 ----------------------------
 Harmonic       : cm-1 =  4680.63588 ; Kcal/mol =  13.383 ; KJ/mol =  55.993
 Anharmonic Pot.: cm-1 =   -64.98489 ; Kcal/mol =  -0.186 ; KJ/mol =  -0.777
 Watson+Coriolis: cm-1 =   -10.63271 ; Kcal/mol =  -0.030 ; KJ/mol =  -0.127
 Total Anharm   : cm-1 =  4605.01828 ; Kcal/mol =  13.166 ; KJ/mol =  55.088

     ==================================================
          Vibrational Energies at Anharmonic Level
     ==================================================

 Units: Vibrational energies and rotational constants in cm^-1.
 NOTE: Transition energies are given with respect to the ground state.

 Reference Data
 --------------
                              E(harm)  E(anharm)     Aa(y)      Ba(z)      Ca(x)
 Equilibrium Geometry                             26.560456  14.490844   9.332755
 Ground State                 4680.636  4605.018  26.910037  14.407203   9.099009

 Fundamental Bands
 -----------------
     Mode(n)      Status      E(harm)  E(anharm)     Aa(y)      Ba(z)      Ca(x)
        1(1)      active      3802.336  3621.025  26.240136  14.180369   8.920462
        2(1)      active      1622.094  1572.494  29.389026  14.570478   8.954689
        3(1)      active      3936.842  3744.032  25.800114  14.303479   8.954384

 Overtones
 ---------
     Mode(n)                  E(harm)  E(anharm)     Aa(y)      Ba(z)      Ca(x)
        1(2)                  7604.672  7153.930  25.570234  13.953534   8.741915
        2(2)                  3244.188  3116.907  31.868014  14.733754   8.810369
        3(2)                  7873.683  7389.971  24.690190  14.199756   8.809759

 Combination Bands
 -----------------
     Mode(n)     Mode(n)      E(harm)  E(anharm)     Aa(y)      Ba(z)      Ca(x)
        2(1)        1(1)      5424.430  5173.525  28.719124  14.343644   8.776142
        3(1)        1(1)      7739.178  7198.668  25.130212  14.076645   8.775837
        3(1)        2(1)      5558.936  5293.485  28.279102  14.466755   8.810064

     ==================================================
      Thermodynamic properties and Partition Functions
     ==================================================

 ZPE(harm) = 0.55993D+02 kJ/mol        ZPE(anh)= 0.55088D+02 kJ/mol

 Input values of T(K) and P(atm): 298.15   1.00
                    Harmonic value     SPT anharmonic value
 Qvib               0.15511D-09          0.22345D-09
 QZvib              0.10004D+01          0.10005D+01
 Energy             0.63437D+02          0.62535D+02         kJ/mol
 Enthalpy           0.65916D+02          0.65014D+02         kJ/mol
 Entropy            0.18878D+03          0.18879D+03         J/(mol K)
 Sp.Heat(V)         0.25147D+02          0.25186D+02         J/(mol K)
 Sp.Heat(P)         0.33461D+02          0.33501D+02         J/(mol K)

 T =  298.15 K;  P =   1.00 atm
                    Harmonic value     SPT anharmonic value
 Qvib               0.15511D-09          0.22345D-09
 QZvib              0.10004D+01          0.10005D+01
 Energy             0.63437D+02          0.62535D+02         kJ/mol
 Enthalpy           0.65916D+02          0.65014D+02         kJ/mol
 Entropy            0.18878D+03          0.18879D+03         J/(mol K)
 Sp.Heat(V)         0.25147D+02          0.25186D+02         J/(mol K)
 Sp.Heat(P)         0.33461D+02          0.33501D+02         J/(mol K)

 T =  500.00 K;  P =   1.00 atm
                    Harmonic value     SPT anharmonic value
 Qvib               0.14279D-05          0.17776D-05
 QZvib              0.10095D+01          0.10110D+01
 Energy             0.68650D+02          0.67768D+02         kJ/mol
 Enthalpy           0.72807D+02          0.71925D+02         kJ/mol
 Entropy            0.20640D+03          0.20646D+03         J/(mol K)
 Sp.Heat(V)         0.26708D+02          0.26876D+02         J/(mol K)
 Sp.Heat(P)         0.35022D+02          0.35190D+02         J/(mol K)

 T = 1000.00 K;  P =   1.00 atm
                    Harmonic value     SPT anharmonic value
 Qvib               0.13271D-02          0.14950D-02
 QZvib              0.11159D+01          0.11275D+01
 Energy             0.83375D+02          0.82661D+02         kJ/mol
 Enthalpy           0.91689D+02          0.90976D+02         kJ/mol
 Entropy            0.23235D+03          0.23263D+03         J/(mol K)
 Sp.Heat(V)         0.32313D+02          0.32824D+02         J/(mol K)
 Sp.Heat(P)         0.40628D+02          0.41138D+02         J/(mol K)

 T = 1500.00 K;  P =   1.00 atm
                    Harmonic value     SPT anharmonic value
 Qvib               0.14950D-01          0.16449D-01
 QZvib              0.13319D+01          0.13628D+01
 Energy             0.10092D+03          0.10050D+03         kJ/mol
 Enthalpy           0.11339D+03          0.11298D+03         kJ/mol
 Entropy            0.24988D+03          0.25039D+03         J/(mol K)
 Sp.Heat(V)         0.37650D+02          0.38285D+02         J/(mol K)
 Sp.Heat(P)         0.45964D+02          0.46599D+02         J/(mol K)

 T = 2000.00 K;  P =   1.00 atm
                    Harmonic value     SPT anharmonic value
 Qvib               0.56901D-01          0.62261D-01
 QZvib              0.16500D+01          0.17098D+01
 Energy             0.12075D+03          0.12064D+03         kJ/mol
 Enthalpy           0.13738D+03          0.13727D+03         kJ/mol
 Entropy            0.26365D+03          0.26435D+03         J/(mol K)
 Sp.Heat(V)         0.41424D+02          0.41981D+02         J/(mol K)
 Sp.Heat(P)         0.49739D+02          0.50296D+02         J/(mol K)

     ==================================================
               Anharmonic Transition Moments
     ==================================================

 Electric dipole : Fundamental Bands
 ------------------------------------------------------------------------
   Mode(n)                            X               Y               Z
      1(1)                      -0.346265D-14   -0.243380D-13    0.728308D-02
      2(1)                       0.303149D-15   -0.924537D-14   -0.518200D-01
      3(1)                      -0.376307D-14   -0.325651D-01    0.755586D-14

 Electric dipole : Overtones
 ------------------------------------------------------------------------
   Mode(n)                            X               Y               Z
      1(2)                       0.671728D-14    0.366929D-13    0.164928D-02
      2(2)                       0.423562D-15    0.124594D-13    0.331828D-02
      3(2)                      -0.413141D-14    0.118124D-13   -0.352493D-03

 Electric dipole : Combination Bands
 ------------------------------------------------------------------------
   Mode(n)     Mode(n)                X               Y               Z
      2(1)        1(1)          -0.130425D-14    0.347174D-13   -0.861692D-03
      3(1)        1(1)           0.406029D-14   -0.435891D-02   -0.145458D-13
      3(1)        2(1)          -0.197857D-13    0.662870D-02    0.315411D-14

     ==================================================
              Anharmonic Infrared Spectroscopy
     ==================================================

 Units: Transition energies (E) in cm^-1
        Integrated intensity (I) in km.mol^-1

 Fundamental Bands
 -----------------
   Mode(n)                  E(harm)   E(anharm)        I(harm)       I(anharm)
      1(1)                  3802.336   3621.025      4.13986089      3.11041518
      2(1)                  1622.094   1572.494     67.51119312     68.38199491
      3(1)                  3936.842   3744.032     67.15072350     64.29848713

 Overtones
 ---------
   Mode(n)                  E(harm)   E(anharm)                      I(anharm)
      1(2)                  7604.672   7153.930                      0.31512982
      2(2)                  3244.188   3116.907                      0.55578581
      3(2)                  7873.683   7389.971                      0.01486964

 Combination Bands
 -----------------
   Mode(n)     Mode(n)      E(harm)   E(anharm)                      I(anharm)
      2(1)        1(1)      5424.430   5173.525                      0.06220820
      3(1)        1(1)      7739.178   7198.668                      2.21495581
      3(1)        2(1)      5558.936   5293.485                      3.76665052

 Units: Transition energies (E) in cm^-1
        Dipole strengths (DS) in 10^-40 esu^2.cm^2

 Fundamental Bands
 -----------------
   Mode(n)                  E(harm)   E(anharm)       DS(harm)      DS(anharm)
      1(1)                  3802.336   3621.025      4.34352834      3.42684357
      2(1)                  1622.094   1572.494    166.03786247    173.48424799
      3(1)                  3936.842   3744.032     68.04718367     68.51230102

 Overtones
 ---------
   Mode(n)                  E(harm)   E(anharm)                     DS(anharm)
      1(2)                  7604.672   7153.930                      0.17573256
      2(2)                  3244.188   3116.907                      0.71136252
      3(2)                  7873.683   7389.971                      0.00802722

 Combination Bands
 -----------------
   Mode(n)     Mode(n)      E(harm)   E(anharm)                     DS(anharm)
      2(1)        1(1)      5424.430   5173.525                      0.04796986
      3(1)        1(1)      7739.178   7198.668                      1.22749662
      3(1)        2(1)      5558.936   5293.485                      2.83871006


 GradGradGradGradGradGradGradGradGradGradGradGradGradGradGradGradGradGrad
 Berny optimization.
 Internal  Forces:  Max     0.000108583 RMS     0.000089542
 Search for a local minimum.
 Step number   1 out of a maximum of    2
 All quantities printed in internal units (Hartrees-Bohrs-Radians)
 Second derivative matrix not updated -- analytic derivatives used.
 The second derivative matrix:
                          R1        R2        A1
           R1           0.53810
           R2          -0.01017   0.53810
           A1           0.03104   0.03104   0.15866
 ITU=  0
     Eigenvalues ---    0.15352   0.53308   0.54827
 Angle between quadratic step and forces=  31.85 degrees.
 Linear search not attempted -- first point.
 Iteration  1 RMS(Cart)=  0.00040974 RMS(Int)=  0.00000008
 Iteration  2 RMS(Cart)=  0.00000006 RMS(Int)=  0.00000000
 ClnCor:  largest displacement from symmetrization is 3.14D-16 for atom     3.
 Variable       Old X    -DE/DX   Delta X   Delta X   Delta X     New X
                                 (Linear)    (Quad)   (Total)
    R1        1.82545  -0.00008   0.00000  -0.00011  -0.00011   1.82534
    R2        1.82545  -0.00008   0.00000  -0.00011  -0.00011   1.82534
    A1        1.81357  -0.00011   0.00000  -0.00064  -0.00064   1.81293
         Item               Value     Threshold  Converged?
 Maximum Force            0.000109     0.000450     YES
 RMS     Force            0.000090     0.000300     YES
 Maximum Displacement     0.000448     0.001800     YES
 RMS     Displacement     0.000410     0.001200     YES
 Predicted change in Energy=-4.346714D-08
 Optimization completed.
    -- Stationary point found.
                           ----------------------------
                           !   Optimized Parameters   !
                           ! (Angstroms and Degrees)  !
 --------------------------                            --------------------------
 ! Name  Definition              Value          Derivative Info.                !
 --------------------------------------------------------------------------------
 ! R1    R(1,2)                  0.966          -DE/DX =   -0.0001              !
 ! R2    R(1,3)                  0.966          -DE/DX =   -0.0001              !
 ! A1    A(2,1,3)              103.9099         -DE/DX =   -0.0001              !
 --------------------------------------------------------------------------------
 GradGradGradGradGradGradGradGradGradGradGradGradGradGradGradGradGradGrad


 ----------------------------------------------------------------------

 Electric dipole moment (input orientation):
 (Debye = 10**-18 statcoulomb cm , SI units = C m)
                  (au)            (Debye)         (10**-30 SI)
   Tot        0.739242D+00      0.187897D+01      0.626756D+01
   x          0.000000D+00      0.000000D+00      0.000000D+00
   y          0.000000D+00      0.000000D+00      0.000000D+00
   z          0.739242D+00      0.187897D+01      0.626756D+01

 Dipole polarizability, Alpha (input orientation).
 (esu units = cm**3 , SI units = C**2 m**2 J**-1)
 Alpha(0;0):
               (au)            (10**-24 esu)      (10**-40 SI)
   iso        0.930260D+01      0.137850D+01      0.153379D+01
   aniso      0.104324D+01      0.154592D+00      0.172007D+00
   xx         0.995919D+01      0.147580D+01      0.164205D+01
   yx         0.000000D+00      0.000000D+00      0.000000D+00
   yy         0.877569D+01      0.130042D+01      0.144692D+01
   zx         0.000000D+00      0.000000D+00      0.000000D+00
   zy         0.000000D+00      0.000000D+00      0.000000D+00
   zz         0.917291D+01      0.135929D+01      0.151241D+01

 ----------------------------------------------------------------------

 Dipole orientation:
     8          0.00000000          0.00000000         -0.25236590
     1         -1.43759151         -0.00000000          0.87262477
     1          1.43759151          0.00000000          0.87262477

 Electric dipole moment (dipole orientation):
 (Debye = 10**-18 statcoulomb cm , SI units = C m)
                  (au)            (Debye)         (10**-30 SI)
   Tot        0.739242D+00      0.187897D+01      0.626756D+01
   x          0.000000D+00      0.000000D+00      0.000000D+00
   y          0.000000D+00      0.000000D+00      0.000000D+00
   z          0.739242D+00      0.187897D+01      0.626756D+01

 Dipole polarizability, Alpha (dipole orientation).
 (esu units = cm**3 , SI units = C**2 m**2 J**-1)
 Alpha(0;0):
               (au)            (10**-24 esu)      (10**-40 SI)
   iso        0.930260D+01      0.137850D+01      0.153379D+01
   aniso      0.104324D+01      0.154592D+00      0.172007D+00
   xx         0.995919D+01      0.147580D+01      0.164205D+01
   yx         0.000000D+00      0.000000D+00      0.000000D+00
   yy         0.877569D+01      0.130042D+01      0.144692D+01
   zx         0.000000D+00      0.000000D+00      0.000000D+00
   zy         0.000000D+00      0.000000D+00      0.000000D+00
   zz         0.917291D+01      0.135929D+01      0.151241D+01

 ----------------------------------------------------------------------
 1\1\GINC-N2301\Freq\RMP2-FC\Aug-CC-pVDZ\H2O1\GDS001\03-Aug-2020\0\\#N 
 Geom=AllCheck Guess=TCheck SCRF=Check GenChk RMP2(FC)/Aug-CC-pVDZ Freq
 \\Water Anharmonic Frequencies\\0,1\O,0.,0.,-0.1335462816\H,-0.7607406
 647,0.,0.4617731408\H,0.7607406647,0.,0.4617731408\\Version=ES64L-G16R
 evA.03\State=1-A1\HF=-76.0407587\MP2=-76.2609097\RMSD=1.266e-10\RMSF=4
 .637e-05\ZeroPoint=0.0213265\Thermal=0.024162\Dipole=0.,0.,0.7392423\D
 ipoleDeriv=-0.5140861,0.,0.,0.,-0.6571097,0.,0.,0.,-0.3364125,0.257043
 1,0.,0.0719541,0.,0.3285549,0.,0.0559617,0.,0.1682062,0.2570431,0.,-0.
 0719541,0.,0.3285549,0.,-0.0559617,0.,0.1682062\Polar=9.959188,0.,8.77
 56869,0.,0.,9.1729109\Quadrupole=1.3324737,-1.1877044,-0.1447693,0.,0.
 ,0.\PG=C02V [C2(O1),SGV(H2)]\NImag=0\\0.68003989,0.,0.00000251,0.,0.,0
 .45323130,-0.34001995,0.,0.20181990,0.36830647,0.,-0.00000126,0.,0.,0.
 00003483,0.26608243,0.,-0.22661565,-0.23395117,0.,0.21745374,-0.340019
 95,0.,-0.20181990,-0.02828653,0.,-0.03213127,0.36830647,0.,-0.00000126
 ,0.,0.,-0.00003357,0.,0.,0.00003483,-0.26608243,0.,-0.22661565,0.03213
 127,0.,0.00916191,0.23395117,0.,0.21745374\\0.,0.,-0.00000283,-0.00009
 833,0.,0.00000141,0.00009833,0.,0.00000141\\-0.48922616,0.,0.09595624,
 0.,0.,0.21747167,0.24461308,0.,-0.01276784,-0.17253979,0.,-0.04797812,
 0.,0.,0.00959389,-0.00936941,0.,-0.10873584,0.01106863,0.,0.12222309,0
 .24461308,0.,0.01276784,-0.07207329,0.,-0.00169921,-0.17253979,0.,-0.0
 4797812,0.,0.,0.03838424,0.,0.,0.00959389,0.00936941,0.,-0.10873584,0.
 00169921,0.,-0.01348725,-0.01106863,0.,0.12222309,1.62434089,0.,-0.381
 46788,0.,0.,0.85292873,-0.81217044,0.,0.72383718,0.86094078,0.,0.19073
 394,0.,0.,-0.20489390,0.78691197,0.,-0.42646437,-0.75537457,0.,0.41242
 174,-0.81217044,0.,-0.72383718,-0.04877033,0.,-0.03153739,0.86094078,0
 .,0.19073394,0.,0.,0.01415996,0.,0.,-0.20489390,-0.78691197,0.,-0.4264
 6437,0.03153739,0.,0.01404262,0.75537457,0.,0.41242174,0.,0.,0.,-1.609
 49261,0.,0.,-0.81485885,0.,0.80474630,0.81485885,0.,0.21978898,0.,0.,-
 0.21978898,0.80474630,0.,-0.44612370,-0.79178737,0.,0.44612370,0.81485
 885,0.,0.80474630,0.,0.,-0.01295894,-0.81485885,0.,-0.21978898,0.,0.,0
 .,0.,0.,0.21978898,0.80474630,0.,0.44612370,-0.01295894,0.,0.,-0.79178
 737,0.,-0.44612370,-0.51153018,0.,0.02314882,0.,0.,-0.73813294,0.25576
 507,0.,-0.31473291,-0.22643719,0.,-0.01157441,0.,0.,0.00925405,-0.4611
 4575,0.,0.36906645,0.38793933,0.,-0.31823082,0.25576507,0.,0.31473291,
 -0.02932788,0.,0.07320642,-0.22643719,0.,-0.01157441,0.,0.,0.00232037,
 0.,0.,0.00925405,0.46114575,0.,0.36906645,-0.07320642,0.,-0.05083563,-
 0.38793933,0.,-0.31823082,3.65374622,0.,-1.36330984,-0.00000006,0.,1.7
 3812161,-1.82687316,0.,1.88878798,1.89092106,0.,0.68165493,0.,0.,-0.71
 860633,1.97700269,0.,-0.86906083,-1.93289533,0.,0.83577412,-1.82687308
 ,0.,-1.88878792,-0.06404790,0.,-0.04410736,1.89092098,0.,0.68165493,0.
 ,0.,0.03695140,0.,0.,-0.71860633,-1.97700263,0.,-0.86906079,0.04410736
 ,0.,0.03328672,1.93289527,0.,0.83577407,3.56978431,0.,-1.51864317,0.00
 000001,0.,1.95837314,-1.78489216,0.,2.06384205,1.77657662,0.,0.7593215
 9,0.,0.,-0.75530078,2.06269641,0.,-0.97918658,-2.06326923,0.,0.9731963
 2,-1.78489217,0.,-2.06384206,0.00831554,0.,0.00057282,1.77657662,0.,0.
 75932159,0.,0.,-0.00402081,0.,0.,-0.75530078,-2.06269642,0.,-0.9791865
 9,-0.00057282,0.,0.00599026,2.06326924,0.,0.97319633\\@


 ACTORS ARE SO FORTUNATE.  THEY CAN CHOOSE WHETHER
 THEY WILL APPEAR IN A TRAGEDY OR IN COMEDY,
 WHETHER THEY WILL SUFFER OF MAKE MERRY,
 LAUGH OR SHED TEARS.  BUT IN REAL LIFE IT IS DIFFERENT.
 MOST MEN AND WOMEN ARE FORCED TO PERFORM
 PARTS FOR WHICH THEY HAVE NO QUALIFICATIONS.
 THE WORLD IS A STAGE, BUT THE PLAY IS BADLY CAST.

                                   -- OSCAR WILDE
 Job cpu time:       0 days  0 hours 12 minutes 45.4 seconds.
 Elapsed time:       0 days  0 hours  0 minutes 32.8 seconds.
 File lengths (MBytes):  RWF=    128 Int=      0 D2E=      0 Chk=     44 Scr=      8
 Normal termination of Gaussian 16 at Mon Aug  3 14:14:46 2020.
