 Entering Gaussian System, Link 0=g16
 Input=hclo4_mp2_avtz_opt_anharm.gjf
 Output=hclo4_mp2_avtz_opt_anharm.log
 Initial command:
 /sw/contrib/gaussian/g16/A03/g16/l1.exe "/gscratch/scrubbed/gds001/Gau-26907.inp" -scrdir="/gscratch/scrubbed/gds001/"
 Entering Link 1 = /sw/contrib/gaussian/g16/A03/g16/l1.exe PID=     26908.
  
 Copyright (c) 1988,1990,1992,1993,1995,1998,2003,2009,2016,
            Gaussian, Inc.  All Rights Reserved.
  
 This is part of the Gaussian(R) 16 program.  It is based on
 the Gaussian(R) 09 system (copyright 2009, Gaussian, Inc.),
 the Gaussian(R) 03 system (copyright 2003, Gaussian, Inc.),
 the Gaussian(R) 98 system (copyright 1998, Gaussian, Inc.),
 the Gaussian(R) 94 system (copyright 1995, Gaussian, Inc.),
 the Gaussian 92(TM) system (copyright 1992, Gaussian, Inc.),
 the Gaussian 90(TM) system (copyright 1990, Gaussian, Inc.),
 the Gaussian 88(TM) system (copyright 1988, Gaussian, Inc.),
 the Gaussian 86(TM) system (copyright 1986, Carnegie Mellon
 University), and the Gaussian 82(TM) system (copyright 1983,
 Carnegie Mellon University). Gaussian is a federally registered
 trademark of Gaussian, Inc.
  
 This software contains proprietary and confidential information,
 including trade secrets, belonging to Gaussian, Inc.
  
 This software is provided under written license and may be
 used, copied, transmitted, or stored only in accord with that
 written license.
  
 The following legend is applicable only to US Government
 contracts under FAR:
  
                    RESTRICTED RIGHTS LEGEND
  
 Use, reproduction and disclosure by the US Government is
 subject to restrictions as set forth in subparagraphs (a)
 and (c) of the Commercial Computer Software - Restricted
 Rights clause in FAR 52.227-19.
  
 Gaussian, Inc.
 340 Quinnipiac St., Bldg. 40, Wallingford CT 06492
  
  
 ---------------------------------------------------------------
 Warning -- This program may not be used in any manner that
 competes with the business of Gaussian, Inc. or will provide
 assistance to any competitor of Gaussian, Inc.  The licensee
 of this program is prohibited from giving any competitor of
 Gaussian, Inc. access to this program.  By using this program,
 the user acknowledges that Gaussian, Inc. is engaged in the
 business of creating and licensing software in the field of
 computational chemistry and represents and warrants to the
 licensee that it is not a competitor of Gaussian, Inc. and that
 it will not use this program in any manner prohibited above.
 ---------------------------------------------------------------
  

 Cite this work as:
 Gaussian 16, Revision A.03,
 M. J. Frisch, G. W. Trucks, H. B. Schlegel, G. E. Scuseria, 
 M. A. Robb, J. R. Cheeseman, G. Scalmani, V. Barone, 
 G. A. Petersson, H. Nakatsuji, X. Li, M. Caricato, A. V. Marenich, 
 J. Bloino, B. G. Janesko, R. Gomperts, B. Mennucci, H. P. Hratchian, 
 J. V. Ortiz, A. F. Izmaylov, J. L. Sonnenberg, D. Williams-Young, 
 F. Ding, F. Lipparini, F. Egidi, J. Goings, B. Peng, A. Petrone, 
 T. Henderson, D. Ranasinghe, V. G. Zakrzewski, J. Gao, N. Rega, 
 G. Zheng, W. Liang, M. Hada, M. Ehara, K. Toyota, R. Fukuda, 
 J. Hasegawa, M. Ishida, T. Nakajima, Y. Honda, O. Kitao, H. Nakai, 
 T. Vreven, K. Throssell, J. A. Montgomery, Jr., J. E. Peralta, 
 F. Ogliaro, M. J. Bearpark, J. J. Heyd, E. N. Brothers, K. N. Kudin, 
 V. N. Staroverov, T. A. Keith, R. Kobayashi, J. Normand, 
 K. Raghavachari, A. P. Rendell, J. C. Burant, S. S. Iyengar, 
 J. Tomasi, M. Cossi, J. M. Millam, M. Klene, C. Adamo, R. Cammi, 
 J. W. Ochterski, R. L. Martin, K. Morokuma, O. Farkas, 
 J. B. Foresman, and D. J. Fox, Gaussian, Inc., Wallingford CT, 2016.
 
 ******************************************
 Gaussian 16:  ES64L-G16RevA.03 25-Dec-2016
                24-Jun-2021 
 ******************************************
 %nprocshared=28
 Will use up to   28 processors via shared memory.
 %mem=41GB
 %chk=hclo4_mp2_avtz_opt_anharm.chk
 ----------------------------------------------
 # mp2/aug-cc-pVTZ opt freq=(vibrot,anharmonic)
 ----------------------------------------------
 1/18=20,19=15,38=1,80=1/1,3;
 2/9=110,12=2,17=6,18=5,40=1/2;
 3/5=16,6=1,7=10,11=9,25=1,30=1,71=1/1,2,3;
 4//1;
 5/5=2,38=5/2;
 8/6=4,10=1/1;
 9/15=2,16=-3/6;
 10/5=1/2;
 6/7=2,8=2,9=2,10=2/1;
 7/12=2/1,2,3,16;
 1/18=20,19=15,80=1/3(2);
 2/9=110/2;
 99//99;
 2/9=110/2;
 3/5=16,6=1,7=10,11=9,25=1,30=1,71=1/1,2,3;
 4/5=5,16=3,69=1/1;
 5/5=2,38=5/2;
 8/6=4,10=1/1;
 9/15=2,16=-3/6;
 10/5=1/2;
 7/12=2/1,2,3,16;
 1/18=20,19=15,80=1/3(-8);
 2/9=110/2;
 6/7=2,8=2,9=2,10=2/1;
 99//99;
 -----
 HClO4
 -----
 Symbolic Z-matrix:
 Charge =  0 Multiplicity = 1
 Cl                    0.11121   0.0252    0.00845 
 O                     0.13417   1.4722   -0.02449 
 O                     0.70253  -0.51432  -1.19681 
 O                     0.83088  -0.44421   1.17365 
 O                    -1.46843  -0.47628   0.13344 
 H                    -1.75361  -0.1887    1.01072 
 

 GradGradGradGradGradGradGradGradGradGradGradGradGradGradGradGradGradGrad
 Berny optimization.
 Initialization pass.
                           ----------------------------
                           !    Initial Parameters    !
                           ! (Angstroms and Degrees)  !
 --------------------------                            --------------------------
 ! Name  Definition              Value          Derivative Info.                !
 --------------------------------------------------------------------------------
 ! R1    R(1,2)                  1.4476         estimate D2E/DX2                !
 ! R2    R(1,3)                  1.4469         estimate D2E/DX2                !
 ! R3    R(1,4)                  1.4477         estimate D2E/DX2                !
 ! R4    R(1,5)                  1.662          estimate D2E/DX2                !
 ! R5    R(5,6)                  0.9663         estimate D2E/DX2                !
 ! A1    A(2,1,3)              110.3227         estimate D2E/DX2                !
 ! A2    A(2,1,4)              109.5442         estimate D2E/DX2                !
 ! A3    A(2,1,5)              108.5662         estimate D2E/DX2                !
 ! A4    A(3,1,4)              110.2664         estimate D2E/DX2                !
 ! A5    A(3,1,5)              109.7896         estimate D2E/DX2                !
 ! A6    A(4,1,5)              108.3063         estimate D2E/DX2                !
 ! A7    A(1,5,6)              105.0095         estimate D2E/DX2                !
 ! D1    D(2,1,5,6)            -67.2131         estimate D2E/DX2                !
 ! D2    D(3,1,5,6)            172.1081         estimate D2E/DX2                !
 ! D3    D(4,1,5,6)             51.6576         estimate D2E/DX2                !
 --------------------------------------------------------------------------------
 Trust Radius=3.00D-01 FncErr=1.00D-07 GrdErr=1.00D-07 EigMax=2.50D+02 EigMin=1.00D-04
 Number of steps in this run=     25 maximum allowed number of steps=    100.
 GradGradGradGradGradGradGradGradGradGradGradGradGradGradGradGradGradGrad

                          Input orientation:                          
 ---------------------------------------------------------------------
 Center     Atomic      Atomic             Coordinates (Angstroms)
 Number     Number       Type             X           Y           Z
 ---------------------------------------------------------------------
      1         17           0        0.111209    0.025196    0.008447
      2          8           0        0.134175    1.472196   -0.024494
      3          8           0        0.702530   -0.514322   -1.196810
      4          8           0        0.830877   -0.444206    1.173655
      5          8           0       -1.468432   -0.476284    0.133436
      6          1           0       -1.753608   -0.188704    1.010724
 ---------------------------------------------------------------------
                    Distance matrix (angstroms):
                    1          2          3          4          5
     1  Cl   0.000000
     2  O    1.447557   0.000000
     3  O    1.446854   2.375628   0.000000
     4  O    1.447746   2.365069   2.374972   0.000000
     5  O    1.662038   2.527818   2.546385   2.523867   0.000000
     6  H    2.127875   2.719189   3.318410   2.602190   0.966261
                    6
     6  H    0.000000
 Stoichiometry    ClHO4
 Framework group  C1[X(ClHO4)]
 Deg. of freedom    12
 Full point group                 C1      NOp   1
 Largest Abelian subgroup         C1      NOp   1
 Largest concise Abelian subgroup C1      NOp   1
                         Standard orientation:                         
 ---------------------------------------------------------------------
 Center     Atomic      Atomic             Coordinates (Angstroms)
 Number     Number       Type             X           Y           Z
 ---------------------------------------------------------------------
      1         17           0        0.082824    0.004594    0.000294
      2          8           0        0.402586   -0.709337    1.218275
      3          8           0        0.882292    1.206120   -0.102526
      4          8           0        0.319368   -0.854324   -1.140879
      5          8           0       -1.530539    0.402887    0.028381
      6          1           0       -1.997664   -0.440871   -0.031010
 ---------------------------------------------------------------------
 Rotational constants (GHZ):           5.5867598           4.8987546           4.8526500
 Standard basis: Aug-CC-pVTZ (5D, 7F)
 There are   304 symmetry adapted cartesian basis functions of A   symmetry.
 There are   257 symmetry adapted basis functions of A   symmetry.
   257 basis functions,   429 primitive gaussians,   304 cartesian basis functions
    25 alpha electrons       25 beta electrons
       nuclear repulsion energy       288.4909250255 Hartrees.
 NAtoms=    6 NActive=    6 NUniq=    6 SFac= 1.00D+00 NAtFMM=   60 NAOKFM=F Big=F
 Integral buffers will be    131072 words long.
 Raffenetti 1 integral format.
 Two-electron integral symmetry is turned on.
 One-electron integrals computed using PRISM.
 NBasis=   257 RedAO= T EigKep=  8.52D-05  NBF=   257
 NBsUse=   257 1.00D-06 EigRej= -1.00D+00 NBFU=   257
 ExpMin= 2.53D-02 ExpMax= 4.56D+05 ExpMxC= 1.44D+03 IAcc=3 IRadAn=         5 AccDes= 0.00D+00
 Harris functional with IExCor=  205 and IRadAn=       5 diagonalized for initial guess.
 HarFok:  IExCor=  205 AccDes= 0.00D+00 IRadAn=         5 IDoV= 1 UseB2=F ITyADJ=14
 ICtDFT=  3500011 ScaDFX=  1.000000  1.000000  1.000000  1.000000
 FoFCou: FMM=F IPFlag=           0 FMFlag=      100000 FMFlg1=           0
         NFxFlg=           0 DoJE=T BraDBF=F KetDBF=T FulRan=T
         wScrn=  0.000000 ICntrl=       500 IOpCl=  0 I1Cent=   200000004 NGrid=           0
         NMat0=    1 NMatS0=      1 NMatT0=    0 NMatD0=    1 NMtDS0=    0 NMtDT0=    0
 Petite list used in FoFCou.
 Keep R1 ints in memory in canonical form, NReq=563764660.
 Requested convergence on RMS density matrix=1.00D-08 within 128 cycles.
 Requested convergence on MAX density matrix=1.00D-06.
 Requested convergence on             energy=1.00D-06.
 No special actions if energy rises.
 SCF Done:  E(RHF) =  -759.268876930     A.U. after   13 cycles
            NFock= 13  Conv=0.89D-08     -V/T= 2.0014
 ExpMin= 2.53D-02 ExpMax= 4.56D+05 ExpMxC= 1.44D+03 IAcc=3 IRadAn=         5 AccDes= 0.00D+00
 HarFok:  IExCor=  205 AccDes= 0.00D+00 IRadAn=         5 IDoV=-2 UseB2=F ITyADJ=14
 ICtDFT= 12500011 ScaDFX=  1.000000  1.000000  1.000000  1.000000
 Range of M.O.s used for correlation:    10   257
 NBasis=   257 NAE=    25 NBE=    25 NFC=     9 NFV=     0
 NROrb=    248 NOA=    16 NOB=    16 NVA=   232 NVB=   232

 **** Warning!!: The largest alpha MO coefficient is  0.49490093D+02

 Disk-based method using ON**2 memory for 16 occupieds at a time.
 Estimated scratch disk usage=   839031529 words.
 Actual    scratch disk usage=   790272745 words.
 JobTyp=1 Pass  1:  I=  10 to  25 NPSUse= 28 ParTrn=T ParDer=T DoDerP=T.
 (rs|ai) integrals will be sorted in core.
 Spin components of T(2) and E(2):
     alpha-alpha T2 =       0.4729299650D-01 E2=     -0.1660496374D+00
     alpha-beta  T2 =       0.2314425529D+00 E2=     -0.8924998520D+00
     beta-beta   T2 =       0.4729299650D-01 E2=     -0.1660496374D+00
 ANorm=    0.1151533128D+01
 E2 =    -0.1224599127D+01 EUMP2 =    -0.76049347605675D+03
          IDoAtm=111111
          Differentiating once with respect to electric field.
                with respect to dipole field.
          Differentiating once with respect to nuclear coordinates.
 Keep R1 ints in memory in canonical form, NReq=563766082.
          There are     1 degrees of freedom in the 1st order CPHF.  IDoFFX=0 NUNeed=     1.
 LinEq1:  Iter=  0 NonCon=     1 RMS=5.17D-03 Max=9.44D-02 NDo=     1
 AX will form     1 AO Fock derivatives at one time.
 LinEq1:  Iter=  1 NonCon=     1 RMS=1.55D-03 Max=2.16D-02 NDo=     1
 LinEq1:  Iter=  2 NonCon=     1 RMS=6.25D-04 Max=1.19D-02 NDo=     1
 LinEq1:  Iter=  3 NonCon=     1 RMS=2.07D-04 Max=2.41D-03 NDo=     1
 LinEq1:  Iter=  4 NonCon=     1 RMS=5.88D-05 Max=9.15D-04 NDo=     1
 LinEq1:  Iter=  5 NonCon=     1 RMS=1.73D-05 Max=2.83D-04 NDo=     1
 LinEq1:  Iter=  6 NonCon=     1 RMS=7.32D-06 Max=9.41D-05 NDo=     1
 LinEq1:  Iter=  7 NonCon=     1 RMS=1.89D-06 Max=2.54D-05 NDo=     1
 LinEq1:  Iter=  8 NonCon=     1 RMS=4.54D-07 Max=5.92D-06 NDo=     1
 LinEq1:  Iter=  9 NonCon=     1 RMS=1.84D-07 Max=2.85D-06 NDo=     1
 LinEq1:  Iter= 10 NonCon=     1 RMS=8.63D-08 Max=1.57D-06 NDo=     1
 LinEq1:  Iter= 11 NonCon=     1 RMS=2.60D-08 Max=3.47D-07 NDo=     1
 LinEq1:  Iter= 12 NonCon=     1 RMS=5.24D-09 Max=1.11D-07 NDo=     1
 LinEq1:  Iter= 13 NonCon=     1 RMS=1.23D-09 Max=1.62D-08 NDo=     1
 LinEq1:  Iter= 14 NonCon=     1 RMS=3.25D-10 Max=4.91D-09 NDo=     1
 LinEq1:  Iter= 15 NonCon=     1 RMS=1.39D-10 Max=1.86D-09 NDo=     1
 LinEq1:  Iter= 16 NonCon=     0 RMS=4.76D-11 Max=5.82D-10 NDo=     1
 Linear equations converged to 1.000D-10 1.000D-09 after    16 iterations.
 End of Minotr F.D. properties file   721 does not exist.
 End of Minotr F.D. properties file   722 does not exist.
 End of Minotr F.D. properties file   788 does not exist.

 **********************************************************************

            Population analysis using the SCF density.

 **********************************************************************

 Orbital symmetries:
       Occupied  (A) (A) (A) (A) (A) (A) (A) (A) (A) (A) (A) (A)
                 (A) (A) (A) (A) (A) (A) (A) (A) (A) (A) (A) (A)
                 (A)
       Virtual   (A) (A) (A) (A) (A) (A) (A) (A) (A) (A) (A) (A)
                 (A) (A) (A) (A) (A) (A) (A) (A) (A) (A) (A) (A)
                 (A) (A) (A) (A) (A) (A) (A) (A) (A) (A) (A) (A)
                 (A) (A) (A) (A) (A) (A) (A) (A) (A) (A) (A) (A)
                 (A) (A) (A) (A) (A) (A) (A) (A) (A) (A) (A) (A)
                 (A) (A) (A) (A) (A) (A) (A) (A) (A) (A) (A) (A)
                 (A) (A) (A) (A) (A) (A) (A) (A) (A) (A) (A) (A)
                 (A) (A) (A) (A) (A) (A) (A) (A) (A) (A) (A) (A)
                 (A) (A) (A) (A) (A) (A) (A) (A) (A) (A) (A) (A)
                 (A) (A) (A) (A) (A) (A) (A) (A) (A) (A) (A) (A)
                 (A) (A) (A) (A) (A) (A) (A) (A) (A) (A) (A) (A)
                 (A) (A) (A) (A) (A) (A) (A) (A) (A) (A) (A) (A)
                 (A) (A) (A) (A) (A) (A) (A) (A) (A) (A) (A) (A)
                 (A) (A) (A) (A) (A) (A) (A) (A) (A) (A) (A) (A)
                 (A) (A) (A) (A) (A) (A) (A) (A) (A) (A) (A) (A)
                 (A) (A) (A) (A) (A) (A) (A) (A) (A) (A) (A) (A)
                 (A) (A) (A) (A) (A) (A) (A) (A) (A) (A) (A) (A)
                 (A) (A) (A) (A) (A) (A) (A) (A) (A) (A) (A) (A)
                 (A) (A) (A) (A) (A) (A) (A) (A) (A) (A) (A) (A)
                 (A) (A) (A) (A)
 The electronic state is 1-A.
 Alpha  occ. eigenvalues -- -105.30782 -20.72341 -20.64621 -20.63876 -20.63815
 Alpha  occ. eigenvalues --  -10.97339  -8.44463  -8.44323  -8.44310  -1.69748
 Alpha  occ. eigenvalues --   -1.48030  -1.44345  -1.44028  -1.01030  -0.85719
 Alpha  occ. eigenvalues --   -0.80453  -0.79218  -0.73534  -0.66339  -0.60700
 Alpha  occ. eigenvalues --   -0.60221  -0.58755  -0.55315  -0.54383  -0.51496
 Alpha virt. eigenvalues --    0.01650   0.07359   0.08625   0.08841   0.09171
 Alpha virt. eigenvalues --    0.12815   0.12975   0.15758   0.16406   0.16687
 Alpha virt. eigenvalues --    0.16831   0.20360   0.21238   0.21640   0.22116
 Alpha virt. eigenvalues --    0.23347   0.24238   0.26425   0.26821   0.27657
 Alpha virt. eigenvalues --    0.28623   0.28685   0.29313   0.32235   0.33849
 Alpha virt. eigenvalues --    0.36126   0.36907   0.39393   0.42402   0.48021
 Alpha virt. eigenvalues --    0.50531   0.52571   0.54247   0.55258   0.58242
 Alpha virt. eigenvalues --    0.60668   0.62536   0.63124   0.63661   0.65633
 Alpha virt. eigenvalues --    0.70395   0.71290   0.75010   0.78672   0.79520
 Alpha virt. eigenvalues --    0.81095   0.81712   0.82690   0.83354   0.83590
 Alpha virt. eigenvalues --    0.84781   0.87299   0.89452   0.91575   0.92686
 Alpha virt. eigenvalues --    0.93427   0.95300   0.97442   0.99145   0.99683
 Alpha virt. eigenvalues --    1.00646   1.03349   1.04695   1.08282   1.10398
 Alpha virt. eigenvalues --    1.11023   1.12470   1.13385   1.20260   1.24583
 Alpha virt. eigenvalues --    1.26264   1.28197   1.32337   1.33896   1.34533
 Alpha virt. eigenvalues --    1.36671   1.39091   1.41521   1.43141   1.46512
 Alpha virt. eigenvalues --    1.48069   1.50550   1.51268   1.56013   1.59931
 Alpha virt. eigenvalues --    1.60290   1.63929   1.65245   1.74883   1.83025
 Alpha virt. eigenvalues --    1.93638   1.97156   1.99631   2.06534   2.09375
 Alpha virt. eigenvalues --    2.10567   2.12337   2.14825   2.16759   2.18290
 Alpha virt. eigenvalues --    2.18481   2.19062   2.21479   2.22181   2.25671
 Alpha virt. eigenvalues --    2.27597   2.28502   2.30129   2.31512   2.33200
 Alpha virt. eigenvalues --    2.34506   2.38145   2.39715   2.40997   2.41959
 Alpha virt. eigenvalues --    2.47168   2.47705   2.50192   2.50378   2.50529
 Alpha virt. eigenvalues --    2.51388   2.55398   2.64505   2.66180   2.68789
 Alpha virt. eigenvalues --    2.71304   2.72109   2.78597   2.79936   2.80637
 Alpha virt. eigenvalues --    2.81321   2.84310   2.85617   2.87399   2.88137
 Alpha virt. eigenvalues --    2.88890   2.91015   2.91308   3.01942   3.14025
 Alpha virt. eigenvalues --    3.14600   3.16156   3.20483   3.25976   3.36405
 Alpha virt. eigenvalues --    3.39609   3.48096   3.49781   3.51247   3.52263
 Alpha virt. eigenvalues --    3.53240   3.63915   3.66265   3.66772   3.69059
 Alpha virt. eigenvalues --    3.73427   3.79420   3.88058   3.89822   4.13354
 Alpha virt. eigenvalues --    4.32295   4.34598   4.35718   4.60188   4.62352
 Alpha virt. eigenvalues --    4.71229   4.74364   4.75464   4.76510   4.76938
 Alpha virt. eigenvalues --    4.90317   5.03819   5.23382   5.29905   5.57818
 Alpha virt. eigenvalues --    5.79026   5.94472   5.96072   6.22389   6.48643
 Alpha virt. eigenvalues --    6.49146   6.52252   6.52426   6.55510   6.56501
 Alpha virt. eigenvalues --    6.57237   6.60794   6.63900   6.66178   6.67404
 Alpha virt. eigenvalues --    6.70102   6.71905   6.75762   6.78210   6.81004
 Alpha virt. eigenvalues --    6.81729   6.83096   6.88591   6.92706   6.94389
 Alpha virt. eigenvalues --    6.97658   7.01241   7.03564   7.04563   7.05763
 Alpha virt. eigenvalues --    7.08944   7.10447   7.11123   7.15680   7.20750
 Alpha virt. eigenvalues --    7.22559   7.25978   7.27384   7.29002   7.35050
 Alpha virt. eigenvalues --    7.38109   7.44239   7.44737   7.49666   7.51533
 Alpha virt. eigenvalues --    7.63679   7.64659   7.69136   7.76406   7.80837
 Alpha virt. eigenvalues --    7.85869   8.21304  12.51073  12.81643  13.38584
 Alpha virt. eigenvalues --   13.42585  15.19300
          Condensed to atoms (all electrons):
               1          2          3          4          5          6
     1  Cl  13.301901   0.325716   0.310221   0.326190   0.072050   0.039386
     2  O    0.325716   8.572332  -0.045670  -0.028859  -0.014413   0.007407
     3  O    0.310221  -0.045670   8.567107  -0.047605  -0.011780  -0.004424
     4  O    0.326190  -0.028859  -0.047605   8.576656  -0.015725   0.007992
     5  O    0.072050  -0.014413  -0.011780  -0.015725   8.190079   0.236286
     6  H    0.039386   0.007407  -0.004424   0.007992   0.236286   0.478383
 Mulliken charges:
               1
     1  Cl   2.624536
     2  O   -0.816512
     3  O   -0.767849
     4  O   -0.818649
     5  O   -0.456496
     6  H    0.234969
 Sum of Mulliken charges =  -0.00000
 Mulliken charges with hydrogens summed into heavy atoms:
               1
     1  Cl   2.624536
     2  O   -0.816512
     3  O   -0.767849
     4  O   -0.818649
     5  O   -0.221526
 Electronic spatial extent (au):  <R**2>=            351.2049
 Charge=             -0.0000 electrons
 Dipole moment (field-independent basis, Debye):
    X=             -3.4054    Y=             -0.6730    Z=             -0.0560  Tot=              3.4717
 Quadrupole moment (field-independent basis, Debye-Ang):
   XX=            -29.6501   YY=            -37.0128   ZZ=            -37.9818
   XY=              2.2590   XZ=              0.1207   YZ=              0.0300
 Traceless Quadrupole moment (field-independent basis, Debye-Ang):
   XX=              5.2315   YY=             -2.1312   ZZ=             -3.1003
   XY=              2.2590   XZ=              0.1207   YZ=              0.0300
 Octapole moment (field-independent basis, Debye-Ang**2):
  XXX=            -13.6324  YYY=             -1.0862  ZZZ=             -0.4394  XYY=             -3.1319
  XXY=             -6.8133  XXZ=             -0.4472  XZZ=             -1.2125  YZZ=              2.8534
  YYZ=              0.4933  XYZ=              0.1001
 Hexadecapole moment (field-independent basis, Debye-Ang**3):
 XXXX=           -117.2190 YYYY=           -125.5150 ZZZZ=           -125.0799 XXXY=             11.8019
 XXXZ=              0.7573 YYYX=              0.6791 YYYZ=              0.0026 ZZZX=             -0.0386
 ZZZY=             -0.0170 XXYY=            -43.6486 XXZZ=            -45.8026 YYZZ=            -41.8492
 XXYZ=              0.1452 YYXZ=              0.0010 ZZXY=              0.1860
 N-N= 2.884909250255D+02 E-N=-2.376549302708D+03  KE= 7.582133779191D+02
 Calling FoFJK, ICntrl=  10002127 FMM=F ISym2X=0 I1Cent= 0 IOpClX= 0 NMat=1 NMatS=1 NMatT=0.
 ***** Axes restored to original set *****
 -------------------------------------------------------------------
 Center     Atomic                   Forces (Hartrees/Bohr)
 Number     Number              X              Y              Z
 -------------------------------------------------------------------
      1       17           0.082764103    0.031200642    0.000913656
      2        8          -0.025053566   -0.015641742    0.000029710
      3        8          -0.039998344   -0.005775435    0.013015462
      4        8          -0.027744698   -0.007301727   -0.003580135
      5        8           0.009272446   -0.007225683   -0.020509990
      6        1           0.000760058    0.004743945    0.010131297
 -------------------------------------------------------------------
 Cartesian Forces:  Max     0.082764103 RMS     0.025841029

 GradGradGradGradGradGradGradGradGradGradGradGradGradGradGradGradGradGrad
 Berny optimization.
 FormGI is forming the generalized inverse of G from B-inverse, IUseBI=4.
 Internal  Forces:  Max     0.055655095 RMS     0.026852505
 Search for a local minimum.
 Step number   1 out of a maximum of   25
 All quantities printed in internal units (Hartrees-Bohrs-Radians)
 Mixed Optimization -- RFO/linear search
 Second derivative matrix not updated -- first step.
 The second derivative matrix:
                          R1        R2        R3        R4        R5
           R1           0.97038
           R2           0.00000   0.97358
           R3           0.00000   0.00000   0.96953
           R4           0.00000   0.00000   0.00000   0.40876
           R5           0.00000   0.00000   0.00000   0.00000   0.54148
           A1           0.00000   0.00000   0.00000   0.00000   0.00000
           A2           0.00000   0.00000   0.00000   0.00000   0.00000
           A3           0.00000   0.00000   0.00000   0.00000   0.00000
           A4           0.00000   0.00000   0.00000   0.00000   0.00000
           A5           0.00000   0.00000   0.00000   0.00000   0.00000
           A6           0.00000   0.00000   0.00000   0.00000   0.00000
           A7           0.00000   0.00000   0.00000   0.00000   0.00000
           D1           0.00000   0.00000   0.00000   0.00000   0.00000
           D2           0.00000   0.00000   0.00000   0.00000   0.00000
           D3           0.00000   0.00000   0.00000   0.00000   0.00000
                          A1        A2        A3        A4        A5
           A1           0.25000
           A2           0.00000   0.25000
           A3           0.00000   0.00000   0.25000
           A4           0.00000   0.00000   0.00000   0.25000
           A5           0.00000   0.00000   0.00000   0.00000   0.25000
           A6           0.00000   0.00000   0.00000   0.00000   0.00000
           A7           0.00000   0.00000   0.00000   0.00000   0.00000
           D1           0.00000   0.00000   0.00000   0.00000   0.00000
           D2           0.00000   0.00000   0.00000   0.00000   0.00000
           D3           0.00000   0.00000   0.00000   0.00000   0.00000
                          A6        A7        D1        D2        D3
           A6           0.25000
           A7           0.00000   0.16000
           D1           0.00000   0.00000   0.01137
           D2           0.00000   0.00000   0.00000   0.01137
           D3           0.00000   0.00000   0.00000   0.00000   0.01137
 ITU=  0
     Eigenvalues ---    0.01137   0.15844   0.16000   0.16131   0.25000
     Eigenvalues ---    0.25000   0.25000   0.40876   0.54148   0.96953
     Eigenvalues ---    0.97038   0.97358
 RFO step:  Lambda=-3.51971392D-02 EMin= 1.13667959D-02
 Linear search not attempted -- first point.
 Maximum step size (   0.300) exceeded in Quadratic search.
    -- Step size scaled by   0.865
 Iteration  1 RMS(Cart)=  0.11415457 RMS(Int)=  0.01190779
 Iteration  2 RMS(Cart)=  0.01059012 RMS(Int)=  0.00663838
 Iteration  3 RMS(Cart)=  0.00017731 RMS(Int)=  0.00663747
 Iteration  4 RMS(Cart)=  0.00000408 RMS(Int)=  0.00663747
 Iteration  5 RMS(Cart)=  0.00000010 RMS(Int)=  0.00663747
 Variable       Old X    -DE/DX   Delta X   Delta X   Delta X     New X
                                 (Linear)    (Quad)   (Total)
    R1        2.73549  -0.01603   0.00000  -0.01379  -0.01379   2.72170
    R2        2.73416  -0.02504   0.00000  -0.02146  -0.02146   2.71270
    R3        2.73584  -0.01431   0.00000  -0.01231  -0.01231   2.72353
    R4        3.14080  -0.00957   0.00000  -0.01863  -0.01863   3.12216
    R5        1.82597   0.01039   0.00000   0.01557   0.01557   1.84154
    A1        1.92549   0.03820   0.00000   0.11052   0.09704   2.02254
    A2        1.91191   0.03757   0.00000   0.12339   0.11432   2.02622
    A3        1.89484  -0.03062   0.00000  -0.09102  -0.09831   1.79653
    A4        1.92451   0.03931   0.00000   0.11535   0.10204   2.02655
    A5        1.91619  -0.05566   0.00000  -0.17321  -0.18205   1.73414
    A6        1.89030  -0.03108   0.00000  -0.09166  -0.09891   1.79139
    A7        1.83276  -0.00772   0.00000  -0.03418  -0.03418   1.79858
    D1       -1.17309  -0.00531   0.00000  -0.02344  -0.01914  -1.19223
    D2        3.00385   0.00052   0.00000   0.00230   0.00217   3.00602
    D3        0.90160   0.00478   0.00000   0.02098   0.01681   0.91841
         Item               Value     Threshold  Converged?
 Maximum Force            0.055655     0.000450     NO 
 RMS     Force            0.026853     0.000300     NO 
 Maximum Displacement     0.207862     0.001800     NO 
 RMS     Displacement     0.119486     0.001200     NO 
 Predicted change in Energy=-1.864093D-02
 GradGradGradGradGradGradGradGradGradGradGradGradGradGradGradGradGradGrad

                          Input orientation:                          
 ---------------------------------------------------------------------
 Center     Atomic      Atomic             Coordinates (Angstroms)
 Number     Number       Type             X           Y           Z
 ---------------------------------------------------------------------
      1         17           0        0.191145    0.062761    0.024126
      2          8           0        0.047571    1.495344   -0.013924
      3          8           0        0.592534   -0.559670   -1.205558
      4          8           0        0.762312   -0.485324    1.228502
      5          8           0       -1.373278   -0.463953    0.093732
      6          1           0       -1.663531   -0.175282    0.978081
 ---------------------------------------------------------------------
                    Distance matrix (angstroms):
                    1          2          3          4          5
     1  Cl   0.000000
     2  O    1.440262   0.000000
     3  O    1.435499   2.437224   0.000000
     4  O    1.441232   2.444897   2.441106   0.000000
     5  O    1.652178   2.422653   2.358333   2.418451   0.000000
     6  H    2.099171   2.589003   3.163205   2.458363   0.974501
                    6
     6  H    0.000000
 Stoichiometry    ClHO4
 Framework group  C1[X(ClHO4)]
 Deg. of freedom    12
 Full point group                 C1      NOp   1
 Largest Abelian subgroup         C1      NOp   1
 Largest concise Abelian subgroup C1      NOp   1
                         Standard orientation:                         
 ---------------------------------------------------------------------
 Center     Atomic      Atomic             Coordinates (Angstroms)
 Number     Number       Type             X           Y           Z
 ---------------------------------------------------------------------
      1         17           0        0.153972   -0.052148   -0.012128
      2          8           0        0.338821   -0.686568    1.267598
      3          8           0        0.915166    1.144503   -0.234090
      4          8           0        0.015358   -0.934703   -1.143071
      5          8           0       -1.354540    0.609141    0.117417
      6          1           0       -1.935973   -0.172470    0.143341
 ---------------------------------------------------------------------
 Rotational constants (GHZ):           5.2610841           5.2103305           5.1709860
 Standard basis: Aug-CC-pVTZ (5D, 7F)
 There are   304 symmetry adapted cartesian basis functions of A   symmetry.
 There are   257 symmetry adapted basis functions of A   symmetry.
   257 basis functions,   429 primitive gaussians,   304 cartesian basis functions
    25 alpha electrons       25 beta electrons
       nuclear repulsion energy       290.8889723595 Hartrees.
 NAtoms=    6 NActive=    6 NUniq=    6 SFac= 1.00D+00 NAtFMM=   60 NAOKFM=F Big=F
 Integral buffers will be    131072 words long.
 Raffenetti 1 integral format.
 Two-electron integral symmetry is turned on.
 One-electron integrals computed using PRISM.
 NBasis=   257 RedAO= T EigKep=  7.82D-05  NBF=   257
 NBsUse=   257 1.00D-06 EigRej= -1.00D+00 NBFU=   257
 Initial guess from the checkpoint file:  "hclo4_mp2_avtz_opt_anharm.chk"
 B after Tr=    -0.000000   -0.000000   -0.000000
         Rot=    0.996495    0.025405   -0.042713    0.067296 Ang=   9.60 deg.
 ExpMin= 2.53D-02 ExpMax= 4.56D+05 ExpMxC= 1.44D+03 IAcc=3 IRadAn=         5 AccDes= 0.00D+00
 Harris functional with IExCor=  205 and IRadAn=       5 diagonalized for initial guess.
 HarFok:  IExCor=  205 AccDes= 0.00D+00 IRadAn=         5 IDoV= 1 UseB2=F ITyADJ=14
 ICtDFT=  3500011 ScaDFX=  1.000000  1.000000  1.000000  1.000000
 FoFCou: FMM=F IPFlag=           0 FMFlag=      100000 FMFlg1=           0
         NFxFlg=           0 DoJE=T BraDBF=F KetDBF=T FulRan=T
         wScrn=  0.000000 ICntrl=       500 IOpCl=  0 I1Cent=   200000004 NGrid=           0
         NMat0=    1 NMatS0=      1 NMatT0=    0 NMatD0=    1 NMtDS0=    0 NMtDT0=    0
 Petite list used in FoFCou.
 Keep R1 ints in memory in canonical form, NReq=563764660.
 Requested convergence on RMS density matrix=1.00D-08 within 128 cycles.
 Requested convergence on MAX density matrix=1.00D-06.
 Requested convergence on             energy=1.00D-06.
 No special actions if energy rises.
 SCF Done:  E(RHF) =  -759.279477648     A.U. after   13 cycles
            NFock= 13  Conv=0.54D-08     -V/T= 2.0013
 ExpMin= 2.53D-02 ExpMax= 4.56D+05 ExpMxC= 1.44D+03 IAcc=3 IRadAn=         5 AccDes= 0.00D+00
 HarFok:  IExCor=  205 AccDes= 0.00D+00 IRadAn=         5 IDoV=-2 UseB2=F ITyADJ=14
 ICtDFT= 12500011 ScaDFX=  1.000000  1.000000  1.000000  1.000000
 Range of M.O.s used for correlation:    10   257
 NBasis=   257 NAE=    25 NBE=    25 NFC=     9 NFV=     0
 NROrb=    248 NOA=    16 NOB=    16 NVA=   232 NVB=   232

 **** Warning!!: The largest alpha MO coefficient is  0.35743438D+02

 Disk-based method using ON**2 memory for 16 occupieds at a time.
 Estimated scratch disk usage=   839041000 words.
 Actual    scratch disk usage=   790282216 words.
 JobTyp=1 Pass  1:  I=  10 to  25 NPSUse= 28 ParTrn=T ParDer=T DoDerP=T.
 (rs|ai) integrals will be sorted in core.
 Spin components of T(2) and E(2):
     alpha-alpha T2 =       0.4711400624D-01 E2=     -0.1663274460D+00
     alpha-beta  T2 =       0.2301047255D+00 E2=     -0.8926041463D+00
     beta-beta   T2 =       0.4711400624D-01 E2=     -0.1663274460D+00
 ANorm=    0.1150796567D+01
 E2 =    -0.1225259038D+01 EUMP2 =    -0.76050473668614D+03
          IDoAtm=111111
          Differentiating once with respect to electric field.
                with respect to dipole field.
          Differentiating once with respect to nuclear coordinates.
 Keep R1 ints in memory in canonical form, NReq=563766082.
          There are     1 degrees of freedom in the 1st order CPHF.  IDoFFX=0 NUNeed=     1.
 LinEq1:  Iter=  0 NonCon=     1 RMS=5.07D-03 Max=1.24D-01 NDo=     1
 AX will form     1 AO Fock derivatives at one time.
 LinEq1:  Iter=  1 NonCon=     1 RMS=1.49D-03 Max=2.43D-02 NDo=     1
 LinEq1:  Iter=  2 NonCon=     1 RMS=5.98D-04 Max=1.57D-02 NDo=     1
 LinEq1:  Iter=  3 NonCon=     1 RMS=1.94D-04 Max=2.18D-03 NDo=     1
 LinEq1:  Iter=  4 NonCon=     1 RMS=5.33D-05 Max=9.42D-04 NDo=     1
 LinEq1:  Iter=  5 NonCon=     1 RMS=1.21D-05 Max=1.74D-04 NDo=     1
 LinEq1:  Iter=  6 NonCon=     1 RMS=5.38D-06 Max=7.59D-05 NDo=     1
 LinEq1:  Iter=  7 NonCon=     1 RMS=1.50D-06 Max=2.60D-05 NDo=     1
 LinEq1:  Iter=  8 NonCon=     1 RMS=4.36D-07 Max=7.21D-06 NDo=     1
 LinEq1:  Iter=  9 NonCon=     1 RMS=1.79D-07 Max=2.82D-06 NDo=     1
 LinEq1:  Iter= 10 NonCon=     1 RMS=6.95D-08 Max=1.79D-06 NDo=     1
 LinEq1:  Iter= 11 NonCon=     1 RMS=1.92D-08 Max=3.09D-07 NDo=     1
 LinEq1:  Iter= 12 NonCon=     1 RMS=3.66D-09 Max=6.93D-08 NDo=     1
 LinEq1:  Iter= 13 NonCon=     1 RMS=8.44D-10 Max=1.36D-08 NDo=     1
 LinEq1:  Iter= 14 NonCon=     1 RMS=2.33D-10 Max=4.55D-09 NDo=     1
 LinEq1:  Iter= 15 NonCon=     0 RMS=5.26D-11 Max=6.80D-10 NDo=     1
 Linear equations converged to 1.000D-10 1.000D-09 after    15 iterations.
 End of Minotr F.D. properties file   721 does not exist.
 End of Minotr F.D. properties file   722 does not exist.
 End of Minotr F.D. properties file   788 does not exist.
 Calling FoFJK, ICntrl=  10002127 FMM=F ISym2X=0 I1Cent= 0 IOpClX= 0 NMat=1 NMatS=1 NMatT=0.
 ***** Axes restored to original set *****
 -------------------------------------------------------------------
 Center     Atomic                   Forces (Hartrees/Bohr)
 Number     Number              X              Y              Z
 -------------------------------------------------------------------
      1       17          -0.010021003   -0.007056704   -0.007768128
      2        8           0.012237357   -0.012737479    0.002483599
      3        8           0.002981369    0.011411810    0.016179011
      4        8           0.003763600    0.011323205   -0.011996266
      5        8          -0.006451559   -0.002490808    0.001087281
      6        1          -0.002509764   -0.000450024    0.000014504
 -------------------------------------------------------------------
 Cartesian Forces:  Max     0.016179011 RMS     0.008404380

 GradGradGradGradGradGradGradGradGradGradGradGradGradGradGradGradGradGrad
 Berny optimization.
 Using GEDIIS/GDIIS optimizer.
 FormGI is forming the generalized inverse of G from B-inverse, IUseBI=4.
 Internal  Forces:  Max     0.020224176 RMS     0.012644530
 Search for a local minimum.
 Step number   2 out of a maximum of   25
 All quantities printed in internal units (Hartrees-Bohrs-Radians)
 Mixed Optimization -- RFO/linear search
 Update second derivatives using D2CorX and points    1    2
 DE= -1.13D-02 DEPred=-1.86D-02 R= 6.04D-01
 TightC=F SS=  1.41D+00  RLast= 2.98D-01 DXNew= 5.0454D-01 8.9346D-01
 Trust test= 6.04D-01 RLast= 2.98D-01 DXMaxT set to 5.05D-01
 The second derivative matrix:
                          R1        R2        R3        R4        R5
           R1           0.96258
           R2          -0.01199   0.95551
           R3          -0.00698  -0.01077   0.96328
           R4          -0.00353  -0.00373  -0.00333   0.41511
           R5           0.00449   0.00609   0.00410  -0.00173   0.54068
           A1           0.01185   0.01393   0.01104  -0.01470   0.00268
           A2           0.01413   0.01696   0.01312  -0.01581   0.00239
           A3          -0.01194  -0.01387  -0.01113   0.01553  -0.00304
           A4           0.01255   0.01493   0.01167  -0.01469   0.00242
           A5          -0.02320  -0.02941  -0.02140   0.01870  -0.00047
           A6          -0.01201  -0.01395  -0.01120   0.01564  -0.00307
           A7          -0.00261  -0.00293  -0.00245   0.00388  -0.00089
           D1           0.00021   0.00096   0.00013   0.00305  -0.00152
           D2           0.00000  -0.00002   0.00000  -0.00011   0.00005
           D3          -0.00018  -0.00082  -0.00011  -0.00261   0.00130
                          A1        A2        A3        A4        A5
           A1           0.28262
           A2           0.03459   0.28647
           A3          -0.03470  -0.03688   0.28688
           A4           0.03234   0.03418  -0.03445   0.28201
           A5          -0.03844  -0.03957   0.04140  -0.03750   0.28825
           A6          -0.03494  -0.03713   0.03713  -0.03468   0.04169
           A7          -0.00880  -0.00941   0.00933  -0.00877   0.01082
           D1          -0.00778  -0.00864   0.00810  -0.00791   0.01148
           D2           0.00028   0.00031  -0.00030   0.00029  -0.00041
           D3           0.00666   0.00740  -0.00694   0.00678  -0.00983
                          A6        A7        D1        D2        D3
           A6           0.28738
           A7           0.00940   0.16235
           D1           0.00816   0.00195   0.01246
           D2          -0.00030  -0.00007  -0.00004   0.01137
           D3          -0.00699  -0.00167  -0.00094   0.00004   0.01217
 ITU=  1  0
 Use linear search instead of GDIIS.
     Eigenvalues ---    0.01137   0.16060   0.17611   0.17966   0.24538
     Eigenvalues ---    0.25000   0.39293   0.47874   0.54083   0.94892
     Eigenvalues ---    0.96988   0.97195
 RFO step:  Lambda=-1.28781343D-03 EMin= 1.13667406D-02
 Quartic linear search produced a step of -0.22075.
 Iteration  1 RMS(Cart)=  0.03829984 RMS(Int)=  0.00160413
 Iteration  2 RMS(Cart)=  0.00078865 RMS(Int)=  0.00133757
 Iteration  3 RMS(Cart)=  0.00000084 RMS(Int)=  0.00133757
 Variable       Old X    -DE/DX   Delta X   Delta X   Delta X     New X
                                 (Linear)    (Quad)   (Total)
    R1        2.72170  -0.01396   0.00304  -0.01570  -0.01265   2.70905
    R2        2.71270  -0.01797   0.00474  -0.02139  -0.01666   2.69604
    R3        2.72353  -0.01284   0.00272  -0.01433  -0.01161   2.71192
    R4        3.12216   0.00947   0.00411   0.01100   0.01511   3.13727
    R5        1.84154   0.00063  -0.00344   0.00641   0.00297   1.84451
    A1        2.02254  -0.01062  -0.02142   0.00216  -0.01660   2.00593
    A2        2.02622  -0.01675  -0.02524  -0.01247  -0.03635   1.98987
    A3        1.79653   0.02022   0.02170   0.01718   0.04032   1.83685
    A4        2.02655  -0.01039  -0.02252   0.00521  -0.01469   2.01186
    A5        1.73414   0.01699   0.04019  -0.02593   0.01625   1.75039
    A6        1.79139   0.02009   0.02183   0.01648   0.03974   1.83114
    A7        1.79858   0.00450   0.00754   0.00532   0.01286   1.81145
    D1       -1.19223   0.00136   0.00423   0.01341   0.01640  -1.17583
    D2        3.00602   0.00026  -0.00048   0.01486   0.01440   3.02042
    D3        0.91841  -0.00093  -0.00371   0.01316   0.01065   0.92906
         Item               Value     Threshold  Converged?
 Maximum Force            0.020224     0.000450     NO 
 RMS     Force            0.012645     0.000300     NO 
 Maximum Displacement     0.072576     0.001800     NO 
 RMS     Displacement     0.038354     0.001200     NO 
 Predicted change in Energy=-2.013704D-03
 GradGradGradGradGradGradGradGradGradGradGradGradGradGradGradGradGradGrad

                          Input orientation:                          
 ---------------------------------------------------------------------
 Center     Atomic      Atomic             Coordinates (Angstroms)
 Number     Number       Type             X           Y           Z
 ---------------------------------------------------------------------
      1         17           0        0.175472    0.056942    0.025789
      2          8           0        0.085977    1.487285   -0.009149
      3          8           0        0.596350   -0.549302   -1.195178
      4          8           0        0.795162   -0.460579    1.212227
      5          8           0       -1.394890   -0.477087    0.096158
      6          1           0       -1.701318   -0.183384    0.975111
 ---------------------------------------------------------------------
                    Distance matrix (angstroms):
                    1          2          3          4          5
     1  Cl   0.000000
     2  O    1.433566   0.000000
     3  O    1.426685   2.411396   0.000000
     4  O    1.435088   2.406009   2.417230   0.000000
     5  O    1.660173   2.462278   2.374405   2.458091   0.000000
     6  H    2.116910   2.637105   3.181718   2.522989   0.976072
                    6
     6  H    0.000000
 Stoichiometry    ClHO4
 Framework group  C1[X(ClHO4)]
 Deg. of freedom    12
 Full point group                 C1      NOp   1
 Largest Abelian subgroup         C1      NOp   1
 Largest concise Abelian subgroup C1      NOp   1
                         Standard orientation:                         
 ---------------------------------------------------------------------
 Center     Atomic      Atomic             Coordinates (Angstroms)
 Number     Number       Type             X           Y           Z
 ---------------------------------------------------------------------
      1         17           0        0.143635   -0.007319   -0.006653
      2          8           0        0.503692   -0.567345    1.262931
      3          8           0        0.590844    1.330144   -0.222590
      4          8           0        0.329774   -0.901751   -1.113370
      5          8           0       -1.496396    0.237682    0.073648
      6          1           0       -1.865105   -0.665413    0.108155
 ---------------------------------------------------------------------
 Rotational constants (GHZ):           5.3971552           5.1573401           5.0942599
 Standard basis: Aug-CC-pVTZ (5D, 7F)
 There are   304 symmetry adapted cartesian basis functions of A   symmetry.
 There are   257 symmetry adapted basis functions of A   symmetry.
   257 basis functions,   429 primitive gaussians,   304 cartesian basis functions
    25 alpha electrons       25 beta electrons
       nuclear repulsion energy       291.2731987718 Hartrees.
 NAtoms=    6 NActive=    6 NUniq=    6 SFac= 1.00D+00 NAtFMM=   60 NAOKFM=F Big=F
 Integral buffers will be    131072 words long.
 Raffenetti 1 integral format.
 Two-electron integral symmetry is turned on.
 One-electron integrals computed using PRISM.
 NBasis=   257 RedAO= T EigKep=  7.95D-05  NBF=   257
 NBsUse=   257 1.00D-06 EigRej= -1.00D+00 NBFU=   257
 Initial guess from the checkpoint file:  "hclo4_mp2_avtz_opt_anharm.chk"
 B after Tr=    -0.000000    0.000000    0.000000
         Rot=    0.990708    0.004607    0.013489   -0.135259 Ang=  15.63 deg.
 ExpMin= 2.53D-02 ExpMax= 4.56D+05 ExpMxC= 1.44D+03 IAcc=3 IRadAn=         5 AccDes= 0.00D+00
 Harris functional with IExCor=  205 and IRadAn=       5 diagonalized for initial guess.
 HarFok:  IExCor=  205 AccDes= 0.00D+00 IRadAn=         5 IDoV= 1 UseB2=F ITyADJ=14
 ICtDFT=  3500011 ScaDFX=  1.000000  1.000000  1.000000  1.000000
 FoFCou: FMM=F IPFlag=           0 FMFlag=      100000 FMFlg1=           0
         NFxFlg=           0 DoJE=T BraDBF=F KetDBF=T FulRan=T
         wScrn=  0.000000 ICntrl=       500 IOpCl=  0 I1Cent=   200000004 NGrid=           0
         NMat0=    1 NMatS0=      1 NMatT0=    0 NMatD0=    1 NMtDS0=    0 NMtDT0=    0
 Petite list used in FoFCou.
 Keep R1 ints in memory in canonical form, NReq=563764660.
 Requested convergence on RMS density matrix=1.00D-08 within 128 cycles.
 Requested convergence on MAX density matrix=1.00D-06.
 Requested convergence on             energy=1.00D-06.
 No special actions if energy rises.
 SCF Done:  E(RHF) =  -759.283492662     A.U. after   11 cycles
            NFock= 11  Conv=0.49D-08     -V/T= 2.0013
 ExpMin= 2.53D-02 ExpMax= 4.56D+05 ExpMxC= 1.44D+03 IAcc=3 IRadAn=         5 AccDes= 0.00D+00
 HarFok:  IExCor=  205 AccDes= 0.00D+00 IRadAn=         5 IDoV=-2 UseB2=F ITyADJ=14
 ICtDFT= 12500011 ScaDFX=  1.000000  1.000000  1.000000  1.000000
 Range of M.O.s used for correlation:    10   257
 NBasis=   257 NAE=    25 NBE=    25 NFC=     9 NFV=     0
 NROrb=    248 NOA=    16 NOB=    16 NVA=   232 NVB=   232

 **** Warning!!: The largest alpha MO coefficient is  0.41557288D+02

 Disk-based method using ON**2 memory for 16 occupieds at a time.
 Estimated scratch disk usage=   839041000 words.
 Actual    scratch disk usage=   790282216 words.
 JobTyp=1 Pass  1:  I=  10 to  25 NPSUse= 28 ParTrn=T ParDer=T DoDerP=T.
 (rs|ai) integrals will be sorted in core.
 Spin components of T(2) and E(2):
     alpha-alpha T2 =       0.4680528109D-01 E2=     -0.1660094346D+00
     alpha-beta  T2 =       0.2288296796D+00 E2=     -0.8911986506D+00
     beta-beta   T2 =       0.4680528109D-01 E2=     -0.1660094346D+00
 ANorm=    0.1149974018D+01
 E2 =    -0.1223217520D+01 EUMP2 =    -0.76050671018197D+03
          IDoAtm=111111
          Differentiating once with respect to electric field.
                with respect to dipole field.
          Differentiating once with respect to nuclear coordinates.
 Keep R1 ints in memory in canonical form, NReq=563766082.
          There are     1 degrees of freedom in the 1st order CPHF.  IDoFFX=0 NUNeed=     1.
 LinEq1:  Iter=  0 NonCon=     1 RMS=4.98D-03 Max=1.17D-01 NDo=     1
 AX will form     1 AO Fock derivatives at one time.
 LinEq1:  Iter=  1 NonCon=     1 RMS=1.46D-03 Max=1.90D-02 NDo=     1
 LinEq1:  Iter=  2 NonCon=     1 RMS=5.79D-04 Max=1.38D-02 NDo=     1
 LinEq1:  Iter=  3 NonCon=     1 RMS=1.88D-04 Max=2.06D-03 NDo=     1
 LinEq1:  Iter=  4 NonCon=     1 RMS=5.18D-05 Max=9.81D-04 NDo=     1
 LinEq1:  Iter=  5 NonCon=     1 RMS=1.26D-05 Max=1.72D-04 NDo=     1
 LinEq1:  Iter=  6 NonCon=     1 RMS=5.81D-06 Max=8.81D-05 NDo=     1
 LinEq1:  Iter=  7 NonCon=     1 RMS=1.63D-06 Max=3.03D-05 NDo=     1
 LinEq1:  Iter=  8 NonCon=     1 RMS=5.12D-07 Max=8.83D-06 NDo=     1
 LinEq1:  Iter=  9 NonCon=     1 RMS=2.20D-07 Max=3.57D-06 NDo=     1
 LinEq1:  Iter= 10 NonCon=     1 RMS=6.62D-08 Max=1.04D-06 NDo=     1
 LinEq1:  Iter= 11 NonCon=     1 RMS=1.73D-08 Max=2.00D-07 NDo=     1
 LinEq1:  Iter= 12 NonCon=     1 RMS=3.31D-09 Max=5.41D-08 NDo=     1
 LinEq1:  Iter= 13 NonCon=     1 RMS=7.56D-10 Max=1.38D-08 NDo=     1
 LinEq1:  Iter= 14 NonCon=     1 RMS=2.14D-10 Max=3.97D-09 NDo=     1
 LinEq1:  Iter= 15 NonCon=     1 RMS=8.14D-11 Max=1.33D-09 NDo=     1
 LinEq1:  Iter= 16 NonCon=     0 RMS=3.20D-11 Max=6.37D-10 NDo=     1
 Linear equations converged to 1.000D-10 1.000D-09 after    16 iterations.
 End of Minotr F.D. properties file   721 does not exist.
 End of Minotr F.D. properties file   722 does not exist.
 End of Minotr F.D. properties file   788 does not exist.
 Calling FoFJK, ICntrl=  10002127 FMM=F ISym2X=0 I1Cent= 0 IOpClX= 0 NMat=1 NMatS=1 NMatT=0.
 ***** Axes restored to original set *****
 -------------------------------------------------------------------
 Center     Atomic                   Forces (Hartrees/Bohr)
 Number     Number              X              Y              Z
 -------------------------------------------------------------------
      1       17           0.005673728   -0.000483361   -0.004892979
      2        8           0.000160153   -0.005738302    0.001240580
      3        8          -0.001435704    0.003331427    0.006409138
      4        8          -0.002856886    0.002616233   -0.004374933
      5        8          -0.000709827    0.000437911    0.002220027
      6        1          -0.000831463   -0.000163908   -0.000601834
 -------------------------------------------------------------------
 Cartesian Forces:  Max     0.006409138 RMS     0.003214089

 GradGradGradGradGradGradGradGradGradGradGradGradGradGradGradGradGradGrad
 Berny optimization.
 Using GEDIIS/GDIIS optimizer.
 FormGI is forming the generalized inverse of G from B-inverse, IUseBI=4.
 Internal  Forces:  Max     0.007324151 RMS     0.003019163
 Search for a local minimum.
 Step number   3 out of a maximum of   25
 All quantities printed in internal units (Hartrees-Bohrs-Radians)
 Mixed Optimization -- RFO/linear search
 Update second derivatives using D2CorX and points    1    2    3
 DE= -1.97D-03 DEPred=-2.01D-03 R= 9.80D-01
 TightC=F SS=  1.41D+00  RLast= 8.27D-02 DXNew= 8.4853D-01 2.4824D-01
 Trust test= 9.80D-01 RLast= 8.27D-02 DXMaxT set to 5.05D-01
 The second derivative matrix:
                          R1        R2        R3        R4        R5
           R1           0.90606
           R2          -0.08555   0.85987
           R3          -0.06079  -0.08088   0.91221
           R4           0.01837   0.02459   0.01805   0.40908
           R5           0.00805   0.01053   0.00776  -0.00240   0.54105
           A1          -0.00323  -0.00556  -0.00405  -0.01287   0.00289
           A2          -0.01624  -0.02229  -0.01683  -0.00931   0.00310
           A3           0.00313   0.00461   0.00580   0.02036  -0.00001
           A4          -0.00170  -0.00355  -0.00252  -0.01280   0.00279
           A5          -0.01639  -0.02079  -0.01376   0.02221   0.00030
           A6           0.00293   0.00439   0.00559   0.02042  -0.00009
           A7           0.00818   0.01119   0.00781  -0.00000  -0.00174
           D1           0.00933   0.01307   0.00842  -0.00167  -0.00286
           D2          -0.00003  -0.00009   0.00002   0.00005   0.00013
           D3          -0.00566  -0.00810  -0.00508   0.00019   0.00213
                          A1        A2        A3        A4        A5
           A1           0.28564
           A2           0.03546   0.28172
           A3          -0.04719  -0.05096   0.33134
           A4           0.03507   0.03477  -0.04529   0.28452
           A5          -0.04734  -0.04960   0.06507  -0.04570   0.30376
           A6          -0.04733  -0.05109   0.08114  -0.04545   0.06517
           A7          -0.00670  -0.00447   0.00719  -0.00684   0.01066
           D1          -0.00385  -0.00153  -0.00047  -0.00441   0.00802
           D2           0.00008   0.00002   0.00043   0.00011  -0.00010
           D3           0.00440   0.00323  -0.00184   0.00477  -0.00788
                          A6        A7        D1        D2        D3
           A6           0.33095
           A7           0.00728   0.16049
           D1          -0.00032   0.00034   0.01202
           D2           0.00042  -0.00007  -0.00015   0.01138
           D3          -0.00195  -0.00073  -0.00070   0.00010   0.01205
 ITU=  1  1  0
 Use linear search instead of GDIIS.
     Eigenvalues ---    0.01128   0.15879   0.16972   0.17653   0.24995
     Eigenvalues ---    0.25035   0.39633   0.53929   0.57132   0.74580
     Eigenvalues ---    0.97001   0.97196
 RFO step:  Lambda=-2.43992428D-04 EMin= 1.12823275D-02
 Quartic linear search produced a step of  0.09643.
 Iteration  1 RMS(Cart)=  0.01106867 RMS(Int)=  0.00013665
 Iteration  2 RMS(Cart)=  0.00010760 RMS(Int)=  0.00005872
 Iteration  3 RMS(Cart)=  0.00000001 RMS(Int)=  0.00005872
 Variable       Old X    -DE/DX   Delta X   Delta X   Delta X     New X
                                 (Linear)    (Quad)   (Total)
    R1        2.70905  -0.00577  -0.00122  -0.00712  -0.00834   2.70071
    R2        2.69604  -0.00732  -0.00161  -0.00911  -0.01071   2.68533
    R3        2.71192  -0.00579  -0.00112  -0.00712  -0.00824   2.70369
    R4        3.13727   0.00144   0.00146   0.00362   0.00508   3.14235
    R5        1.84451  -0.00033   0.00029  -0.00029   0.00000   1.84451
    A1        2.00593   0.00058  -0.00160   0.00721   0.00552   2.01146
    A2        1.98987  -0.00111  -0.00351  -0.00550  -0.00914   1.98073
    A3        1.83685  -0.00091   0.00389  -0.00739  -0.00359   1.83327
    A4        2.01186   0.00019  -0.00142   0.00494   0.00344   2.01530
    A5        1.75039   0.00235   0.00157   0.00664   0.00814   1.75853
    A6        1.83114  -0.00092   0.00383  -0.00765  -0.00390   1.82724
    A7        1.81145   0.00169   0.00124   0.01095   0.01219   1.82364
    D1       -1.17583   0.00135   0.00158   0.02975   0.03129  -1.14453
    D2        3.02042   0.00007   0.00139   0.02175   0.02314   3.04356
    D3        0.92906  -0.00078   0.00103   0.01638   0.01744   0.94650
         Item               Value     Threshold  Converged?
 Maximum Force            0.007324     0.000450     NO 
 RMS     Force            0.003019     0.000300     NO 
 Maximum Displacement     0.019098     0.001800     NO 
 RMS     Displacement     0.011054     0.001200     NO 
 Predicted change in Energy=-1.350124D-04
 GradGradGradGradGradGradGradGradGradGradGradGradGradGradGradGradGradGrad

                          Input orientation:                          
 ---------------------------------------------------------------------
 Center     Atomic      Atomic             Coordinates (Angstroms)
 Number     Number       Type             X           Y           Z
 ---------------------------------------------------------------------
      1         17           0        0.178818    0.053621    0.021443
      2          8           0        0.083898    1.479417   -0.002581
      3          8           0        0.600635   -0.546350   -1.195682
      4          8           0        0.798079   -0.456760    1.205933
      5          8           0       -1.393254   -0.482137    0.103042
      6          1           0       -1.711424   -0.173915    0.972803
 ---------------------------------------------------------------------
                    Distance matrix (angstroms):
                    1          2          3          4          5
     1  Cl   0.000000
     2  O    1.429154   0.000000
     3  O    1.421017   2.407123   0.000000
     4  O    1.430730   2.391514   2.411382   0.000000
     5  O    1.662860   2.457810   2.380420   2.453356   0.000000
     6  H    2.128350   2.628319   3.191654   2.536130   0.976073
                    6
     6  H    0.000000
 Stoichiometry    ClHO4
 Framework group  C1[X(ClHO4)]
 Deg. of freedom    12
 Full point group                 C1      NOp   1
 Largest Abelian subgroup         C1      NOp   1
 Largest concise Abelian subgroup C1      NOp   1
                         Standard orientation:                         
 ---------------------------------------------------------------------
 Center     Atomic      Atomic             Coordinates (Angstroms)
 Number     Number       Type             X           Y           Z
 ---------------------------------------------------------------------
      1         17           0        0.145133   -0.007408   -0.005086
      2          8           0        0.460064   -0.653082    1.230392
      3          8           0        0.637586    1.318844   -0.138635
      4          8           0        0.322940   -0.847826   -1.149232
      5          8           0       -1.492305    0.274693    0.060641
      6          1           0       -1.893543   -0.615097    0.061139
 ---------------------------------------------------------------------
 Rotational constants (GHZ):           5.4282551           5.1819881           5.0937072
 Standard basis: Aug-CC-pVTZ (5D, 7F)
 There are   304 symmetry adapted cartesian basis functions of A   symmetry.
 There are   257 symmetry adapted basis functions of A   symmetry.
   257 basis functions,   429 primitive gaussians,   304 cartesian basis functions
    25 alpha electrons       25 beta electrons
       nuclear repulsion energy       291.8416065591 Hartrees.
 NAtoms=    6 NActive=    6 NUniq=    6 SFac= 1.00D+00 NAtFMM=   60 NAOKFM=F Big=F
 Integral buffers will be    131072 words long.
 Raffenetti 1 integral format.
 Two-electron integral symmetry is turned on.
 One-electron integrals computed using PRISM.
 NBasis=   257 RedAO= T EigKep=  7.88D-05  NBF=   257
 NBsUse=   257 1.00D-06 EigRej= -1.00D+00 NBFU=   257
 Initial guess from the checkpoint file:  "hclo4_mp2_avtz_opt_anharm.chk"
 B after Tr=    -0.000000   -0.000000    0.000000
         Rot=    0.999463   -0.027678    0.008742    0.015178 Ang=  -3.75 deg.
 Keep R1 ints in memory in canonical form, NReq=563764660.
 Requested convergence on RMS density matrix=1.00D-08 within 128 cycles.
 Requested convergence on MAX density matrix=1.00D-06.
 Requested convergence on             energy=1.00D-06.
 No special actions if energy rises.
 SCF Done:  E(RHF) =  -759.284792826     A.U. after   10 cycles
            NFock= 10  Conv=0.99D-08     -V/T= 2.0013
 ExpMin= 2.53D-02 ExpMax= 4.56D+05 ExpMxC= 1.44D+03 IAcc=3 IRadAn=         5 AccDes= 0.00D+00
 HarFok:  IExCor=  205 AccDes= 0.00D+00 IRadAn=         5 IDoV=-2 UseB2=F ITyADJ=14
 ICtDFT= 12500011 ScaDFX=  1.000000  1.000000  1.000000  1.000000
 Range of M.O.s used for correlation:    10   257
 NBasis=   257 NAE=    25 NBE=    25 NFC=     9 NFV=     0
 NROrb=    248 NOA=    16 NOB=    16 NVA=   232 NVB=   232

 **** Warning!!: The largest alpha MO coefficient is  0.41230241D+02

 Disk-based method using ON**2 memory for 16 occupieds at a time.
 Estimated scratch disk usage=   839041000 words.
 Actual    scratch disk usage=   790282216 words.
 JobTyp=1 Pass  1:  I=  10 to  25 NPSUse= 28 ParTrn=T ParDer=T DoDerP=T.
 (rs|ai) integrals will be sorted in core.
 Spin components of T(2) and E(2):
     alpha-alpha T2 =       0.4660201980D-01 E2=     -0.1658406757D+00
     alpha-beta  T2 =       0.2279429622D+00 E2=     -0.8903544021D+00
     beta-beta   T2 =       0.4660201980D-01 E2=     -0.1658406757D+00
 ANorm=    0.1149411589D+01
 E2 =    -0.1222035753D+01 EUMP2 =    -0.76050682857986D+03
          IDoAtm=111111
          Differentiating once with respect to electric field.
                with respect to dipole field.
          Differentiating once with respect to nuclear coordinates.
 Keep R1 ints in memory in canonical form, NReq=563766082.
          There are     1 degrees of freedom in the 1st order CPHF.  IDoFFX=0 NUNeed=     1.
 LinEq1:  Iter=  0 NonCon=     1 RMS=4.93D-03 Max=1.11D-01 NDo=     1
 AX will form     1 AO Fock derivatives at one time.
 LinEq1:  Iter=  1 NonCon=     1 RMS=1.44D-03 Max=1.90D-02 NDo=     1
 LinEq1:  Iter=  2 NonCon=     1 RMS=5.69D-04 Max=1.32D-02 NDo=     1
 LinEq1:  Iter=  3 NonCon=     1 RMS=1.85D-04 Max=1.85D-03 NDo=     1
 LinEq1:  Iter=  4 NonCon=     1 RMS=5.11D-05 Max=9.75D-04 NDo=     1
 LinEq1:  Iter=  5 NonCon=     1 RMS=1.26D-05 Max=1.71D-04 NDo=     1
 LinEq1:  Iter=  6 NonCon=     1 RMS=5.84D-06 Max=9.33D-05 NDo=     1
 LinEq1:  Iter=  7 NonCon=     1 RMS=1.62D-06 Max=2.80D-05 NDo=     1
 LinEq1:  Iter=  8 NonCon=     1 RMS=4.88D-07 Max=8.55D-06 NDo=     1
 LinEq1:  Iter=  9 NonCon=     1 RMS=2.09D-07 Max=3.34D-06 NDo=     1
 LinEq1:  Iter= 10 NonCon=     1 RMS=6.28D-08 Max=9.52D-07 NDo=     1
 LinEq1:  Iter= 11 NonCon=     1 RMS=1.64D-08 Max=1.95D-07 NDo=     1
 LinEq1:  Iter= 12 NonCon=     1 RMS=3.13D-09 Max=5.25D-08 NDo=     1
 LinEq1:  Iter= 13 NonCon=     1 RMS=6.99D-10 Max=1.19D-08 NDo=     1
 LinEq1:  Iter= 14 NonCon=     1 RMS=1.87D-10 Max=3.41D-09 NDo=     1
 LinEq1:  Iter= 15 NonCon=     0 RMS=4.30D-11 Max=5.97D-10 NDo=     1
 Linear equations converged to 1.000D-10 1.000D-09 after    15 iterations.
 End of Minotr F.D. properties file   721 does not exist.
 End of Minotr F.D. properties file   722 does not exist.
 End of Minotr F.D. properties file   788 does not exist.
 Calling FoFJK, ICntrl=  10002127 FMM=F ISym2X=0 I1Cent= 0 IOpClX= 0 NMat=1 NMatS=1 NMatT=0.
 ***** Axes restored to original set *****
 -------------------------------------------------------------------
 Center     Atomic                   Forces (Hartrees/Bohr)
 Number     Number              X              Y              Z
 -------------------------------------------------------------------
      1       17           0.000522691    0.000873874    0.002052121
      2        8          -0.000225535    0.000012192   -0.000965795
      3        8          -0.000729708    0.000267088    0.000793424
      4        8           0.000170169   -0.000791447   -0.000845958
      5        8          -0.000474237   -0.000594706   -0.000312580
      6        1           0.000736620    0.000232999   -0.000721212
 -------------------------------------------------------------------
 Cartesian Forces:  Max     0.002052121 RMS     0.000768458

 GradGradGradGradGradGradGradGradGradGradGradGradGradGradGradGradGradGrad
 Berny optimization.
 Using GEDIIS/GDIIS optimizer.
 FormGI is forming the generalized inverse of G from B-inverse, IUseBI=4.
 Internal  Forces:  Max     0.001556925 RMS     0.000843594
 Search for a local minimum.
 Step number   4 out of a maximum of   25
 All quantities printed in internal units (Hartrees-Bohrs-Radians)
 Mixed Optimization -- En-DIIS/RFO-DIIS
 Update second derivatives using D2CorX and points    1    2    3    4
 DE= -1.18D-04 DEPred=-1.35D-04 R= 8.77D-01
 TightC=F SS=  1.41D+00  RLast= 4.97D-02 DXNew= 8.4853D-01 1.4897D-01
 Trust test= 8.77D-01 RLast= 4.97D-02 DXMaxT set to 5.05D-01
 The second derivative matrix:
                          R1        R2        R3        R4        R5
           R1           0.89306
           R2          -0.12290   0.78932
           R3          -0.08166  -0.12678   0.88434
           R4           0.01889   0.03200   0.02112   0.40925
           R5          -0.00920  -0.00941  -0.00784   0.00327   0.54412
           A1           0.00282   0.00264   0.00311  -0.01414   0.00613
           A2          -0.00607  -0.02050  -0.01052  -0.01218  -0.00495
           A3          -0.00095  -0.00069   0.00307   0.01793   0.00510
           A4          -0.00243  -0.00453  -0.00215  -0.01190   0.00566
           A5          -0.03313  -0.02892  -0.02572   0.02483   0.01100
           A6           0.00848   0.00952   0.01157   0.01487   0.00345
           A7          -0.01030  -0.00276  -0.00699   0.00650   0.00517
           D1          -0.02938  -0.02821  -0.02739   0.01219   0.00055
           D2           0.00778   0.00930   0.00758  -0.00261   0.00012
           D3           0.03746   0.03977   0.03522  -0.01466  -0.00112
                          A1        A2        A3        A4        A5
           A1           0.28799
           A2           0.03786   0.28980
           A3          -0.03960  -0.04095   0.32209
           A4           0.03844   0.03436  -0.03595   0.28822
           A5          -0.04820  -0.05507   0.04360  -0.04260   0.29826
           A6          -0.04052  -0.03612   0.07121  -0.03679   0.03782
           A7          -0.00795  -0.01799   0.00511  -0.00663   0.02621
           D1          -0.00526  -0.02685   0.00247  -0.00709   0.04132
           D2          -0.00012   0.00430  -0.00045   0.00044  -0.00576
           D3           0.00425   0.02880  -0.00512   0.00628  -0.04084
                          A6        A7        D1        D2        D3
           A6           0.32136
           A7           0.00065   0.17553
           D1          -0.00128   0.02072   0.02877
           D2          -0.00013  -0.00306  -0.00138   0.01124
           D3          -0.00159  -0.02109  -0.01570   0.00088   0.02502
 ITU=  1  1  1  0
 Use linear search instead of GDIIS.
     Eigenvalues ---    0.01028   0.16155   0.17595   0.21464   0.25001
     Eigenvalues ---    0.27239   0.39235   0.52807   0.54777   0.64517
     Eigenvalues ---    0.97015   0.97592
 RFO step:  Lambda=-4.11632305D-05 EMin= 1.02758357D-02
 Quartic linear search produced a step of -0.11741.
 Iteration  1 RMS(Cart)=  0.00668245 RMS(Int)=  0.00005028
 Iteration  2 RMS(Cart)=  0.00004406 RMS(Int)=  0.00000260
 Iteration  3 RMS(Cart)=  0.00000000 RMS(Int)=  0.00000260
 Variable       Old X    -DE/DX   Delta X   Delta X   Delta X     New X
                                 (Linear)    (Quad)   (Total)
    R1        2.70071   0.00004   0.00098  -0.00228  -0.00130   2.69941
    R2        2.68533  -0.00101   0.00126  -0.00391  -0.00265   2.68268
    R3        2.70369  -0.00034   0.00097  -0.00260  -0.00163   2.70205
    R4        3.14235  -0.00018  -0.00060   0.00119   0.00059   3.14294
    R5        1.84451  -0.00081  -0.00000  -0.00134  -0.00134   1.84317
    A1        2.01146  -0.00036  -0.00065  -0.00179  -0.00245   2.00901
    A2        1.98073   0.00153   0.00107   0.00471   0.00578   1.98651
    A3        1.83327   0.00001   0.00042   0.00053   0.00095   1.83422
    A4        2.01530  -0.00047  -0.00040  -0.00258  -0.00298   2.01231
    A5        1.75853  -0.00156  -0.00096  -0.00362  -0.00458   1.75395
    A6        1.82724   0.00056   0.00046   0.00247   0.00293   1.83016
    A7        1.82364  -0.00115  -0.00143  -0.00296  -0.00439   1.81925
    D1       -1.14453  -0.00086  -0.00367   0.01571   0.01204  -1.13249
    D2        3.04356   0.00019  -0.00272   0.01901   0.01629   3.05986
    D3        0.94650   0.00114  -0.00205   0.02242   0.02038   0.96688
         Item               Value     Threshold  Converged?
 Maximum Force            0.001557     0.000450     NO 
 RMS     Force            0.000844     0.000300     NO 
 Maximum Displacement     0.012880     0.001800     NO 
 RMS     Displacement     0.006692     0.001200     NO 
 Predicted change in Energy=-2.261990D-05
 GradGradGradGradGradGradGradGradGradGradGradGradGradGradGradGradGradGrad

                          Input orientation:                          
 ---------------------------------------------------------------------
 Center     Atomic      Atomic             Coordinates (Angstroms)
 Number     Number       Type             X           Y           Z
 ---------------------------------------------------------------------
      1         17           0        0.179047    0.053751    0.024746
      2          8           0        0.080833    1.478578   -0.002353
      3          8           0        0.597617   -0.544468   -1.192726
      4          8           0        0.803455   -0.459696    1.204153
      5          8           0       -1.391716   -0.487189    0.103717
      6          1           0       -1.712483   -0.167099    0.967422
 ---------------------------------------------------------------------
                    Distance matrix (angstroms):
                    1          2          3          4          5
     1  Cl   0.000000
     2  O    1.428465   0.000000
     3  O    1.419615   2.403491   0.000000
     4  O    1.429865   2.394733   2.407194   0.000000
     5  O    1.663174   2.458433   2.375183   2.455706   0.000000
     6  H    2.124923   2.620058   3.185155   2.543934   0.975365
                    6
     6  H    0.000000
 Stoichiometry    ClHO4
 Framework group  C1[X(ClHO4)]
 Deg. of freedom    12
 Full point group                 C1      NOp   1
 Largest Abelian subgroup         C1      NOp   1
 Largest concise Abelian subgroup C1      NOp   1
                         Standard orientation:                         
 ---------------------------------------------------------------------
 Center     Atomic      Atomic             Coordinates (Angstroms)
 Number     Number       Type             X           Y           Z
 ---------------------------------------------------------------------
      1         17           0        0.145261   -0.006121   -0.004046
      2          8           0        0.464827   -0.634412    1.238387
      3          8           0        0.603718    1.330680   -0.138526
      4          8           0        0.355973   -0.841997   -1.144847
      5          8           0       -1.498692    0.241017    0.045864
      6          1           0       -1.876049   -0.658253    0.061767
 ---------------------------------------------------------------------
 Rotational constants (GHZ):           5.4371574           5.1744075           5.1073455
 Standard basis: Aug-CC-pVTZ (5D, 7F)
 There are   304 symmetry adapted cartesian basis functions of A   symmetry.
 There are   257 symmetry adapted basis functions of A   symmetry.
   257 basis functions,   429 primitive gaussians,   304 cartesian basis functions
    25 alpha electrons       25 beta electrons
       nuclear repulsion energy       291.9921246070 Hartrees.
 NAtoms=    6 NActive=    6 NUniq=    6 SFac= 1.00D+00 NAtFMM=   60 NAOKFM=F Big=F
 Integral buffers will be    131072 words long.
 Raffenetti 1 integral format.
 Two-electron integral symmetry is turned on.
 One-electron integrals computed using PRISM.
 NBasis=   257 RedAO= T EigKep=  7.86D-05  NBF=   257
 NBsUse=   257 1.00D-06 EigRej= -1.00D+00 NBFU=   257
 Initial guess from the checkpoint file:  "hclo4_mp2_avtz_opt_anharm.chk"
 B after Tr=    -0.000000    0.000000   -0.000000
         Rot=    0.999913    0.002146    0.004368   -0.012248 Ang=   1.51 deg.
 Keep R1 ints in memory in canonical form, NReq=563764660.
 Requested convergence on RMS density matrix=1.00D-08 within 128 cycles.
 Requested convergence on MAX density matrix=1.00D-06.
 Requested convergence on             energy=1.00D-06.
 No special actions if energy rises.
 SCF Done:  E(RHF) =  -759.284979572     A.U. after   10 cycles
            NFock= 10  Conv=0.52D-08     -V/T= 2.0013
 ExpMin= 2.53D-02 ExpMax= 4.56D+05 ExpMxC= 1.44D+03 IAcc=3 IRadAn=         5 AccDes= 0.00D+00
 HarFok:  IExCor=  205 AccDes= 0.00D+00 IRadAn=         5 IDoV=-2 UseB2=F ITyADJ=14
 ICtDFT= 12500011 ScaDFX=  1.000000  1.000000  1.000000  1.000000
 Range of M.O.s used for correlation:    10   257
 NBasis=   257 NAE=    25 NBE=    25 NFC=     9 NFV=     0
 NROrb=    248 NOA=    16 NOB=    16 NVA=   232 NVB=   232

 **** Warning!!: The largest alpha MO coefficient is  0.41167965D+02

 Disk-based method using ON**2 memory for 16 occupieds at a time.
 Estimated scratch disk usage=   839041000 words.
 Actual    scratch disk usage=   790282216 words.
 JobTyp=1 Pass  1:  I=  10 to  25 NPSUse= 28 ParTrn=T ParDer=T DoDerP=T.
 (rs|ai) integrals will be sorted in core.
 Spin components of T(2) and E(2):
     alpha-alpha T2 =       0.4656673403D-01 E2=     -0.1658203694D+00
     alpha-beta  T2 =       0.2277850265D+00 E2=     -0.8902288173D+00
     beta-beta   T2 =       0.4656673403D-01 E2=     -0.1658203694D+00
 ANorm=    0.1149312183D+01
 E2 =    -0.1221869556D+01 EUMP2 =    -0.76050684912832D+03
          IDoAtm=111111
          Differentiating once with respect to electric field.
                with respect to dipole field.
          Differentiating once with respect to nuclear coordinates.
 Keep R1 ints in memory in canonical form, NReq=563766082.
          There are     1 degrees of freedom in the 1st order CPHF.  IDoFFX=0 NUNeed=     1.
 LinEq1:  Iter=  0 NonCon=     1 RMS=4.92D-03 Max=1.11D-01 NDo=     1
 AX will form     1 AO Fock derivatives at one time.
 LinEq1:  Iter=  1 NonCon=     1 RMS=1.44D-03 Max=1.90D-02 NDo=     1
 LinEq1:  Iter=  2 NonCon=     1 RMS=5.67D-04 Max=1.33D-02 NDo=     1
 LinEq1:  Iter=  3 NonCon=     1 RMS=1.84D-04 Max=1.84D-03 NDo=     1
 LinEq1:  Iter=  4 NonCon=     1 RMS=5.09D-05 Max=9.80D-04 NDo=     1
 LinEq1:  Iter=  5 NonCon=     1 RMS=1.26D-05 Max=1.69D-04 NDo=     1
 LinEq1:  Iter=  6 NonCon=     1 RMS=5.86D-06 Max=9.56D-05 NDo=     1
 LinEq1:  Iter=  7 NonCon=     1 RMS=1.63D-06 Max=2.91D-05 NDo=     1
 LinEq1:  Iter=  8 NonCon=     1 RMS=5.02D-07 Max=8.83D-06 NDo=     1
 LinEq1:  Iter=  9 NonCon=     1 RMS=2.13D-07 Max=3.45D-06 NDo=     1
 LinEq1:  Iter= 10 NonCon=     1 RMS=6.31D-08 Max=1.00D-06 NDo=     1
 LinEq1:  Iter= 11 NonCon=     1 RMS=1.64D-08 Max=1.89D-07 NDo=     1
 LinEq1:  Iter= 12 NonCon=     1 RMS=3.09D-09 Max=5.11D-08 NDo=     1
 LinEq1:  Iter= 13 NonCon=     1 RMS=6.76D-10 Max=1.08D-08 NDo=     1
 LinEq1:  Iter= 14 NonCon=     1 RMS=1.85D-10 Max=3.24D-09 NDo=     1
 LinEq1:  Iter= 15 NonCon=     0 RMS=5.72D-11 Max=9.70D-10 NDo=     1
 Linear equations converged to 1.000D-10 1.000D-09 after    15 iterations.
 End of Minotr F.D. properties file   721 does not exist.
 End of Minotr F.D. properties file   722 does not exist.
 End of Minotr F.D. properties file   788 does not exist.
 Calling FoFJK, ICntrl=  10002127 FMM=F ISym2X=0 I1Cent= 0 IOpClX= 0 NMat=1 NMatS=1 NMatT=0.
 ***** Axes restored to original set *****
 -------------------------------------------------------------------
 Center     Atomic                   Forces (Hartrees/Bohr)
 Number     Number              X              Y              Z
 -------------------------------------------------------------------
      1       17          -0.000012644   -0.000321394    0.000126565
      2        8          -0.000292565    0.000830511    0.000240326
      3        8           0.000388447   -0.000489231   -0.001012766
      4        8          -0.000014406   -0.000145374    0.000390835
      5        8           0.000022111   -0.000059798    0.000373885
      6        1          -0.000090943    0.000185285   -0.000118846
 -------------------------------------------------------------------
 Cartesian Forces:  Max     0.001012766 RMS     0.000390383

 GradGradGradGradGradGradGradGradGradGradGradGradGradGradGradGradGradGrad
 Berny optimization.
 Using GEDIIS/GDIIS optimizer.
 FormGI is forming the generalized inverse of G from B-inverse, IUseBI=4.
 Internal  Forces:  Max     0.001189249 RMS     0.000455665
 Search for a local minimum.
 Step number   5 out of a maximum of   25
 All quantities printed in internal units (Hartrees-Bohrs-Radians)
 Mixed Optimization -- En-DIIS/RFO-DIIS
 Swapping is turned off.
 Update second derivatives using D2CorX and points    1    2    3    4    5
 DE= -2.05D-05 DEPred=-2.26D-05 R= 9.08D-01
 TightC=F SS=  1.41D+00  RLast= 3.06D-02 DXNew= 8.4853D-01 9.1849D-02
 Trust test= 9.08D-01 RLast= 3.06D-02 DXMaxT set to 5.05D-01
 The second derivative matrix:
                          R1        R2        R3        R4        R5
           R1           0.94148
           R2          -0.04150   0.92117
           R3          -0.04700  -0.07364   0.90384
           R4           0.01964   0.03362   0.02282   0.40870
           R5           0.00140   0.00415  -0.00469   0.00351   0.54377
           A1           0.01277   0.01969   0.00892  -0.01142   0.01112
           A2          -0.01272  -0.01643  -0.00146  -0.01799   0.00830
           A3          -0.01685  -0.02997  -0.00879   0.01781  -0.00029
           A4           0.00451   0.00562  -0.00034  -0.00953   0.00837
           A5          -0.00586   0.01031  -0.01142   0.02835   0.01027
           A6          -0.00968  -0.01981   0.00201   0.01395   0.00065
           A7           0.00386   0.01666  -0.00122   0.00704   0.00443
           D1           0.01006   0.04472   0.00771   0.00465   0.01472
           D2           0.00915   0.01354   0.01059  -0.00236   0.00225
           D3           0.00546  -0.01660   0.00967  -0.00841  -0.01025
                          A1        A2        A3        A4        A5
           A1           0.28451
           A2           0.04475   0.26764
           A3          -0.03623  -0.04758   0.33000
           A4           0.03578   0.04755  -0.03369   0.28575
           A5          -0.04693  -0.05692   0.04026  -0.04574   0.31575
           A6          -0.03690  -0.05325   0.08033  -0.03284   0.03751
           A7          -0.00477  -0.00775  -0.00175  -0.00598   0.02878
           D1           0.01973  -0.03764  -0.03026   0.01678   0.05810
           D2          -0.00056  -0.00244   0.00145   0.00071  -0.00185
           D3          -0.01716   0.02838   0.02403  -0.01309  -0.05000
                          A6        A7        D1        D2        D3
           A6           0.32894
           A7          -0.00366   0.17581
           D1          -0.04138   0.03674   0.04795
           D2           0.00025  -0.00092  -0.00275   0.01054
           D3           0.03144  -0.03155  -0.03466   0.00086   0.04153
 ITU=  1  1  1  1  0
     Eigenvalues ---    0.00738   0.16189   0.17612   0.21829   0.24811
     Eigenvalues ---    0.33884   0.39271   0.54193   0.54840   0.82020
     Eigenvalues ---    0.97117   0.99032
 En-DIIS/RFO-DIIS/Sim-DIIS IScMMF=       -3 using points:     5    4
 RFO step:  Lambda=-8.58987564D-06.
 DidBck=F Rises=F RFO-DIIS coefs:    1.70567   -0.70567
 Iteration  1 RMS(Cart)=  0.00486918 RMS(Int)=  0.00003495
 Iteration  2 RMS(Cart)=  0.00002886 RMS(Int)=  0.00000303
 Iteration  3 RMS(Cart)=  0.00000000 RMS(Int)=  0.00000303
 Variable       Old X    -DE/DX   Delta X   Delta X   Delta X     New X
                                 (Linear)    (Quad)   (Total)
    R1        2.69941   0.00084  -0.00092   0.00145   0.00053   2.69993
    R2        2.68268   0.00119  -0.00187   0.00246   0.00059   2.68328
    R3        2.70205   0.00037  -0.00115   0.00119   0.00004   2.70209
    R4        3.14294   0.00004   0.00042  -0.00015   0.00026   3.14321
    R5        1.84317  -0.00001  -0.00094   0.00069  -0.00025   1.84292
    A1        2.00901   0.00031  -0.00173   0.00240   0.00067   2.00968
    A2        1.98651   0.00002   0.00408  -0.00390   0.00017   1.98668
    A3        1.83422  -0.00055   0.00067  -0.00202  -0.00136   1.83286
    A4        2.01231   0.00018  -0.00210   0.00210  -0.00000   2.01231
    A5        1.75395   0.00029  -0.00323   0.00407   0.00083   1.75478
    A6        1.83016  -0.00042   0.00207  -0.00265  -0.00058   1.82958
    A7        1.81925   0.00004  -0.00310   0.00267  -0.00043   1.81882
    D1       -1.13249   0.00037   0.00850   0.00573   0.01422  -1.11827
    D2        3.05986   0.00011   0.01150   0.00215   0.01364   3.07350
    D3        0.96688  -0.00006   0.01438  -0.00087   0.01352   0.98040
         Item               Value     Threshold  Converged?
 Maximum Force            0.001189     0.000450     NO 
 RMS     Force            0.000456     0.000300     NO 
 Maximum Displacement     0.012135     0.001800     NO 
 RMS     Displacement     0.004868     0.001200     NO 
 Predicted change in Energy=-4.296155D-06
 GradGradGradGradGradGradGradGradGradGradGradGradGradGradGradGradGradGrad

                          Input orientation:                          
[...]
 .00006967,0.00323429,-0.00304350,0.00517570,-0.00303306,0.00720525,0.0
 0017815,0.00005631,0.00009193,-0.00025527,-0.00089414,-0.00105584,-0.0
 0249080,0.00413052,-0.00560836,0.00230158,0.00218091,0.00159539,-0.001
 64076,-0.00254484,-0.00023923,-0.00029496,-0.00038978,0.00095632,-0.00
 269759,-0.00017257,-0.00257308,0.00034928,-0.00038648,0.00148764,0.004
 87954,-0.00052866,-0.00232929,-0.00039180,-0.00254605,0.00133379,0.000
 08973,-0.00101992,0.00020445,0.00010520,0.01692030,0.01374844,-0.00272
 320,0.00306504,0.00561564,-0.00016247,0.00007128,0.00065018,-0.0024394
 9,-0.00122562,0.00171822,-0.00060521,0.00040353,-0.00084748,0.06818453
 ,-0.09320347,-0.13094360,0.00039924,-0.00190721,-0.00241730,-0.0004073
 2,-0.00063275,0.00016007,0.00046664,0.00055943,-0.00034804,-0.00082580
 ,-0.00012366,-0.00003471,0.00198245,-0.01243918,-0.06225415,-0.0016152
 1,0.00050547,0.00002368,-0.00273332,-0.00063154,0.00013858,-0.00007603
 ,0.00169552,-0.00091221,-0.00007795,-0.00011882,0.00019804,-0.00036481
 ,-0.01599403,-0.01444504,0.09088925,0.01454339,0.01499694,0.00144079,-
 0.00107909,-0.00122667,0.00018806,-0.00003442,-0.00014788,0.00142728,0
 .00063000,-0.00138463,-0.00002635,-0.00040016,0.00021452,-0.06792393,0
 .08852080,0.12380704,0.06489415,-0.08763714,-0.12126239,0.01750770,0.0
 1491557,-0.03059605,-0.01022694,0.00202249,-0.02764362,0.00038009,-0.0
 0205120,0.00007062,0.00127418,-0.00328284,0.02255312,0.00007248,0.0039
 1602,-0.01366539,0.00008136,0.00040105,0.00049622,-0.00068239,0.000049
 03,0.00003645,0.00091465,-0.00122448,-0.00169325,-0.00038043,0.0006767
 8,0.00040297,0.,-0.00067388,0.00336200,0.00323068,0.00020427,-0.002624
 67,-0.00007007,-0.00008752,-0.00103220,-0.00056761,0.00366667,0.007818
 53,0.00039752,-0.00182587,-0.00010383,0.00010044,-0.00233145,-0.003319
 57,0.00346449,-0.00380720,0.00800152,-0.00073674,0.00123523,0.00032729
 ,-0.00040911,-0.00010174,-0.00120089,0.00108984,-0.00311420,0.00370187
 ,-0.00654356,0.00032178,-0.00153707,0.00001810,0.00012788,0.00020858,0
 .00106234,0.00244274,-0.00303305,0.00709178,-0.00723849,0.01628599,0.0
 0020281,0.00199213,-0.00088962,0.00012357,-0.00020221,-0.00285074,-0.0
 0408315,0.00542861,-0.01047613,-0.02190059,-0.00767271,0.00363987,-0.0
 0039767,-0.00265065,-0.00021311,-0.00043629,0.00054527,0.00126877,-0.0
 0333063,0.00023292,-0.00347890,0.02634728,-0.00800501,0.00080846,0.001
 66701,-0.00230894,-0.00462730,-0.00043863,0.00020172,0.00004779,-0.000
 42196,0.00040793,0.00069149,-0.00005615,0.01015555,0.00328010,0.002969
 27,0.00127794,0.00333661,0.00015937,-0.00018474,0.00044329,0.00082971,
 -0.00058558,-0.00135911,-0.00287112,0.00003687,-0.00196165,0.00003776,
 -0.00206939,-0.00264945,-0.00036611,-0.00016007,0.00020823,-0.00013942
 ,0.00010546,0.00008388,0.00031119,0.00011360,0.00000176,-0.00007783,-0
 .00001111,0.00014388,-0.00028207,-0.00045125,-0.00112500,0.00055424,0.
 00016026,0.00017096,-0.00044931,-0.00008193,-0.00009868,0.00004053,0.0
 0030563,0.00003851,-0.00014973,-0.00017695,-0.00003182,0.00007612,-0.0
 0061038,-0.00020051,0.00152491,0.00040337,0.00012153,0.00065218,-0.000
 12985,-0.00029358,-0.00014794,-0.00010303,0.00001750,0.00023656,-0.000
 04135,-0.00018527,-0.00017366,-0.00000236,-0.00010784,-0.00125441,0.00
 131911,0.00219034,0.00068725,-0.00104252,-0.00162117,-0.00604528,0.011
 73910,-0.03723588,-0.00656157,0.00865671,-0.02885583,0.00073858,-0.001
 96062,0.00057429,-0.00030452,-0.00340267,0.02789823,-0.00288898,-0.000
 23823,-0.01892218,0.00025204,-0.00017278,0.00068562,0.00200137,-0.0026
 9259,0.00232907,0.00244042,-0.00065908,-0.00145262,-0.00051698,0.00044
 364,-0.00052539,0.00226676,-0.00126987,0.00272891,0.00182971,0.0000375
 3,-0.00138723,0.00063726,0.00090625,-0.00118044,-0.00220958,0.00151477
 ,0.00584838,-0.00021675,-0.00099037,-0.00004493,-0.00027042,-0.0017985
 3,-0.00306361,0.00552083,-0.00560075,0.00982118,-0.00006214,0.00369419
 ,-0.00197486,-0.00018830,-0.00022370,-0.00105106,-0.00495408,-0.004326
 01,0.00558729,-0.00769686,0.00179781,-0.00695566,0.00215802,-0.0002513
 9,-0.00062479,0.00111926,0.00192165,0.00238237,0.00985564,-0.01052605,
 0.01840085,-0.00236697,0.00636101,-0.00223120,0.00006469,-0.00023488,-
 0.00110667,-0.00692999,0.00454055,-0.01451119,-0.00349873,-0.00350564,
 -0.00179283,0.00021342,-0.00052349,0.00017416,-0.00405345,0.00058622,0
 .00376711,-0.00021904,0.00084447,-0.00070292,0.01296168,-0.00321613,0.
 00130960,0.00082550,0.00042240,-0.00067615,0.00000297,-0.00079127,0.00
 027229,0.00023513,0.00020260,-0.00041568,-0.00026840,0.01109177,-0.001
 26146,-0.00146986,0.00082600,0.00457053,-0.00000714,0.00006313,-0.0007
 9269,0.00164759,-0.00058665,-0.00166535,0.00012249,-0.00011181,-0.0006
 5414,0.01154323,-0.01378041,-0.02679866,0.00084418,-0.00001307,-0.0005
 8840,-0.00006835,0.00002657,0.00007268,0.00005155,-0.00003643,-0.00001
 931,-0.00009724,0.00001347,0.00007955,-0.00540386,-0.00770937,-0.01183
 632,0.00467373,0.00047549,-0.00028800,-0.00072617,-0.00005888,0.000043
 00,0.00006712,0.00035185,0.00019125,-0.00008026,0.00000602,0.00002649,
 0.00012776,-0.00849332,0.00077141,0.01358974,0.00771884,-0.00074416,0.
 00013338,-0.00029874,-0.00064947,0.00001519,0.00014780,0.00005415,0.00
 053616,0.00015308,0.00003217,0.00001224,-0.00000915,0.00010237,-0.0129
 8876,0.01298520,0.02534033,0.01229180,-0.01297819,-0.02487956,-0.01148
 339,0.00619929,-0.02127505,0.01005077,-0.01805001,-0.04806317,0.001392
 34,0.00033316,-0.00074879,-0.00022617,0.00015594,0.00960472,0.00391750
 ,-0.00057927,-0.00530622,-0.00041886,0.00045488,0.00200128,-0.00066832
 ,0.00165087,0.00143692,0.00349395,-0.00580187,-0.01217187,0.00008821,0
 .00193907,0.00071179,-0.00421139,-0.00569540,0.00775936,0.01711619,0.0
 0125521,-0.00417811,-0.00167610,0.00353448,-0.00255352,-0.01177913,0.0
 1728093,0.03497434,0.00126646,-0.00544856,-0.00317497,0.01097043,-0.01
 295949,-0.02400300,0.00294530,-0.00026809,0.00371809,-0.00017255,-0.00
 009873,0.00013406,0.00066852,0.00004832,-0.00113813,-0.00172958,-0.001
 03639,0.00127815,-0.00218242,-0.00062510,0.00039889,-0.00096733,0.0003
 5072,-0.00037949,0.00034514,0.00089397,-0.00108296,0.00182081,0.000638
 58,0.00866013,0.00022561,-0.00015311,-0.00003179,0.00120817,-0.0027436
 5,-0.00747409,-0.00260169,0.00263838,-0.00124129,0.00349561,-0.0001709
 4,-0.00036485,-0.00107002,-0.00138351,0.00022611,-0.00014704,0.0008134
 6,0.00068120,-0.00168479,0.00038889,-0.00069547,-0.00094742,0.00035441
 ,0.00269807,-0.00043156,-0.00039948,-0.00060355,0.00048368,-0.00021214
 ,-0.00063299,0.00089747,-0.00057108,-0.00022262,-0.00036178,0.00026912
 ,-0.00090350,0.00037881,-0.00026954,0.00238163,-0.00011786,-0.00002231
 ,-0.00021046,-0.00087662,0.00030001,-0.00016553,-0.00018131,0.00017284
 ,0.00001304,0.00104287,-0.00199594,-0.00353776,0.00015602,-0.00029166,
 -0.00048328,-0.00001180,-0.00003350,0.00001522,0.00010775,0.00004392,-
 0.00000083,-0.00002689,0.00002792,0.00004256,0.00035366,0.00055917,-0.
 00024589,-0.00057874,0.00002202,-0.00006527,-0.00037002,0.00001548,0.0
 0008427,0.00005401,0.00018975,-0.00001528,-0.00011549,-0.00000439,0.00
 000805,-0.00001841,0.00008298,-0.00033539,0.00181495,-0.00030584,0.000
 32362,-0.00005233,-0.00005516,0.00004545,0.00004289,0.00005563,-0.0000
 2097,0.00015810,-0.00003696,-0.00015674,0.00006897,-0.00000659,0.00007
 402,-0.00088986,0.00140813,0.00151909,0.00067223,-0.00136505,-0.001460
 86,0.09164816,0.04502389,-0.02734273,-0.01106389,-0.00482331,-0.042592
 79,-0.00005321,-0.00253367,-0.00020612,0.00239948,-0.00296780,0.021378
 58,0.00007030,0.00228811,-0.01675409,-0.00027495,0.00002187,0.00048757
 ,-0.00015129,0.00014522,0.00063625,0.00205047,-0.00183273,-0.00401459,
 -0.00112691,0.00035971,0.00029842,0.00133770,-0.00235279,0.00484864,0.
 00827421,0.00024674,-0.00253038,-0.00069012,0.00278151,-0.00280431,-0.
 00463246,0.00802839,0.01656753,0.00058671,-0.00270583,-0.00059103,0.00
 387618,-0.00691712,-0.01327739,0.00303139,-0.00375705,0.00722216,-0.00
 123534,0.00092919,-0.00006124,-0.00080394,-0.00067470,-0.00082612,-0.0
 0056384,-0.00365251,0.00333632,-0.00658766,0.00032584,-0.00209539,0.00
 062575,-0.00041723,0.00015805,0.00076110,0.00352479,-0.00175029,0.0067
 3598,-0.00677041,0.01548418,-0.00036348,0.00256886,-0.00048281,0.00025
 278,-0.00097517,-0.00354612,-0.00624629,0.00549056,-0.01148110,-0.0924
 9678,-0.03474012,0.00803271,0.00009949,-0.00087499,0.00010094,-0.00265
 822,-0.00005514,0.00174788,-0.00054673,0.00018132,-0.00070632,0.093194
 98,-0.03490214,-0.00245951,0.00425360,-0.00039001,-0.00030927,-0.00024
 059,-0.00153670,0.00045529,0.00123605,0.00004256,0.00052732,-0.0005428
 5,0.03603126,0.00075036,0.00763474,0.00397018,0.01040393,0.00030136,-0
 .00031080,-0.00001071,-0.00054585,0.00034883,0.00110828,-0.00020039,-0
 .00023295,-0.00022247,-0.00552893,-0.00930837,-0.01910031,-0.00418063,
 -0.00216047,0.00002984,-0.00008351,0.00026578,0.00008813,0.00120090,0.
 00005438,-0.00075219,0.00011849,0.00003780,0.00032731,0.00240727,0.000
 75503,-0.00166093,0.00053748,-0.00114881,0.00023852,-0.00118730,0.0000
 6300,0.00031056,0.00013788,0.00064545,-0.00012730,-0.00040258,-0.00006
 478,-0.00017600,0.00022902,-0.00054234,0.00103581,0.00553313,0.0010474
 9,-0.00128160,0.00160070,-0.00042687,-0.00035075,-0.00016718,0.0002322
 6,-0.00003925,0.00013306,-0.00004062,-0.00026129,0.00011187,-0.0000568
 0,0.00024834,-0.00364630,0.00460217,0.00782128,0.00196784,-0.00431015,
 -0.00741834,-0.00867555,-0.07110622,0.19498804,0.03703252,-0.01311496,
 0.18601640,0.01291515,0.02990596,-0.00087486,-0.01394795,0.03296381,-0
 .16554785,0.00340249,-0.03389182,0.17703423,-0.00072173,0.00163873,0.0
 1456260,0.00106258,-0.00238184,-0.01371709,0.00763677,0.01317245,0.022
 44029,0.00102958,0.00197311,0.00104610,-0.00855907,0.01194956,-0.01716
 326,-0.05091961,0.00168582,-0.00458008,-0.00504346,-0.01414207,0.01991
 366,0.02067528,-0.05161422,-0.08808549,0.00025829,-0.00335779,-0.00040
 344,-0.02314954,0.05557870,0.09682624,-0.00859254,0.02997553,-0.059646
 30,0.00094119,0.00227564,-0.00157463,0.00200520,-0.00047006,-0.0007060
 7,0.00871530,0.02794924,-0.01444271,0.06054960,0.00302494,-0.00426474,
 0.00563868,-0.00059664,0.00157676,-0.00122833,-0.03127310,0.01681168,-
 0.05813947,0.06294802,-0.11497466,-0.00061329,0.00221840,-0.00051054,-
 0.00104491,0.00060214,-0.00747916,0.06269933,-0.06523952,0.12374390,-0
 .00279585,-0.00154408,0.00093974,-0.00078797,-0.00350013,0.00017289,-0
 .00195306,0.00095623,0.00282418,-0.00296625,0.00099954,-0.00304681,0.0
 0983790,-0.00238409,0.00148928,0.00056977,-0.00066639,-0.00229286,0.00
 017492,-0.00028342,0.00028413,0.00047919,-0.00043807,0.00029253,-0.000
 43021,0.00453229,-0.00080519,-0.00055942,-0.00014255,0.00242707,0.0000
 8724,0.00049416,0.00012716,0.00092304,-0.00025445,-0.00100626,-0.00054
 663,0.00015705,-0.00030162,0.00109029,-0.00441534,-0.00759602,-0.00048
 813,-0.00040377,0.00010869,-0.00015001,0.00017939,0.00001478,-0.000159
 42,0.00002052,0.00009786,-0.00010289,-0.00010398,0.00014515,-0.0013347
 6,-0.00076033,-0.00099452,0.00223520,0.00062756,0.00067656,-0.00048760
 ,-0.00005851,-0.00034871,-0.00002703,-0.00012343,-0.00003121,0.0001424
 6,-0.00006994,0.00002649,-0.00009884,-0.00144386,0.00103213,0.00416113
 ,0.00106818,-0.00135527,0.00171290,0.00028467,0.00005383,0.00008002,-0
 .00037542,-0.00005869,-0.00021497,0.00003667,0.00014811,-0.00022570,0.
 00012252,-0.00047791,-0.00198031,0.00362167,0.00634967,0.00062805,-0.0
 0369012,-0.00601502,-0.03067373,-0.03286685,-0.01741901,-0.04932457,0.
 03302091,0.06059864,0.00456578,-0.00153636,-0.00001591,-0.00069827,0.0
 0262985,-0.00789410,0.00398304,-0.00004188,0.00775922,0.00117642,0.003
 32779,0.00254418,-0.00094617,-0.00334318,-0.00168731,0.01047230,0.0203
 8669,0.03626644,-0.00043281,-0.00068087,-0.00057527,-0.00030812,0.0157
 5123,-0.00430823,-0.04228831,0.00097376,-0.00047569,-0.00047981,-0.015
 34000,0.00524327,0.02893903,-0.04515402,-0.07673923,0.00048033,-0.0010
 5425,-0.00009611,-0.03496908,0.04423959,0.07861855,-0.00031656,0.00525
 345,-0.00611618,0.00003045,-0.00052012,0.00065874,0.00004570,-0.000520
 98,0.00064344,0.00323128,0.00384469,0.00092978,0.00290649,0.00028903,0
 .00066783,-0.00029663,-0.00043329,0.00004056,0.00060951,-0.00320338,0.
 00008443,-0.00283224,0.00529461,-0.00136201,0.00008133,0.00013253,0.00
 049211,-0.00066849,-0.00091908,-0.00103493,0.00339934,-0.00391421,0.00
 198561,0.02911402,0.02509966,0.03343564,-0.00031835,-0.00106365,-0.003
 65435,-0.01503325,-0.00205292,0.00707024,0.00254600,-0.00166408,-0.001
 33308,0.09411298,-0.00413330,0.03097511,0.02581204,0.00395378,0.003322
 34,-0.00119723,-0.01088250,-0.00028347,0.00417716,-0.00033505,-0.00253
 026,-0.00280605,0.18584335,-0.09964326,-0.01436929,0.00702656,0.037599
 05,0.00079652,-0.00012507,-0.00233176,-0.00720731,-0.00138733,0.003622
 59,0.00470284,0.00017879,0.00063686,0.28803943,-0.39603912,-0.75842574
 ,-0.01316217,-0.01633673,-0.01424532,-0.00314680,-0.00032333,0.0033406
 4,0.00525619,0.00118891,-0.00216397,-0.00553683,0.00116703,0.00135314,
 -0.11042138,-0.17444629,-0.27196219,0.12701099,0.01477421,-0.00228367,
 -0.02343453,-0.00363831,-0.00337961,0.00198907,0.00694997,-0.00021644,
 -0.00281799,-0.00067391,0.00080769,0.00221221,-0.20616237,0.06815956,0
 .39034618,0.18875041,-0.06308754,0.03641074,-0.00351620,-0.02264111,-0
 .00039609,0.00040692,0.00107888,0.00715371,0.00083495,-0.00437087,-0.0
 0328819,0.00051606,-0.00071761,-0.32355788,0.37005321,0.71889903,0.283
 67771,-0.36829494,-0.69224833,-0.00662418,-0.07273265,0.33894704,0.153
 93139,-0.08728946,0.18059686,0.04523188,0.01775458,0.00437104,-0.04553
 179,0.02107936,-0.35455911,-0.02259385,-0.01953000,0.35980751,0.002281
 55,-0.01876187,0.04497329,-0.00208877,0.01885608,-0.04576599,-0.001687
 22,-0.00021066,-0.00357937,0.00026640,-0.00237569,-0.00035609,0.000909
 05,-0.00216219,-0.00073242,0.01080698,0.00033104,0.00063200,-0.0001924
 6,0.00224324,-0.00158586,-0.00652966,0.00965484,0.01316949,-0.00014567
 ,-0.00062250,0.00141067,0.00521086,-0.00956536,-0.01534847,-0.03865360
 ,0.05543164,-0.15507124,-0.00106551,0.00100360,0.00000642,-0.00003767,
 -0.00130423,0.00034799,0.03951134,0.05322228,0.01426237,0.09987827,0.0
 0104678,-0.00347964,-0.00016429,-0.00005087,0.00132305,0.00030952,-0.0
 5543271,-0.01232143,-0.15118216,0.09672861,-0.23976817,-0.00198841,0.0
 0510185,-0.00064136,-0.00162186,-0.00099774,0.00108634,0.15605887,-0.1
 0079605,0.24107663,0.00250305,-0.00003631,0.00038387,0.00105908,-0.000
 53961,0.00021760,0.00059188,0.00086098,0.00097904,-0.00007919,0.001402
 92,-0.00159230,-0.00473208,0.00072526,0.00228100,-0.00102963,0.0003004
 7,-0.00244043,0.00034422,0.00042469,0.00024781,0.00015213,0.00043486,0
 .00010921,0.00015930,-0.00178462,-0.00027086,0.00149144,-0.00072389,0.
 00073187,-0.00019289,-0.00022987,0.00001235,0.00038768,-0.00006976,-0.
 00047870,-0.00124425,0.00067135,-0.00141713,0.00037369,-0.00031441,0.0
 0003487,-0.00077008,-0.00020664,-0.00003565,0.00003994,0.00036234,-0.0
 0006070,-0.00004245,0.00003117,0.00013744,0.00032464,-0.00018840,0.000
 32586,0.00065725,-0.00010067,-0.00081567,-0.00020930,-0.00013211,-0.00
 019891,0.00022764,0.00009713,0.00003968,-0.00008167,-0.00003071,0.0001
 1541,0.00007137,-0.00013316,0.00010644,-0.00019597,0.00009664,0.000073
 26,0.00066657,0.00010221,-0.00013589,0.00000749,0.00039171,0.00029660,
 0.00004470,-0.00051170,0.00001106,-0.00004123,0.00001834,0.00016066,-0
 .00009779,0.00010120,-0.00033629,-0.00036190,0.00068840,0.00111674,0.0
 0044874,-0.00068794,-0.00124879,-0.00889175,-0.09798631,0.11053822,-0.
 10153845,0.10985877,0.32565849,0.01124521,0.00221712,-0.00456983,-0.01
 138436,0.00792121,-0.08155372,0.02618630,-0.00469178,0.08234915,-0.002
 72479,0.02360597,0.00892540,0.00212665,-0.02296441,-0.01017648,0.01077
 046,0.06652131,0.13939570,-0.00075187,0.00007803,-0.00021400,-0.009092
 59,0.06386243,-0.02187063,-0.17351577,0.00126908,-0.00192641,0.0000154
 9,-0.06586888,0.02360906,0.13528983,-0.17512706,-0.31218785,0.00250572
 ,-0.00336358,0.00003272,-0.13926990,0.17680519,0.31792591,-0.01564403,
 0.02725909,-0.03913372,0.00015022,-0.00175659,0.00124807,-0.00040288,0
 .00001395,0.00030953,0.01598478,0.02498895,-0.01563940,0.03419990,0.00
 044541,0.00216840,-0.00037467,-0.00058899,0.00116272,0.00238275,-0.025
 77273,0.01263178,-0.03539778,0.03894834,-0.03027255,-0.00002909,-0.000
 34400,0.00176875,0.00029098,-0.00209900,-0.00335788,0.03728289,-0.0361
 2012,0.03231779,0.00844912,0.00783628,0.01085300,0.00125250,-0.0016238
 8,-0.00115981,-0.00251842,-0.00023813,0.00079395,0.00083057,0.00057452
 ,-0.00264782,0.00989112,-0.00124555,0.00962065,0.00858265,0.00145921,-
 0.00070917,-0.00089818,-0.00104032,-0.00135111,-0.00057242,0.00039329,
 -0.00043092,-0.00091248,0.02616084,-0.02277034,-0.00409067,0.00262230,
 0.01196167,0.00016180,0.00023264,-0.00079052,-0.00039283,-0.00102705,-
 0.00212446,0.00090323,-0.00017832,-0.00066961,0.04245606,-0.06970333,-
 0.13078145,-0.00592932,-0.00584757,-0.00500663,-0.00051169,0.00007302,
 0.00072388,0.00199530,0.00096154,0.00037086,-0.00091863,0.00035285,0.0
 0050082,-0.01790486,-0.02572746,-0.03903760,0.02326920,0.00245916,-0.0
 0109524,-0.00531203,-0.00069903,-0.00032826,0.00061581,0.00089886,0.00
 037637,-0.00012488,-0.00013700,0.00010744,0.00052727,-0.03270963,0.015
 64089,0.06805375,0.03018763,-0.01470119,0.00846192,0.00009150,-0.00408
 544,-0.00019526,0.00025306,0.00024014,0.00019005,-0.00017885,-0.000288
 44,-0.00061001,0.00009046,0.00021354,-0.05029538,0.06350376,0.12240438
 ,0.04244868,-0.06375992,-0.11848418,-0.02326427,-0.00627042,-0.0059650
 4,0.00484211,-0.00497932,-0.01147216,0.00226200,0.00159206,-0.00126034
 ,-0.00121001,0.00331404,0.00125386,-0.00019674,-0.00270770,-0.00232728
 ,-0.00081721,0.00087473,0.00107747,0.00100207,0.00036626,0.00042291,0.
 00426613,0.00380661,0.00440686,-0.00011062,-0.00081985,-0.00024605,-0.
 00470123,-0.00092505,0.00164327,0.00051406,-0.00011347,-0.00031242,-0.
 00018068,-0.00124503,-0.00050899,-0.00308156,-0.00241343,-0.00044632,0
 .00022816,0.00030662,-0.00034622,0.00049127,0.00108967,0.00088918,0.00
 389027,0.00021553,-0.00082128,-0.00039484,-0.00038875,-0.00023702,-0.0
 0051721,0.00025150,0.00020041,-0.00387259,-0.00001166,-0.00003672,0.00
 101901,-0.00010819,-0.00041226,0.00004217,-0.00000737,-0.00020637,-0.0
 0021217,0.00042651,0.00095494,0.00115318,0.00087680,0.00077412,-0.0001
 1489,-0.00049281,-0.00033573,-0.00071451,-0.00029611,0.00000956,-0.001
 22034,-0.00000729,-0.00026839,0.03246542,0.00219560,-0.02282450,-0.001
 78527,0.00274415,0.00248091,0.00528041,0.00191713,-0.00116378,-0.00159
 964,-0.00062497,0.00530785,-0.41698458,0.02526139,-0.00461086,-0.00796
 755,-0.00343284,0.00163678,0.00059221,0.00033071,-0.00055697,0.0011517
 4,-0.00000666,0.00066959,-0.00095976,-0.99617594,-0.14952803,0.0146621
 7,0.00653651,-0.00802576,0.00053521,-0.00236924,-0.00130809,-0.0036290
 3,0.00019712,0.00113490,-0.00167229,-0.00151800,-0.00054880,-2.1916501
 3,2.52267615,4.20197525,-0.01961983,-0.00153943,0.01565719,0.00123875,
 -0.00214188,-0.00218270,-0.00421748,0.00011491,0.00332549,0.00249404,0
 .00032569,-0.00441131,0.38262366,0.97402334,2.18175407,-0.36251914,-0.
 02136837,0.00771533,0.01161043,0.00477014,0.00016131,-0.00169468,-0.00
 206506,-0.00005852,0.00007757,-0.00049812,-0.00096916,0.00087918,0.989
 94404,0.15238950,-2.52552254,-0.97078263,-0.15923846,-0.01675866,-0.00
 089541,0.01809237,-0.00039022,0.00238592,0.00048966,-0.00030855,-0.001
 32405,-0.00124112,0.00375051,0.00067627,0.00036925,2.20784964,-2.51549
 279,-4.19322749,-2.19414274,2.51465005,4.17551732\\@


 CONTRAIWISE...CONTINUED TWEEDLEDEE, IF IT WAS SO, IT MIGHT BE,
 AND IF IT WERE SO, IT WOULD BE.....
 BUT AS IT ISN'T, IT AIN'T....
 THAT'S LOGIC.....
 ALICE THROUGH THE LOOKING GLASS
 Job cpu time:       8 days 18 hours 19 minutes 41.0 seconds.
 Elapsed time:       0 days  7 hours 37 minutes 51.4 seconds.
 File lengths (MBytes):  RWF=  20464 Int=      0 D2E=      0 Chk=     56 Scr=      8
 Normal termination of Gaussian 16 at Thu Jun 24 22:35:09 2021.
