 Entering Gaussian System, Link 0=g16
 Input=hclo4_mp2_avdz_opt_anharm.gjf
 Output=hclo4_mp2_avdz_opt_anharm.log
 Initial command:
 /sw/contrib/gaussian/g16/A03/g16/l1.exe "/gscratch/scrubbed/gds001/Gau-26817.inp" -scrdir="/gscratch/scrubbed/gds001/"
 Entering Link 1 = /sw/contrib/gaussian/g16/A03/g16/l1.exe PID=     26818.
  
 Copyright (c) 1988,1990,1992,1993,1995,1998,2003,2009,2016,
            Gaussian, Inc.  All Rights Reserved.
  
 This is part of the Gaussian(R) 16 program.  It is based on
 the Gaussian(R) 09 system (copyright 2009, Gaussian, Inc.),
 the Gaussian(R) 03 system (copyright 2003, Gaussian, Inc.),
 the Gaussian(R) 98 system (copyright 1998, Gaussian, Inc.),
 the Gaussian(R) 94 system (copyright 1995, Gaussian, Inc.),
 the Gaussian 92(TM) system (copyright 1992, Gaussian, Inc.),
 the Gaussian 90(TM) system (copyright 1990, Gaussian, Inc.),
 the Gaussian 88(TM) system (copyright 1988, Gaussian, Inc.),
 the Gaussian 86(TM) system (copyright 1986, Carnegie Mellon
 University), and the Gaussian 82(TM) system (copyright 1983,
 Carnegie Mellon University). Gaussian is a federally registered
 trademark of Gaussian, Inc.
  
 This software contains proprietary and confidential information,
 including trade secrets, belonging to Gaussian, Inc.
  
 This software is provided under written license and may be
 used, copied, transmitted, or stored only in accord with that
 written license.
  
 The following legend is applicable only to US Government
 contracts under FAR:
  
                    RESTRICTED RIGHTS LEGEND
  
 Use, reproduction and disclosure by the US Government is
 subject to restrictions as set forth in subparagraphs (a)
 and (c) of the Commercial Computer Software - Restricted
 Rights clause in FAR 52.227-19.
  
 Gaussian, Inc.
 340 Quinnipiac St., Bldg. 40, Wallingford CT 06492
  
  
 ---------------------------------------------------------------
 Warning -- This program may not be used in any manner that
 competes with the business of Gaussian, Inc. or will provide
 assistance to any competitor of Gaussian, Inc.  The licensee
 of this program is prohibited from giving any competitor of
 Gaussian, Inc. access to this program.  By using this program,
 the user acknowledges that Gaussian, Inc. is engaged in the
 business of creating and licensing software in the field of
 computational chemistry and represents and warrants to the
 licensee that it is not a competitor of Gaussian, Inc. and that
 it will not use this program in any manner prohibited above.
 ---------------------------------------------------------------
  

 Cite this work as:
 Gaussian 16, Revision A.03,
 M. J. Frisch, G. W. Trucks, H. B. Schlegel, G. E. Scuseria, 
 M. A. Robb, J. R. Cheeseman, G. Scalmani, V. Barone, 
 G. A. Petersson, H. Nakatsuji, X. Li, M. Caricato, A. V. Marenich, 
 J. Bloino, B. G. Janesko, R. Gomperts, B. Mennucci, H. P. Hratchian, 
 J. V. Ortiz, A. F. Izmaylov, J. L. Sonnenberg, D. Williams-Young, 
 F. Ding, F. Lipparini, F. Egidi, J. Goings, B. Peng, A. Petrone, 
 T. Henderson, D. Ranasinghe, V. G. Zakrzewski, J. Gao, N. Rega, 
 G. Zheng, W. Liang, M. Hada, M. Ehara, K. Toyota, R. Fukuda, 
 J. Hasegawa, M. Ishida, T. Nakajima, Y. Honda, O. Kitao, H. Nakai, 
 T. Vreven, K. Throssell, J. A. Montgomery, Jr., J. E. Peralta, 
 F. Ogliaro, M. J. Bearpark, J. J. Heyd, E. N. Brothers, K. N. Kudin, 
 V. N. Staroverov, T. A. Keith, R. Kobayashi, J. Normand, 
 K. Raghavachari, A. P. Rendell, J. C. Burant, S. S. Iyengar, 
 J. Tomasi, M. Cossi, J. M. Millam, M. Klene, C. Adamo, R. Cammi, 
 J. W. Ochterski, R. L. Martin, K. Morokuma, O. Farkas, 
 J. B. Foresman, and D. J. Fox, Gaussian, Inc., Wallingford CT, 2016.
 
 ******************************************
 Gaussian 16:  ES64L-G16RevA.03 25-Dec-2016
                24-Jun-2021 
 ******************************************
 %nprocshared=28
 Will use up to   28 processors via shared memory.
 %mem=41GB
 %chk=hclo4_mp2_avdz_opt_anharm.chk
 ----------------------------------------------
 # mp2/aug-cc-pVDZ opt freq=(vibrot,anharmonic)
 ----------------------------------------------
 1/18=20,19=15,38=1,80=1/1,3;
 2/9=110,12=2,17=6,18=5,40=1/2;
 3/5=16,7=10,11=9,25=1,30=1,71=1/1,2,3;
 4//1;
 5/5=2,38=5/2;
 8/6=4,10=1/1;
 9/15=2,16=-3/6;
 10/5=1/2;
 6/7=2,8=2,9=2,10=2/1;
 7/12=2/1,2,3,16;
 1/18=20,19=15,80=1/3(2);
 2/9=110/2;
 99//99;
 2/9=110/2;
 3/5=16,7=10,11=9,25=1,30=1,71=1/1,2,3;
 4/5=5,16=3,69=1/1;
 5/5=2,38=5/2;
 8/6=4,10=1/1;
 9/15=2,16=-3/6;
 10/5=1/2;
 7/12=2/1,2,3,16;
 1/18=20,19=15,80=1/3(-8);
 2/9=110/2;
 6/7=2,8=2,9=2,10=2/1;
 99//99;
 -----
 HClO4
 -----
 Symbolic Z-matrix:
 Charge =  0 Multiplicity = 1
 Cl                    0.11121   0.0252    0.00845 
 O                     0.13417   1.4722   -0.02449 
 O                     0.70253  -0.51432  -1.19681 
 O                     0.83088  -0.44421   1.17365 
 O                    -1.46843  -0.47628   0.13344 
 H                    -1.75361  -0.1887    1.01072 
 

 GradGradGradGradGradGradGradGradGradGradGradGradGradGradGradGradGradGrad
 Berny optimization.
 Initialization pass.
                           ----------------------------
                           !    Initial Parameters    !
                           ! (Angstroms and Degrees)  !
 --------------------------                            --------------------------
 ! Name  Definition              Value          Derivative Info.                !
 --------------------------------------------------------------------------------
 ! R1    R(1,2)                  1.4476         estimate D2E/DX2                !
 ! R2    R(1,3)                  1.4469         estimate D2E/DX2                !
 ! R3    R(1,4)                  1.4477         estimate D2E/DX2                !
 ! R4    R(1,5)                  1.662          estimate D2E/DX2                !
 ! R5    R(5,6)                  0.9663         estimate D2E/DX2                !
 ! A1    A(2,1,3)              110.3227         estimate D2E/DX2                !
 ! A2    A(2,1,4)              109.5442         estimate D2E/DX2                !
 ! A3    A(2,1,5)              108.5662         estimate D2E/DX2                !
 ! A4    A(3,1,4)              110.2664         estimate D2E/DX2                !
 ! A5    A(3,1,5)              109.7896         estimate D2E/DX2                !
 ! A6    A(4,1,5)              108.3063         estimate D2E/DX2                !
 ! A7    A(1,5,6)              105.0095         estimate D2E/DX2                !
 ! D1    D(2,1,5,6)            -67.2131         estimate D2E/DX2                !
 ! D2    D(3,1,5,6)            172.1081         estimate D2E/DX2                !
 ! D3    D(4,1,5,6)             51.6576         estimate D2E/DX2                !
 --------------------------------------------------------------------------------
 Trust Radius=3.00D-01 FncErr=1.00D-07 GrdErr=1.00D-07 EigMax=2.50D+02 EigMin=1.00D-04
 Number of steps in this run=     25 maximum allowed number of steps=    100.
 GradGradGradGradGradGradGradGradGradGradGradGradGradGradGradGradGradGrad

                          Input orientation:                          
 ---------------------------------------------------------------------
 Center     Atomic      Atomic             Coordinates (Angstroms)
 Number     Number       Type             X           Y           Z
 ---------------------------------------------------------------------
      1         17           0        0.111209    0.025196    0.008447
      2          8           0        0.134175    1.472196   -0.024494
      3          8           0        0.702530   -0.514322   -1.196810
      4          8           0        0.830877   -0.444206    1.173655
      5          8           0       -1.468432   -0.476284    0.133436
      6          1           0       -1.753608   -0.188704    1.010724
 ---------------------------------------------------------------------
                    Distance matrix (angstroms):
                    1          2          3          4          5
     1  Cl   0.000000
     2  O    1.447557   0.000000
     3  O    1.446854   2.375628   0.000000
     4  O    1.447746   2.365069   2.374972   0.000000
     5  O    1.662038   2.527818   2.546385   2.523867   0.000000
     6  H    2.127875   2.719189   3.318410   2.602190   0.966261
                    6
     6  H    0.000000
 Stoichiometry    ClHO4
 Framework group  C1[X(ClHO4)]
 Deg. of freedom    12
 Full point group                 C1      NOp   1
 Largest Abelian subgroup         C1      NOp   1
 Largest concise Abelian subgroup C1      NOp   1
                         Standard orientation:                         
 ---------------------------------------------------------------------
 Center     Atomic      Atomic             Coordinates (Angstroms)
 Number     Number       Type             X           Y           Z
 ---------------------------------------------------------------------
      1         17           0        0.082824    0.004594    0.000294
      2          8           0        0.402586   -0.709337    1.218275
      3          8           0        0.882292    1.206120   -0.102526
      4          8           0        0.319368   -0.854324   -1.140879
      5          8           0       -1.530539    0.402887    0.028381
      6          1           0       -1.997664   -0.440871   -0.031010
 ---------------------------------------------------------------------
 Rotational constants (GHZ):           5.5867598           4.8987546           4.8526500
 Standard basis: Aug-CC-pVDZ (5D, 7F)
 There are   138 symmetry adapted cartesian basis functions of A   symmetry.
 There are   128 symmetry adapted basis functions of A   symmetry.
   128 basis functions,   264 primitive gaussians,   138 cartesian basis functions
    25 alpha electrons       25 beta electrons
       nuclear repulsion energy       288.4909250255 Hartrees.
 NAtoms=    6 NActive=    6 NUniq=    6 SFac= 1.00D+00 NAtFMM=   60 NAOKFM=F Big=F
 Integral buffers will be    131072 words long.
 Raffenetti 1 integral format.
 Two-electron integral symmetry is turned on.
 One-electron integrals computed using PRISM.
 NBasis=   128 RedAO= T EigKep=  2.24D-04  NBF=   128
 NBsUse=   128 1.00D-06 EigRej= -1.00D+00 NBFU=   128
 ExpMin= 2.97D-02 ExpMax= 1.28D+05 ExpMxC= 1.24D+03 IAcc=3 IRadAn=         5 AccDes= 0.00D+00
 Harris functional with IExCor=  205 and IRadAn=       5 diagonalized for initial guess.
 HarFok:  IExCor=  205 AccDes= 0.00D+00 IRadAn=         5 IDoV= 1 UseB2=F ITyADJ=14
 ICtDFT=  3500011 ScaDFX=  1.000000  1.000000  1.000000  1.000000
 FoFCou: FMM=F IPFlag=           0 FMFlag=      100000 FMFlg1=           0
         NFxFlg=           0 DoJE=T BraDBF=F KetDBF=T FulRan=T
         wScrn=  0.000000 ICntrl=       500 IOpCl=  0 I1Cent=   200000004 NGrid=           0
         NMat0=    1 NMatS0=      1 NMatT0=    0 NMatD0=    1 NMtDS0=    0 NMtDT0=    0
 Petite list used in FoFCou.
 Keep R1 ints in memory in canonical form, NReq=40179201.
 Requested convergence on RMS density matrix=1.00D-08 within 128 cycles.
 Requested convergence on MAX density matrix=1.00D-06.
 Requested convergence on             energy=1.00D-06.
 No special actions if energy rises.
 SCF Done:  E(RHF) =  -759.118209482     A.U. after   14 cycles
            NFock= 14  Conv=0.66D-08     -V/T= 2.0009
 ExpMin= 2.97D-02 ExpMax= 1.28D+05 ExpMxC= 1.24D+03 IAcc=3 IRadAn=         5 AccDes= 0.00D+00
 HarFok:  IExCor=  205 AccDes= 0.00D+00 IRadAn=         5 IDoV=-2 UseB2=F ITyADJ=14
 ICtDFT= 12500011 ScaDFX=  1.000000  1.000000  1.000000  1.000000
 Range of M.O.s used for correlation:    10   128
 NBasis=   128 NAE=    25 NBE=    25 NFC=     9 NFV=     0
 NROrb=    119 NOA=    16 NOB=    16 NVA=   103 NVB=   103

 **** Warning!!: The largest alpha MO coefficient is  0.23277895D+02

 Fully direct method using O(ONN) memory.
 JobTyp=1 Pass  1:  I=  10 to  25 NPSUse= 28 ParTrn=T ParDer=T DoDerP=T.
 Spin components of T(2) and E(2):
     alpha-alpha T2 =       0.4432101574D-01 E2=     -0.1413039959D+00
     alpha-beta  T2 =       0.2119550344D+00 E2=     -0.7120932203D+00
     beta-beta   T2 =       0.4432101574D-01 E2=     -0.1413039959D+00
 ANorm=    0.1140437226D+01
 E2 =    -0.9947012121D+00 EUMP2 =    -0.76011291069368D+03
          IDoAtm=111111
          Differentiating once with respect to electric field.
                with respect to dipole field.
          Differentiating once with respect to nuclear coordinates.
 Keep R1 ints in memory in canonical form, NReq=40184988.
          There are     1 degrees of freedom in the 1st order CPHF.  IDoFFX=0 NUNeed=     1.
 LinEq1:  Iter=  0 NonCon=     1 RMS=7.92D-03 Max=1.17D-01 NDo=     1
 AX will form     1 AO Fock derivatives at one time.
 LinEq1:  Iter=  1 NonCon=     1 RMS=2.22D-03 Max=2.31D-02 NDo=     1
 LinEq1:  Iter=  2 NonCon=     1 RMS=9.25D-04 Max=1.44D-02 NDo=     1
 LinEq1:  Iter=  3 NonCon=     1 RMS=1.75D-04 Max=1.57D-03 NDo=     1
 LinEq1:  Iter=  4 NonCon=     1 RMS=8.44D-05 Max=1.39D-03 NDo=     1
 LinEq1:  Iter=  5 NonCon=     1 RMS=2.38D-05 Max=2.32D-04 NDo=     1
 LinEq1:  Iter=  6 NonCon=     1 RMS=7.38D-06 Max=6.61D-05 NDo=     1
 LinEq1:  Iter=  7 NonCon=     1 RMS=2.04D-06 Max=2.23D-05 NDo=     1
 LinEq1:  Iter=  8 NonCon=     1 RMS=7.45D-07 Max=8.16D-06 NDo=     1
 LinEq1:  Iter=  9 NonCon=     1 RMS=3.37D-07 Max=3.95D-06 NDo=     1
 LinEq1:  Iter= 10 NonCon=     1 RMS=1.01D-07 Max=1.08D-06 NDo=     1
 LinEq1:  Iter= 11 NonCon=     1 RMS=2.43D-08 Max=2.31D-07 NDo=     1
 LinEq1:  Iter= 12 NonCon=     1 RMS=5.17D-09 Max=8.08D-08 NDo=     1
 LinEq1:  Iter= 13 NonCon=     1 RMS=1.35D-09 Max=1.13D-08 NDo=     1
 LinEq1:  Iter= 14 NonCon=     1 RMS=6.24D-10 Max=6.49D-09 NDo=     1
 LinEq1:  Iter= 15 NonCon=     1 RMS=2.04D-10 Max=2.33D-09 NDo=     1
 LinEq1:  Iter= 16 NonCon=     0 RMS=4.46D-11 Max=5.20D-10 NDo=     1
 Linear equations converged to 1.000D-10 1.000D-09 after    16 iterations.
 End of Minotr F.D. properties file   721 does not exist.
 End of Minotr F.D. properties file   722 does not exist.
 End of Minotr F.D. properties file   788 does not exist.

 **********************************************************************

            Population analysis using the SCF density.

 **********************************************************************

 Orbital symmetries:
       Occupied  (A) (A) (A) (A) (A) (A) (A) (A) (A) (A) (A) (A)
                 (A) (A) (A) (A) (A) (A) (A) (A) (A) (A) (A) (A)
                 (A)
       Virtual   (A) (A) (A) (A) (A) (A) (A) (A) (A) (A) (A) (A)
                 (A) (A) (A) (A) (A) (A) (A) (A) (A) (A) (A) (A)
                 (A) (A) (A) (A) (A) (A) (A) (A) (A) (A) (A) (A)
                 (A) (A) (A) (A) (A) (A) (A) (A) (A) (A) (A) (A)
                 (A) (A) (A) (A) (A) (A) (A) (A) (A) (A) (A) (A)
                 (A) (A) (A) (A) (A) (A) (A) (A) (A) (A) (A) (A)
                 (A) (A) (A) (A) (A) (A) (A) (A) (A) (A) (A) (A)
                 (A) (A) (A) (A) (A) (A) (A) (A) (A) (A) (A) (A)
                 (A) (A) (A) (A) (A) (A) (A)
 The electronic state is 1-A.
 Alpha  occ. eigenvalues -- -105.32644 -20.73256 -20.65563 -20.64798 -20.64732
 Alpha  occ. eigenvalues --  -10.99888  -8.46899  -8.46886  -8.46865  -1.71185
 Alpha  occ. eigenvalues --   -1.48638  -1.45222  -1.44885  -1.01896  -0.86454
 Alpha  occ. eigenvalues --   -0.81074  -0.79863  -0.73833  -0.66327  -0.60574
 Alpha  occ. eigenvalues --   -0.60014  -0.58421  -0.55147  -0.54212  -0.51409
 Alpha virt. eigenvalues --    0.01915   0.07154   0.10302   0.10478   0.10569
 Alpha virt. eigenvalues --    0.14077   0.16176   0.19272   0.19436   0.20926
 Alpha virt. eigenvalues --    0.21217   0.23439   0.23857   0.24837   0.26418
 Alpha virt. eigenvalues --    0.27515   0.28840   0.29433   0.32178   0.34013
 Alpha virt. eigenvalues --    0.34175   0.34731   0.35936   0.38711   0.41848
 Alpha virt. eigenvalues --    0.45004   0.45556   0.48566   0.57918   0.60920
 Alpha virt. eigenvalues --    0.61951   0.65233   0.71954   0.76048   0.80658
 Alpha virt. eigenvalues --    0.83432   0.87044   0.91726   1.01920   1.02777
 Alpha virt. eigenvalues --    1.03521   1.06339   1.06953   1.09676   1.12592
 Alpha virt. eigenvalues --    1.13649   1.15286   1.18003   1.20243   1.21327
 Alpha virt. eigenvalues --    1.21694   1.22372   1.26412   1.29419   1.31126
 Alpha virt. eigenvalues --    1.33858   1.37922   1.45542   1.46411   1.49437
 Alpha virt. eigenvalues --    1.51504   1.52701   1.57640   1.59804   1.62169
 Alpha virt. eigenvalues --    1.65274   1.69003   1.73116   1.77665   1.81676
 Alpha virt. eigenvalues --    1.98419   2.04651   2.08954   2.15751   2.25104
 Alpha virt. eigenvalues --    2.38525   2.42429   2.46453   2.74929   3.04685
 Alpha virt. eigenvalues --    3.15944   3.19064   3.28219   3.56142   3.56989
 Alpha virt. eigenvalues --    3.58264   3.58602   3.59176   3.61494   3.62331
 Alpha virt. eigenvalues --    3.62820   3.65873   3.66482   3.68246   3.71315
 Alpha virt. eigenvalues --    3.71464   3.71815   3.73909   3.73987   3.74728
 Alpha virt. eigenvalues --    3.88275   3.89334   4.15370
          Condensed to atoms (all electrons):
               1          2          3          4          5          6
     1  Cl  13.462847   0.096733   0.110199   0.096167  -0.085793  -0.008354
     2  O    0.096733   8.960310  -0.033169  -0.018139  -0.035375  -0.000881
     3  O    0.110199  -0.033169   8.922451  -0.033765  -0.033558  -0.005320
     4  O    0.096167  -0.018139  -0.033765   8.963552  -0.034987   0.000367
     5  O   -0.085793  -0.035375  -0.033558  -0.034987   8.510824   0.368148
     6  H   -0.008354  -0.000881  -0.005320   0.000367   0.368148   0.415471
 Mulliken charges:
               1
     1  Cl   3.328200
     2  O   -0.969478
     3  O   -0.926838
     4  O   -0.973195
     5  O   -0.689259
     6  H    0.230569
 Sum of Mulliken charges =  -0.00000
 Mulliken charges with hydrogens summed into heavy atoms:
               1
     1  Cl   3.328200
     2  O   -0.969478
     3  O   -0.926838
     4  O   -0.973195
     5  O   -0.458690
 Electronic spatial extent (au):  <R**2>=            351.7846
 Charge=              0.0000 electrons
 Dipole moment (field-independent basis, Debye):
    X=             -3.4114    Y=             -0.6745    Z=             -0.0567  Tot=              3.4779
 Quadrupole moment (field-independent basis, Debye-Ang):
   XX=            -29.8693   YY=            -37.2673   ZZ=            -38.2877
   XY=              2.2661   XZ=              0.1192   YZ=              0.0333
 Traceless Quadrupole moment (field-independent basis, Debye-Ang):
   XX=              5.2722   YY=             -2.1259   ZZ=             -3.1463
   XY=              2.2661   XZ=              0.1192   YZ=              0.0333
 Octapole moment (field-independent basis, Debye-Ang**2):
  XXX=            -14.0154  YYY=             -0.9206  ZZZ=             -0.4018  XYY=             -3.0145
  XXY=             -6.6368  XXZ=             -0.4459  XZZ=             -1.1171  YZZ=              2.5286
  YYZ=              0.4449  XYZ=              0.0748
 Hexadecapole moment (field-independent basis, Debye-Ang**3):
 XXXX=           -117.4726 YYYY=           -126.3568 ZZZZ=           -125.6326 XXXY=             11.6991
 XXXZ=              0.7222 YYYX=              1.0650 YYYZ=              0.0496 ZZZX=              0.0587
 ZZZY=             -0.0186 XXYY=            -43.7831 XXZZ=            -46.3402 YYZZ=            -41.8603
 XXYZ=              0.1091 YYXZ=             -0.0595 ZZXY=             -0.0366
 N-N= 2.884909250255D+02 E-N=-2.376004160125D+03  KE= 7.583995691832D+02
 Calling FoFJK, ICntrl=  10002127 FMM=F ISym2X=0 I1Cent= 0 IOpClX= 0 NMat=1 NMatS=1 NMatT=0.
 ***** Axes restored to original set *****
 -------------------------------------------------------------------
 Center     Atomic                   Forces (Hartrees/Bohr)
 Number     Number              X              Y              Z
 -------------------------------------------------------------------
      1       17           0.064476947    0.024749026    0.000789922
      2        8          -0.024597744    0.032150873   -0.000998757
      3        8          -0.021163273   -0.023778148   -0.026687305
      4        8          -0.004270811   -0.022906303    0.035100126
      5        8          -0.013265794   -0.015808810   -0.021932761
      6        1          -0.001179324    0.005593363    0.013728775
 -------------------------------------------------------------------
 Cartesian Forces:  Max     0.064476947 RMS     0.024764105

 GradGradGradGradGradGradGradGradGradGradGradGradGradGradGradGradGradGrad
 Berny optimization.
 FormGI is forming the generalized inverse of G from B-inverse, IUseBI=4.
 Internal  Forces:  Max     0.056783670 RMS     0.029360779
 Search for a local minimum.
 Step number   1 out of a maximum of   25
 All quantities printed in internal units (Hartrees-Bohrs-Radians)
 Mixed Optimization -- RFO/linear search
 Second derivative matrix not updated -- first step.
 The second derivative matrix:
                          R1        R2        R3        R4        R5
           R1           0.97038
           R2           0.00000   0.97358
           R3           0.00000   0.00000   0.96953
           R4           0.00000   0.00000   0.00000   0.40876
           R5           0.00000   0.00000   0.00000   0.00000   0.54148
           A1           0.00000   0.00000   0.00000   0.00000   0.00000
           A2           0.00000   0.00000   0.00000   0.00000   0.00000
           A3           0.00000   0.00000   0.00000   0.00000   0.00000
           A4           0.00000   0.00000   0.00000   0.00000   0.00000
           A5           0.00000   0.00000   0.00000   0.00000   0.00000
           A6           0.00000   0.00000   0.00000   0.00000   0.00000
           A7           0.00000   0.00000   0.00000   0.00000   0.00000
           D1           0.00000   0.00000   0.00000   0.00000   0.00000
           D2           0.00000   0.00000   0.00000   0.00000   0.00000
           D3           0.00000   0.00000   0.00000   0.00000   0.00000
                          A1        A2        A3        A4        A5
           A1           0.25000
           A2           0.00000   0.25000
           A3           0.00000   0.00000   0.25000
           A4           0.00000   0.00000   0.00000   0.25000
           A5           0.00000   0.00000   0.00000   0.00000   0.25000
           A6           0.00000   0.00000   0.00000   0.00000   0.00000
           A7           0.00000   0.00000   0.00000   0.00000   0.00000
           D1           0.00000   0.00000   0.00000   0.00000   0.00000
           D2           0.00000   0.00000   0.00000   0.00000   0.00000
           D3           0.00000   0.00000   0.00000   0.00000   0.00000
                          A6        A7        D1        D2        D3
           A6           0.25000
           A7           0.00000   0.16000
           D1           0.00000   0.00000   0.01137
           D2           0.00000   0.00000   0.00000   0.01137
           D3           0.00000   0.00000   0.00000   0.00000   0.01137
 ITU=  0
     Eigenvalues ---    0.01137   0.15844   0.16000   0.16131   0.25000
     Eigenvalues ---    0.25000   0.25000   0.40876   0.54148   0.96953
     Eigenvalues ---    0.97038   0.97358
 RFO step:  Lambda=-3.79475188D-02 EMin= 1.13667959D-02
 Linear search not attempted -- first point.
 Maximum step size (   0.300) exceeded in Quadratic search.
    -- Step size scaled by   0.852
 Iteration  1 RMS(Cart)=  0.10751089 RMS(Int)=  0.01203694
 Iteration  2 RMS(Cart)=  0.01140985 RMS(Int)=  0.00650887
 Iteration  3 RMS(Cart)=  0.00020695 RMS(Int)=  0.00650760
 Iteration  4 RMS(Cart)=  0.00000456 RMS(Int)=  0.00650760
 Iteration  5 RMS(Cart)=  0.00000011 RMS(Int)=  0.00650760
 Variable       Old X    -DE/DX   Delta X   Delta X   Delta X     New X
                                 (Linear)    (Quad)   (Total)
    R1        2.73549   0.03177   0.00000   0.02684   0.02684   2.76233
    R2        2.73416   0.02245   0.00000   0.01890   0.01890   2.75306
    R3        2.73584   0.03355   0.00000   0.02837   0.02837   2.76421
    R4        3.14080   0.01619   0.00000   0.03088   0.03088   3.17168
    R5        1.82597   0.01448   0.00000   0.02128   0.02128   1.84725
    A1        1.92549   0.03887   0.00000   0.10983   0.09665   2.02214
    A2        1.91191   0.03800   0.00000   0.12165   0.11280   2.02470
    A3        1.89484  -0.03091   0.00000  -0.08970  -0.09686   1.79797
    A4        1.92451   0.04002   0.00000   0.11468   0.10163   2.02614
    A5        1.91619  -0.05678   0.00000  -0.17235  -0.18105   1.73514
    A6        1.89030  -0.03150   0.00000  -0.09069  -0.09781   1.79249
    A7        1.83276  -0.00621   0.00000  -0.02671  -0.02671   1.80605
    D1       -1.17309  -0.00540   0.00000  -0.02353  -0.01931  -1.19239
    D2        3.00385   0.00049   0.00000   0.00171   0.00161   3.00546
    D3        0.90160   0.00481   0.00000   0.02011   0.01599   0.91759
         Item               Value     Threshold  Converged?
 Maximum Force            0.056784     0.000450     NO 
 RMS     Force            0.029361     0.000300     NO 
 Maximum Displacement     0.188657     0.001800     NO 
 RMS     Displacement     0.112603     0.001200     NO 
 Predicted change in Energy=-2.004425D-02
 GradGradGradGradGradGradGradGradGradGradGradGradGradGradGradGradGradGrad

                          Input orientation:                          
 ---------------------------------------------------------------------
 Center     Atomic      Atomic             Coordinates (Angstroms)
 Number     Number       Type             X           Y           Z
 ---------------------------------------------------------------------
      1         17           0        0.197500    0.064413    0.022469
      2          8           0        0.055291    1.518713   -0.016663
      3          8           0        0.602697   -0.568256   -1.225721
      4          8           0        0.780737   -0.490371    1.243826
      5          8           0       -1.392110   -0.468970    0.097290
      6          1           0       -1.687364   -0.181653    0.983758
 ---------------------------------------------------------------------
                    Distance matrix (angstroms):
                    1          2          3          4          5
     1  Cl   0.000000
     2  O    1.461760   0.000000
     3  O    1.456857   2.473240   0.000000
     4  O    1.462759   2.480227   2.477182   0.000000
     5  O    1.678379   2.461471   2.395719   2.456881   0.000000
     6  H    2.130104   2.632287   3.205565   2.500893   0.977524
                    6
     6  H    0.000000
 Stoichiometry    ClHO4
 Framework group  C1[X(ClHO4)]
 Deg. of freedom    12
 Full point group                 C1      NOp   1
 Largest Abelian subgroup         C1      NOp   1
 Largest concise Abelian subgroup C1      NOp   1
                         Standard orientation:                         
 ---------------------------------------------------------------------
 Center     Atomic      Atomic             Coordinates (Angstroms)
 Number     Number       Type             X           Y           Z
 ---------------------------------------------------------------------
      1         17           0        0.157175   -0.048761   -0.011953
      2          8           0        0.361947   -0.685720    1.287699
      3          8           0        0.898770    1.184478   -0.239094
      4          8           0        0.043066   -0.951071   -1.157589
      5          8           0       -1.392664    0.582484    0.116443
      6          1           0       -1.960933   -0.212431    0.143513
 ---------------------------------------------------------------------
 Rotational constants (GHZ):           5.1111002           5.0519844           5.0133702
 Standard basis: Aug-CC-pVDZ (5D, 7F)
 There are   138 symmetry adapted cartesian basis functions of A   symmetry.
 There are   128 symmetry adapted basis functions of A   symmetry.
   128 basis functions,   264 primitive gaussians,   138 cartesian basis functions
    25 alpha electrons       25 beta electrons
       nuclear repulsion energy       286.5893103345 Hartrees.
 NAtoms=    6 NActive=    6 NUniq=    6 SFac= 1.00D+00 NAtFMM=   60 NAOKFM=F Big=F
 Integral buffers will be    131072 words long.
 Raffenetti 1 integral format.
 Two-electron integral symmetry is turned on.
 One-electron integrals computed using PRISM.
 NBasis=   128 RedAO= T EigKep=  2.32D-04  NBF=   128
 NBsUse=   128 1.00D-06 EigRej= -1.00D+00 NBFU=   128
 Initial guess from the checkpoint file:  "hclo4_mp2_avdz_opt_anharm.chk"
 B after Tr=    -0.000000    0.000000   -0.000000
         Rot=    0.997278    0.026987   -0.041769    0.054442 Ang=   8.46 deg.
 ExpMin= 2.97D-02 ExpMax= 1.28D+05 ExpMxC= 1.24D+03 IAcc=3 IRadAn=         5 AccDes= 0.00D+00
 Harris functional with IExCor=  205 and IRadAn=       5 diagonalized for initial guess.
 HarFok:  IExCor=  205 AccDes= 0.00D+00 IRadAn=         5 IDoV= 1 UseB2=F ITyADJ=14
 ICtDFT=  3500011 ScaDFX=  1.000000  1.000000  1.000000  1.000000
 FoFCou: FMM=F IPFlag=           0 FMFlag=      100000 FMFlg1=           0
         NFxFlg=           0 DoJE=T BraDBF=F KetDBF=T FulRan=T
         wScrn=  0.000000 ICntrl=       500 IOpCl=  0 I1Cent=   200000004 NGrid=           0
         NMat0=    1 NMatS0=      1 NMatT0=    0 NMatD0=    1 NMtDS0=    0 NMtDT0=    0
 Petite list used in FoFCou.
 Keep R1 ints in memory in canonical form, NReq=40178937.
 Requested convergence on RMS density matrix=1.00D-08 within 128 cycles.
 Requested convergence on MAX density matrix=1.00D-06.
 Requested convergence on             energy=1.00D-06.
 No special actions if energy rises.
 SCF Done:  E(RHF) =  -759.122992638     A.U. after   15 cycles
            NFock= 15  Conv=0.36D-08     -V/T= 2.0012
 ExpMin= 2.97D-02 ExpMax= 1.28D+05 ExpMxC= 1.24D+03 IAcc=3 IRadAn=         5 AccDes= 0.00D+00
 HarFok:  IExCor=  205 AccDes= 0.00D+00 IRadAn=         5 IDoV=-2 UseB2=F ITyADJ=14
 ICtDFT= 12500011 ScaDFX=  1.000000  1.000000  1.000000  1.000000
 Range of M.O.s used for correlation:    10   128
 NBasis=   128 NAE=    25 NBE=    25 NFC=     9 NFV=     0
 NROrb=    119 NOA=    16 NOB=    16 NVA=   103 NVB=   103

 **** Warning!!: The largest alpha MO coefficient is  0.23301708D+02

 Fully direct method using O(ONN) memory.
 JobTyp=1 Pass  1:  I=  10 to  25 NPSUse= 28 ParTrn=T ParDer=T DoDerP=T.
 Spin components of T(2) and E(2):
     alpha-alpha T2 =       0.4532770941D-01 E2=     -0.1424532762D+00
     alpha-beta  T2 =       0.2165419215D+00 E2=     -0.7176036683D+00
     beta-beta   T2 =       0.4532770941D-01 E2=     -0.1424532762D+00
 ANorm=    0.1143327311D+01
 E2 =    -0.1002510221D+01 EUMP2 =    -0.76012550285870D+03
          IDoAtm=111111
          Differentiating once with respect to electric field.
                with respect to dipole field.
          Differentiating once with respect to nuclear coordinates.
 Keep R1 ints in memory in canonical form, NReq=40184240.
          There are     1 degrees of freedom in the 1st order CPHF.  IDoFFX=0 NUNeed=     1.
 LinEq1:  Iter=  0 NonCon=     1 RMS=8.28D-03 Max=1.60D-01 NDo=     1
 AX will form     1 AO Fock derivatives at one time.
 LinEq1:  Iter=  1 NonCon=     1 RMS=2.29D-03 Max=2.38D-02 NDo=     1
 LinEq1:  Iter=  2 NonCon=     1 RMS=9.80D-04 Max=1.53D-02 NDo=     1
 LinEq1:  Iter=  3 NonCon=     1 RMS=1.67D-04 Max=1.43D-03 NDo=     1
 LinEq1:  Iter=  4 NonCon=     1 RMS=7.37D-05 Max=1.13D-03 NDo=     1
 LinEq1:  Iter=  5 NonCon=     1 RMS=2.20D-05 Max=2.01D-04 NDo=     1
 LinEq1:  Iter=  6 NonCon=     1 RMS=6.49D-06 Max=6.48D-05 NDo=     1
 LinEq1:  Iter=  7 NonCon=     1 RMS=1.89D-06 Max=2.29D-05 NDo=     1
 LinEq1:  Iter=  8 NonCon=     1 RMS=7.55D-07 Max=1.25D-05 NDo=     1
 LinEq1:  Iter=  9 NonCon=     1 RMS=3.02D-07 Max=2.96D-06 NDo=     1
 LinEq1:  Iter= 10 NonCon=     1 RMS=8.89D-08 Max=1.24D-06 NDo=     1
 LinEq1:  Iter= 11 NonCon=     1 RMS=2.31D-08 Max=1.96D-07 NDo=     1
 LinEq1:  Iter= 12 NonCon=     1 RMS=4.56D-09 Max=4.15D-08 NDo=     1
 LinEq1:  Iter= 13 NonCon=     1 RMS=1.08D-09 Max=8.57D-09 NDo=     1
 LinEq1:  Iter= 14 NonCon=     1 RMS=2.57D-10 Max=3.91D-09 NDo=     1
 LinEq1:  Iter= 15 NonCon=     1 RMS=9.48D-11 Max=1.81D-09 NDo=     1
 LinEq1:  Iter= 16 NonCon=     0 RMS=4.44D-11 Max=4.54D-10 NDo=     1
 Linear equations converged to 1.000D-10 1.000D-09 after    16 iterations.
 End of Minotr F.D. properties file   721 does not exist.
 End of Minotr F.D. properties file   722 does not exist.
 End of Minotr F.D. properties file   788 does not exist.
 Calling FoFJK, ICntrl=  10002127 FMM=F ISym2X=0 I1Cent= 0 IOpClX= 0 NMat=1 NMatS=1 NMatT=0.
 ***** Axes restored to original set *****
 -------------------------------------------------------------------
 Center     Atomic                   Forces (Hartrees/Bohr)
 Number     Number              X              Y              Z
 -------------------------------------------------------------------
      1       17          -0.006169940   -0.004717060   -0.005970216
      2        8           0.009149810    0.008314275    0.001730116
      3        8           0.007615440    0.001586629   -0.002299271
      4        8           0.011392817    0.002694631    0.005969583
      5        8          -0.020280449   -0.008387965   -0.001144256
      6        1          -0.001707678    0.000509490    0.001714044
 -------------------------------------------------------------------
 Cartesian Forces:  Max     0.020280449 RMS     0.007376282

 GradGradGradGradGradGradGradGradGradGradGradGradGradGradGradGradGradGrad
 Berny optimization.
 Using GEDIIS/GDIIS optimizer.
 FormGI is forming the generalized inverse of G from B-inverse, IUseBI=4.
 Internal  Forces:  Max     0.023354336 RMS     0.011542848
 Search for a local minimum.
 Step number   2 out of a maximum of   25
 All quantities printed in internal units (Hartrees-Bohrs-Radians)
 Mixed Optimization -- RFO/linear search
 Update second derivatives using D2CorX and points    1    2
 DE= -1.26D-02 DEPred=-2.00D-02 R= 6.28D-01
 TightC=F SS=  1.41D+00  RLast= 2.98D-01 DXNew= 5.0454D-01 8.9375D-01
 Trust test= 6.28D-01 RLast= 2.98D-01 DXMaxT set to 5.05D-01
 The second derivative matrix:
                          R1        R2        R3        R4        R5
           R1           0.95643
           R2          -0.00879   0.96821
           R3          -0.01520  -0.00964   0.95301
           R4          -0.01825  -0.01321  -0.01914   0.40328
           R5          -0.00530  -0.00321  -0.00583  -0.00833   0.53957
           A1           0.00258   0.00395   0.00182  -0.02148   0.00287
           A2           0.00116   0.00317   0.00022  -0.02453   0.00242
           A3          -0.00329  -0.00452  -0.00255   0.02174  -0.00323
           A4           0.00171   0.00338   0.00089  -0.02229   0.00252
           A5           0.00710   0.00189   0.00882   0.03674   0.00061
           A6          -0.00330  -0.00454  -0.00255   0.02194  -0.00325
           A7          -0.00020  -0.00050  -0.00006   0.00373  -0.00038
           D1          -0.00369  -0.00290  -0.00378   0.00127  -0.00187
           D2           0.00012   0.00010   0.00012  -0.00005   0.00006
           D3           0.00319   0.00250   0.00327  -0.00109   0.00161
                          A1        A2        A3        A4        A5
           A1           0.28312
           A2           0.03499   0.28679
           A3          -0.03460  -0.03662   0.28612
           A4           0.03285   0.03461  -0.03435   0.28252
           A5          -0.03845  -0.03950   0.04059  -0.03752   0.28744
           A6          -0.03489  -0.03692   0.03642  -0.03463   0.04091
           A7          -0.00536  -0.00564   0.00560  -0.00530   0.00606
           D1          -0.00756  -0.00833   0.00777  -0.00769   0.01099
           D2           0.00026   0.00029  -0.00027   0.00027  -0.00038
           D3           0.00653   0.00720  -0.00671   0.00664  -0.00950
                          A6        A7        D1        D2        D3
           A6           0.28672
           A7           0.00565   0.16086
           D1           0.00784   0.00127   0.01241
           D2          -0.00027  -0.00004  -0.00004   0.01137
           D3          -0.00677  -0.00110  -0.00090   0.00003   0.01215
 ITU=  1  0
 Use linear search instead of GDIIS.
     Eigenvalues ---    0.01137   0.16025   0.17593   0.17953   0.24471
     Eigenvalues ---    0.25000   0.36483   0.49859   0.54159   0.93645
     Eigenvalues ---    0.97002   0.97334
 RFO step:  Lambda=-2.18939308D-03 EMin= 1.13669314D-02
 Quartic linear search produced a step of -0.19003.
 Iteration  1 RMS(Cart)=  0.04272841 RMS(Int)=  0.00134259
 Iteration  2 RMS(Cart)=  0.00071837 RMS(Int)=  0.00112706
 Iteration  3 RMS(Cart)=  0.00000020 RMS(Int)=  0.00112706
 Variable       Old X    -DE/DX   Delta X   Delta X   Delta X     New X
                                 (Linear)    (Quad)   (Total)
    R1        2.76233   0.00734  -0.00510   0.01457   0.00947   2.77180
    R2        2.75306   0.00340  -0.00359   0.00879   0.00520   2.75826
    R3        2.76421   0.00850  -0.00539   0.01603   0.01064   2.77486
    R4        3.17168   0.02335  -0.00587   0.05638   0.05052   3.22219
    R5        1.84725   0.00222  -0.00404   0.01034   0.00629   1.85355
    A1        2.02214  -0.00949  -0.01837   0.00088  -0.01524   2.00690
    A2        2.02470  -0.01538  -0.02143  -0.01490  -0.03528   1.98942
    A3        1.79797   0.01873   0.01841   0.02010   0.03968   1.83765
    A4        2.02614  -0.00917  -0.01931   0.00406  -0.01303   2.01311
    A5        1.73514   0.01408   0.03441  -0.02435   0.01173   1.74687
    A6        1.79249   0.01858   0.01859   0.01929   0.03904   1.83153
    A7        1.80605   0.00193   0.00508  -0.00135   0.00373   1.80978
    D1       -1.19239   0.00111   0.00367   0.00993   0.01248  -1.17992
    D2        3.00546   0.00025  -0.00031   0.01128   0.01099   3.01645
    D3        0.91759  -0.00081  -0.00304   0.00937   0.00744   0.92502
         Item               Value     Threshold  Converged?
 Maximum Force            0.023354     0.000450     NO 
 RMS     Force            0.011543     0.000300     NO 
 Maximum Displacement     0.082750     0.001800     NO 
 RMS     Displacement     0.043050     0.001200     NO 
 Predicted change in Energy=-1.992829D-03
 GradGradGradGradGradGradGradGradGradGradGradGradGradGradGradGradGradGrad

                          Input orientation:                          
 ---------------------------------------------------------------------
 Center     Atomic      Atomic             Coordinates (Angstroms)
 Number     Number       Type             X           Y           Z
 ---------------------------------------------------------------------
      1         17           0        0.186187    0.060518    0.023999
      2          8           0        0.097135    1.524119   -0.012983
      3          8           0        0.610145   -0.563150   -1.225701
      4          8           0        0.821562   -0.468363    1.237571
      5          8           0       -1.427122   -0.486376    0.098460
      6          1           0       -1.731154   -0.192873    0.983614
 ---------------------------------------------------------------------
                    Distance matrix (angstroms):
                    1          2          3          4          5
     1  Cl   0.000000
     2  O    1.466773   0.000000
     3  O    1.459607   2.467905   0.000000
     4  O    1.468391   2.461435   2.474144   0.000000
     5  O    1.705111   2.525444   2.430999   2.520809   0.000000
     6  H    2.158996   2.698871   3.240348   2.580067   0.980854
                    6
     6  H    0.000000
 Stoichiometry    ClHO4
 Framework group  C1[X(ClHO4)]
 Deg. of freedom    12
 Full point group                 C1      NOp   1
 Largest Abelian subgroup         C1      NOp   1
 Largest concise Abelian subgroup C1      NOp   1
                         Standard orientation:                         
 ---------------------------------------------------------------------
 Center     Atomic      Atomic             Coordinates (Angstroms)
 Number     Number       Type             X           Y           Z
 ---------------------------------------------------------------------
      1         17           0        0.148627   -0.003569   -0.007238
      2          8           0        0.540453   -0.555377    1.294071
      3          8           0        0.556972    1.378437   -0.239110
      4          8           0        0.364724   -0.920242   -1.133820
      5          8           0       -1.542630    0.195257    0.079500
      6          1           0       -1.882800   -0.723919    0.117915
 ---------------------------------------------------------------------
 Rotational constants (GHZ):           5.1587439           4.9112380           4.8521332
 Standard basis: Aug-CC-pVDZ (5D, 7F)
 There are   138 symmetry adapted cartesian basis functions of A   symmetry.
 There are   128 symmetry adapted basis functions of A   symmetry.
   128 basis functions,   264 primitive gaussians,   138 cartesian basis functions
    25 alpha electrons       25 beta electrons
       nuclear repulsion energy       284.5373936638 Hartrees.
 NAtoms=    6 NActive=    6 NUniq=    6 SFac= 1.00D+00 NAtFMM=   60 NAOKFM=F Big=F
 Integral buffers will be    131072 words long.
 Raffenetti 1 integral format.
 Two-electron integral symmetry is turned on.
 One-electron integrals computed using PRISM.
 NBasis=   128 RedAO= T EigKep=  2.38D-04  NBF=   128
 NBsUse=   128 1.00D-06 EigRej= -1.00D+00 NBFU=   128
 Initial guess from the checkpoint file:  "hclo4_mp2_avdz_opt_anharm.chk"
 B after Tr=     0.000000   -0.000000   -0.000000
         Rot=    0.990281    0.006426    0.010709   -0.138517 Ang=  15.99 deg.
 ExpMin= 2.97D-02 ExpMax= 1.28D+05 ExpMxC= 1.24D+03 IAcc=3 IRadAn=         5 AccDes= 0.00D+00
 Harris functional with IExCor=  205 and IRadAn=       5 diagonalized for initial guess.
 HarFok:  IExCor=  205 AccDes= 0.00D+00 IRadAn=         5 IDoV= 1 UseB2=F ITyADJ=14
 ICtDFT=  3500011 ScaDFX=  1.000000  1.000000  1.000000  1.000000
 FoFCou: FMM=F IPFlag=           0 FMFlag=      100000 FMFlg1=           0
         NFxFlg=           0 DoJE=T BraDBF=F KetDBF=T FulRan=T
         wScrn=  0.000000 ICntrl=       500 IOpCl=  0 I1Cent=   200000004 NGrid=           0
         NMat0=    1 NMatS0=      1 NMatT0=    0 NMatD0=    1 NMtDS0=    0 NMtDT0=    0
 Petite list used in FoFCou.
 Keep R1 ints in memory in canonical form, NReq=40178585.
 Requested convergence on RMS density matrix=1.00D-08 within 128 cycles.
 Requested convergence on MAX density matrix=1.00D-06.
 Requested convergence on             energy=1.00D-06.
 No special actions if energy rises.
 SCF Done:  E(RHF) =  -759.122166867     A.U. after   13 cycles
            NFock= 13  Conv=0.66D-08     -V/T= 2.0013
 ExpMin= 2.97D-02 ExpMax= 1.28D+05 ExpMxC= 1.24D+03 IAcc=3 IRadAn=         5 AccDes= 0.00D+00
 HarFok:  IExCor=  205 AccDes= 0.00D+00 IRadAn=         5 IDoV=-2 UseB2=F ITyADJ=14
 ICtDFT= 12500011 ScaDFX=  1.000000  1.000000  1.000000  1.000000
 Range of M.O.s used for correlation:    10   128
 NBasis=   128 NAE=    25 NBE=    25 NFC=     9 NFV=     0
 NROrb=    119 NOA=    16 NOB=    16 NVA=   103 NVB=   103

 **** Warning!!: The largest alpha MO coefficient is  0.25406073D+02

 Fully direct method using O(ONN) memory.
 JobTyp=1 Pass  1:  I=  10 to  25 NPSUse= 28 ParTrn=T ParDer=T DoDerP=T.
 Spin components of T(2) and E(2):
     alpha-alpha T2 =       0.4574305489D-01 E2=     -0.1427535928D+00
     alpha-beta  T2 =       0.2190370204D+00 E2=     -0.7199113853D+00
     beta-beta   T2 =       0.4574305489D-01 E2=     -0.1427535928D+00
 ANorm=    0.1144780822D+01
 E2 =    -0.1005418571D+01 EUMP2 =    -0.76012758543825D+03
          IDoAtm=111111
          Differentiating once with respect to electric field.
                with respect to dipole field.
          Differentiating once with respect to nuclear coordinates.
 Keep R1 ints in memory in canonical form, NReq=40183712.
          There are     1 degrees of freedom in the 1st order CPHF.  IDoFFX=0 NUNeed=     1.
 LinEq1:  Iter=  0 NonCon=     1 RMS=8.43D-03 Max=1.48D-01 NDo=     1
 AX will form     1 AO Fock derivatives at one time.
 LinEq1:  Iter=  1 NonCon=     1 RMS=2.35D-03 Max=2.51D-02 NDo=     1
 LinEq1:  Iter=  2 NonCon=     1 RMS=1.01D-03 Max=1.65D-02 NDo=     1
 LinEq1:  Iter=  3 NonCon=     1 RMS=1.73D-04 Max=1.45D-03 NDo=     1
 LinEq1:  Iter=  4 NonCon=     1 RMS=7.93D-05 Max=1.37D-03 NDo=     1
 LinEq1:  Iter=  5 NonCon=     1 RMS=2.43D-05 Max=2.08D-04 NDo=     1
 LinEq1:  Iter=  6 NonCon=     1 RMS=7.85D-06 Max=9.40D-05 NDo=     1
 LinEq1:  Iter=  7 NonCon=     1 RMS=2.59D-06 Max=3.22D-05 NDo=     1
 LinEq1:  Iter=  8 NonCon=     1 RMS=1.18D-06 Max=1.74D-05 NDo=     1
 LinEq1:  Iter=  9 NonCon=     1 RMS=3.78D-07 Max=3.52D-06 NDo=     1
 LinEq1:  Iter= 10 NonCon=     1 RMS=9.63D-08 Max=1.18D-06 NDo=     1
 LinEq1:  Iter= 11 NonCon=     1 RMS=2.37D-08 Max=2.11D-07 NDo=     1
 LinEq1:  Iter= 12 NonCon=     1 RMS=5.09D-09 Max=5.40D-08 NDo=     1
 LinEq1:  Iter= 13 NonCon=     1 RMS=1.26D-09 Max=1.27D-08 NDo=     1
 LinEq1:  Iter= 14 NonCon=     1 RMS=3.76D-10 Max=6.24D-09 NDo=     1
 LinEq1:  Iter= 15 NonCon=     1 RMS=1.90D-10 Max=2.07D-09 NDo=     1
 LinEq1:  Iter= 16 NonCon=     0 RMS=5.51D-11 Max=7.98D-10 NDo=     1
 Linear equations converged to 1.000D-10 1.000D-09 after    16 iterations.
 End of Minotr F.D. properties file   721 does not exist.
 End of Minotr F.D. properties file   722 does not exist.
 End of Minotr F.D. properties file   788 does not exist.
 Calling FoFJK, ICntrl=  10002127 FMM=F ISym2X=0 I1Cent= 0 IOpClX= 0 NMat=1 NMatS=1 NMatT=0.
 ***** Axes restored to original set *****
 -------------------------------------------------------------------
 Center     Atomic                   Forces (Hartrees/Bohr)
 Number     Number              X              Y              Z
 -------------------------------------------------------------------
      1       17           0.008652783    0.001214605   -0.003826153
      2        8          -0.000466261    0.001721332    0.000998982
      3        8           0.000276052   -0.000114865   -0.000201191
      4        8           0.000245412   -0.000193808    0.001983739
      5        8          -0.008818574   -0.002966189    0.001106175
      6        1           0.000110589    0.000338925   -0.000061551
 -------------------------------------------------------------------
 Cartesian Forces:  Max     0.008818574 RMS     0.003225305

 GradGradGradGradGradGradGradGradGradGradGradGradGradGradGradGradGradGrad
 Berny optimization.
 Using GEDIIS/GDIIS optimizer.
 FormGI is forming the generalized inverse of G from B-inverse, IUseBI=4.
 Internal  Forces:  Max     0.009127435 RMS     0.002552759
 Search for a local minimum.
 Step number   3 out of a maximum of   25
 All quantities printed in internal units (Hartrees-Bohrs-Radians)
 Mixed Optimization -- RFO/linear search
 Update second derivatives using D2CorX and points    1    2    3
 DE= -2.08D-03 DEPred=-1.99D-03 R= 1.05D+00
 TightC=F SS=  1.41D+00  RLast= 8.97D-02 DXNew= 8.4853D-01 2.6917D-01
 Trust test= 1.05D+00 RLast= 8.97D-02 DXMaxT set to 5.05D-01
 The second derivative matrix:
                          R1        R2        R3        R4        R5
           R1           0.94905
           R2          -0.01070   0.96846
           R3          -0.02319  -0.01161   0.94438
           R4          -0.05301  -0.02862  -0.05759   0.29409
           R5          -0.00626  -0.00285  -0.00678  -0.01798   0.53995
           A1           0.00569   0.00458   0.00494  -0.00625   0.00303
           A2           0.00991   0.00598   0.00951   0.01097   0.00388
           A3           0.00122   0.00106   0.00334   0.00731   0.00108
           A4           0.00491   0.00421   0.00413  -0.00824   0.00284
           A5           0.00789   0.00327   0.01016   0.03194   0.00179
           A6           0.00138   0.00109   0.00352   0.00812   0.00110
           A7           0.00130   0.00061   0.00172   0.00493   0.00042
           D1          -0.00868  -0.00576  -0.00940  -0.00893  -0.00379
           D2           0.00046   0.00033   0.00052   0.00034   0.00023
           D3           0.00639   0.00435   0.00687   0.00531   0.00286
                          A1        A2        A3        A4        A5
           A1           0.28634
           A2           0.03649   0.28310
           A3          -0.04554  -0.04827   0.32331
           A4           0.03584   0.03596  -0.04397   0.28533
           A5          -0.04547  -0.04720   0.05834  -0.04405   0.29832
           A6          -0.04591  -0.04876   0.07365  -0.04434   0.05869
           A7          -0.00728  -0.00823   0.01089  -0.00703   0.00862
           D1          -0.00481  -0.00322   0.00114  -0.00528   0.00870
           D2          -0.00000  -0.00011   0.00053   0.00004  -0.00007
           D3           0.00485   0.00403  -0.00253   0.00518  -0.00813
                          A6        A7        D1        D2        D3
           A6           0.32398
           A7           0.01092   0.16152
           D1           0.00128   0.00072   0.01234
           D2           0.00052   0.00005  -0.00012   0.01138
           D3          -0.00263  -0.00075  -0.00088   0.00008   0.01215
 ITU=  1  1  0
 Use linear search instead of GDIIS.
     Eigenvalues ---    0.01133   0.16003   0.16881   0.17673   0.23858
     Eigenvalues ---    0.25000   0.29621   0.53982   0.54836   0.92969
     Eigenvalues ---    0.97003   0.97349
 RFO step:  Lambda=-3.37150922D-04 EMin= 1.13255294D-02
 Quartic linear search produced a step of  0.14082.
 Iteration  1 RMS(Cart)=  0.01267107 RMS(Int)=  0.00014412
 Iteration  2 RMS(Cart)=  0.00009552 RMS(Int)=  0.00007133
 Iteration  3 RMS(Cart)=  0.00000001 RMS(Int)=  0.00007133
 Variable       Old X    -DE/DX   Delta X   Delta X   Delta X     New X
                                 (Linear)    (Quad)   (Total)
    R1        2.77180   0.00172   0.00133   0.00279   0.00412   2.77592
    R2        2.75826   0.00030   0.00073   0.00084   0.00157   2.75983
    R3        2.77486   0.00182   0.00150   0.00295   0.00444   2.77930
    R4        3.22219   0.00913   0.00711   0.02783   0.03495   3.25714
    R5        1.85355   0.00001   0.00089   0.00060   0.00148   1.85503
    A1        2.00690   0.00098  -0.00215   0.00904   0.00680   2.01369
    A2        1.98942  -0.00075  -0.00497  -0.00425  -0.00938   1.98004
    A3        1.83765  -0.00110   0.00559  -0.00836  -0.00287   1.83478
    A4        2.01311   0.00069  -0.00184   0.00732   0.00538   2.01849
    A5        1.74687   0.00113   0.00165   0.00165   0.00323   1.75010
    A6        1.83153  -0.00119   0.00550  -0.00901  -0.00361   1.82792
    A7        1.80978  -0.00042   0.00053  -0.00386  -0.00334   1.80644
    D1       -1.17992   0.00120   0.00176   0.02885   0.03056  -1.14935
    D2        3.01645   0.00005   0.00155   0.02125   0.02280   3.03925
    D3        0.92502  -0.00074   0.00105   0.01579   0.01688   0.94191
         Item               Value     Threshold  Converged?
 Maximum Force            0.009127     0.000450     NO 
 RMS     Force            0.002553     0.000300     NO 
 Maximum Displacement     0.019752     0.001800     NO 
 RMS     Displacement     0.012667     0.001200     NO 
 Predicted change in Energy=-1.881215D-04
 GradGradGradGradGradGradGradGradGradGradGradGradGradGradGradGradGradGrad

                          Input orientation:                          
 ---------------------------------------------------------------------
 Center     Atomic      Atomic             Coordinates (Angstroms)
 Number     Number       Type             X           Y           Z
 ---------------------------------------------------------------------
      1         17           0        0.192620    0.058490    0.019753
      2          8           0        0.097270    1.524124   -0.005896
      3          8           0        0.615862   -0.563186   -1.232154
      4          8           0        0.829096   -0.465350    1.237774
      5          8           0       -1.436942   -0.496828    0.103191
      6          1           0       -1.741154   -0.183375    0.982291
 ---------------------------------------------------------------------
                    Distance matrix (angstroms):
                    1          2          3          4          5
     1  Cl   0.000000
     2  O    1.468956   0.000000
     3  O    1.460440   2.475785   0.000000
     4  O    1.470743   2.457701   2.481045   0.000000
     5  O    1.723605   2.539675   2.449806   2.534403   0.000000
     6  H    2.173582   2.696639   3.256308   2.598262   0.981639
                    6
     6  H    0.000000
 Stoichiometry    ClHO4
 Framework group  C1[X(ClHO4)]
 Deg. of freedom    12
 Full point group                 C1      NOp   1
 Largest Abelian subgroup         C1      NOp   1
 Largest concise Abelian subgroup C1      NOp   1
                         Standard orientation:                         
 ---------------------------------------------------------------------
 Center     Atomic      Atomic             Coordinates (Angstroms)
 Number     Number       Type             X           Y           Z
 ---------------------------------------------------------------------
      1         17           0        0.152830   -0.000222   -0.005919
      2          8           0        0.521920   -0.629082    1.269283
      3          8           0        0.566992    1.391722   -0.160343
      4          8           0        0.381215   -0.865641   -1.172956
      5          8           0       -1.558179    0.194475    0.067247
      6          1           0       -1.893696   -0.728014    0.074765
 ---------------------------------------------------------------------
 Rotational constants (GHZ):           5.1405896           4.8739109           4.7910483
 Standard basis: Aug-CC-pVDZ (5D, 7F)
 There are   138 symmetry adapted cartesian basis functions of A   symmetry.
 There are   128 symmetry adapted basis functions of A   symmetry.
   128 basis functions,   264 primitive gaussians,   138 cartesian basis functions
    25 alpha electrons       25 beta electrons
       nuclear repulsion energy       283.5421120293 Hartrees.
 NAtoms=    6 NActive=    6 NUniq=    6 SFac= 1.00D+00 NAtFMM=   60 NAOKFM=F Big=F
 Integral buffers will be    131072 words long.
 Raffenetti 1 integral format.
 Two-electron integral symmetry is turned on.
 One-electron integrals computed using PRISM.
 NBasis=   128 RedAO= T EigKep=  2.40D-04  NBF=   128
 NBsUse=   128 1.00D-06 EigRej= -1.00D+00 NBFU=   128
 Initial guess from the checkpoint file:  "hclo4_mp2_avdz_opt_anharm.chk"
 B after Tr=    -0.000000    0.000000    0.000000
         Rot=    0.999640   -0.025880    0.006929    0.001186 Ang=  -3.07 deg.
 Keep R1 ints in memory in canonical form, NReq=40178409.
 Requested convergence on RMS density matrix=1.00D-08 within 128 cycles.
 Requested convergence on MAX density matrix=1.00D-06.
 Requested convergence on             energy=1.00D-06.
 No special actions if energy rises.
 SCF Done:  E(RHF) =  -759.120272984     A.U. after   12 cycles
            NFock= 12  Conv=0.55D-08     -V/T= 2.0013
 ExpMin= 2.97D-02 ExpMax= 1.28D+05 ExpMxC= 1.24D+03 IAcc=3 IRadAn=         5 AccDes= 0.00D+00
 HarFok:  IExCor=  205 AccDes= 0.00D+00 IRadAn=         5 IDoV=-2 UseB2=F ITyADJ=14
 ICtDFT= 12500011 ScaDFX=  1.000000  1.000000  1.000000  1.000000
 Range of M.O.s used for correlation:    10   128
 NBasis=   128 NAE=    25 NBE=    25 NFC=     9 NFV=     0
 NROrb=    119 NOA=    16 NOB=    16 NVA=   103 NVB=   103

 **** Warning!!: The largest alpha MO coefficient is  0.26137746D+02

 Fully direct method using O(ONN) memory.
 JobTyp=1 Pass  1:  I=  10 to  25 NPSUse= 28 ParTrn=T ParDer=T DoDerP=T.
 Spin components of T(2) and E(2):
     alpha-alpha T2 =       0.4601970500D-01 E2=     -0.1429993388D+00
     alpha-beta  T2 =       0.2207113610D+00 E2=     -0.7215468999D+00
     beta-beta   T2 =       0.4601970500D-01 E2=     -0.1429993388D+00
 ANorm=    0.1145753364D+01
 E2 =    -0.1007545578D+01 EUMP2 =    -0.76012781856197D+03
          IDoAtm=111111
          Differentiating once with respect to electric field.
                with respect to dipole field.
          Differentiating once with respect to nuclear coordinates.
 Keep R1 ints in memory in canonical form, NReq=40183404.
          There are     1 degrees of freedom in the 1st order CPHF.  IDoFFX=0 NUNeed=     1.
 LinEq1:  Iter=  0 NonCon=     1 RMS=8.53D-03 Max=1.20D-01 NDo=     1
 AX will form     1 AO Fock derivatives at one time.
 LinEq1:  Iter=  1 NonCon=     1 RMS=2.38D-03 Max=2.64D-02 NDo=     1
 LinEq1:  Iter=  2 NonCon=     1 RMS=1.03D-03 Max=1.50D-02 NDo=     1
 LinEq1:  Iter=  3 NonCon=     1 RMS=1.76D-04 Max=1.50D-03 NDo=     1
 LinEq1:  Iter=  4 NonCon=     1 RMS=8.17D-05 Max=1.38D-03 NDo=     1
 LinEq1:  Iter=  5 NonCon=     1 RMS=2.55D-05 Max=2.30D-04 NDo=     1
 LinEq1:  Iter=  6 NonCon=     1 RMS=8.65D-06 Max=1.17D-04 NDo=     1
 LinEq1:  Iter=  7 NonCon=     1 RMS=2.76D-06 Max=3.21D-05 NDo=     1
 LinEq1:  Iter=  8 NonCon=     1 RMS=1.24D-06 Max=1.89D-05 NDo=     1
 LinEq1:  Iter=  9 NonCon=     1 RMS=4.03D-07 Max=3.39D-06 NDo=     1
 LinEq1:  Iter= 10 NonCon=     1 RMS=1.00D-07 Max=1.23D-06 NDo=     1
 LinEq1:  Iter= 11 NonCon=     1 RMS=2.42D-08 Max=2.15D-07 NDo=     1
 LinEq1:  Iter= 12 NonCon=     1 RMS=5.28D-09 Max=5.86D-08 NDo=     1
 LinEq1:  Iter= 13 NonCon=     1 RMS=1.32D-09 Max=1.34D-08 NDo=     1
 LinEq1:  Iter= 14 NonCon=     1 RMS=3.06D-10 Max=4.30D-09 NDo=     1
 LinEq1:  Iter= 15 NonCon=     1 RMS=1.30D-10 Max=1.56D-09 NDo=     1
 LinEq1:  Iter= 16 NonCon=     0 RMS=5.76D-11 Max=8.84D-10 NDo=     1
 Linear equations converged to 1.000D-10 1.000D-09 after    16 iterations.
 End of Minotr F.D. properties file   721 does not exist.
 End of Minotr F.D. properties file   722 does not exist.
 End of Minotr F.D. properties file   788 does not exist.
 Calling FoFJK, ICntrl=  10002127 FMM=F ISym2X=0 I1Cent= 0 IOpClX= 0 NMat=1 NMatS=1 NMatT=0.
 ***** Axes restored to original set *****
 -------------------------------------------------------------------
 Center     Atomic                   Forces (Hartrees/Bohr)
 Number     Number              X              Y              Z
 -------------------------------------------------------------------
      1       17           0.004278188    0.001882517    0.001181705
      2        8          -0.000494823   -0.000528427   -0.000784092
      3        8          -0.000651892    0.000471663    0.001174719
      4        8          -0.000372840   -0.000646166   -0.001062612
      5        8          -0.003626984   -0.001447460    0.000087236
      6        1           0.000868351    0.000267873   -0.000596956
 -------------------------------------------------------------------
 Cartesian Forces:  Max     0.004278188 RMS     0.001572950

 GradGradGradGradGradGradGradGradGradGradGradGradGradGradGradGradGradGrad
 Berny optimization.
 Using GEDIIS/GDIIS optimizer.
 FormGI is forming the generalized inverse of G from B-inverse, IUseBI=4.
 Internal  Forces:  Max     0.002963488 RMS     0.001146841
 Search for a local minimum.
 Step number   4 out of a maximum of   25
 All quantities printed in internal units (Hartrees-Bohrs-Radians)
 Mixed Optimization -- RFO/linear search
 Update second derivatives using D2CorX and points    1    2    3    4
 DE= -2.33D-04 DEPred=-1.88D-04 R= 1.24D+00
 TightC=F SS=  1.41D+00  RLast= 5.66D-02 DXNew= 8.4853D-01 1.6991D-01
 Trust test= 1.24D+00 RLast= 5.66D-02 DXMaxT set to 5.05D-01
 The second derivative matrix:
                          R1        R2        R3        R4        R5
           R1           0.96758
           R2           0.00988   0.98662
           R3          -0.00038   0.01280   0.97230
           R4          -0.05229  -0.00365  -0.05098   0.19683
           R5           0.00497   0.00693   0.00644  -0.00549   0.54532
           A1           0.00764   0.00928   0.00768  -0.02404   0.00599
           A2          -0.00133  -0.00790  -0.00516   0.00045  -0.00256
           A3           0.01142   0.00978   0.01490   0.01424   0.00613
           A4           0.00933   0.01000   0.00956  -0.01810   0.00639
           A5           0.01135   0.01047   0.01545   0.02996   0.00472
           A6           0.00751   0.00627   0.01018   0.00785   0.00438
           A7           0.01404   0.00991   0.01660   0.03487   0.00505
           D1           0.00487   0.00453   0.00692   0.02970   0.00082
           D2          -0.00137  -0.00045  -0.00155  -0.00739  -0.00009
           D3          -0.00859  -0.00621  -0.01087  -0.03814  -0.00200
                          A1        A2        A3        A4        A5
           A1           0.28608
           A2           0.03842   0.29824
           A3          -0.03976  -0.04525   0.31619
           A4           0.03674   0.03616  -0.03719   0.28716
           A5          -0.04763  -0.05296   0.04656  -0.04463   0.29473
           A6          -0.04073  -0.04168   0.06541  -0.03830   0.04433
           A7          -0.00392  -0.01968   0.01258  -0.00374   0.01570
           D1          -0.00401  -0.02317   0.00598  -0.00477   0.02538
           D2          -0.00049   0.00248  -0.00027  -0.00021  -0.00265
           D3           0.00274   0.02373  -0.00737   0.00357  -0.02440
                          A6        A7        D1        D2        D3
           A6           0.31549
           A7           0.01047   0.16589
           D1           0.00305   0.00783   0.02350
           D2          -0.00004  -0.00020  -0.00059   0.01124
           D3          -0.00451  -0.00710  -0.01091   0.00029   0.02091
 ITU=  1  1  1  0
 Use linear search instead of GDIIS.
     Eigenvalues ---    0.01051   0.13748   0.17643   0.18690   0.22054
     Eigenvalues ---    0.25097   0.27246   0.52754   0.54608   0.96458
     Eigenvalues ---    0.97010   1.00103
 RFO step:  Lambda=-9.10532190D-05 EMin= 1.05061177D-02
 Quartic linear search produced a step of  0.27345.
 Iteration  1 RMS(Cart)=  0.00981610 RMS(Int)=  0.00013121
 Iteration  2 RMS(Cart)=  0.00011220 RMS(Int)=  0.00000489
 Iteration  3 RMS(Cart)=  0.00000001 RMS(Int)=  0.00000489
 Variable       Old X    -DE/DX   Delta X   Delta X   Delta X     New X
                                 (Linear)    (Quad)   (Total)
    R1        2.77592  -0.00048   0.00113  -0.00001   0.00112   2.77704
    R2        2.75983  -0.00140   0.00043  -0.00144  -0.00101   2.75882
    R3        2.77930  -0.00081   0.00122  -0.00037   0.00085   2.78015
    R4        3.25714   0.00296   0.00956   0.01177   0.02133   3.27847
    R5        1.85503  -0.00072   0.00041  -0.00122  -0.00081   1.85422
    A1        2.01369  -0.00009   0.00186  -0.00302  -0.00117   2.01253
    A2        1.98004   0.00169  -0.00256   0.00886   0.00628   1.98633
    A3        1.83478  -0.00071  -0.00078  -0.00021  -0.00100   1.83379
    A4        2.01849  -0.00026   0.00147  -0.00369  -0.00222   2.01627
    A5        1.75010  -0.00089   0.00088  -0.00506  -0.00418   1.74592
    A6        1.82792  -0.00026  -0.00099   0.00202   0.00103   1.82895
    A7        1.80644  -0.00147  -0.00091  -0.01120  -0.01212   1.79432
    D1       -1.14935  -0.00061   0.00836   0.01167   0.02002  -1.12933
    D2        3.03925   0.00012   0.00623   0.01716   0.02340   3.06265
    D3        0.94191   0.00086   0.00462   0.02254   0.02716   0.96907
         Item               Value     Threshold  Converged?
 Maximum Force            0.002963     0.000450     NO 
 RMS     Force            0.001147     0.000300     NO 
 Maximum Displacement     0.020525     0.001800     NO 
 RMS     Displacement     0.009835     0.001200     NO 
 Predicted change in Energy=-5.414153D-05
 GradGradGradGradGradGradGradGradGradGradGradGradGradGradGradGradGradGrad

                          Input orientation:                          
 ---------------------------------------------------------------------
 Center     Atomic      Atomic             Coordinates (Angstroms)
 Number     Number       Type             X           Y           Z
 ---------------------------------------------------------------------
      1         17           0        0.195997    0.058731    0.022356
      2          8           0        0.093369    1.524438   -0.004797
      3          8           0        0.615956   -0.560834   -1.231080
      4          8           0        0.837309   -0.469311    1.236563
      5          8           0       -1.442105   -0.506635    0.105031
      6          1           0       -1.743773   -0.172513    0.976885
 ---------------------------------------------------------------------
                    Distance matrix (angstroms):
                    1          2          3          4          5
     1  Cl   0.000000
     2  O    1.469547   0.000000
     3  O    1.459907   2.474920   0.000000
     4  O    1.471193   2.463626   2.479241   0.000000
     5  O    1.734892   2.548529   2.454332   2.545090   0.000000
     6  H    2.174237   2.686714   3.254877   2.611035   0.981208
                    6
     6  H    0.000000
 Stoichiometry    ClHO4
 Framework group  C1[X(ClHO4)]
 Deg. of freedom    12
 Full point group                 C1      NOp   1
 Largest Abelian subgroup         C1      NOp   1
 Largest concise Abelian subgroup C1      NOp   1
                         Standard orientation:                         
 ---------------------------------------------------------------------
 Center     Atomic      Atomic             Coordinates (Angstroms)
 Number     Number       Type             X           Y           Z
 ---------------------------------------------------------------------
      1         17           0        0.155442    0.000809   -0.004403
      2          8           0        0.518002   -0.623025    1.275812
      3          8           0        0.541462    1.401453   -0.147623
      4          8           0        0.415710   -0.851358   -1.175077
      5          8           0       -1.570708    0.166801    0.047617
      6          1           0       -1.878245   -0.764721    0.069016
 ---------------------------------------------------------------------
 Rotational constants (GHZ):           5.1364588           4.8390819           4.7758834
 Standard basis: Aug-CC-pVDZ (5D, 7F)
 There are   138 symmetry adapted cartesian basis functions of A   symmetry.
 There are   128 symmetry adapted basis functions of A   symmetry.
   128 basis functions,   264 primitive gaussians,   138 cartesian basis functions
    25 alpha electrons       25 beta electrons
       nuclear repulsion energy       283.1064844427 Hartrees.
 NAtoms=    6 NActive=    6 NUniq=    6 SFac= 1.00D+00 NAtFMM=   60 NAOKFM=F Big=F
 Integral buffers will be    131072 words long.
 Raffenetti 1 integral format.
 Two-electron integral symmetry is turned on.
 One-electron integrals computed using PRISM.
 NBasis=   128 RedAO= T EigKep=  2.40D-04  NBF=   128
 NBsUse=   128 1.00D-06 EigRej= -1.00D+00 NBFU=   128
 Initial guess from the checkpoint file:  "hclo4_mp2_avdz_opt_anharm.chk"
 B after Tr=    -0.000000   -0.000000   -0.000000
         Rot=    0.999931   -0.002012    0.006289   -0.009695 Ang=  -1.34 deg.
 ExpMin= 2.97D-02 ExpMax= 1.28D+05 ExpMxC= 1.24D+03 IAcc=3 IRadAn=         5 AccDes= 0.00D+00
 Harris functional with IExCor=  205 and IRadAn=       5 diagonalized for initial guess.
 HarFok:  IExCor=  205 AccDes= 0.00D+00 IRadAn=         5 IDoV= 1 UseB2=F ITyADJ=14
 ICtDFT=  3500011 ScaDFX=  1.000000  1.000000  1.000000  1.000000
 FoFCou: FMM=F IPFlag=           0 FMFlag=      100000 FMFlg1=           0
         NFxFlg=           0 DoJE=T BraDBF=F KetDBF=T FulRan=T
         wScrn=  0.000000 ICntrl=       500 IOpCl=  0 I1Cent=   200000004 NGrid=           0
         NMat0=    1 NMatS0=      1 NMatT0=    0 NMatD0=    1 NMtDS0=    0 NMtDT0=    0
 Petite list used in FoFCou.
 Keep R1 ints in memory in canonical form, NReq=40178189.
 Requested convergence on RMS density matrix=1.00D-08 within 128 cycles.
 Requested convergence on MAX density matrix=1.00D-06.
 Requested convergence on             energy=1.00D-06.
 No special actions if energy rises.
 SCF Done:  E(RHF) =  -759.119114245     A.U. after   12 cycles
            NFock= 12  Conv=0.51D-08     -V/T= 2.0013
 ExpMin= 2.97D-02 ExpMax= 1.28D+05 ExpMxC= 1.24D+03 IAcc=3 IRadAn=         5 AccDes= 0.00D+00
 HarFok:  IExCor=  205 AccDes= 0.00D+00 IRadAn=         5 IDoV=-2 UseB2=F ITyADJ=14
 ICtDFT= 12500011 ScaDFX=  1.000000  1.000000  1.000000  1.000000
 Range of M.O.s used for correlation:    10   128
 NBasis=   128 NAE=    25 NBE=    25 NFC=     9 NFV=     0
 NROrb=    119 NOA=    16 NOB=    16 NVA=   103 NVB=   103

 **** Warning!!: The largest alpha MO coefficient is  0.27044263D+02

 Fully direct method using O(ONN) memory.
 JobTyp=1 Pass  1:  I=  10 to  25 NPSUse= 28 ParTrn=T ParDer=T DoDerP=T.
 Spin components of T(2) and E(2):
     alpha-alpha T2 =       0.4616327387D-01 E2=     -0.1431444244D+00
     alpha-beta  T2 =       0.2216253959D+00 E2=     -0.7224708676D+00
     beta-beta   T2 =       0.4616327387D-01 E2=     -0.1431444244D+00
 ANorm=    0.1146277429D+01
 E2 =    -0.1008759716D+01 EUMP2 =    -0.76012787396128D+03
          IDoAtm=111111
          Differentiating once with respect to electric field.
                with respect to dipole field.
          Differentiating once with respect to nuclear coordinates.
 Keep R1 ints in memory in canonical form, NReq=40183360.
          There are     1 degrees of freedom in the 1st order CPHF.  IDoFFX=0 NUNeed=     1.
 LinEq1:  Iter=  0 NonCon=     1 RMS=8.58D-03 Max=1.36D-01 NDo=     1
 AX will form     1 AO Fock derivatives at one time.
 LinEq1:  Iter=  1 NonCon=     1 RMS=2.39D-03 Max=2.70D-02 NDo=     1
 LinEq1:  Iter=  2 NonCon=     1 RMS=1.04D-03 Max=1.73D-02 NDo=     1
 LinEq1:  Iter=  3 NonCon=     1 RMS=1.77D-04 Max=1.55D-03 NDo=     1
 LinEq1:  Iter=  4 NonCon=     1 RMS=8.28D-05 Max=1.59D-03 NDo=     1
 LinEq1:  Iter=  5 NonCon=     1 RMS=2.64D-05 Max=2.55D-04 NDo=     1
 LinEq1:  Iter=  6 NonCon=     1 RMS=9.21D-06 Max=1.29D-04 NDo=     1
 LinEq1:  Iter=  7 NonCon=     1 RMS=2.93D-06 Max=3.25D-05 NDo=     1
 LinEq1:  Iter=  8 NonCon=     1 RMS=1.31D-06 Max=1.95D-05 NDo=     1
 LinEq1:  Iter=  9 NonCon=     1 RMS=4.19D-07 Max=4.11D-06 NDo=     1
 LinEq1:  Iter= 10 NonCon=     1 RMS=1.04D-07 Max=1.07D-06 NDo=     1
 LinEq1:  Iter= 11 NonCon=     1 RMS=2.47D-08 Max=2.22D-07 NDo=     1
 LinEq1:  Iter= 12 NonCon=     1 RMS=5.25D-09 Max=6.20D-08 NDo=     1
 LinEq1:  Iter= 13 NonCon=     1 RMS=1.33D-09 Max=1.43D-08 NDo=     1
 LinEq1:  Iter= 14 NonCon=     1 RMS=3.43D-10 Max=5.36D-09 NDo=     1
 LinEq1:  Iter= 15 NonCon=     1 RMS=1.70D-10 Max=2.10D-09 NDo=     1
 LinEq1:  Iter= 16 NonCon=     0 RMS=6.29D-11 Max=8.98D-10 NDo=     1
 Linear equations converged to 1.000D-10 1.000D-09 after    16 iterations.
 End of Minotr F.D. properties file   721 does not exist.
 End of Minotr F.D. properties file   722 does not exist.
 End of Minotr F.D. properties file   788 does not exist.
 Calling FoFJK, ICntrl=  10002127 FMM=F ISym2X=0 I1Cent= 0 IOpClX= 0 NMat=1 NMatS=1 NMatT=0.
 ***** Axes restored to original set *****
 -------------------------------------------------------------------
 Center     Atomic                   Forces (Hartrees/Bohr)
 Number     Number              X              Y              Z
 -------------------------------------------------------------------
      1       17           0.001525473    0.000229685    0.000224332
      2        8          -0.000336397   -0.001212413    0.000183016
      3        8          -0.000005864    0.000249428    0.000486596
      4        8          -0.001053008    0.000476572   -0.001352234
      5        8          -0.000013269    0.000213364    0.000649053
      6        1          -0.000116935    0.000043365   -0.000190764
 -------------------------------------------------------------------
 Cartesian Forces:  Max     0.001525473 RMS     0.000667881

 GradGradGradGradGradGradGradGradGradGradGradGradGradGradGradGradGradGrad
 Berny optimization.
 Using GEDIIS/GDIIS optimizer.
 FormGI is forming the generalized inverse of G from B-inverse, IUseBI=4.
 Internal  Forces:  Max     0.001746098 RMS     0.000683631
 Search for a local minimum.
 Step number   5 out of a maximum of   25
 All quantities printed in internal units (Hartrees-Bohrs-Radians)
 Mixed Optimization -- En-DIIS/RFO-DIIS
 Update second derivatives using D2CorX and points    1    2    3    4    5
 DE= -5.54D-05 DEPred=-5.41D-05 R= 1.02D+00
 TightC=F SS=  1.41D+00  RLast= 4.85D-02 DXNew= 8.4853D-01 1.4564D-01
 Trust test= 1.02D+00 RLast= 4.85D-02 DXMaxT set to 5.05D-01
 The second derivative matrix:
                          R1        R2        R3        R4        R5
           R1           0.97778
           R2           0.00228   0.97669
           R3           0.01377   0.00221   0.99139
           R4          -0.01898   0.00847  -0.00026   0.18907
           R5          -0.00143   0.00161  -0.00221  -0.00487   0.54273
           A1           0.01152   0.01386   0.01153  -0.01868   0.00901
           A2           0.00513   0.00481   0.00568  -0.03150   0.00353
           A3           0.01150   0.00041   0.01494   0.03171   0.00065
           A4           0.01243   0.01241   0.01233  -0.00857   0.00813
           A5           0.00051   0.00808   0.00021   0.01845   0.00503
           A6           0.00888  -0.00088   0.01234   0.01940   0.00003
           A7          -0.00320   0.00267  -0.00723   0.02525   0.00279
           D1          -0.01538   0.00261  -0.01683  -0.02197  -0.00012
           D2          -0.00004   0.00101   0.00022  -0.00890   0.00074
           D3           0.01081  -0.00241   0.01237   0.00350  -0.00008
                          A1        A2        A3        A4        A5
           A1           0.28378
           A2           0.03893   0.28018
           A3          -0.03734  -0.03919   0.31748
           A4           0.03508   0.03915  -0.03620   0.28574
           A5          -0.04778  -0.04915   0.04182  -0.04568   0.29886
           A6          -0.03864  -0.03961   0.06904  -0.03717   0.04060
           A7          -0.00084  -0.00853   0.00026  -0.00284   0.02037
           D1           0.00544  -0.02648  -0.01158   0.00358   0.03378
           D2          -0.00105   0.00056   0.00165  -0.00047  -0.00234
           D3          -0.00607   0.02344   0.01015  -0.00383  -0.03118
                          A6        A7        D1        D2        D3
           A6           0.32083
           A7          -0.00001   0.16913
           D1          -0.01630   0.01952   0.02516
           D2           0.00162   0.00065  -0.00108   0.01111
           D3           0.01404  -0.01587  -0.01325   0.00046   0.02327
 ITU=  1  1  1  1  0
 Use linear search instead of GDIIS.
     Eigenvalues ---    0.00897   0.14508   0.17654   0.19252   0.21630
     Eigenvalues ---    0.25172   0.28804   0.52030   0.54393   0.96952
     Eigenvalues ---    0.97680   1.00110
 RFO step:  Lambda=-1.44689915D-05 EMin= 8.96714096D-03
 Quartic linear search produced a step of  0.00350.
 Iteration  1 RMS(Cart)=  0.00450268 RMS(Int)=  0.00002265
 Iteration  2 RMS(Cart)=  0.00001815 RMS(Int)=  0.00000170
 Iteration  3 RMS(Cart)=  0.00000000 RMS(Int)=  0.00000170
 Variable       Old X    -DE/DX   Delta X   Delta X   Delta X     New X
                                 (Linear)    (Quad)   (Total)
    R1        2.77704  -0.00119   0.00000  -0.00104  -0.00104   2.77601
    R2        2.75882  -0.00053  -0.00000  -0.00061  -0.00061   2.75821
    R3        2.78015  -0.00175   0.00000  -0.00163  -0.00162   2.77853
    R4        3.27847   0.00006   0.00007   0.00250   0.00257   3.28105
    R5        1.85422  -0.00012  -0.00000  -0.00025  -0.00026   1.85396
    A1        2.01253   0.00035  -0.00000   0.00101   0.00100   2.01353
    A2        1.98633   0.00031   0.00002   0.00077   0.00079   1.98711
    A3        1.83379  -0.00095  -0.00000  -0.00297  -0.00297   1.83081
    A4        2.01627   0.00017  -0.00001   0.00008   0.00008   2.01634
    A5        1.74592   0.00060  -0.00001   0.00252   0.00251   1.74843
    A6        1.82895  -0.00076   0.00000  -0.00206  -0.00206   1.82689
    A7        1.79432   0.00022  -0.00004   0.00018   0.00014   1.79446
    D1       -1.12933   0.00034   0.00007   0.01154   0.01161  -1.11772
    D2        3.06265   0.00005   0.00008   0.01046   0.01055   3.07319
    D3        0.96907  -0.00011   0.00009   0.01008   0.01018   0.97925
         Item               Value     Threshold  Converged?
 Maximum Force            0.001746     0.000450     NO 
 RMS     Force            0.000684     0.000300     NO 
 Maximum Displacement     0.010842     0.001800     NO 
 RMS     Displacement     0.004499     0.001200     NO 
 Predicted change in Energy=-7.231564D-06
 GradGradGradGradGradGradGradGradGradGradGradGradGradGradGradGradGradGrad

                          Input orientation:                          
 ---------------------------------------------------------------------
 Center     Atomic      Atomic             Coordinates (Angstroms)
 Number     Number       Type             X           Y           Z
 ---------------------------------------------------------------------
      1         17           0        0.197300    0.057700    0.021803
      2          8           0        0.089569    1.522529   -0.003243
      3          8           0        0.618412   -0.559844   -1.231866
      4          8           0        0.838123   -0.470712    1.235066
      5          8           0       -1.441615   -0.509021    0.107633
      6          1           0       -1.745036   -0.166776    0.975566
 ---------------------------------------------------------------------
                    Distance matrix (angstroms):
                    1          2          3          4          5
     1  Cl   0.000000
     2  O    1.468999   0.000000
     3  O    1.459583   2.474968   0.000000
     4  O    1.470333   2.463078   2.478300   0.000000
     5  O    1.736255   2.546373   2.457754   2.543576   0.000000
     6  H    2.175482   2.679103   3.257782   2.613892   0.981073
                    6
     6  H    0.000000
 Stoichiometry    ClHO4
 Framework group  C1[X(ClHO4)]
 Deg. of freedom    12
 Full point group                 C1      NOp   1
 Largest Abelian subgroup         C1      NOp   1
 Largest concise Abelian subgroup C1      NOp   1
                         Standard orientation:                         
 ---------------------------------------------------------------------
 Center     Atomic      Atomic             Coordinates (Angstroms)
 Number     Number       Type             X           Y           Z
 ---------------------------------------------------------------------
      1         17           0        0.156384   -0.001318   -0.003560
      2          8           0        0.494669   -0.654710    1.267896
      3          8           0        0.569857    1.393697   -0.119131
      4          8           0        0.408063   -0.836920   -1.186906
      5          8           0       -1.568492    0.192470    0.039211
      6          1           0       -1.891293   -0.733889    0.051955
 ---------------------------------------------------------------------
 Rotational constants (GHZ):           5.1352707           4.8416161           4.7766376
 Standard basis: Aug-CC-pVDZ (5D, 7F)
 There are   138 symmetry adapted cartesian basis functions of A   symmetry.
 There are   128 symmetry adapted basis functions of A   symmetry.
   128 basis functions,   264 primitive gaussians,   138 cartesian basis functions
    25 alpha electrons       25 beta electrons
       nuclear repulsion energy       283.1394378086 Hartrees.
[...]
 815,-0.00222277,0.00466865,-0.00284667,0.00636467,0.00005402,0.0003062
 7,0.00005152,-0.00016882,-0.00074731,-0.00089372,-0.00262857,0.0034438
 0,-0.00507075,0.00082419,0.00183841,0.00165168,-0.00096529,-0.00184163
 ,-0.00003865,-0.00065353,-0.00032250,0.00117809,-0.00174421,0.00012941
 ,-0.00197358,0.00311693,-0.00031179,0.00130682,0.00451115,0.00002710,-
 0.00182656,-0.00033056,-0.00238016,0.00122762,0.00017686,-0.00065877,0
 .00016030,0.00027112,0.01532679,0.01157908,-0.00184995,0.00308591,0.00
 489510,-0.00006611,0.00024307,0.00047759,-0.00211596,-0.00111000,0.001
 54031,-0.00017879,0.00036814,-0.00071312,0.06434960,-0.09677767,-0.133
 39413,-0.00002430,-0.00190784,-0.00219090,-0.00045020,-0.00058479,0.00
 012069,0.00049776,0.00052670,-0.00031055,-0.00076837,-0.00014330,0.000
 04830,-0.00057809,-0.01200317,-0.06013879,0.00132319,0.00018268,-0.000
 07927,-0.00254599,-0.00058786,0.00021758,0.00003139,0.00160842,-0.0007
 9704,-0.00013016,-0.00018518,0.00015286,-0.00042720,-0.01513048,-0.012
 44726,0.09419057,0.01411241,0.01295314,0.00116331,-0.00115728,-0.00123
 324,0.00015476,-0.00014016,-0.00012395,0.00141073,0.00055037,-0.001337
 84,-0.00003291,-0.00028344,0.00026142,-0.06516714,0.09214912,0.1271942
 5,0.06247125,-0.09111861,-0.12476063,0.02041741,0.01356994,-0.02034954
 ,-0.00707002,0.00004543,-0.02110118,-0.00004815,-0.00158735,0.00020327
 ,0.00109060,-0.00265988,0.01474843,0.00025251,0.00342378,-0.00840884,0
 .00036524,0.00023078,0.00033464,-0.00055433,-0.00007896,-0.00012141,0.
 00049549,-0.00120128,-0.00173963,-0.00030896,0.00042797,0.00016969,0.0
 0108466,-0.00102066,0.00250451,0.00328081,0.00010764,-0.00145512,-0.00
 004769,0.00025669,-0.00130994,-0.00134746,0.00340105,0.00740486,0.0002
 2612,-0.00108668,-0.00016945,-0.00026499,-0.00236779,-0.00370314,0.001
 79216,-0.00259673,0.00548807,-0.00046959,0.00079016,0.00010024,-0.0002
 7897,-0.00008405,-0.00067648,0.00166335,-0.00192253,0.00250737,-0.0044
 3771,0.00008170,-0.00092791,0.00005472,0.00000498,0.00002895,0.0006126
 7,0.00159768,-0.00218525,0.00463203,-0.00467533,0.01072341,0.00013819,
 0.00109144,-0.00054934,0.00012774,-0.00017337,-0.00166068,-0.00224548,
 0.00363368,-0.00694220,-0.02174587,-0.00795335,0.00261288,-0.00011940,
 -0.00209976,-0.00012390,-0.00131823,0.00057459,0.00196282,-0.00264291,
 0.00027065,-0.00277977,0.02604896,-0.00777673,0.00038362,0.00117389,-0
 .00196631,-0.00387998,-0.00020783,0.00016374,0.00012627,-0.00041952,0.
 00040650,0.00064937,0.00004703,0.00926956,0.00302411,0.00289700,0.0012
 3067,0.00289265,0.00009271,-0.00011447,0.00050894,0.00134993,-0.000662
 05,-0.00165772,-0.00254710,0.00011106,-0.00148667,-0.00125265,-0.00146
 961,-0.00117464,-0.00091178,-0.00023129,0.00050545,-0.00014452,0.00011
 774,0.00004305,0.00032602,0.00016580,0.00009999,-0.00006405,-0.0000324
 8,0.00012727,-0.00022256,-0.00009675,-0.00053990,0.00101690,-0.0001901
 9,0.00020514,-0.00031481,-0.00005945,-0.00007660,0.00004897,0.00034790
 ,0.00010534,-0.00013972,-0.00011356,-0.00007253,0.00007656,-0.00006168
 ,-0.00030343,0.00090439,0.00007698,0.00014208,0.00052324,-0.00023249,-
 0.00025472,-0.00010596,-0.00006385,-0.00000340,0.00035725,-0.00002991,
 -0.00021387,-0.00011926,0.00002559,-0.00008451,-0.00041939,0.00087605,
 0.00091742,-0.00023588,-0.00057539,-0.00036092,-0.00696695,0.00791421,
 -0.03234420,-0.00848372,0.00857609,-0.02143111,0.00015598,-0.00192816,
 0.00066440,0.00002216,-0.00238097,0.02567982,-0.00180964,-0.00009689,-
 0.01819777,0.00010537,0.00028717,-0.00023648,0.00148514,-0.00233745,0.
 00262572,0.00151262,-0.00013353,-0.00021326,-0.00024560,0.00037748,-0.
 00034666,0.00144001,-0.00039808,0.00151526,0.00016352,0.00014223,-0.00
 149478,0.00062237,0.00015209,0.00005592,-0.00054144,-0.00000354,0.0020
 3889,-0.00015118,-0.00097939,0.00013771,-0.00050666,-0.00047315,-0.000
 21091,0.00497375,-0.00444646,0.00939106,-0.00001117,0.00279321,-0.0014
 5211,-0.00012390,-0.00020236,-0.00107646,-0.00449376,-0.00400468,0.003
 82059,-0.00700625,0.00148986,-0.00544720,0.00148532,-0.00000520,-0.000
 31730,0.00119815,0.00181507,0.00226885,0.00988960,-0.00910946,0.016868
 14,-0.00201079,0.00498716,-0.00185876,-0.00009318,-0.00014032,-0.00115
 127,-0.00713963,0.00449879,-0.01340752,-0.00053196,-0.00146157,-0.0009
 4266,0.00019083,-0.00069338,0.00012719,-0.00255384,0.00035434,0.002304
 17,-0.00019588,0.00069016,-0.00069675,0.00862192,-0.00173131,0.0013750
 2,0.00062753,0.00050132,-0.00051746,-0.00010596,-0.00056232,0.00014640
 ,0.00028937,0.00006614,-0.00030272,-0.00034967,0.00895296,-0.00182017,
 -0.00139345,0.00039836,0.00322963,0.00005237,0.00003416,-0.00067989,0.
 00086971,-0.00027505,-0.00085014,0.00032346,-0.00013891,-0.00050139,0.
 01089743,-0.01322307,-0.02554681,0.00085578,0.00005535,-0.00041573,-0.
 00011220,0.00000055,0.00008106,-0.00002926,-0.00004822,-0.00002843,-0.
 00014904,0.00001479,0.00005074,-0.00553108,-0.00722678,-0.01074953,0.0
 0496580,0.00060067,-0.00004682,-0.00055122,-0.00010835,-0.00002263,0.0
 0004855,0.00017148,0.00009451,-0.00003144,-0.00002560,-0.00002221,0.00
 011351,-0.00784252,0.00111891,0.01320452,0.00720432,-0.00112177,0.0004
 2372,-0.00014860,-0.00046937,-0.00003995,0.00010516,0.00001168,0.00029
 005,0.00010263,0.00003574,-0.00004632,-0.00003709,0.00005082,-0.011689
 39,0.01276182,0.02434861,0.01106189,-0.01278392,-0.02397747,-0.0086284
 5,0.00580545,-0.01681173,0.00882946,-0.01495433,-0.03977421,0.00085731
 ,-0.00012009,-0.00069606,-0.00008803,0.00007488,0.00799124,0.00265539,
 -0.00027246,-0.00480757,-0.00049323,0.00020922,0.00131532,-0.00042619,
 0.00144956,0.00142175,0.00260182,-0.00460061,-0.01014307,0.00007069,0.
 00134229,0.00055439,-0.00295438,-0.00485517,0.00578854,0.01497266,0.00
 098162,-0.00307673,-0.00120935,0.00293679,-0.00193904,-0.01046271,0.01
 482154,0.02940181,0.00112948,-0.00429109,-0.00253958,0.00917276,-0.011
 51251,-0.02067886,0.00247203,-0.00050659,0.00298502,-0.00013977,0.0000
 1547,0.00019721,0.00041470,0.00003863,-0.00077216,-0.00156506,-0.00119
 960,0.00076229,-0.00202528,-0.00045528,0.00030511,-0.00084862,0.000329
 85,-0.00022696,0.00031980,0.00093548,-0.00063818,0.00192265,0.00009089
 ,0.00684314,0.00008465,0.00020086,0.00002209,0.00094504,-0.00234990,-0
 .00569588,-0.00240120,0.00241446,-0.00123834,0.00246584,-0.00031357,-0
 .00049990,-0.00067686,-0.00115043,0.00016844,-0.00021112,0.00083914,0.
 00090765,-0.00117288,0.00037280,-0.00059655,-0.00071142,0.00011163,0.0
 0227589,-0.00034504,-0.00015377,-0.00049914,0.00033595,-0.00015292,-0.
 00052190,0.00073350,-0.00048769,-0.00017429,-0.00033977,0.00016748,-0.
 00086154,0.00019634,-0.00012844,0.00214286,-0.00012214,-0.00005960,-0.
 00018888,-0.00065355,0.00012182,-0.00034169,-0.00007724,0.00012630,-0.
 00000438,0.00061567,-0.00121779,-0.00243833,0.00023081,-0.00026470,-0.
 00047538,-0.00002335,-0.00000973,-0.00000061,0.00007832,0.00005899,0.0
 0002497,-0.00000901,0.00001675,0.00004540,0.00030642,0.00051529,0.0000
 4092,-0.00058318,0.00006271,-0.00000657,-0.00030343,0.00001998,0.00008
 708,0.00006324,0.00014461,-0.00002391,-0.00007123,0.00000470,-0.000027
 95,-0.00001652,0.00008459,-0.00021905,0.00115772,-0.00031659,0.0001903
 9,0.00000755,-0.00003891,0.00007072,0.00003026,0.00004488,-0.00003071,
 0.00012442,-0.00002272,-0.00014580,0.00006838,0.00001335,0.00007338,-0
 .00059531,0.00083317,0.00083040,0.00036470,-0.00082978,-0.00079799,0.0
 5036403,0.02816353,-0.02524341,-0.00782835,-0.00311216,-0.03441504,-0.
 00079391,-0.00163958,-0.00012086,0.00288862,-0.00066489,0.02028099,-0.
 00020124,0.00099837,-0.01648468,-0.00020020,-0.00009253,0.00014572,-0.
 00019198,0.00026391,0.00092178,0.00193105,-0.00215006,-0.00469337,-0.0
 0091451,0.00011003,0.00023708,0.00086343,-0.00305230,0.00340696,0.0073
 0936,0.00029608,-0.00214506,-0.00057117,0.00312451,-0.00175119,-0.0060
 6481,0.00674093,0.01507084,0.00066900,-0.00218883,-0.00055712,0.005061
 06,-0.00622387,-0.01256796,0.00387620,-0.00352738,0.00739565,-0.001105
 94,0.00062131,-0.00006879,-0.00080602,-0.00048331,-0.00054093,-0.00145
 740,-0.00404422,0.00223964,-0.00567264,0.00032827,-0.00183447,0.000512
 81,-0.00025770,0.00018733,0.00070174,0.00365665,-0.00092136,0.00817423
 ,-0.00549670,0.01350440,-0.00053117,0.00217874,-0.00041930,0.00003676,
 -0.00089825,-0.00297487,-0.00715665,0.00471142,-0.01031918,-0.05210597
 ,-0.01953343,0.00463225,0.00007079,-0.00129931,0.00013072,-0.00189820,
 0.00018729,0.00155756,-0.00057713,0.00031969,-0.00084450,0.05287835,-0
 .01919730,-0.00092055,0.00224669,-0.00002064,-0.00020588,-0.00021007,-
 0.00128468,0.00047320,0.00143319,-0.00022077,0.00052287,-0.00074819,0.
 02013956,-0.00053578,0.00517735,0.00240565,0.00585025,0.00032255,-0.00
 035875,-0.00003809,-0.00078397,0.00051555,0.00139341,0.00017604,-0.000
 14444,-0.00010896,-0.00380522,-0.00596480,-0.01191572,-0.00327235,-0.0
 0131319,0.00061474,-0.00014504,0.00023450,0.00009316,0.00082426,-0.000
 07227,-0.00068188,0.00007032,-0.00000268,0.00032133,0.00163214,0.00058
 383,-0.00108676,0.00089068,-0.00120494,0.00023580,-0.00056996,0.000037
 51,0.00038909,0.00009705,0.00045791,-0.00017123,-0.00046317,-0.0000464
 9,-0.00019401,0.00025297,0.00018620,0.00066612,0.00354681,0.00056981,-
 0.00092577,0.00074184,-0.00044514,-0.00015669,-0.00014754,0.00030618,-
 0.00005300,0.00014243,-0.00013163,-0.00036430,0.00019467,-0.00010889,0
 .00031793,-0.00167082,0.00324318,0.00481909,0.00073942,-0.00286369,-0.
 00456303,-0.01250165,-0.05444536,0.14402621,0.02818447,-0.00997261,0.1
 3687903,0.01009319,0.02280150,-0.00063932,-0.01157577,0.02714484,-0.12
 212348,0.00293827,-0.02514526,0.12717009,-0.00053770,0.00129258,0.0120
 2997,0.00075089,-0.00177553,-0.01170560,0.00725195,0.00971002,0.015911
 10,0.00091360,0.00048723,0.00065215,-0.00770934,0.00761418,-0.01325832
 ,-0.03858315,0.00099385,-0.00137028,-0.00377685,-0.00981875,0.01381928
 ,0.01259861,-0.03991635,-0.06545567,-0.00047552,0.00080673,-0.00012811
 ,-0.01578515,0.04072342,0.06897906,-0.00420991,0.02264880,-0.04398217,
 0.00105044,0.00016547,-0.00094934,0.00126679,0.00007541,0.00079173,0.0
 0424168,0.02001707,-0.01048263,0.04562443,0.00198116,-0.00115587,0.004
 13592,-0.00022626,0.00059741,-0.00221723,-0.02257277,0.01082426,-0.041
 34123,0.04835845,-0.08512674,0.00027297,-0.00183242,-0.00014933,-0.001
 56642,0.00183929,-0.00243139,0.04507129,-0.04780139,0.08860685,0.00013
 975,-0.00026911,0.00042516,-0.00038445,-0.00298076,0.00011151,-0.00150
 704,0.00106344,0.00264791,-0.00240082,0.00096410,-0.00268593,0.0050844
 5,-0.00064454,0.00134129,0.00023154,-0.00057330,-0.00218742,0.00014996
 ,0.00002854,0.00018496,0.00035802,-0.00022768,0.00018265,-0.00038423,0
 .00206774,-0.00037097,-0.00019165,-0.00006199,0.00149866,0.00003458,0.
 00044058,0.00000511,0.00101664,-0.00028171,-0.00119106,-0.00061474,0.0
 0008402,-0.00033446,0.00061513,-0.00312139,-0.00462471,-0.00077423,-0.
 00044600,0.00010085,-0.00009702,0.00032850,-0.00002751,-0.00021595,0.0
 0007187,0.00022241,0.00005183,-0.00016330,0.00024932,-0.00093192,-0.00
 065076,-0.00085995,0.00196729,0.00031366,0.00049646,-0.00023859,-0.000
 05795,-0.00033305,-0.00002608,-0.00018077,0.00002696,0.00024541,-0.000
 08923,0.00003419,-0.00017970,-0.00084541,0.00084946,0.00294051,0.00085
 970,-0.00107401,0.00128758,0.00029983,0.00017418,0.00005640,-0.0005776
 4,-0.00005206,-0.00022832,0.00007900,0.00022718,-0.00031676,0.00017424
 ,-0.00056493,-0.00111378,0.00276612,0.00464644,0.00031488,-0.00274154,
 -0.00443082,-0.01723213,-0.02783532,-0.00329567,-0.04285457,0.03415205
 ,0.06942543,0.00480305,-0.00027973,-0.00098793,-0.00051369,0.00221185,
 -0.01236089,0.00438134,-0.00070470,0.01139599,0.00091941,0.00370585,0.
 00251352,-0.00094703,-0.00409948,-0.00153962,0.00971595,0.02003106,0.0
 3597886,-0.00062259,-0.00068031,-0.00054156,-0.00084235,0.01550049,-0.
 00618752,-0.04441031,0.00092363,0.00006433,-0.00041536,-0.01602543,0.0
 0668648,0.02869645,-0.04728090,-0.08019274,0.00073514,-0.00026146,-0.0
 0003863,-0.03540717,0.04621077,0.08236894,-0.00046303,0.00520150,-0.00
 731348,0.00002370,-0.00013808,0.00056369,-0.00021214,-0.00023019,0.001
 14956,0.00374653,0.00526272,-0.00050848,0.00449646,0.00022075,0.000545
 40,-0.00009346,-0.00051962,0.00002522,0.00051160,-0.00407728,0.0013259
 9,-0.00510233,0.00678559,-0.00400935,0.00030034,0.00003908,0.00026903,
 -0.00057595,-0.00054164,-0.00038396,0.00422994,-0.00560469,0.00416289,
 0.01973265,0.01662304,0.02446989,-0.00016256,-0.00034021,-0.00319940,-
 0.01186973,-0.00129486,0.00571753,0.00283010,-0.00183106,-0.00061688,0
 .10636284,-0.00925024,0.02297635,0.01794457,0.00385800,0.00298644,-0.0
 0092619,-0.00809730,-0.00084633,0.00301320,-0.00054799,-0.00145830,-0.
 00252041,0.17961005,-0.08887796,-0.01768093,0.00144236,0.02919601,0.00
 106543,-0.00096104,-0.00116884,-0.00530741,-0.00129282,0.00169060,0.00
 406589,0.00098583,0.00029163,0.26806996,-0.36939574,-0.70413911,-0.016
 55724,-0.01374075,-0.00929266,-0.00352791,-0.00034854,0.00320488,0.003
 83089,0.00112636,-0.00089151,-0.00592514,0.00094450,0.00176488,-0.1168
 9332,-0.16557250,-0.25021295,0.13907272,0.01411030,-0.00062399,-0.0165
 6422,-0.00401794,-0.00263127,0.00182864,0.00529159,0.00025786,-0.00219
 322,-0.00020795,0.00007017,0.00184207,-0.19276695,0.06521977,0.3692214
 1,0.17759094,-0.06229255,0.03602209,0.00119496,-0.01693316,-0.00016596
 ,0.00090155,-0.00003549,0.00585324,0.00044935,-0.00344419,-0.00269562,
 -0.00029574,-0.00033023,-0.29444110,0.35188457,0.67412968,0.25542735,-
 0.35413468,-0.65338661,-0.00676746,-0.05634745,0.26033197,0.11841324,-
 0.06748641,0.13867855,0.03755735,0.01250026,0.00442589,-0.03832339,0.0
 1825739,-0.27378546,-0.01825192,-0.01438769,0.27529639,0.00133769,-0.0
 1561912,0.03657542,-0.00170113,0.01567076,-0.03766600,-0.00218016,0.00
 094924,-0.00168006,0.00035901,-0.00334635,-0.00024620,0.00098899,-0.00
 125497,-0.00185224,0.00953510,-0.00003650,0.00213779,-0.00033552,0.001
 54434,-0.00157151,-0.00517503,0.00814987,0.00936744,-0.00087576,0.0013
 7861,0.00123750,0.00390873,-0.00879743,-0.01357087,-0.02719430,0.04444
 869,-0.12122515,-0.00091565,-0.00096223,0.00051866,-0.00034499,-0.0013
 3643,0.00114262,0.02757702,0.03988138,0.01340131,0.07700692,0.00119313
 ,-0.00146363,-0.00004464,0.00028048,0.00090825,-0.00098860,-0.04250234
 ,-0.01285895,-0.11625031,0.07511544,-0.18592087,-0.00166434,0.00218838
 ,-0.00001449,-0.00216831,-0.00034768,0.00320964,0.12080458,-0.07687549
 ,0.18459992,-0.00048681,-0.00117557,0.00043687,0.00128605,-0.00009625,
 0.00014860,0.00121274,0.00099957,0.00083713,0.00043889,0.00142634,-0.0
 0130827,-0.00284195,-0.00015557,0.00250566,-0.00099235,0.00070335,-0.0
 0241622,0.00033929,0.00058931,0.00027222,0.00007941,0.00050547,-0.0001
 4583,0.00024606,-0.00149047,-0.00039320,0.00210187,-0.00040203,0.00121
 169,-0.00026097,-0.00025785,-0.00016186,0.00022896,-0.00016195,-0.0004
 5582,-0.00109301,0.00075487,-0.00157658,-0.00020135,-0.00076863,-0.000
 32973,-0.00092913,-0.00037533,-0.00037071,0.00003664,0.00053513,-0.000
 05761,-0.00003557,0.00008399,0.00016232,0.00043903,-0.00027900,0.00058
 665,0.00039106,-0.00015207,-0.00077550,0.00009797,-0.00038092,-0.00060
 124,0.00018877,0.00002745,0.00023111,-0.00001077,-0.00001703,0.0001055
 0,0.00017814,-0.00015316,0.00015885,-0.00032671,0.00033638,0.00017734,
 0.00083560,0.00018727,-0.00007156,-0.00042737,0.00024235,0.00008787,0.
 00007631,-0.00072798,0.00002942,-0.00004312,0.00010747,0.00021212,-0.0
 0014768,0.00014695,-0.00029761,0.00008702,0.00109623,0.00131229,0.0004
 5485,-0.00086502,-0.00134408,-0.00718699,-0.06984190,0.07384625,-0.074
 54546,0.07704104,0.22723994,0.00873128,0.00043607,-0.00398727,-0.00881
 793,0.00710698,-0.05804324,0.01943301,-0.00266860,0.05715624,-0.001857
 08,0.01832797,0.00616052,0.00143307,-0.01799233,-0.00756284,0.01252794
 ,0.04846999,0.10009693,-0.00086245,-0.00055619,-0.00053061,-0.01158760
 ,0.04497391,-0.01293731,-0.12427853,0.00128123,-0.00044069,0.00004941,
 -0.04718752,0.01364267,0.09449037,-0.12650584,-0.22023329,0.00238689,-
 0.00091853,0.00058141,-0.09844175,0.12630428,0.22282122,-0.01057054,0.
 02041119,-0.02947427,0.00022556,-0.00180993,0.00111594,-0.00062947,0.0
 0037329,0.00149641,0.01148474,0.01839634,-0.01209461,0.02464746,0.0003
 0159,0.00239134,-0.00027308,-0.00075854,0.00096747,0.00191655,-0.01921
 255,0.00910039,-0.02405246,0.02871639,-0.02088159,0.00020229,-0.001241
 74,0.00154113,-0.00034899,-0.00095675,-0.00104865,0.02645708,-0.026047
 53,0.02056560,0.00518836,0.00697374,0.01230714,0.00150083,-0.00196766,
 -0.00125827,-0.00181837,-0.00028409,0.00005373,0.00104682,0.00069234,-
 0.00289897,0.02299825,-0.00376730,0.01000368,0.00791836,0.00173661,-0.
 00051826,-0.00089687,-0.00097561,-0.00156538,-0.00032732,0.00025275,-0
 .00044828,-0.00096991,0.04133532,-0.02818032,-0.00519518,0.00103732,0.
 01164513,0.00002957,0.00039583,-0.00071448,-0.00101932,-0.00074874,-0.
 00159845,0.00114716,-0.00020300,-0.00032504,0.06196536,-0.09586824,-0.
 18088947,-0.00869047,-0.00644918,-0.00439702,-0.00077727,-0.00010459,0
 .00109695,0.00236997,0.00084318,0.00001434,-0.00155708,0.00058082,0.00
 064103,-0.02891592,-0.03858176,-0.05692759,0.03757077,0.00313188,-0.00
 077487,-0.00476130,-0.00108689,-0.00054537,0.00078490,0.00100788,0.000
 33325,-0.00046914,-0.00001475,0.00008371,0.00049954,-0.04674964,0.0207
 0853,0.09538684,0.04371153,-0.01980525,0.01115985,0.00138316,-0.003930
 77,-0.00006456,0.00032375,-0.00000575,0.00024374,-0.00036968,-0.000522
 23,-0.00074233,-0.00004039,0.00014857,-0.07016900,0.09014400,0.1718823
 0,0.05957230,-0.09144084,-0.16757212,-0.02459065,-0.00615224,-0.003956
 69,0.00594531,-0.00306477,-0.00843431,0.00228394,0.00164465,-0.0009923
 2,-0.00071312,0.00330579,0.00094869,-0.00002331,-0.00220298,-0.0013100
 5,-0.00026987,0.00062480,0.00105704,0.00051790,0.00008018,0.00045905,0
 .00456544,0.00330340,0.00324786,-0.00033809,-0.00078258,-0.00013940,-0
 .00343879,-0.00041589,0.00085465,-0.00039694,-0.00014092,-0.00031703,-
 0.00014671,-0.00121176,0.00019730,-0.00271410,-0.00275626,-0.00138950,
 0.00019781,0.00036852,-0.00038886,0.00000557,0.00156601,0.00220083,0.0
 0396254,0.00036134,-0.00046453,-0.00054243,-0.00018473,-0.00021968,-0.
 00075110,0.00014391,0.00022582,-0.00277402,0.00030917,0.00004387,0.000
 94735,-0.00016062,-0.00050253,0.00010836,0.00000853,-0.00025636,-0.000
 19322,0.00011779,0.00096370,0.00138623,0.00131530,0.00026548,-0.000058
 40,-0.00032268,-0.00041309,-0.00062142,-0.00017919,-0.00001246,-0.0011
 4812,-0.00036334,0.00022818,0.02789322,0.00024382,-0.02085448,-0.00189
 328,0.00099433,0.00196329,0.00450933,0.00158618,-0.00137257,-0.0020910
 1,-0.00027415,0.00386992,-0.49733837,0.01556652,-0.00297086,-0.0056283
 7,-0.00221668,0.00203834,0.00081680,0.00092553,-0.00081788,0.00083307,
 0.00022796,0.00044853,-0.00113809,-0.96512630,-0.07785234,0.00410307,0
 .00405744,-0.00155624,0.00128158,-0.00103179,-0.00130524,-0.00239429,0
 .00043121,0.00049459,0.00014813,-0.00102536,0.00049561,-2.08522449,2.6
 1187271,4.27501034,-0.01411512,0.00059889,0.01311824,0.00120297,-0.001
 12982,-0.00185224,-0.00454678,0.00003849,0.00365748,0.00219601,-0.0000
 0073,-0.00342821,0.46892010,0.95062298,2.08208600,-0.45365718,-0.01261
 348,0.00508008,0.00816595,0.00307656,-0.00085745,-0.00148343,-0.002243
 13,0.00033933,0.00018187,-0.00066627,-0.00069722,0.00068801,0.96257612
 ,0.07915418,-2.61430421,-0.95012981,-0.08301892,-0.00845056,-0.0001765
 9,0.01005720,-0.00094657,0.00092907,0.00059107,-0.00009831,-0.00127439
 ,-0.00090459,0.00145838,0.00052622,-0.00056371,2.10161833,-2.60675611,
 -4.27313908,-2.09358126,2.60675180,4.26395912\\@


 ORIGINALITY CONSISTS NOT IN SAYING WHAT NO ONE HAS EVER SAID BEFORE, 
 BUT IN SAYING WHAT YOU THINK YOUR SELF.

                                    -- JAMES F. STEPHEN
 Job cpu time:       0 days 17 hours 25 minutes 55.6 seconds.
 Elapsed time:       0 days  0 hours 38 minutes 15.3 seconds.
 File lengths (MBytes):  RWF=   2240 Int=      0 D2E=      0 Chk=     48 Scr=      8
 Normal termination of Gaussian 16 at Thu Jun 24 15:24:47 2021.
