 Entering Gaussian System, Link 0=g16
 Input=hconmehc_mp2_avdz_opt_anharm.gjf
 Output=hconmehc_mp2_avdz_opt_anharm.log
 Initial command:
 /sw/contrib/chem-src/g16/c01/g16/l1.exe "/scr/Gau-17182.inp" -scrdir="/scr/"
 Entering Link 1 = /sw/contrib/chem-src/g16/c01/g16/l1.exe PID=     17184.
  
 Copyright (c) 1988-2019, Gaussian, Inc.  All Rights Reserved.
  
 This is part of the Gaussian(R) 16 program.  It is based on
 the Gaussian(R) 09 system (copyright 2009, Gaussian, Inc.),
 the Gaussian(R) 03 system (copyright 2003, Gaussian, Inc.),
 the Gaussian(R) 98 system (copyright 1998, Gaussian, Inc.),
 the Gaussian(R) 94 system (copyright 1995, Gaussian, Inc.),
 the Gaussian 92(TM) system (copyright 1992, Gaussian, Inc.),
 the Gaussian 90(TM) system (copyright 1990, Gaussian, Inc.),
 the Gaussian 88(TM) system (copyright 1988, Gaussian, Inc.),
 the Gaussian 86(TM) system (copyright 1986, Carnegie Mellon
 University), and the Gaussian 82(TM) system (copyright 1983,
 Carnegie Mellon University). Gaussian is a federally registered
 trademark of Gaussian, Inc.
  
 This software contains proprietary and confidential information,
 including trade secrets, belonging to Gaussian, Inc.
  
 This software is provided under written license and may be
 used, copied, transmitted, or stored only in accord with that
 written license.
  
 The following legend is applicable only to US Government
 contracts under FAR:
  
                    RESTRICTED RIGHTS LEGEND
  
 Use, reproduction and disclosure by the US Government is
 subject to restrictions as set forth in subparagraphs (a)
 and (c) of the Commercial Computer Software - Restricted
 Rights clause in FAR 52.227-19.
  
 Gaussian, Inc.
 340 Quinnipiac St., Bldg. 40, Wallingford CT 06492
  
  
 ---------------------------------------------------------------
 Warning -- This program may not be used in any manner that
 competes with the business of Gaussian, Inc. or will provide
 assistance to any competitor of Gaussian, Inc.  The licensee
 of this program is prohibited from giving any competitor of
 Gaussian, Inc. access to this program.  By using this program,
 the user acknowledges that Gaussian, Inc. is engaged in the
 business of creating and licensing software in the field of
 computational chemistry and represents and warrants to the
 licensee that it is not a competitor of Gaussian, Inc. and that
 it will not use this program in any manner prohibited above.
 ---------------------------------------------------------------
  

 Cite this work as:
 Gaussian 16, Revision C.01,
 M. J. Frisch, G. W. Trucks, H. B. Schlegel, G. E. Scuseria, 
 M. A. Robb, J. R. Cheeseman, G. Scalmani, V. Barone, 
 G. A. Petersson, H. Nakatsuji, X. Li, M. Caricato, A. V. Marenich, 
 J. Bloino, B. G. Janesko, R. Gomperts, B. Mennucci, H. P. Hratchian, 
 J. V. Ortiz, A. F. Izmaylov, J. L. Sonnenberg, D. Williams-Young, 
 F. Ding, F. Lipparini, F. Egidi, J. Goings, B. Peng, A. Petrone, 
 T. Henderson, D. Ranasinghe, V. G. Zakrzewski, J. Gao, N. Rega, 
 G. Zheng, W. Liang, M. Hada, M. Ehara, K. Toyota, R. Fukuda, 
 J. Hasegawa, M. Ishida, T. Nakajima, Y. Honda, O. Kitao, H. Nakai, 
 T. Vreven, K. Throssell, J. A. Montgomery, Jr., J. E. Peralta, 
 F. Ogliaro, M. J. Bearpark, J. J. Heyd, E. N. Brothers, K. N. Kudin, 
 V. N. Staroverov, T. A. Keith, R. Kobayashi, J. Normand, 
 K. Raghavachari, A. P. Rendell, J. C. Burant, S. S. Iyengar, 
 J. Tomasi, M. Cossi, J. M. Millam, M. Klene, C. Adamo, R. Cammi, 
 J. W. Ochterski, R. L. Martin, K. Morokuma, O. Farkas, 
 J. B. Foresman, and D. J. Fox, Gaussian, Inc., Wallingford CT, 2019.
 
 ******************************************
 Gaussian 16:  EM64L-G16RevC.01  3-Jul-2019
                30-Mar-2025 
 ******************************************
 %nprocshared=40
 Will use up to   40 processors via shared memory.
 %mem=50gb
 ----------------------------------------------
 # MP2/aug-cc-pVDZ opt freq=(vibrot,anharmonic)
 ----------------------------------------------
 1/18=20,19=15,38=1,80=1/1,3;
 2/9=110,12=2,17=6,18=5,40=1/2;
 3/5=16,7=10,11=9,25=1,30=1,71=1/1,2,3;
 4//1;
 5/5=2,38=5/2;
 8/6=4,10=1/1;
 9/15=2,16=-3/6;
 10/5=1/2;
 6/7=2,8=2,9=2,10=2/1;
 7/12=2/1,2,3,16;
 1/18=20,19=15,80=1/3(2);
 2/9=110/2;
 99//99;
 2/9=110/2;
 3/5=16,7=10,11=9,25=1,30=1,71=1/1,2,3;
 4/5=5,16=3,69=1/1;
 5/5=2,38=5/2;
 8/6=4,10=1/1;
 9/15=2,16=-3/6;
 10/5=1/2;
 7/12=2/1,2,3,16;
 1/18=20,19=15,80=1/3(-8);
 2/9=110/2;
 6/7=2,8=2,9=2,10=2/1;
 99/9=10/99;
 ----
 blah
 ----
 Symbolic Z-matrix:
 Charge =  0 Multiplicity = 1
 C                    -1.20616  -0.03836   0.00659 
 O                    -0.66746  -1.14052   0.00403 
 N                    -0.57557   1.14428   0.00813 
 H                    -2.29965   0.10255   0.00811 
 H                     0.40837   1.17749   0.00707 
 C                    -1.30164   2.39566   0.01128 
 H                    -1.94031   2.46642  -0.89499 
 H                    -0.58942   3.24828   0.01208 
 H                    -1.93837   2.46309   0.91919 
 

 GradGradGradGradGradGradGradGradGradGradGradGradGradGradGradGradGradGrad
 Berny optimization.
 Initialization pass.
                           ----------------------------
                           !    Initial Parameters    !
                           ! (Angstroms and Degrees)  !
 --------------------------                            --------------------------
 ! Name  Definition              Value          Derivative Info.                !
 --------------------------------------------------------------------------------
 ! R1    R(1,2)                  1.2268         estimate D2E/DX2                !
 ! R2    R(1,3)                  1.3403         estimate D2E/DX2                !
 ! R3    R(1,4)                  1.1025         estimate D2E/DX2                !
 ! R4    R(3,5)                  0.9845         estimate D2E/DX2                !
 ! R5    R(3,6)                  1.4468         estimate D2E/DX2                !
 ! R6    R(6,7)                  1.111          estimate D2E/DX2                !
 ! R7    R(6,8)                  1.111          estimate D2E/DX2                !
 ! R8    R(6,9)                  1.111          estimate D2E/DX2                !
 ! A1    A(2,1,3)              125.885          estimate D2E/DX2                !
 ! A2    A(2,1,4)              123.3912         estimate D2E/DX2                !
 ! A3    A(3,1,4)              110.7238         estimate D2E/DX2                !
 ! A4    A(1,3,5)              120.0            estimate D2E/DX2                !
 ! A5    A(1,3,6)              121.8102         estimate D2E/DX2                !
 ! A6    A(5,3,6)              118.1898         estimate D2E/DX2                !
 ! A7    A(3,6,7)              109.9882         estimate D2E/DX2                !
 ! A8    A(3,6,8)              110.004          estimate D2E/DX2                !
 ! A9    A(3,6,9)              109.9925         estimate D2E/DX2                !
 ! A10   A(7,6,8)              108.6782         estimate D2E/DX2                !
 ! A11   A(7,6,9)              109.4699         estimate D2E/DX2                !
 ! A12   A(8,6,9)              108.6781         estimate D2E/DX2                !
 ! D1    D(2,1,3,5)              0.0089         estimate D2E/DX2                !
 ! D2    D(2,1,3,6)           -179.9943         estimate D2E/DX2                !
 ! D3    D(4,1,3,5)            180.0            estimate D2E/DX2                !
 ! D4    D(4,1,3,6)             -0.0032         estimate D2E/DX2                !
 ! D5    D(1,3,6,7)            -60.3236         estimate D2E/DX2                !
 ! D6    D(1,3,6,8)           -179.9985         estimate D2E/DX2                !
 ! D7    D(1,3,6,9)             60.324          estimate D2E/DX2                !
 ! D8    D(5,3,6,7)            119.6733         estimate D2E/DX2                !
 ! D9    D(5,3,6,8)             -0.0016         estimate D2E/DX2                !
 ! D10   D(5,3,6,9)           -119.6791         estimate D2E/DX2                !
 --------------------------------------------------------------------------------
 Trust Radius=3.00D-01 FncErr=1.00D-07 GrdErr=1.00D-07 EigMax=2.50D+02 EigMin=1.00D-04
 Number of steps in this run=     40 maximum allowed number of steps=    100.
 GradGradGradGradGradGradGradGradGradGradGradGradGradGradGradGradGradGrad

                          Input orientation:                          
 ---------------------------------------------------------------------
 Center     Atomic      Atomic             Coordinates (Angstroms)
 Number     Number       Type             X           Y           Z
 ---------------------------------------------------------------------
      1          6           0       -1.206163   -0.038364    0.006591
      2          8           0       -0.667456   -1.140522    0.004026
      3          7           0       -0.575572    1.144275    0.008131
      4          1           0       -2.299653    0.102547    0.008106
      5          1           0        0.408367    1.177488    0.007073
      6          6           0       -1.301645    2.395659    0.011280
      7          1           0       -1.940312    2.466423   -0.894989
      8          1           0       -0.589424    3.248278    0.012083
      9          1           0       -1.938367    2.463086    0.919195
 ---------------------------------------------------------------------
                    Distance matrix (angstroms):
                    1          2          3          4          5
     1  C    0.000000
     2  O    1.226770   0.000000
     3  N    1.340255   2.286648   0.000000
     4  H    1.102533   2.051659   2.014362   0.000000
     5  H    2.021139   2.555499   0.984500   2.913567   0.000000
     6  C    2.435899   3.592607   1.446773   2.500878   2.099547
     7  H    2.761482   3.929179   2.103858   2.555899   2.826900
     8  H    3.344012   4.389501   2.104053   3.580576   2.298649
     9  H    2.761561   3.929215   2.103927   2.555925   2.826992
                    6          7          8          9
     6  C    0.000000
     7  H    1.110958   0.000000
     8  H    1.110954   1.805263   0.000000
     9  H    1.110977   1.814188   1.805277   0.000000
 Stoichiometry    C2H5NO
 Framework group  C1[X(C2H5NO)]
 Deg. of freedom    21
 Full point group                 C1      NOp   1
 Largest Abelian subgroup         C1      NOp   1
 Largest concise Abelian subgroup C1      NOp   1
                         Standard orientation:                         
 ---------------------------------------------------------------------
 Center     Atomic      Atomic             Coordinates (Angstroms)
 Number     Number       Type             X           Y           Z
 ---------------------------------------------------------------------
      1          6           0       -0.706664    0.331061   -0.000048
      2          8           0       -1.865191   -0.072399    0.000030
      3          7           0        0.392358   -0.436032   -0.000005
      4          1           0       -0.436385    1.399952   -0.000006
      5          1           0        0.308023   -1.416913   -0.000035
      6          6           0        1.721386    0.135666    0.000016
      7          1           0        1.866000    0.760544   -0.907090
      8          1           0        2.483010   -0.673128    0.000024
      9          1           0        1.866038    0.760605    0.907097
 ---------------------------------------------------------------------
 Rotational constants (GHZ):          43.7557295           4.4364747           4.1374478
 Standard basis: Aug-CC-pVDZ (5D, 7F)
 There are   145 symmetry adapted cartesian basis functions of A   symmetry.
 There are   137 symmetry adapted basis functions of A   symmetry.
   137 basis functions,   227 primitive gaussians,   145 cartesian basis functions
    16 alpha electrons       16 beta electrons
       nuclear repulsion energy       119.5047226880 Hartrees.
 NAtoms=    9 NActive=    9 NUniq=    9 SFac= 1.00D+00 NAtFMM=   60 NAOKFM=F Big=F
 Integral buffers will be    131072 words long.
 Raffenetti 1 integral format.
 Two-electron integral symmetry is turned on.
 One-electron integrals computed using PRISM.
 NBasis=   137 RedAO= T EigKep=  2.24D-04  NBF=   137
 NBsUse=   137 1.00D-06 EigRej= -1.00D+00 NBFU=   137
 ExpMin= 2.97D-02 ExpMax= 1.17D+04 ExpMxC= 4.01D+02 IAcc=3 IRadAn=         5 AccDes= 0.00D+00
 Harris functional with IExCor=  205 and IRadAn=       5 diagonalized for initial guess.
 HarFok:  IExCor=  205 AccDes= 0.00D+00 IRadAn=         5 IDoV= 1 UseB2=F ITyADJ=14
 ICtDFT=  3500011 ScaDFX=  1.000000  1.000000  1.000000  1.000000
 FoFCou: FMM=F IPFlag=           0 FMFlag=      100000 FMFlg1=           0
         NFxFlg=           0 DoJE=T BraDBF=F KetDBF=T FulRan=T
         wScrn=  0.000000 ICntrl=       500 IOpCl=  0 I1Cent=   200000004 NGrid=           0
         NMat0=    1 NMatS0=      1 NMatT0=    0 NMatD0=    1 NMtDS0=    0 NMtDT0=    0
 Petite list used in FoFCou.
 Keep R1 ints in memory in canonical form, NReq=53316335.
 Requested convergence on RMS density matrix=1.00D-08 within 128 cycles.
 Requested convergence on MAX density matrix=1.00D-06.
 Requested convergence on             energy=1.00D-06.
 No special actions if energy rises.
 SCF Done:  E(RHF) =  -207.988347582     A.U. after   13 cycles
            NFock= 13  Conv=0.50D-08     -V/T= 2.0017
 ExpMin= 2.97D-02 ExpMax= 1.17D+04 ExpMxC= 4.01D+02 IAcc=3 IRadAn=         5 AccDes= 0.00D+00
 HarFok:  IExCor=  205 AccDes= 0.00D+00 IRadAn=         5 IDoV=-2 UseB2=F ITyADJ=14
 ICtDFT= 12500011 ScaDFX=  1.000000  1.000000  1.000000  1.000000
 Range of M.O.s used for correlation:     5   137
 NBasis=   137 NAE=    16 NBE=    16 NFC=     4 NFV=     0
 NROrb=    133 NOA=    12 NOB=    12 NVA=   121 NVB=   121

 **** Warning!!: The largest alpha MO coefficient is  0.17461557D+02

 Fully direct method using O(ONN) memory.
 JobTyp=1 Pass  1:  I=   5 to  16 NPSUse= 40 ParTrn=T ParDer=T DoDerP=T.
 Spin components of T(2) and E(2):
     alpha-alpha T2 =       0.2688172737D-01 E2=     -0.8332410760D-01
     alpha-beta  T2 =       0.1534864124D+00 E2=     -0.4906468682D+00
     beta-beta   T2 =       0.2688172737D-01 E2=     -0.8332410760D-01
 ANorm=    0.1098749229D+01
 E2 =    -0.6572950834D+00 EUMP2 =    -0.20864564266510D+03
          IDoAtm=111111111
          Differentiating once with respect to electric field.
                with respect to dipole field.
          Differentiating once with respect to nuclear coordinates.
 Keep R1 ints in memory in canonical form, NReq=53321668.
          There are     1 degrees of freedom in the 1st order CPHF.  IDoFFX=0 NUNeed=     1.
 LinEq1:  Iter=  0 NonCon=     1 RMS=5.54D-03 Max=1.04D-01 NDo=     1
 AX will form     1 AO Fock derivatives at one time.
 LinEq1:  Iter=  1 NonCon=     1 RMS=1.64D-03 Max=1.84D-02 NDo=     1
 LinEq1:  Iter=  2 NonCon=     1 RMS=6.02D-04 Max=8.85D-03 NDo=     1
 LinEq1:  Iter=  3 NonCon=     1 RMS=2.26D-04 Max=3.28D-03 NDo=     1
 LinEq1:  Iter=  4 NonCon=     1 RMS=5.97D-05 Max=4.71D-04 NDo=     1
 LinEq1:  Iter=  5 NonCon=     1 RMS=1.93D-05 Max=2.26D-04 NDo=     1
 LinEq1:  Iter=  6 NonCon=     1 RMS=4.84D-06 Max=5.61D-05 NDo=     1
 LinEq1:  Iter=  7 NonCon=     1 RMS=8.53D-07 Max=7.84D-06 NDo=     1
 LinEq1:  Iter=  8 NonCon=     1 RMS=1.60D-07 Max=1.46D-06 NDo=     1
 LinEq1:  Iter=  9 NonCon=     1 RMS=3.35D-08 Max=3.26D-07 NDo=     1
 LinEq1:  Iter= 10 NonCon=     1 RMS=8.09D-09 Max=8.46D-08 NDo=     1
 LinEq1:  Iter= 11 NonCon=     1 RMS=1.41D-09 Max=9.38D-09 NDo=     1
 LinEq1:  Iter= 12 NonCon=     1 RMS=2.73D-10 Max=1.74D-09 NDo=     1
 LinEq1:  Iter= 13 NonCon=     0 RMS=7.82D-11 Max=5.45D-10 NDo=     1
 Linear equations converged to 1.000D-10 1.000D-09 after    13 iterations.
 End of Minotr F.D. properties file   721 does not exist.
 End of Minotr F.D. properties file   722 does not exist.
 End of Minotr F.D. properties file   788 does not exist.

 **********************************************************************

            Population analysis using the SCF Density.

 **********************************************************************

 Orbital symmetries:
       Occupied  (A) (A) (A) (A) (A) (A) (A) (A) (A) (A) (A) (A)
                 (A) (A) (A) (A)
       Virtual   (A) (A) (A) (A) (A) (A) (A) (A) (A) (A) (A) (A)
                 (A) (A) (A) (A) (A) (A) (A) (A) (A) (A) (A) (A)
                 (A) (A) (A) (A) (A) (A) (A) (A) (A) (A) (A) (A)
                 (A) (A) (A) (A) (A) (A) (A) (A) (A) (A) (A) (A)
                 (A) (A) (A) (A) (A) (A) (A) (A) (A) (A) (A) (A)
                 (A) (A) (A) (A) (A) (A) (A) (A) (A) (A) (A) (A)
                 (A) (A) (A) (A) (A) (A) (A) (A) (A) (A) (A) (A)
                 (A) (A) (A) (A) (A) (A) (A) (A) (A) (A) (A) (A)
                 (A) (A) (A) (A) (A) (A) (A) (A) (A) (A) (A) (A)
                 (A) (A) (A) (A) (A) (A) (A) (A) (A) (A) (A) (A)
                 (A)
 The electronic state is 1-A.
 Alpha  occ. eigenvalues --  -20.53332 -15.59960 -11.35946 -11.29558  -1.37891
 Alpha  occ. eigenvalues --   -1.25179  -0.96448  -0.85953  -0.69063  -0.67894
 Alpha  occ. eigenvalues --   -0.63645  -0.59119  -0.56990  -0.53787  -0.42969
 Alpha  occ. eigenvalues --   -0.39541
 Alpha virt. eigenvalues --    0.02725   0.04159   0.05180   0.05475   0.07305
 Alpha virt. eigenvalues --    0.10617   0.11330   0.11903   0.13483   0.14742
 Alpha virt. eigenvalues --    0.15764   0.15934   0.16969   0.18406   0.19060
 Alpha virt. eigenvalues --    0.23224   0.24377   0.26253   0.28553   0.28758
 Alpha virt. eigenvalues --    0.30506   0.30669   0.32693   0.33404   0.36288
 Alpha virt. eigenvalues --    0.37440   0.38225   0.40362   0.40495   0.42334
 Alpha virt. eigenvalues --    0.43949   0.46164   0.47789   0.51645   0.52905
 Alpha virt. eigenvalues --    0.53050   0.53485   0.55796   0.57047   0.57536
 Alpha virt. eigenvalues --    0.60086   0.60375   0.62589   0.63023   0.64493
 Alpha virt. eigenvalues --    0.64807   0.67643   0.69542   0.73617   0.74779
 Alpha virt. eigenvalues --    0.75488   0.76316   0.81600   0.81680   0.84711
 Alpha virt. eigenvalues --    0.85504   0.90499   0.91957   0.98259   1.00103
 Alpha virt. eigenvalues --    1.01434   1.06085   1.08996   1.11608   1.13569
 Alpha virt. eigenvalues --    1.14563   1.25928   1.26192   1.28664   1.35838
 Alpha virt. eigenvalues --    1.41172   1.41668   1.45547   1.47769   1.55105
 Alpha virt. eigenvalues --    1.59410   1.59524   1.65961   1.74331   1.74762
 Alpha virt. eigenvalues --    1.84514   1.85420   1.85658   1.89652   1.93794
 Alpha virt. eigenvalues --    1.97592   1.99486   2.00202   2.08258   2.10506
 Alpha virt. eigenvalues --    2.12120   2.16279   2.19229   2.23420   2.30065
 Alpha virt. eigenvalues --    2.33860   2.35171   2.38305   2.38767   2.46861
 Alpha virt. eigenvalues --    2.51401   2.53315   2.55846   2.66449   2.76764
 Alpha virt. eigenvalues --    2.81663   2.83236   2.91222   2.95316   2.95403
 Alpha virt. eigenvalues --    2.98584   3.05992   3.13407   3.28421   3.39342
 Alpha virt. eigenvalues --    3.67284   3.74570   3.80137   3.81220   4.03938
 Alpha virt. eigenvalues --    4.15414
          Condensed to atoms (all electrons):
               1          2          3          4          5          6
     1  C    4.201615   0.408593   0.401509   0.227757  -0.139984  -0.041273
     2  O    0.408593   8.458641  -0.088631  -0.082086  -0.006672   0.009074
     3  N    0.401509  -0.088631   6.605575  -0.035984   0.431374   0.183816
     4  H    0.227757  -0.082086  -0.035984   0.998437   0.013191   0.018247
     5  H   -0.139984  -0.006672   0.431374   0.013191   0.977588  -0.105213
     6  C   -0.041273   0.009074   0.183816   0.018247  -0.105213   4.142753
     7  H    0.003692   0.000839  -0.029384  -0.001076   0.002894   0.368839
     8  H   -0.016511  -0.000718  -0.084587   0.001912   0.005887   0.456377
     9  H    0.003688   0.000838  -0.029400  -0.001079   0.002897   0.368844
               7          8          9
     1  C    0.003692  -0.016511   0.003688
     2  O    0.000839  -0.000718   0.000838
     3  N   -0.029384  -0.084587  -0.029400
     4  H   -0.001076   0.001912  -0.001079
     5  H    0.002894   0.005887   0.002897
     6  C    0.368839   0.456377   0.368844
     7  H    0.869220  -0.125902  -0.069810
     8  H   -0.125902   1.024859  -0.125908
     9  H   -0.069810  -0.125908   0.869211
 Mulliken charges:
               1
     1  C    0.950914
     2  O   -0.699879
     3  N   -0.354288
     4  H   -0.139320
     5  H   -0.181962
     6  C    0.598537
     7  H   -0.019312
     8  H   -0.135409
     9  H   -0.019281
 Sum of Mulliken charges =  -0.00000
 Mulliken charges with hydrogens summed into heavy atoms:
               1
     1  C    0.811594
     2  O   -0.699879
     3  N   -0.536250
     6  C    0.424534
 Electronic spatial extent (au):  <R**2>=            316.4919
 Charge=             -0.0000 electrons
 Dipole moment (field-independent basis, Debye):
    X=              4.7591    Y=              0.2695    Z=             -0.0002  Tot=              4.7667
 Quadrupole moment (field-independent basis, Debye-Ang):
   XX=            -31.2100   YY=            -21.3849   ZZ=            -25.0424
   XY=             -1.4806   XZ=              0.0003   YZ=              0.0001
 Traceless Quadrupole moment (field-independent basis, Debye-Ang):
   XX=             -5.3309   YY=              4.4942   ZZ=              0.8367
   XY=             -1.4806   XZ=              0.0003   YZ=              0.0001
 Octapole moment (field-independent basis, Debye-Ang**2):
  XXX=             19.5264  YYY=             -4.3893  ZZZ=             -0.0000  XYY=              0.4089
  XXY=             -0.8875  XXZ=              0.0001  XZZ=             -0.8560  YZZ=              0.8331
  YYZ=              0.0000  XYZ=              0.0001
 Hexadecapole moment (field-independent basis, Debye-Ang**3):
 XXXX=           -344.3489 YYYY=            -46.9542 ZZZZ=            -31.0240 XXXY=             -4.9575
 XXXZ=              0.0006 YYYX=             -4.1445 YYYZ=              0.0005 ZZZX=             -0.0002
 ZZZY=              0.0001 XXYY=            -61.3158 XXZZ=            -58.5775 YYZZ=            -14.4661
 XXYZ=              0.0002 YYXZ=              0.0001 ZZXY=              1.2373
 N-N= 1.195047226880D+02 E-N=-7.270845569972D+02  KE= 2.076439027808D+02
 Calling FoFJK, ICntrl=  10002127 FMM=F ISym2X=0 I1Cent= 0 IOpClX= 0 NMat=1 NMatS=1 NMatT=0.
 ***** Axes restored to original set *****
 -------------------------------------------------------------------
 Center     Atomic                   Forces (Hartrees/Bohr)
 Number     Number              X              Y              Z
 -------------------------------------------------------------------
      1        6          -0.004725042   -0.011440631    0.000002757
      2        8           0.003131609   -0.008591248   -0.000027338
      3        7          -0.009175139    0.018296356    0.000044503
      4        1          -0.008104940   -0.002918308   -0.000002018
      5        1           0.028621663   -0.004874723   -0.000039989
      6        6          -0.009525995    0.010526536    0.000030997
      7        1           0.002545670    0.003384945    0.006040583
      8        1          -0.005311138   -0.007782325   -0.000008415
      9        1           0.002543312    0.003399398   -0.006041079
 -------------------------------------------------------------------
 Cartesian Forces:  Max     0.028621663 RMS     0.008546639

 GradGradGradGradGradGradGradGradGradGradGradGradGradGradGradGradGradGrad
 Berny optimization.
 FormGI is forming the generalized inverse of G from B-inverse, IUseBI=4.
 Internal  Forces:  Max     0.028440945 RMS     0.008417984
 Search for a local minimum.
 Step number   1 out of a maximum of   40
 All quantities printed in internal units (Hartrees-Bohrs-Radians)
 Mixed Optimization -- RFO/linear search
 Second derivative matrix not updated -- first step.
 ITU=  0
     Eigenvalues ---    0.01073   0.01649   0.02482   0.02482   0.07588
     Eigenvalues ---    0.07626   0.16000   0.16000   0.16000   0.16000
     Eigenvalues ---    0.16000   0.22000   0.22000   0.32497   0.32499
     Eigenvalues ---    0.32499   0.33404   0.38671   0.50521   0.57148
     Eigenvalues ---    0.92446
 RFO step:  Lambda=-5.21839273D-03 EMin= 1.07305845D-02
 Linear search not attempted -- first point.
 Iteration  1 RMS(Cart)=  0.04606668 RMS(Int)=  0.00080778
 Iteration  2 RMS(Cart)=  0.00078945 RMS(Int)=  0.00030198
 Iteration  3 RMS(Cart)=  0.00000057 RMS(Int)=  0.00030198
 Variable       Old X    -DE/DX   Delta X   Delta X   Delta X     New X
                                 (Linear)    (Quad)   (Total)
    R1        2.31826   0.00909   0.00000   0.00978   0.00978   2.32804
    R2        2.53271   0.02481   0.00000   0.04303   0.04303   2.57574
    R3        2.08349   0.00767   0.00000   0.02260   0.02260   2.10608
    R4        1.86044   0.02844   0.00000   0.05572   0.05572   1.91616
    R5        2.73401   0.01313   0.00000   0.03351   0.03351   2.76752
    R6        2.09941  -0.00618   0.00000  -0.01870  -0.01870   2.08070
    R7        2.09940  -0.00938   0.00000  -0.02840  -0.02840   2.07100
    R8        2.09944  -0.00619   0.00000  -0.01874  -0.01874   2.08070
    A1        2.19711  -0.00125   0.00000  -0.00554  -0.00554   2.19157
    A2        2.15358  -0.00347   0.00000  -0.02201  -0.02201   2.13157
    A3        1.93250   0.00472   0.00000   0.02755   0.02755   1.96005
    A4        2.09440  -0.00750   0.00000  -0.04206  -0.04206   2.05234
    A5        2.12599   0.00414   0.00000   0.01838   0.01838   2.14437
    A6        2.06280   0.00336   0.00000   0.02368   0.02368   2.08648
    A7        1.91966   0.00554   0.00000   0.03599   0.03552   1.95517
    A8        1.91993  -0.00379   0.00000  -0.02775  -0.02749   1.89244
    A9        1.91973   0.00553   0.00000   0.03588   0.03541   1.95514
   A10        1.89679  -0.00184   0.00000  -0.01592  -0.01567   1.88112
   A11        1.91061  -0.00380   0.00000  -0.01355  -0.01460   1.89601
   A12        1.89679  -0.00184   0.00000  -0.01592  -0.01568   1.88111
    D1        0.00015  -0.00001   0.00000  -0.00027  -0.00027  -0.00012
    D2       -3.14149  -0.00001   0.00000  -0.00027  -0.00027   3.14142
    D3        3.14159   0.00001   0.00000   0.00019   0.00019  -3.14140
    D4       -0.00006   0.00001   0.00000   0.00019   0.00019   0.00014
    D5       -1.05285  -0.00118   0.00000  -0.01451  -0.01501  -1.06786
    D6       -3.14157  -0.00000   0.00000  -0.00001  -0.00001  -3.14158
    D7        1.05285   0.00118   0.00000   0.01455   0.01506   1.06791
    D8        2.08869  -0.00118   0.00000  -0.01451  -0.01501   2.07368
    D9       -0.00003  -0.00000   0.00000  -0.00001  -0.00001  -0.00004
   D10       -2.08879   0.00118   0.00000   0.01455   0.01506  -2.07374
         Item               Value     Threshold  Converged?
 Maximum Force            0.028441     0.000450     NO 
 RMS     Force            0.008418     0.000300     NO 
 Maximum Displacement     0.136613     0.001800     NO 
 RMS     Displacement     0.045927     0.001200     NO 
 Predicted change in Energy=-2.657946D-03
 GradGradGradGradGradGradGradGradGradGradGradGradGradGradGradGradGradGrad

                          Input orientation:                          
 ---------------------------------------------------------------------
 Center     Atomic      Atomic             Coordinates (Angstroms)
 Number     Number       Type             X           Y           Z
 ---------------------------------------------------------------------
      1          6           0       -1.205873   -0.064641    0.006666
      2          8           0       -0.641887   -1.159905    0.003873
      3          7           0       -0.583114    1.147796    0.008197
      4          1           0       -2.316315    0.030255    0.007918
      5          1           0        0.430846    1.154938    0.007047
      6          6           0       -1.314256    2.416734    0.011319
      7          1           0       -1.947653    2.530489   -0.882103
      8          1           0       -0.586335    3.235992    0.012002
      9          1           0       -1.945638    2.527213    0.906575
 ---------------------------------------------------------------------
                    Distance matrix (angstroms):
                    1          2          3          4          5
     1  C    0.000000
     2  O    1.231946   0.000000
     3  N    1.363024   2.308453   0.000000
     4  H    1.114490   2.054314   2.062252   0.000000
     5  H    2.041132   2.551325   1.013986   2.968468   0.000000
     6  C    2.483745   3.639296   1.464507   2.588323   2.153492
     7  H    2.841627   4.013600   2.136923   2.679406   2.887903
     8  H    3.358279   4.396256   2.088202   3.642746   2.316348
     9  H    2.841619   4.013661   2.136901   2.679513   2.887900
                    6          7          8          9
     6  C    0.000000
     7  H    1.101061   0.000000
     8  H    1.095926   1.774922   0.000000
     9  H    1.101059   1.788682   1.774918   0.000000
 Stoichiometry    C2H5NO
 Framework group  C1[X(C2H5NO)]
 Deg. of freedom    21
 Full point group                 C1      NOp   1
 Largest Abelian subgroup         C1      NOp   1
 Largest concise Abelian subgroup C1      NOp   1
                         Standard orientation:                         
 ---------------------------------------------------------------------
 Center     Atomic      Atomic             Coordinates (Angstroms)
 Number     Number       Type             X           Y           Z
 ---------------------------------------------------------------------
      1          6           0       -0.725511    0.341304    0.000081
      2          8           0       -1.883530   -0.079035   -0.000045
      3          7           0        0.398030   -0.430375    0.000029
      4          1           0       -0.490372    1.430706   -0.000066
      5          1           0        0.276354   -1.437034   -0.000019
      6          6           0        1.749543    0.133711   -0.000024
      7          1           0        1.941027    0.746774   -0.894353
      8          1           0        2.469734   -0.692351   -0.000073
      9          1           0        1.941089    0.746716    0.894328
 ---------------------------------------------------------------------
 Rotational constants (GHZ):          43.3480911           4.3173331           4.0271698
 Standard basis: Aug-CC-pVDZ (5D, 7F)
 There are   145 symmetry adapted cartesian basis functions of A   symmetry.
 There are   137 symmetry adapted basis functions of A   symmetry.
   137 basis functions,   227 primitive gaussians,   145 cartesian basis functions
    16 alpha electrons       16 beta electrons
       nuclear repulsion energy       118.2252361945 Hartrees.
 NAtoms=    9 NActive=    9 NUniq=    9 SFac= 1.00D+00 NAtFMM=   60 NAOKFM=F Big=F
 Integral buffers will be    131072 words long.
 Raffenetti 1 integral format.
 Two-electron integral symmetry is turned on.
 One-electron integrals computed using PRISM.
 NBasis=   137 RedAO= T EigKep=  2.38D-04  NBF=   137
 NBsUse=   137 1.00D-06 EigRej= -1.00D+00 NBFU=   137
 Initial guess from the checkpoint file:  "/scr/Gau-17184.chk"
 B after Tr=    -0.000000    0.000000    0.000000
         Rot=    1.000000   -0.000011   -0.000000    0.000969 Ang=  -0.11 deg.
 ExpMin= 2.97D-02 ExpMax= 1.17D+04 ExpMxC= 4.01D+02 IAcc=3 IRadAn=         5 AccDes= 0.00D+00
 Harris functional with IExCor=  205 and IRadAn=       5 diagonalized for initial guess.
 HarFok:  IExCor=  205 AccDes= 0.00D+00 IRadAn=         5 IDoV= 1 UseB2=F ITyADJ=14
 ICtDFT=  3500011 ScaDFX=  1.000000  1.000000  1.000000  1.000000
 FoFCou: FMM=F IPFlag=           0 FMFlag=      100000 FMFlg1=           0
         NFxFlg=           0 DoJE=T BraDBF=F KetDBF=T FulRan=T
         wScrn=  0.000000 ICntrl=       500 IOpCl=  0 I1Cent=   200000004 NGrid=           0
         NMat0=    1 NMatS0=      1 NMatT0=    0 NMatD0=    1 NMtDS0=    0 NMtDT0=    0
 Petite list used in FoFCou.
 Keep R1 ints in memory in canonical form, NReq=53314847.
 Requested convergence on RMS density matrix=1.00D-08 within 128 cycles.
 Requested convergence on MAX density matrix=1.00D-06.
 Requested convergence on             energy=1.00D-06.
 No special actions if energy rises.
 SCF Done:  E(RHF) =  -207.988599425     A.U. after   11 cycles
            NFock= 11  Conv=0.58D-08     -V/T= 2.0024
 ExpMin= 2.97D-02 ExpMax= 1.17D+04 ExpMxC= 4.01D+02 IAcc=3 IRadAn=         5 AccDes= 0.00D+00
 HarFok:  IExCor=  205 AccDes= 0.00D+00 IRadAn=         5 IDoV=-2 UseB2=F ITyADJ=14
 ICtDFT= 12500011 ScaDFX=  1.000000  1.000000  1.000000  1.000000
 Range of M.O.s used for correlation:     5   137
 NBasis=   137 NAE=    16 NBE=    16 NFC=     4 NFV=     0
 NROrb=    133 NOA=    12 NOB=    12 NVA=   121 NVB=   121

 **** Warning!!: The largest alpha MO coefficient is  0.17006820D+02

 Fully direct method using O(ONN) memory.
 JobTyp=1 Pass  1:  I=   5 to  16 NPSUse= 40 ParTrn=T ParDer=T DoDerP=T.
 Spin components of T(2) and E(2):
     alpha-alpha T2 =       0.2719442199D-01 E2=     -0.8353904268D-01
     alpha-beta  T2 =       0.1552505781D+00 E2=     -0.4924381709D+00
     beta-beta   T2 =       0.2719442199D-01 E2=     -0.8353904268D-01
 ANorm=    0.1099836089D+01
 E2 =    -0.6595162562D+00 EUMP2 =    -0.20864811568084D+03
          IDoAtm=111111111
          Differentiating once with respect to electric field.
                with respect to dipole field.
          Differentiating once with respect to nuclear coordinates.
 Keep R1 ints in memory in canonical form, NReq=53320665.
          There are     1 degrees of freedom in the 1st order CPHF.  IDoFFX=0 NUNeed=     1.
 LinEq1:  Iter=  0 NonCon=     1 RMS=5.64D-03 Max=1.08D-01 NDo=     1
 AX will form     1 AO Fock derivatives at one time.
 LinEq1:  Iter=  1 NonCon=     1 RMS=1.69D-03 Max=1.98D-02 NDo=     1
 LinEq1:  Iter=  2 NonCon=     1 RMS=6.26D-04 Max=9.07D-03 NDo=     1
 LinEq1:  Iter=  3 NonCon=     1 RMS=2.37D-04 Max=3.54D-03 NDo=     1
 LinEq1:  Iter=  4 NonCon=     1 RMS=6.39D-05 Max=4.70D-04 NDo=     1
 LinEq1:  Iter=  5 NonCon=     1 RMS=2.15D-05 Max=2.57D-04 NDo=     1
 LinEq1:  Iter=  6 NonCon=     1 RMS=5.42D-06 Max=6.99D-05 NDo=     1
 LinEq1:  Iter=  7 NonCon=     1 RMS=1.00D-06 Max=1.09D-05 NDo=     1
 LinEq1:  Iter=  8 NonCon=     1 RMS=2.15D-07 Max=2.11D-06 NDo=     1
 LinEq1:  Iter=  9 NonCon=     1 RMS=4.94D-08 Max=4.30D-07 NDo=     1
 LinEq1:  Iter= 10 NonCon=     1 RMS=1.60D-08 Max=1.53D-07 NDo=     1
 LinEq1:  Iter= 11 NonCon=     1 RMS=4.23D-09 Max=3.44D-08 NDo=     1
 LinEq1:  Iter= 12 NonCon=     1 RMS=7.94D-10 Max=5.76D-09 NDo=     1
 LinEq1:  Iter= 13 NonCon=     1 RMS=1.26D-10 Max=9.26D-10 NDo=     1
 LinEq1:  Iter= 14 NonCon=     0 RMS=1.97D-11 Max=1.55D-10 NDo=     1
 Linear equations converged to 1.000D-10 1.000D-09 after    14 iterations.
 End of Minotr F.D. properties file   721 does not exist.
 End of Minotr F.D. properties file   722 does not exist.
 End of Minotr F.D. properties file   788 does not exist.
 Calling FoFJK, ICntrl=  10002127 FMM=F ISym2X=0 I1Cent= 0 IOpClX= 0 NMat=1 NMatS=1 NMatT=0.
 ***** Axes restored to original set *****
 -------------------------------------------------------------------
 Center     Atomic                   Forces (Hartrees/Bohr)
 Number     Number              X              Y              Z
 -------------------------------------------------------------------
      1        6          -0.001645949   -0.003044697   -0.000042283
      2        8           0.000806116    0.001255464    0.000015856
      3        7          -0.002243757    0.005502702    0.000019367
      4        1           0.001013697    0.000478186    0.000013240
      5        1          -0.000165869   -0.001780203   -0.000002485
      6        6           0.000206149   -0.000712634    0.000002026
      7        1           0.000454809   -0.001155939   -0.000463007
      8        1           0.001120788    0.000612036   -0.000000271
      9        1           0.000454017   -0.001154914    0.000457558
 -------------------------------------------------------------------
 Cartesian Forces:  Max     0.005502702 RMS     0.001486518

 GradGradGradGradGradGradGradGradGradGradGradGradGradGradGradGradGradGrad
 Berny optimization.
 Using GEDIIS/GDIIS optimizer.
 FormGI is forming the generalized inverse of G from B-inverse, IUseBI=4.
 Internal  Forces:  Max     0.003205620 RMS     0.001094202
 Search for a local minimum.
 Step number   2 out of a maximum of   40
 All quantities printed in internal units (Hartrees-Bohrs-Radians)
 Mixed Optimization -- RFO/linear search
 Update second derivatives using D2CorX and points    1    2
 DE= -2.47D-03 DEPred=-2.66D-03 R= 9.30D-01
 TightC=F SS=  1.41D+00  RLast= 1.30D-01 DXNew= 5.0454D-01 3.9132D-01
 Trust test= 9.30D-01 RLast= 1.30D-01 DXMaxT set to 3.91D-01
 ITU=  1  0
 Use linear search instead of GDIIS.
     Eigenvalues ---    0.01073   0.01624   0.02482   0.02482   0.07268
     Eigenvalues ---    0.07677   0.15207   0.16000   0.16000   0.16000
     Eigenvalues ---    0.17112   0.21562   0.22042   0.32416   0.32498
     Eigenvalues ---    0.32787   0.33713   0.40289   0.50728   0.56071
     Eigenvalues ---    0.92674
 RFO step:  Lambda=-1.45352322D-04 EMin= 1.07305846D-02
 Quartic linear search produced a step of -0.03243.
 Iteration  1 RMS(Cart)=  0.00648084 RMS(Int)=  0.00003637
 Iteration  2 RMS(Cart)=  0.00003989 RMS(Int)=  0.00000469
 Iteration  3 RMS(Cart)=  0.00000000 RMS(Int)=  0.00000469
 Variable       Old X    -DE/DX   Delta X   Delta X   Delta X     New X
                                 (Linear)    (Quad)   (Total)
    R1        2.32804  -0.00075  -0.00032  -0.00019  -0.00051   2.32753
    R2        2.57574   0.00109  -0.00140   0.00443   0.00303   2.57878
    R3        2.10608  -0.00097  -0.00073  -0.00146  -0.00219   2.10389
    R4        1.91616  -0.00018  -0.00181   0.00301   0.00120   1.91736
    R5        2.76752  -0.00321  -0.00109  -0.00601  -0.00710   2.76042
    R6        2.08070  -0.00001   0.00061  -0.00113  -0.00053   2.08018
    R7        2.07100   0.00120   0.00092   0.00188   0.00280   2.07380
    R8        2.08070  -0.00000   0.00061  -0.00113  -0.00052   2.08018
    A1        2.19157  -0.00161   0.00018  -0.00740  -0.00722   2.18435
    A2        2.13157   0.00140   0.00071   0.00583   0.00655   2.13812
    A3        1.96005   0.00021  -0.00089   0.00156   0.00067   1.96072
    A4        2.05234  -0.00239   0.00136  -0.01577  -0.01441   2.03793
    A5        2.14437   0.00137  -0.00060   0.00711   0.00652   2.15089
    A6        2.08648   0.00102  -0.00077   0.00866   0.00789   2.09437
    A7        1.95517  -0.00151  -0.00115  -0.00746  -0.00862   1.94655
    A8        1.89244   0.00000   0.00089  -0.00084   0.00004   1.89248
    A9        1.95514  -0.00151  -0.00115  -0.00743  -0.00858   1.94656
   A10        1.88112   0.00086   0.00051   0.00499   0.00549   1.88661
   A11        1.89601   0.00146   0.00047   0.00664   0.00710   1.90311
   A12        1.88111   0.00086   0.00051   0.00499   0.00549   1.88660
    D1       -0.00012   0.00001   0.00001   0.00049   0.00050   0.00038
    D2        3.14142   0.00001   0.00001   0.00053   0.00054  -3.14122
    D3       -3.14140  -0.00001  -0.00001  -0.00051  -0.00052   3.14127
    D4        0.00014  -0.00001  -0.00001  -0.00047  -0.00048  -0.00034
    D5       -1.06786   0.00015   0.00049   0.00111   0.00160  -1.06626
    D6       -3.14158   0.00000   0.00000  -0.00002  -0.00002   3.14159
    D7        1.06791  -0.00015  -0.00049  -0.00117  -0.00166   1.06625
    D8        2.07368   0.00015   0.00049   0.00115   0.00164   2.07532
    D9       -0.00004   0.00000   0.00000   0.00002   0.00002  -0.00002
   D10       -2.07374  -0.00015  -0.00049  -0.00113  -0.00161  -2.07535
         Item               Value     Threshold  Converged?
 Maximum Force            0.003206     0.000450     NO 
 RMS     Force            0.001094     0.000300     NO 
 Maximum Displacement     0.014793     0.001800     NO 
 RMS     Displacement     0.006493     0.001200     NO 
 Predicted change in Energy=-7.537727D-05
 GradGradGradGradGradGradGradGradGradGradGradGradGradGradGradGradGradGrad

                          Input orientation:                          
 ---------------------------------------------------------------------
 Center     Atomic      Atomic             Coordinates (Angstroms)
 Number     Number       Type             X           Y           Z
 ---------------------------------------------------------------------
      1          6           0       -1.209068   -0.063735    0.006405
      2          8           0       -0.634059   -1.152949    0.004061
      3          7           0       -0.589202    1.151987    0.008096
      4          1           0       -2.318694    0.027005    0.008108
      5          1           0        0.425409    1.147545    0.006999
      6          6           0       -1.313992    2.420239    0.011320
      7          1           0       -1.945144    2.527094   -0.884199
      8          1           0       -0.582225    3.238055    0.012129
      9          1           0       -1.943249    2.523629    0.908576
 ---------------------------------------------------------------------
                    Distance matrix (angstroms):
                    1          2          3          4          5
     1  C    0.000000
     2  O    1.231678   0.000000
     3  N    1.364630   2.305376   0.000000
     4  H    1.113331   2.056770   2.063183   0.000000
     5  H    2.034383   2.532737   1.014622   2.964070   0.000000
     6  C    2.486193   3.637311   1.460751   2.595573   2.155292
     7  H    2.836790   4.006329   2.127367   2.680708   2.883905
     8  H    3.360771   4.391318   2.086084   3.650504   2.320686
     9  H    2.836792   4.006165   2.127371   2.680473   2.883919
                    6          7          8          9
     6  C    0.000000
     7  H    1.100783   0.000000
     8  H    1.097410   1.779443   0.000000
     9  H    1.100783   1.792779   1.779441   0.000000
 Stoichiometry    C2H5NO
 Framework group  C1[X(C2H5NO)]
 Deg. of freedom    21
 Full point group                 C1      NOp   1
 Largest Abelian subgroup         C1      NOp   1
 Largest concise Abelian subgroup C1      NOp   1
                         Standard orientation:                         
 ---------------------------------------------------------------------
 Center     Atomic      Atomic             Coordinates (Angstroms)
 Number     Number       Type             X           Y           Z
 ---------------------------------------------------------------------
      1          6           0       -0.726606    0.346026   -0.000185
      2          8           0       -1.880721   -0.084148    0.000101
      3          7           0        0.399315   -0.425023   -0.000050
      4          1           0       -0.493931    1.434772    0.000138
      5          1           0        0.264440   -1.430640   -0.000030
      6          6           0        1.750242    0.130667    0.000051
      7          1           0        1.935612    0.742078   -0.896351
      8          1           0        2.467172   -0.700188    0.000157
      9          1           0        1.935450    0.742164    0.896428
 ---------------------------------------------------------------------
 Rotational constants (GHZ):          43.4353694           4.3229475           4.0332842
 Standard basis: Aug-CC-pVDZ (5D, 7F)
 There are   145 symmetry adapted cartesian basis functions of A   symmetry.
 There are   137 symmetry adapted basis functions of A   symmetry.
   137 basis functions,   227 primitive gaussians,   145 cartesian basis functions
    16 alpha electrons       16 beta electrons
       nuclear repulsion energy       118.2936787301 Hartrees.
 NAtoms=    9 NActive=    9 NUniq=    9 SFac= 1.00D+00 NAtFMM=   60 NAOKFM=F Big=F
 Integral buffers will be    131072 words long.
 Raffenetti 1 integral format.
 Two-electron integral symmetry is turned on.
 One-electron integrals computed using PRISM.
 NBasis=   137 RedAO= T EigKep=  2.38D-04  NBF=   137
 NBsUse=   137 1.00D-06 EigRej= -1.00D+00 NBFU=   137
 Initial guess from the checkpoint file:  "/scr/Gau-17184.chk"
 B after Tr=    -0.000000   -0.000000   -0.000000
         Rot=    1.000000    0.000013    0.000003   -0.000025 Ang=   0.00 deg.
 Keep R1 ints in memory in canonical form, NReq=53314919.
 Requested convergence on RMS density matrix=1.00D-08 within 128 cycles.
 Requested convergence on MAX density matrix=1.00D-06.
 Requested convergence on             energy=1.00D-06.
 No special actions if energy rises.
 SCF Done:  E(RHF) =  -207.988712759     A.U. after    9 cycles
            NFock=  9  Conv=0.45D-08     -V/T= 2.0024
 ExpMin= 2.97D-02 ExpMax= 1.17D+04 ExpMxC= 4.01D+02 IAcc=3 IRadAn=         5 AccDes= 0.00D+00
 HarFok:  IExCor=  205 AccDes= 0.00D+00 IRadAn=         5 IDoV=-2 UseB2=F ITyADJ=14
 ICtDFT= 12500011 ScaDFX=  1.000000  1.000000  1.000000  1.000000
 Range of M.O.s used for correlation:     5   137
 NBasis=   137 NAE=    16 NBE=    16 NFC=     4 NFV=     0
 NROrb=    133 NOA=    12 NOB=    12 NVA=   121 NVB=   121

 **** Warning!!: The largest alpha MO coefficient is  0.15708969D+02

 Fully direct method using O(ONN) memory.
 JobTyp=1 Pass  1:  I=   5 to  16 NPSUse= 40 ParTrn=T ParDer=T DoDerP=T.
 Spin components of T(2) and E(2):
     alpha-alpha T2 =       0.2718833008D-01 E2=     -0.8354322596D-01
     alpha-beta  T2 =       0.1552021248D+00 E2=     -0.4924058528D+00
     beta-beta   T2 =       0.2718833008D-01 E2=     -0.8354322596D-01
 ANorm=    0.1099808522D+01
 E2 =    -0.6594923047D+00 EUMP2 =    -0.20864820506400D+03
          IDoAtm=111111111
          Differentiating once with respect to electric field.
                with respect to dipole field.
          Differentiating once with respect to nuclear coordinates.
 Keep R1 ints in memory in canonical form, NReq=53320724.
          There are     1 degrees of freedom in the 1st order CPHF.  IDoFFX=0 NUNeed=     1.
 LinEq1:  Iter=  0 NonCon=     1 RMS=5.64D-03 Max=1.09D-01 NDo=     1
 AX will form     1 AO Fock derivatives at one time.
 LinEq1:  Iter=  1 NonCon=     1 RMS=1.69D-03 Max=1.99D-02 NDo=     1
 LinEq1:  Iter=  2 NonCon=     1 RMS=6.27D-04 Max=9.06D-03 NDo=     1
 LinEq1:  Iter=  3 NonCon=     1 RMS=2.38D-04 Max=3.59D-03 NDo=     1
 LinEq1:  Iter=  4 NonCon=     1 RMS=6.42D-05 Max=4.76D-04 NDo=     1
 LinEq1:  Iter=  5 NonCon=     1 RMS=2.17D-05 Max=2.60D-04 NDo=     1
 LinEq1:  Iter=  6 NonCon=     1 RMS=5.49D-06 Max=7.31D-05 NDo=     1
 LinEq1:  Iter=  7 NonCon=     1 RMS=1.04D-06 Max=1.17D-05 NDo=     1
 LinEq1:  Iter=  8 NonCon=     1 RMS=2.27D-07 Max=2.25D-06 NDo=     1
 LinEq1:  Iter=  9 NonCon=     1 RMS=5.07D-08 Max=4.37D-07 NDo=     1
 LinEq1:  Iter= 10 NonCon=     1 RMS=1.60D-08 Max=1.56D-07 NDo=     1
 LinEq1:  Iter= 11 NonCon=     1 RMS=4.23D-09 Max=3.37D-08 NDo=     1
 LinEq1:  Iter= 12 NonCon=     1 RMS=7.96D-10 Max=5.82D-09 NDo=     1
 LinEq1:  Iter= 13 NonCon=     1 RMS=1.26D-10 Max=8.97D-10 NDo=     1
 LinEq1:  Iter= 14 NonCon=     0 RMS=2.03D-11 Max=1.55D-10 NDo=     1
 Linear equations converged to 1.000D-10 1.000D-09 after    14 iterations.
 End of Minotr F.D. properties file   721 does not exist.
 End of Minotr F.D. properties file   722 does not exist.
 End of Minotr F.D. properties file   788 does not exist.
 Calling FoFJK, ICntrl=  10002127 FMM=F ISym2X=0 I1Cent= 0 IOpClX= 0 NMat=1 NMatS=1 NMatT=0.
 ***** Axes restored to original set *****
 -------------------------------------------------------------------
 Center     Atomic                   Forces (Hartrees/Bohr)
 Number     Number              X              Y              Z
 -------------------------------------------------------------------
      1        6           0.000040830   -0.000659185    0.000086399
      2        8           0.000050991    0.000348707   -0.000032992
      3        7           0.000041741    0.001208041   -0.000017307
      4        1           0.000331983    0.000042571   -0.000029758
      5        1          -0.000581602   -0.000799763   -0.000001158
      6        6           0.000177355   -0.000238607   -0.000006389
      7        1          -0.000033890    0.000028960   -0.000136620
      8        1           0.000005916    0.000043463   -0.000000167
      9        1          -0.000033325    0.000025812    0.000137991
 -------------------------------------------------------------------
 Cartesian Forces:  Max     0.001208041 RMS     0.000347102

 GradGradGradGradGradGradGradGradGradGradGradGradGradGradGradGradGradGrad
 Berny optimization.
 Using GEDIIS/GDIIS optimizer.
 FormGI is forming the generalized inverse of G from B-inverse, IUseBI=4.
 Internal  Forces:  Max     0.001054475 RMS     0.000282750
 Search for a local minimum.
 Step number   3 out of a maximum of   40
 All quantities printed in internal units (Hartrees-Bohrs-Radians)
 Mixed Optimization -- En-DIIS/RFO-DIIS
 Update second derivatives using D2CorX and points    1    2    3
 DE= -8.94D-05 DEPred=-7.54D-05 R= 1.19D+00
 TightC=F SS=  1.41D+00  RLast= 2.74D-02 DXNew= 6.5812D-01 8.2296D-02
 Trust test= 1.19D+00 RLast= 2.74D-02 DXMaxT set to 3.91D-01
 ITU=  1  1  0
 Use linear search instead of GDIIS.
     Eigenvalues ---    0.01073   0.01616   0.02482   0.02484   0.07379
     Eigenvalues ---    0.07713   0.11528   0.16000   0.16000   0.16041
     Eigenvalues ---    0.18020   0.20773   0.22309   0.32498   0.32570
     Eigenvalues ---    0.32861   0.33472   0.41196   0.51099   0.56351
     Eigenvalues ---    0.92513
 RFO step:  Lambda=-1.01033978D-05 EMin= 1.07305844D-02
 Quartic linear search produced a step of  0.22197.
 Iteration  1 RMS(Cart)=  0.00356660 RMS(Int)=  0.00000949
 Iteration  2 RMS(Cart)=  0.00000950 RMS(Int)=  0.00000272
 Iteration  3 RMS(Cart)=  0.00000000 RMS(Int)=  0.00000272
 Variable       Old X    -DE/DX   Delta X   Delta X   Delta X     New X
                                 (Linear)    (Quad)   (Total)
    R1        2.32753  -0.00028  -0.00011  -0.00023  -0.00034   2.32719
    R2        2.57878   0.00005   0.00067  -0.00005   0.00062   2.57940
    R3        2.10389  -0.00033  -0.00049  -0.00070  -0.00119   2.10270
    R4        1.91736  -0.00058   0.00027  -0.00118  -0.00092   1.91644
    R5        2.76042  -0.00018  -0.00158   0.00078  -0.00080   2.75962
    R6        2.08018   0.00013  -0.00012   0.00045   0.00034   2.08051
    R7        2.07380   0.00004   0.00062  -0.00050   0.00012   2.07392
    R8        2.08018   0.00013  -0.00012   0.00045   0.00034   2.08051
    A1        2.18435  -0.00027  -0.00160  -0.00044  -0.00205   2.18230
    A2        2.13812   0.00021   0.00145   0.00016   0.00161   2.13973
    A3        1.96072   0.00006   0.00015   0.00029   0.00044   1.96115
    A4        2.03793  -0.00105  -0.00320  -0.00555  -0.00875   2.02918
    A5        2.15089   0.00057   0.00145   0.00231   0.00375   2.15464
    A6        2.09437   0.00048   0.00175   0.00324   0.00500   2.09936
    A7        1.94655  -0.00001  -0.00191   0.00162  -0.00030   1.94625
    A8        1.89248   0.00002   0.00001  -0.00014  -0.00013   1.89235
    A9        1.94656  -0.00001  -0.00191   0.00157  -0.00034   1.94622
   A10        1.88661  -0.00003   0.00122  -0.00130  -0.00008   1.88653
   A11        1.90311   0.00004   0.00158  -0.00064   0.00093   1.90404
   A12        1.88660  -0.00003   0.00122  -0.00129  -0.00007   1.88653
    D1        0.00038  -0.00003   0.00011  -0.00161  -0.00150  -0.00112
    D2       -3.14122  -0.00003   0.00012  -0.00173  -0.00161   3.14036
    D3        3.14127   0.00003  -0.00011   0.00156   0.00144  -3.14048
    D4       -0.00034   0.00003  -0.00011   0.00144   0.00134   0.00100
    D5       -1.06626  -0.00002   0.00035  -0.00067  -0.00031  -1.06658
    D6        3.14159   0.00000  -0.00000   0.00005   0.00005  -3.14155
    D7        1.06625   0.00002  -0.00037   0.00079   0.00042   1.06667
    D8        2.07532  -0.00002   0.00036  -0.00079  -0.00043   2.07489
    D9       -0.00002  -0.00000   0.00001  -0.00007  -0.00006  -0.00008
   D10       -2.07535   0.00002  -0.00036   0.00067   0.00031  -2.07504
         Item               Value     Threshold  Converged?
 Maximum Force            0.001054     0.000450     NO 
 RMS     Force            0.000283     0.000300     YES
 Maximum Displacement     0.010985     0.001800     NO 
 RMS     Displacement     0.003567     0.001200     NO 
 Predicted change in Energy=-8.166864D-06
 GradGradGradGradGradGradGradGradGradGradGradGradGradGradGradGradGradGrad

                          Input orientation:                          
 ---------------------------------------------------------------------
 Center     Atomic      Atomic             Coordinates (Angstroms)
 Number     Number       Type             X           Y           Z
 ---------------------------------------------------------------------
      1          6           0       -1.209198   -0.064448    0.007177
      2          8           0       -0.629730   -1.151090    0.003482
      3          7           0       -0.591773    1.152886    0.008432
      4          1           0       -2.318426    0.023396    0.007596
      5          1           0        0.422302    1.141732    0.007116
      6          6           0       -1.314291    2.421947    0.011346
      7          1           0       -1.945127    2.529414   -0.884540
      8          1           0       -0.581049    3.238525    0.011770
      9          1           0       -1.942932    2.526507    0.909117
 ---------------------------------------------------------------------
                    Distance matrix (angstroms):
                    1          2          3          4          5
     1  C    0.000000
     2  O    1.231498   0.000000
     3  N    1.364960   2.304293   0.000000
     4  H    1.112702   2.056971   2.063269   0.000000
     5  H    2.028956   2.522661   1.014137   2.960113   0.000000
     6  C    2.488619   3.638033   1.460329   2.600259   2.157481
     7  H    2.839872   4.008112   2.126922   2.686147   2.885383
     8  H    3.362176   4.389893   2.085670   3.654525   2.324495
     9  H    2.839878   4.008664   2.126899   2.686875   2.885401
                    6          7          8          9
     6  C    0.000000
     7  H    1.100961   0.000000
     8  H    1.097472   1.779584   0.000000
     9  H    1.100961   1.793661   1.779587   0.000000
 Stoichiometry    C2H5NO
 Framework group  C1[X(C2H5NO)]
 Deg. of freedom    21
 Full point group                 C1      NOp   1
 Largest Abelian subgroup         C1      NOp   1
 Largest concise Abelian subgroup C1      NOp   1
                         Standard orientation:                         
 ---------------------------------------------------------------------
 Center     Atomic      Atomic             Coordinates (Angstroms)
 Number     Number       Type             X           Y           Z
 ---------------------------------------------------------------------
      1          6           0       -0.727529    0.347657    0.000594
      2          8           0       -1.880218   -0.085811   -0.000335
      3          7           0        0.399329   -0.422606    0.000193
      4          1           0       -0.496401    1.436089   -0.000421
      5          1           0        0.256596   -1.426649    0.000054
      6          6           0        1.751466    0.129015   -0.000176
      7          1           0        1.938079    0.739769   -0.896987
      8          1           0        2.465923   -0.704049   -0.000500
      9          1           0        1.938624    0.739545    0.896674
 ---------------------------------------------------------------------
 Rotational constants (GHZ):          43.5236517           4.3209356           4.0323950
 Standard basis: Aug-CC-pVDZ (5D, 7F)
 There are   145 symmetry adapted cartesian basis functions of A   symmetry.
 There are   137 symmetry adapted basis functions of A   symmetry.
   137 basis functions,   227 primitive gaussians,   145 cartesian basis functions
    16 alpha electrons       16 beta electrons
       nuclear repulsion energy       118.2993854617 Hartrees.
 NAtoms=    9 NActive=    9 NUniq=    9 SFac= 1.00D+00 NAtFMM=   60 NAOKFM=F Big=F
 Integral buffers will be    131072 words long.
 Raffenetti 1 integral format.
 Two-electron integral symmetry is turned on.
 One-electron integrals computed using PRISM.
 NBasis=   137 RedAO= T EigKep=  2.38D-04  NBF=   137
 NBsUse=   137 1.00D-06 EigRej= -1.00D+00 NBFU=   137
 Initial guess from the checkpoint file:  "/scr/Gau-17184.chk"
 B after Tr=     0.000000    0.000000    0.000000
         Rot=    1.000000   -0.000029   -0.000009    0.000156 Ang=  -0.02 deg.
 Keep R1 ints in memory in canonical form, NReq=53314847.
 Requested convergence on RMS density matrix=1.00D-08 within 128 cycles.
 Requested convergence on MAX density matrix=1.00D-06.
 Requested convergence on             energy=1.00D-06.
 No special actions if energy rises.
 SCF Done:  E(RHF) =  -207.988761540     A.U. after    9 cycles
            NFock=  9  Conv=0.57D-08     -V/T= 2.0024
 ExpMin= 2.97D-02 ExpMax= 1.17D+04 ExpMxC= 4.01D+02 IAcc=3 IRadAn=         5 AccDes= 0.00D+00
 HarFok:  IExCor=  205 AccDes= 0.00D+00 IRadAn=         5 IDoV=-2 UseB2=F ITyADJ=14
 ICtDFT= 12500011 ScaDFX=  1.000000  1.000000  1.000000  1.000000
 Range of M.O.s used for correlation:     5   137
 NBasis=   137 NAE=    16 NBE=    16 NFC=     4 NFV=     0
 NROrb=    133 NOA=    12 NOB=    12 NVA=   121 NVB=   121

 **** Warning!!: The largest alpha MO coefficient is  0.16348863D+02

 Fully direct method using O(ONN) memory.
 JobTyp=1 Pass  1:  I=   5 to  16 NPSUse= 40 ParTrn=T ParDer=T DoDerP=T.
 Spin components of T(2) and E(2):
     alpha-alpha T2 =       0.2718401516D-01 E2=     -0.8353923857D-01
     alpha-beta  T2 =       0.1551732282D+00 E2=     -0.4923731025D+00
     beta-beta   T2 =       0.2718401516D-01 E2=     -0.8353923857D-01
 ANorm=    0.1099791461D+01
 E2 =    -0.6594515797D+00 EUMP2 =    -0.20864821311951D+03
          IDoAtm=111111111
          Differentiating once with respect to electric field.
                with respect to dipole field.
          Differentiating once with respect to nuclear coordinates.
 Keep R1 ints in memory in canonical form, NReq=53320783.
          There are     1 degrees of freedom in the 1st order CPHF.  IDoFFX=0 NUNeed=     1.
 LinEq1:  Iter=  0 NonCon=     1 RMS=5.64D-03 Max=1.09D-01 NDo=     1
 AX will form     1 AO Fock derivatives at one time.
 LinEq1:  Iter=  1 NonCon=     1 RMS=1.69D-03 Max=1.99D-02 NDo=     1
 LinEq1:  Iter=  2 NonCon=     1 RMS=6.27D-04 Max=9.05D-03 NDo=     1
 LinEq1:  Iter=  3 NonCon=     1 RMS=2.38D-04 Max=3.59D-03 NDo=     1
 LinEq1:  Iter=  4 NonCon=     1 RMS=6.42D-05 Max=4.75D-04 NDo=     1
 LinEq1:  Iter=  5 NonCon=     1 RMS=2.18D-05 Max=2.61D-04 NDo=     1
 LinEq1:  Iter=  6 NonCon=     1 RMS=5.51D-06 Max=7.39D-05 NDo=     1
 LinEq1:  Iter=  7 NonCon=     1 RMS=1.04D-06 Max=1.19D-05 NDo=     1
 LinEq1:  Iter=  8 NonCon=     1 RMS=2.30D-07 Max=2.28D-06 NDo=     1
 LinEq1:  Iter=  9 NonCon=     1 RMS=5.03D-08 Max=4.31D-07 NDo=     1
 LinEq1:  Iter= 10 NonCon=     1 RMS=1.55D-08 Max=1.55D-07 NDo=     1
 LinEq1:  Iter= 11 NonCon=     1 RMS=4.16D-09 Max=3.29D-08 NDo=     1
 LinEq1:  Iter= 12 NonCon=     1 RMS=7.94D-10 Max=5.78D-09 NDo=     1
 LinEq1:  Iter= 13 NonCon=     1 RMS=1.29D-10 Max=1.01D-09 NDo=     1
 LinEq1:  Iter= 14 NonCon=     0 RMS=2.50D-11 Max=4.48D-10 NDo=     1
 Linear equations converged to 1.000D-10 1.000D-09 after    14 iterations.
 End of Minotr F.D. properties file   721 does not exist.
 End of Minotr F.D. properties file   722 does not exist.
 End of Minotr F.D. properties file   788 does not exist.
 Calling FoFJK, ICntrl=  10002127 FMM=F ISym2X=0 I1Cent= 0 IOpClX= 0 NMat=1 NMatS=1 NMatT=0.
 ***** Axes restored to original set *****
 -------------------------------------------------------------------
 Center     Atomic                   Forces (Hartrees/Bohr)
 Number     Number              X              Y              Z
 -------------------------------------------------------------------
      1        6           0.000022071    0.000173794   -0.000276570
      2        8           0.000022057   -0.000014313    0.000105704
      3        7          -0.000043562    0.000043567    0.000061665
      4        1          -0.000064515   -0.000081663    0.000093320
      5        1          -0.000017284   -0.000005393    0.000001184
      6        6           0.000154006   -0.000211682    0.000017185
      7        1          -0.000022811    0.000036542    0.000010186
      8        1          -0.000025912    0.000014679    0.000000882
      9        1          -0.000024051    0.000044470   -0.000013556
 -------------------------------------------------------------------
 Cartesian Forces:  Max     0.000276570 RMS     0.000090456

 GradGradGradGradGradGradGradGradGradGradGradGradGradGradGradGradGradGrad
 Berny optimization.
 Using GEDIIS/GDIIS optimizer.
 FormGI is forming the generalized inverse of G from B-inverse, IUseBI=4.
 Internal  Forces:  Max     0.000140961 RMS     0.000059274
 Search for a local minimum.
 Step number   4 out of a maximum of   40
 All quantities printed in internal units (Hartrees-Bohrs-Radians)
 Mixed Optimization -- En-DIIS/RFO-DIIS
 Swapping is turned off.
 Update second derivatives using D2CorX and points    1    2    3    4
 DE= -8.06D-06 DEPred=-8.17D-06 R= 9.86D-01
 TightC=F SS=  1.41D+00  RLast= 1.17D-02 DXNew= 6.5812D-01 3.5059D-02
 Trust test= 9.86D-01 RLast= 1.17D-02 DXMaxT set to 3.91D-01
 ITU=  1  1  1  0
     Eigenvalues ---    0.01073   0.01611   0.02482   0.02577   0.07381
     Eigenvalues ---    0.07716   0.11072   0.16000   0.16021   0.16233
     Eigenvalues ---    0.18253   0.20431   0.22319   0.32498   0.32573
     Eigenvalues ---    0.32846   0.33760   0.40670   0.51305   0.56637
     Eigenvalues ---    0.92598
 En-DIIS/RFO-DIIS/Sim-DIIS IScMMF=       -3 using points:     4    3
 RFO step:  Lambda=-1.76451831D-06.
 DidBck=F Rises=F RFO-DIIS coefs:    0.95445    0.04555
 Iteration  1 RMS(Cart)=  0.00133277 RMS(Int)=  0.00000404
 Iteration  2 RMS(Cart)=  0.00000330 RMS(Int)=  0.00000258
 Iteration  3 RMS(Cart)=  0.00000000 RMS(Int)=  0.00000258
 Variable       Old X    -DE/DX   Delta X   Delta X   Delta X     New X
                                 (Linear)    (Quad)   (Total)
    R1        2.32719   0.00002   0.00002  -0.00002  -0.00001   2.32718
    R2        2.57940  -0.00006  -0.00003   0.00002  -0.00001   2.57939
    R3        2.10270   0.00006   0.00005  -0.00001   0.00005   2.10275
    R4        1.91644  -0.00002   0.00004  -0.00014  -0.00010   1.91635
    R5        2.75962  -0.00014   0.00004  -0.00053  -0.00049   2.75913
    R6        2.08051   0.00001  -0.00002   0.00006   0.00005   2.08056
    R7        2.07392  -0.00001  -0.00001   0.00001   0.00001   2.07393
    R8        2.08051   0.00001  -0.00002   0.00006   0.00004   2.08056
    A1        2.18230  -0.00008   0.00009  -0.00071  -0.00062   2.18168
    A2        2.13973  -0.00005  -0.00007  -0.00010  -0.00018   2.13954
    A3        1.96115   0.00013  -0.00002   0.00082   0.00080   1.96195
    A4        2.02918  -0.00003   0.00040  -0.00149  -0.00109   2.02809
    A5        2.15464   0.00005  -0.00017   0.00079   0.00062   2.15526
    A6        2.09936  -0.00002  -0.00023   0.00070   0.00047   2.09983
    A7        1.94625   0.00004   0.00001   0.00015   0.00017   1.94642
    A8        1.89235   0.00002   0.00001   0.00011   0.00012   1.89247
    A9        1.94622   0.00006   0.00002   0.00025   0.00027   1.94649
   A10        1.88653  -0.00003   0.00000  -0.00019  -0.00019   1.88634
   A11        1.90404  -0.00005  -0.00004  -0.00015  -0.00019   1.90385
   A12        1.88653  -0.00004   0.00000  -0.00020  -0.00020   1.88633
    D1       -0.00112   0.00010   0.00007   0.00369   0.00376   0.00264
    D2        3.14036   0.00010   0.00007   0.00396   0.00403  -3.13880
    D3       -3.14048  -0.00009  -0.00007  -0.00358  -0.00365   3.13906
    D4        0.00100  -0.00009  -0.00006  -0.00331  -0.00337  -0.00237
    D5       -1.06658  -0.00000   0.00001  -0.00020  -0.00018  -1.06676
    D6       -3.14155  -0.00000  -0.00000  -0.00013  -0.00013   3.14150
    D7        1.06667  -0.00000  -0.00002  -0.00010  -0.00012   1.06655
    D8        2.07489   0.00000   0.00002   0.00008   0.00010   2.07500
    D9       -0.00008   0.00000   0.00000   0.00015   0.00015   0.00007
   D10       -2.07504   0.00000  -0.00001   0.00018   0.00016  -2.07488
         Item               Value     Threshold  Converged?
 Maximum Force            0.000141     0.000450     YES
 RMS     Force            0.000059     0.000300     YES
 Maximum Displacement     0.003671     0.001800     NO 
 RMS     Displacement     0.001333     0.001200     NO 
 Predicted change in Energy=-8.820255D-07
 GradGradGradGradGradGradGradGradGradGradGradGradGradGradGradGradGradGrad

                          Input orientation:                          
 ---------------------------------------------------------------------
 Center     Atomic      Atomic             Coordinates (Angstroms)
 Number     Number       Type             X           Y           Z
 ---------------------------------------------------------------------
      1          6           0       -1.209344   -0.064479    0.005234
      2          8           0       -0.628917   -1.150610    0.004929
      3          7           0       -0.592240    1.153010    0.007596
      4          1           0       -2.318685    0.022184    0.008881
      5          1           0        0.421775    1.141019    0.006799
      6          6           0       -1.314181    2.422101    0.011287
      7          1           0       -1.944660    2.530730   -0.884740
      8          1           0       -0.580743    3.238509    0.012678
      9          1           0       -1.943230    2.526405    0.908831
 ---------------------------------------------------------------------
                    Distance matrix (angstroms):
                    1          2          3          4          5
     1  C    0.000000
     2  O    1.231493   0.000000
     3  N    1.364955   2.303914   0.000000
     4  H    1.112727   2.056885   2.063826   0.000000
     5  H    2.028245   2.521016   1.014087   2.960053   0.000000
     6  C    2.488797   3.637842   1.460070   2.601660   2.157483
     7  H    2.840397   4.009359   2.126832   2.689099   2.885507
     8  H    3.362280   4.389391   2.085537   3.655845   2.324767
     9  H    2.840380   4.008104   2.126878   2.687378   2.885516
                    6          7          8          9
     6  C    0.000000
     7  H    1.100986   0.000000
     8  H    1.097476   1.779488   0.000000
     9  H    1.100984   1.793577   1.779480   0.000000
 Stoichiometry    C2H5NO
 Framework group  C1[X(C2H5NO)]
 Deg. of freedom    21
 Full point group                 C1      NOp   1
 Largest Abelian subgroup         C1      NOp   1
 Largest concise Abelian subgroup C1      NOp   1
                         Standard orientation:                         
 ---------------------------------------------------------------------
 Center     Atomic      Atomic             Coordinates (Angstroms)
 Number     Number       Type             X           Y           Z
 ---------------------------------------------------------------------
      1          6           0       -0.727617    0.348039   -0.001362
      2          8           0       -1.879996   -0.086237    0.000759
      3          7           0        0.399301   -0.422128   -0.000417
      4          1           0       -0.497443    1.436696    0.000998
      5          1           0        0.255565   -1.425976   -0.000152
      6          6           0        1.751492    0.128672    0.000394
      7          1           0        1.939560    0.738958   -0.896463
      8          1           0        2.465607   -0.704691    0.001163
      9          1           0        1.938321    0.739537    0.897114
 ---------------------------------------------------------------------
 Rotational constants (GHZ):          43.5347220           4.3212084           4.0327197
 Standard basis: Aug-CC-pVDZ (5D, 7F)
 There are   145 symmetry adapted cartesian basis functions of A   symmetry.
 There are   137 symmetry adapted basis functions of A   symmetry.
   137 basis functions,   227 primitive gaussians,   145 cartesian basis functions
    16 alpha electrons       16 beta electrons
       nuclear repulsion energy       118.3041283565 Hartrees.
 NAtoms=    9 NActive=    9 NUniq=    9 SFac= 1.00D+00 NAtFMM=   60 NAOKFM=F Big=F
 Integral buffers will be    131072 words long.
 Raffenetti 1 integral format.
 Two-electron integral symmetry is turned on.
 One-electron integrals computed using PRISM.
 NBasis=   137 RedAO= T EigKep=  2.38D-04  NBF=   137
 NBsUse=   137 1.00D-06 EigRej= -1.00D+00 NBFU=   137
 Initial guess from the checkpoint file:  "/scr/Gau-17184.chk"
 B after Tr=    -0.000000    0.000000    0.000000
         Rot=    1.000000    0.000076    0.000024    0.000011 Ang=   0.01 deg.
 Keep R1 ints in memory in canonical form, NReq=53314788.
 Requested convergence on RMS density matrix=1.00D-08 within 128 cycles.
 Requested convergence on MAX density matrix=1.00D-06.
 Requested convergence on             energy=1.00D-06.
 No special actions if energy rises.
 SCF Done:  E(RHF) =  -207.988770948     A.U. after    9 cycles
            NFock=  9  Conv=0.10D-07     -V/T= 2.0024
 ExpMin= 2.97D-02 ExpMax= 1.17D+04 ExpMxC= 4.01D+02 IAcc=3 IRadAn=         5 AccDes= 0.00D+00
 HarFok:  IExCor=  205 AccDes= 0.00D+00 IRadAn=         5 IDoV=-2 UseB2=F ITyADJ=14
 ICtDFT= 12500011 ScaDFX=  1.000000  1.000000  1.000000  1.000000
 Range of M.O.s used for correlation:     5   137
 NBasis=   137 NAE=    16 NBE=    16 NFC=     4 NFV=     0
 NROrb=    133 NOA=    12 NOB=    12 NVA=   121 NVB=   121

 **** Warning!!: The largest alpha MO coefficient is  0.16525544D+02

 Fully direct method using O(ONN) memory.
 JobTyp=1 Pass  1:  I=   5 to  16 NPSUse= 40 ParTrn=T ParDer=T DoDerP=T.
 Spin components of T(2) and E(2):
     alpha-alpha T2 =       0.2718262771D-01 E2=     -0.8353837659D-01
     alpha-beta  T2 =       0.1551654852D+00 E2=     -0.4923646137D+00
     beta-beta   T2 =       0.2718262771D-01 E2=     -0.8353837659D-01
 ANorm=    0.1099786680D+01
 E2 =    -0.6594413668D+00 EUMP2 =    -0.20864821231480D+03
          IDoAtm=111111111
          Differentiating once with respect to electric field.
                with respect to dipole field.
          Differentiating once with respect to nuclear coordinates.
 Keep R1 ints in memory in canonical form, NReq=53320783.
          There are     1 degrees of freedom in the 1st order CPHF.  IDoFFX=0 NUNeed=     1.
 LinEq1:  Iter=  0 NonCon=     1 RMS=5.64D-03 Max=1.09D-01 NDo=     1
 AX will form     1 AO Fock derivatives at one time.
 LinEq1:  Iter=  1 NonCon=     1 RMS=1.69D-03 Max=1.99D-02 NDo=     1
 LinEq1:  Iter=  2 NonCon=     1 RMS=6.27D-04 Max=9.05D-03 NDo=     1
 LinEq1:  Iter=  3 NonCon=     1 RMS=2.38D-04 Max=3.59D-03 NDo=     1
 LinEq1:  Iter=  4 NonCon=     1 RMS=6.42D-05 Max=4.74D-04 NDo=     1
 LinEq1:  Iter=  5 NonCon=     1 RMS=2.18D-05 Max=2.60D-04 NDo=     1
 LinEq1:  Iter=  6 NonCon=     1 RMS=5.51D-06 Max=7.39D-05 NDo=     1
 LinEq1:  Iter=  7 NonCon=     1 RMS=1.04D-06 Max=1.19D-05 NDo=     1
 LinEq1:  Iter=  8 NonCon=     1 RMS=2.30D-07 Max=2.28D-06 NDo=     1
 LinEq1:  Iter=  9 NonCon=     1 RMS=5.03D-08 Max=4.29D-07 NDo=     1
 LinEq1:  Iter= 10 NonCon=     1 RMS=1.54D-08 Max=1.54D-07 NDo=     1
 LinEq1:  Iter= 11 NonCon=     1 RMS=4.16D-09 Max=3.25D-08 NDo=     1
 LinEq1:  Iter= 12 NonCon=     1 RMS=8.09D-10 Max=5.72D-09 NDo=     1
 LinEq1:  Iter= 13 NonCon=     1 RMS=1.46D-10 Max=2.20D-09 NDo=     1
 LinEq1:  Iter= 14 NonCon=     0 RMS=3.65D-11 Max=7.67D-10 NDo=     1
 Linear equations converged to 1.000D-10 1.000D-09 after    14 iterations.
 End of Minotr F.D. properties file   721 does not exist.
 End of Minotr F.D. properties file   722 does not exist.
 End of Minotr F.D. properties file   788 does not exist.
 Calling FoFJK, ICntrl=  10002127 FMM=F ISym2X=0 I1Cent= 0 IOpClX= 0 NMat=1 NMatS=1 NMatT=0.
 ***** Axes restored to original set *****
 -------------------------------------------------------------------
 Center     Atomic                   Forces (Hartrees/Bohr)
 Number     Number              X              Y              Z
 -------------------------------------------------------------------
      1        6           0.000017509    0.000167193    0.000640054
      2        8           0.000008402   -0.000086719   -0.000244489
      3        7          -0.000054976   -0.000107048   -0.000142807
      4        1          -0.000027834   -0.000022379   -0.000215604
      5        1           0.000037835    0.000067669   -0.000002402
      6        6           0.000064359   -0.000070237   -0.000041319
      7        1          -0.000016041    0.000031254    0.000016649
      8        1          -0.000015923    0.000007401   -0.000001694
      9        1          -0.000013331    0.000012866   -0.000008389
 -------------------------------------------------------------------
 Cartesian Forces:  Max     0.000640054 RMS     0.000149934

 GradGradGradGradGradGradGradGradGradGradGradGradGradGradGradGradGradGrad
 Berny optimization.
 Using GEDIIS/GDIIS optimizer.
 FormGI is forming the generalized inverse of G from B-inverse, IUseBI=4.
 Internal  Forces:  Max     0.000238318 RMS     0.000086774
 Search for a local minimum.
 Step number   5 out of a maximum of   40
 All quantities printed in internal units (Hartrees-Bohrs-Radians)
 Mixed Optimization -- En-DIIS/RFO-DIIS
 Swapping is turned off.
 Update second derivatives using D2CorX and points    1    2    3    4    5
 DE=  8.05D-07 DEPred=-8.82D-07 R=-9.12D-01
 Trust test=-9.12D-01 RLast= 7.65D-03 DXMaxT set to 1.96D-01
 ITU= -1  1  1  1  0
     Eigenvalues ---    0.01073   0.01612   0.02482   0.07061   0.07398
     Eigenvalues ---    0.07714   0.08941   0.15985   0.16042   0.16283
     Eigenvalues ---    0.17594   0.20028   0.22383   0.32498   0.32524
     Eigenvalues ---    0.32837   0.33777   0.39990   0.51312   0.56255
     Eigenvalues ---    0.92844
 En-DIIS/RFO-DIIS/Sim-DIIS IScMMF=       -3 using points:     5    4    3
 RFO step:  Lambda=-2.41298349D-06.
 EnCoef did     1 forward-backward iterations
 DidBck=T Rises=T En-DIIS coefs:    0.41435    0.33499    0.25066
 Iteration  1 RMS(Cart)=  0.00092027 RMS(Int)=  0.00000173
 Iteration  2 RMS(Cart)=  0.00000178 RMS(Int)=  0.00000041
 Iteration  3 RMS(Cart)=  0.00000000 RMS(Int)=  0.00000041
 Variable       Old X    -DE/DX   Delta X   Delta X   Delta X     New X
                                 (Linear)    (Quad)   (Total)
    R1        2.32718   0.00008   0.00009  -0.00005   0.00004   2.32723
    R2        2.57939  -0.00005  -0.00015   0.00016   0.00001   2.57940
    R3        2.10275   0.00003   0.00027  -0.00022   0.00005   2.10280
    R4        1.91635   0.00004   0.00029  -0.00024   0.00005   1.91639
    R5        2.75913  -0.00003   0.00049  -0.00086  -0.00037   2.75876
    R6        2.08056  -0.00000  -0.00011   0.00011  -0.00000   2.08056
    R7        2.07393  -0.00001  -0.00003   0.00007   0.00003   2.07396
    R8        2.08056   0.00000  -0.00011   0.00011   0.00000   2.08056
    A1        2.18168   0.00004   0.00088  -0.00119  -0.00032   2.18136
    A2        2.13954  -0.00004  -0.00030   0.00017  -0.00013   2.13941
    A3        1.96195   0.00001  -0.00058   0.00103   0.00046   1.96241
    A4        2.02809   0.00008   0.00283  -0.00327  -0.00044   2.02766
    A5        2.15526  -0.00002  -0.00130   0.00162   0.00032   2.15558
    A6        2.09983  -0.00005  -0.00153   0.00165   0.00012   2.09995
    A7        1.94642   0.00005  -0.00002   0.00013   0.00011   1.94653
    A8        1.89247   0.00001  -0.00004   0.00014   0.00010   1.89257
    A9        1.94649   0.00001  -0.00007   0.00010   0.00003   1.94652
   A10        1.88634  -0.00003   0.00013  -0.00020  -0.00007   1.88627
   A11        1.90385  -0.00004  -0.00012   0.00001  -0.00011   1.90373
   A12        1.88633  -0.00001   0.00014  -0.00020  -0.00006   1.88627
    D1        0.00264  -0.00023  -0.00182  -0.00105  -0.00287  -0.00023
    D2       -3.13880  -0.00024  -0.00196  -0.00112  -0.00307   3.14131
    D3        3.13906   0.00021   0.00177   0.00100   0.00277  -3.14135
    D4       -0.00237   0.00020   0.00164   0.00093   0.00257   0.00020
    D5       -1.06676   0.00001   0.00019  -0.00006   0.00013  -1.06663
    D6        3.14150   0.00000   0.00007   0.00002   0.00009   3.14159
    D7        1.06655   0.00000  -0.00003   0.00012   0.00008   1.06664
    D8        2.07500  -0.00000   0.00005  -0.00013  -0.00008   2.07491
    D9        0.00007  -0.00001  -0.00007  -0.00005  -0.00012  -0.00005
   D10       -2.07488  -0.00001  -0.00017   0.00005  -0.00013  -2.07500
         Item               Value     Threshold  Converged?
 Maximum Force            0.000238     0.000450     YES
 RMS     Force            0.000087     0.000300     YES
 Maximum Displacement     0.002802     0.001800     NO 
 RMS     Displacement     0.000920     0.001200     YES
 Predicted change in Energy=-1.124476D-06
 GradGradGradGradGradGradGradGradGradGradGradGradGradGradGradGradGradGrad

                          Input orientation:                          
 ---------------------------------------------------------------------
 Center     Atomic      Atomic             Coordinates (Angstroms)
 Number     Number       Type             X           Y           Z
 ---------------------------------------------------------------------
      1          6           0       -1.209452   -0.064476    0.006717
      2          8           0       -0.628538   -1.150367    0.003824
      3          7           0       -0.592496    1.153096    0.008232
      4          1           0       -2.318874    0.021554    0.007907
      5          1           0        0.421541    1.140784    0.007038
      6          6           0       -1.314090    2.422158    0.011331
      7          1           0       -1.944878    2.530432   -0.884522
      8          1           0       -0.580564    3.238509    0.011991
      9          1           0       -1.942873    2.527180    0.908979
 ---------------------------------------------------------------------
                    Distance matrix (angstroms):
                    1          2          3          4          5
     1  C    0.000000
     2  O    1.231515   0.000000
     3  N    1.364960   2.303748   0.000000
     4  H    1.112754   2.056855   2.064164   0.000000
     5  H    2.028001   2.520326   1.014112   2.960161   0.000000
     6  C    2.488838   3.637715   1.459872   2.602403   2.157395
     7  H    2.840546   4.008764   2.126735   2.689010   2.885470
     8  H    3.362326   4.389145   2.085451   3.656575   2.324799
     9  H    2.840539   4.008882   2.126728   2.689140   2.885488
                    6          7          8          9
     6  C    0.000000
     7  H    1.100986   0.000000
     8  H    1.097493   1.779456   0.000000
     9  H    1.100986   1.793505   1.779456   0.000000
 Stoichiometry    C2H5NO
 Framework group  C1[X(C2H5NO)]
 Deg. of freedom    21
 Full point group                 C1      NOp   1
 Largest Abelian subgroup         C1      NOp   1
 Largest concise Abelian subgroup C1      NOp   1
                         Standard orientation:                         
 ---------------------------------------------------------------------
 Center     Atomic      Atomic             Coordinates (Angstroms)
[...]
 008577,-0.00036030,0.00000093,0.00014768,-0.00047005,-0.00000317,-0.00
 099386,-0.00020588,0.00000191,-0.00003809,0.00003930,-0.00000139,-0.00
 027302,0.00038460,-0.00000039,0.00000177,-0.00010801,0.00020409,0.0004
 0001,-0.00082994,-0.00053595,0.00000230,0.00014891,0.00008148,-0.00000
 247,0.00010054,0.00044295,0.00000265,0.00033895,-0.00017413,-0.0000016
 9,-0.00008188,-0.00009101,0.00000073,0.00050141,0.00026689,-0.00000900
 ,-0.00010178,0.00002620,-0.00002590,0.00002505,-0.00004444,-0.00000327
 ,-0.00000383,0.00012870,0.00000082,0.00000090,0.00004005,-0.00000050,0
 .00000366,-0.00036458,0.00000250,-0.00000060,0.00010342,-0.00000020,-0
 .00000002,-0.00001322,-0.00000246,-0.00000409,-0.00029104,0.00011586,0
 .00009301,0.00019955,0.00000362,0.00000632,0.00000024,0.00037547,0.000
 51930,-0.00001214,-0.00006175,-0.00028677,-0.00006512,-0.00004296,-0.0
 0057198,-0.00001127,-0.00033192,0.00001789,0.00018785,-0.00003149,-0.0
 0002496,-0.00014938,-0.00143859,0.00123942,0.00416614,0.00004215,-0.00
 008679,-0.00008962,-0.00000241,-0.00010126,-0.00011637,0.00149149,-0.0
 0055510,-0.00019508,-0.00027739,-0.00005217,0.00022135,0.00007976,-0.0
 0014875,-0.00034467,-0.00020047,0.00092222,0.00032337,0.00024594,0.000
 05113,-0.00004488,0.00009630,0.00068185,0.00105205,-0.00042702,-0.0000
 8236,0.00001295,0.00008195,-0.00011197,0.00002803,-0.00009535,-0.00070
 485,-0.00105312,-0.00023274,-0.00044305,0.00002489,-0.00006991,0.00021
 703,0.00002736,-0.00028224,0.00040149,-0.00014304,0.00043453,0.0003940
 8,-0.00007636,-0.00000704,0.00001980,0.00002552,0.00418609,-0.00102479
 ,-0.00445449,0.00008781,-0.00008792,0.00028310,-0.00020642,0.00002707,
 0.00019687,-0.00391009,0.00049629,0.00411616,0.01253548,-0.00146010,-0
 .00741213,0.00012461,-0.00002760,-0.00355221,-0.00131129,-0.00054015,-
 0.00012574,0.00083971,0.00170532,0.00229177,0.00008162,-0.00006183,-0.
 00210293,-0.00007641,0.00006109,-0.00014369,0.00009392,-0.00007856,0.0
 0025104,-0.00025057,-0.00376203,-0.00003396,-0.00024966,0.00056377,0.0
 0000094,-0.00340250,0.00228802,0.00672837,0.00001749,0.00047674,-0.002
 07060,-0.00004758,0.00702193,-0.01699902,-0.00003636,-0.00003044,0.001
 38890,0.00003801,0.00001494,-0.00023695,0.00004267,-0.00004374,0.00062
 463,-0.01263340,0.00221304,0.00003738,0.00052429,-0.00065001,-0.000018
 30,0.00056328,-0.00053954,-0.00002903,0.01185781,0.00182845,0.00224670
 ,-0.00005887,0.00002662,-0.00005523,0.00006286,-0.00042634,-0.00032685
 ,0.00000677,-0.00148052,-0.00196648,-0.00000655,0.00001079,0.00225101,
 -0.00000953,-0.00003401,0.00017379,0.00000682,0.00003278,0.00009097,0.
 00001375,-0.00000761,-0.00246008,0.00016377,0.00019056,-0.00001296,0.0
 0001088,-0.00027138,0.00000694,-0.00016339,-0.00163072,0.00001634,0.00
 003474,0.00002956,-0.00000949,-0.00015925,0.00007896,0.00026169,-0.000
 00290,-0.00000736,-0.00002589,0.00000026,0.00050226,0.00132174,0.00000
 024,0.00006564,-0.00002393,0.00000332,0.00092906,-0.00187820,-0.000003
 05,0.00000114,0.00025851,0.00000696,0.00000730,0.00013213,-0.00000562,
 0.00000418,-0.00040335,-0.00000677,-0.00000071,-0.00018338,0.00000655,
 -0.00000629,-0.00029652,-0.00054965,0.00265712,0.00001406,0.00031309,0
 .00005713,-0.00000784,0.00451698,-0.00529104,-0.00003313,0.00027336,0.
 00019860,0.00000772,0.00013045,-0.00027032,0.00000606,0.63966102,-0.00
 101510,-0.00409653,-0.00001956,-0.00010622,0.00074987,0.00000588,-0.01
 267190,0.01431123,0.00007191,0.00021726,0.00008587,-0.00000595,0.00067
 490,-0.00090224,-0.00000601,0.13690130,-0.27769493,0.00000742,-0.00001
 356,0.00057255,-0.00000432,0.00000430,0.00005050,-0.00002502,0.0000361
 8,-0.00386642,0.00000217,-0.00000243,-0.00021505,-0.00000800,0.0000012
 2,0.00029697,0.00116864,-0.00327210,1.43626016,0.00105163,0.00008418,-
 0.00002346,-0.00006693,-0.00071159,-0.00007324,-0.00060553,-0.00393285
 ,0.00023246,-0.00024516,-0.00010721,0.00008719,0.00013885,-0.00035052,
 -0.00029562,-0.23615399,0.07333419,-0.68940884,0.22034701,-0.00131368,
 0.00021191,0.00090934,0.00005421,0.00039430,-0.00051695,0.00493206,-0.
 00198736,0.00526845,0.00003759,-0.00001495,0.00004378,0.00004689,0.000
 23805,-0.00028012,0.07558599,0.23160578,0.11319063,-0.07116443,-0.2364
 7744,0.00027348,-0.00077448,-0.00030007,-0.00032741,0.00010733,-0.0001
 3487,0.00695049,-0.00432810,0.00186769,-0.00015326,-0.00013268,0.00015
 671,0.00047341,-0.00114998,-0.00002495,-0.67653210,0.10358001,-0.75445
 590,0.67887533,-0.10268166,0.74826409,-0.00005796,0.00052858,0.0000006
 9,0.00000523,0.00007997,0.00000200,0.00020730,0.00553708,0.00000621,-0
 .00013026,0.00003794,0.00000136,-0.00029720,-0.00059677,-0.00000193,-0
 .17508940,-0.26794164,-0.00020194,-0.00031938,-0.00618361,0.00917106,0
 .17600695,-0.00079507,-0.00043431,0.00000294,0.00010339,0.00042205,-0.
 00000174,-0.00111050,0.00100949,0.00000677,0.00009756,0.00006994,-0.00
 000078,-0.00001403,0.00077526,0.00000172,-0.28270942,-0.19641270,-0.00
 019403,0.00490120,0.00407186,0.00319689,0.27466213,0.18646312,-0.00000
 251,-0.00000287,-0.00017872,0.00000081,0.00000107,0.00004578,-0.000003
 95,-0.00000036,-0.00134300,0.00000084,-0.00000026,0.00002565,0.0000005
 1,0.00000186,0.00023777,-0.00023108,-0.00020501,0.07961975,-0.00807651
 ,-0.01376300,0.00626792,0.00020346,0.00020227,-0.09098052,0.00105199,0
 .00008879,0.00001939,-0.00006531,-0.00071137,0.00007199,-0.00061591,-0
 .00392961,-0.00023719,-0.00024467,-0.00010710,-0.00009128,0.00014114,-
 0.00035095,0.00029342,-0.23310186,0.07060721,0.68846989,0.01585348,-0.
 00199503,-0.01873101,-0.00032530,0.00486474,0.00810843,0.21730643,-0.0
 0131679,0.00020254,-0.00090245,0.00005461,0.00039665,0.00051474,0.0049
 5075,-0.00198701,-0.00529491,0.00003898,-0.00001508,-0.00004231,0.0000
 4515,0.00023353,0.00027879,0.07287065,0.23235365,-0.10975021,-0.002052
 97,0.00195784,0.00218268,-0.00612368,0.00403528,0.01376629,-0.06846669
 ,-0.23717741,-0.00028064,0.00077593,-0.00029628,0.00032731,-0.00010399
 ,-0.00013770,-0.00693237,0.00432915,0.00187751,0.00015322,0.00013293,0
 .00016038,-0.00047330,0.00115227,-0.00001719,0.67560766,-0.10014917,-0
 .75826256,0.01868268,-0.00217046,-0.00164060,-0.00918091,-0.00321405,0
 .00630537,-0.67790364,0.09924738,0.75201108,0.00297869,0.00057859,-0.0
 0635522,0.00013788,-0.00003634,-0.00017489,-0.00234649,-0.00094702,-0.
 00012497,0.00164044,0.00195817,0.00355688,0.00008468,0.00004326,-0.003
 36141,-0.00007441,0.00006505,-0.00051095,0.00009297,-0.00008154,0.0005
 5153,-0.00128689,-0.00502685,-0.00003470,-0.00042629,0.00116527,0.0000
 0206,0.00129666,0.00351483,0.00907962,0.00002229,0.00067902,-0.0032074
 8,-0.00004992,0.01767713,-0.03242197,-0.00003245,-0.00002233,0.0010637
 2,0.00003841,0.00001167,-0.00014989,0.00006325,-0.00009512,0.00642695,
 -0.00208886,0.00068679,0.00002243,0.00080192,-0.00075567,-0.00001852,0
 .00073485,-0.00076014,-0.00002906,0.00104582,0.00039635,-0.00004406,-0
 .00005536,0.00006917,-0.00016935,0.00006161,-0.00076554,-0.00015876,0.
 00000689,0.00000747,0.00044927,-0.00002095,0.00001395,-0.00077443,-0.0
 0000954,-0.00003430,0.00031744,0.00000625,0.00003222,0.00039202,0.0000
 2816,-0.00000957,0.00021163,-0.00003477,0.00034597,-0.00001251,0.00014
 493,-0.00053484,0.00000630,-0.00047108,-0.00193400,0.00001466,0.000080
 30,0.00004245,-0.00000953,-0.00012353,-0.00010415,0.00051103,-0.000001
 70,0.00004293,0.00000699,0.00000011,-0.00022783,-0.00035569,-0.0000009
 7,0.00005385,0.00001006,0.00000352,0.00118245,-0.00053786,-0.00000342,
 0.00000185,-0.00001426,0.00000690,0.00000735,0.00022876,-0.00000754,0.
 00000247,-0.00102897,-0.00000687,-0.00000051,-0.00027536,0.00000842,-0
 .00000575,0.00063332,0.00466912,0.00928313,0.00001990,0.00059913,-0.00
 361315,-0.00001448,-0.00405498,-0.02399515,-0.00006998,-0.00033472,0.0
 0040883,0.00000811,-0.00002625,0.00060828,0.00000650,0.67081930,-0.003
 38401,-0.00833259,-0.00002266,-0.00036191,0.00304135,0.00000953,-0.029
 94056,0.03185294,0.00014302,0.00023665,0.00012601,-0.00000527,0.000739
 12,0.00128856,-0.00000067,-0.22883862,-0.65390580,-0.00000388,-0.00002
 666,-0.00043269,-0.00000445,0.00001124,0.00060316,-0.00005900,0.000109
 65,-0.01501161,0.00000264,-0.00000202,-0.00046577,-0.00000844,0.000005
 35,-0.00040226,0.00091288,-0.00431466,1.86077931,-0.00137847,-0.002799
 01,0.00005050,-0.00014957,0.00102140,-0.00028942,0.00202729,0.00320288
 ,-0.00047511,0.00000280,-0.00007733,0.00027580,0.00030612,-0.00073877,
 0.00060939,-0.33361151,0.12283998,-0.93571012,0.34392446,-0.00110594,0
 .00077423,0.00049354,0.00017321,-0.00003650,-0.00038720,0.00776222,-0.
 00276139,0.00451048,0.00021523,-0.00005780,-0.00000701,0.00004601,-0.0
 0042171,-0.00029483,0.12637583,0.31065950,0.16873494,-0.12562425,-0.30
 347983,0.00173831,0.00096377,-0.00036218,-0.00025488,-0.00086538,-0.00
 030332,0.00576252,-0.00962058,0.00327467,-0.00037685,-0.00019939,0.000
 28520,0.00029703,-0.00093891,0.00081685,-0.92958834,0.17205848,-0.9128
 2698,0.92600688,-0.16689139,0.89429147,0.00086949,0.00067647,0.0000019
 4,-0.00011638,-0.00030730,0.00000078,0.00015895,-0.00160030,-0.0000030
 2,-0.00024564,-0.00000511,0.00000139,-0.00018236,-0.00008029,-0.000002
 33,-0.00860478,0.01964152,0.00003108,0.00284694,-0.00919842,0.00503285
 ,0.00244359,-0.00075095,0.00004061,0.00000062,0.00012780,0.00020655,-0
 .00000131,0.00157751,0.00075538,-0.00000219,0.00009995,-0.00009694,-0.
 00000105,0.00006909,-0.00007592,0.00000199,-0.00285074,0.00340713,0.00
 002677,0.00084235,-0.00108557,0.00393184,0.00004824,-0.00206600,-0.000
 00163,-0.00000587,0.00156605,0.00000038,0.00000231,-0.00043365,0.00000
 441,0.00000208,0.00173057,0.00000097,-0.00000053,0.00001999,-0.0000006
 4,0.00000155,-0.00078365,-0.00001210,0.00000612,-0.01401483,0.00086242
 ,-0.00454593,0.00671204,-0.00000296,0.00000329,-0.00152134,-0.00138181
 ,-0.00279807,-0.00006048,-0.00014768,0.00102287,0.00029473,0.00202149,
 0.00321573,0.00049330,0.00000353,-0.00007630,-0.00027968,0.00030663,-0
 .00073648,-0.00061106,-0.32945531,0.11906784,0.93483930,-0.01396806,0.
 00135611,-0.00861752,0.00283019,0.00083675,-0.00085085,0.33979102,-0.0
 0110290,0.00076951,-0.00048507,0.00017353,-0.00003704,0.00038367,0.007
 77864,-0.00278267,-0.00455145,0.00021588,-0.00005843,0.00000750,0.0000
 4376,-0.00042546,0.00028810,0.12262159,0.31186289,-0.16454460,0.001332
 76,-0.00359093,0.00156155,-0.00917481,-0.00108523,0.00453699,-0.121888
 45,-0.30465264,-0.00173945,-0.00095342,-0.00036039,0.00025518,0.000863
 98,-0.00030307,-0.00573725,0.00959689,0.00330252,0.00037709,0.00019889
 ,0.00028928,-0.00029529,0.00093680,0.00082556,0.92873752,-0.16787390,-
 0.91822833,0.00866966,-0.00161260,0.00811225,-0.00505973,-0.00395996,0
 .00672483,-0.92520773,0.16280330,0.89963734,-0.00070893,-0.00094318,-0
 .00646985,0.00013790,-0.00002718,-0.00306308,-0.00035374,-0.00035321,-
 0.00012555,0.00054081,0.00079233,0.00234675,0.00008170,0.00016472,-0.0
 0178373,-0.00007868,0.00006035,0.00028999,0.00009458,-0.00007851,0.000
 33846,0.00227014,-0.00348427,-0.00003560,-0.00056995,-0.00041541,-0.00
 000103,-0.00642142,0.00196240,0.00463184,0.00001308,-0.00005427,-0.000
 71275,-0.00004348,0.00530342,-0.01833042,-0.00003936,-0.00003521,0.001
 63597,0.00003699,0.00001927,-0.00054637,0.00004390,-0.00004626,0.00168
 770,-0.00068377,0.00112323,0.00002189,0.00009198,-0.00025360,-0.000016
 93,0.00053899,-0.00109545,-0.00002993,0.00057145,0.00024711,-0.0004657
 9,-0.00005771,-0.00000921,0.00008951,0.00006311,-0.00037146,0.00011974
 ,0.00000747,0.00009006,0.00064622,-0.00002230,0.00001118,-0.00009259,-
 0.00000938,-0.00003380,0.00007462,0.00000691,0.00003384,0.00009547,0.0
 0002892,-0.00000860,-0.00013443,0.00004127,-0.00048788,-0.00001304,-0.
 00011064,0.00009770,0.00000739,-0.00061728,-0.00020760,0.00002124,0.00
 008874,0.00017389,-0.00000899,0.00165227,-0.00005985,0.00003524,-0.000
 00480,-0.00001330,0.00000932,0.00000095,0.00176824,0.00199977,-0.00000
 263,0.00006485,0.00003296,0.00000311,-0.00018028,-0.00342637,-0.000002
 16,-0.00000043,0.00117467,0.00000664,0.00000771,-0.00020564,-0.0000011
 7,0.00000148,0.00105139,-0.00000661,-0.00000113,0.00000020,0.00000087,
 -0.00000543,-0.00159411,0.00214575,0.00208088,0.00000784,-0.00003070,-
 0.00141933,-0.00001014,-0.00669485,-0.03236903,-0.00007417,-0.00025170
 ,0.00023179,0.00000869,0.00040211,0.00186396,0.00001011,0.95583799,-0.
 00066135,-0.00228223,-0.00001275,-0.00015839,0.00045064,0.00000471,-0.
 00132560,0.01674305,0.00007260,0.00048960,-0.00025388,-0.00000750,0.00
 244174,-0.00175717,-0.00001077,1.59982492,1.18882880,0.00000298,-0.000
 00561,-0.00141189,-0.00000355,0.00000431,0.00039734,0.00000339,0.00007
 789,-0.00836577,0.00000359,-0.00000387,0.00018203,-0.00000467,-0.00000
 357,0.00067255,0.00154674,0.00077297,-0.22166852,-0.00017975,0.0005704
 5,-0.00131601,0.00010503,-0.00014400,0.00026355,0.00239340,0.00080336,
 -0.00159104,-0.00005318,-0.00010930,0.00004066,-0.00016972,-0.00044581
 ,0.00098516,-0.03855316,0.01952256,-0.13489341,0.02807599,-0.00054918,
 0.00007332,-0.00149920,0.00009923,0.00003627,0.00029527,0.00072869,-0.
 00032118,-0.00064876,0.00002571,0.00001972,0.00003965,-0.00023094,0.00
 015367,0.00098070,0.03231982,0.04298903,0.04905765,-0.03416115,-0.0524
 2419,0.00023767,-0.00015649,0.00046453,-0.00008840,-0.00008169,-0.0002
 2912,0.00155297,-0.00156224,0.00158360,-0.00008906,-0.00020395,0.00007
 191,-0.00005639,-0.00020806,-0.00016101,-0.14511529,0.03179415,-0.1758
 9901,0.14093803,-0.04244984,0.17769471,-0.00235454,0.00092572,0.000004
 76,0.00022192,0.00131927,0.00000432,0.00670200,0.02486272,0.00003636,-
 0.00024962,-0.00014361,0.00000077,-0.00111752,-0.00255412,-0.00000564,
 -0.87490657,-1.63910573,-0.00134332,0.00401575,0.00010753,0.00480599,0
 .86367213,-0.00024091,0.00207428,0.00000589,0.00022587,-0.00047776,-0.
 00000383,-0.00294481,-0.00379912,-0.00000487,-0.00047173,-0.00020782,-
 0.00000028,-0.00136914,0.00279546,0.00000889,-1.63421496,-1.28799377,-
 0.00157447,0.01230070,0.00403368,0.01003684,1.61446091,1.27951451,0.00
 000173,-0.00000016,0.00053081,0.00000083,-0.00000194,0.00011365,-0.000
 01142,-0.00003471,0.00126867,-0.00000033,0.00000004,-0.00027318,-0.000
 00218,0.00000956,-0.00077860,-0.00133725,-0.00156513,0.58296049,-0.006
 60921,-0.00295041,-0.00489512,0.00132515,0.00156219,-0.57399891,-0.000
 17643,0.00056825,0.00131780,0.00010528,-0.00014169,-0.00026305,0.00239
 896,0.00079445,0.00159602,-0.00005289,-0.00010927,-0.00004527,-0.00016
 922,-0.00044369,-0.00098720,-0.03794886,0.01897227,0.13468826,0.004365
 65,0.00166030,-0.00218554,0.00401646,0.01225408,0.00663268,0.02746104,
 -0.00054737,0.00005646,0.00150097,0.00009856,0.00004175,-0.00029856,0.
 00074121,-0.00033092,0.00063840,0.00002734,0.00001935,-0.00003760,-0.0
 0023749,0.00015714,-0.00098102,0.03168194,0.04327554,-0.04832530,0.001
 66319,0.00543970,0.00283129,0.00012731,0.00406055,0.00298056,-0.033554
 69,-0.05271956,-0.00023778,0.00015354,0.00047157,0.00008784,0.00008296
 ,-0.00023292,-0.00155795,0.00156040,0.00158932,0.00008847,0.00020465,0
 .00007596,0.00005578,0.00021087,-0.00015946,0.14496347,-0.03104827,-0.
 17686723,0.00218227,-0.00282507,0.00136951,-0.00482841,-0.01003036,-0.
 00492781,-0.14075369,0.04169128,0.17868105,-0.02276452,-0.00359633,-0.
 01942368,0.00016097,-0.00005307,-0.00072825,0.00694859,-0.00350762,-0.
 00014197,-0.00483072,-0.00211353,0.00556389,0.00009412,0.00180759,-0.0
 0169182,-0.00009479,0.00007319,-0.00097677,0.00010472,-0.00008059,0.00
 039791,0.00115164,-0.00108317,-0.00003754,-0.00123074,-0.00181821,0.00
 000323,5.24415539,0.03874879,0.02509314,0.00002689,-0.00115604,-0.0096
 6157,-0.00007114,-0.11671061,-1.07656124,0.00001765,0.00001472,-0.0080
 7963,0.00004198,-0.00000946,0.00546063,-0.00755941,0.00024561,-1.14042
 286,-0.00068015,0.00270534,0.00002765,0.00042489,-0.00008559,-0.000017
 64,-0.00202622,-0.00055659,-0.00003007,-0.00035356,-0.00211028,0.00493
 400,-0.00005232,0.00024738,-0.00086885,0.00006248,0.00067596,0.0011233
 7,0.00001714,-0.00112118,-0.00287309,-0.00002208,0.00001372,0.00336801
 ,-0.00001027,-0.00003454,-0.00058763,0.00000444,0.00004292,-0.00426494
 ,0.00002739,-0.00001205,-0.00104346,0.01578522,0.00671024,-0.00001419,
 -0.00076591,0.00135096,0.00000753,-5.24228178,0.10505038,0.00758239,0.
 00261663,0.00218785,-0.00000497,5.21375915,-0.02965853,-0.01383053,-0.
 00000404,0.00213943,0.00545662,0.00001428,0.12130873,1.04707259,-0.000
 30911,-0.00207358,-0.00153769,-0.00000156,-0.10906368,-1.03256857,-0.0
 0006791,-0.00004165,0.00597887,0.00000854,0.00002357,-0.00321684,0.007
 58572,-0.00029223,1.14190089,-0.00001182,-0.00000968,0.00177851,-0.007
 53253,0.00031754,-1.14205907,0.00007197,-0.00161201,0.00000586,-0.0007
 9500,0.00097583,-0.00000627,-0.00290690,-0.02319471,-0.00004723,0.0002
 5959,0.00031305,0.00000905,0.01204062,0.01888338,0.00002267,-0.0096932
 4,0.00039369,-0.00297320,-0.00001937,-0.00004773,0.00089555,0.00000859
 ,-0.00524269,0.01667701,0.00005034,0.00098197,-0.00059045,-0.00000977,
 -0.00183828,-0.00602924,-0.00000489,0.00477907,-0.01208182,0.00000931,
 -0.00000583,0.00050316,-0.00000436,0.00000642,-0.00128049,0.00000749,0
 .00004367,0.00573042,0.00000454,-0.00000613,0.00091365,-0.00003085,-0.
 00002353,-0.00366186,0.00001501,-0.00002755,-0.00284835,-0.00009106,0.
 00008223,-0.00014592,0.00001858,0.00001835,-0.00009846,0.00060834,-0.0
 0169423,0.00235527,-0.00004086,-0.00004115,0.00013511,0.00024782,0.000
 82747,-0.00164549,0.00026964,0.00052589,-0.00055185,-0.00105374,-0.000
 76829,0.00052362,0.00008816,0.00031979,-0.00002645,0.00024165,0.000946
 25,-0.00036726,-0.00249225,0.00005230,-0.00014643,-0.00016708,-0.00162
 649,-0.00108785,0.00126003,0.00054391,0.00212556,0.00109035,0.00041929
 ,-0.00114797,-0.00012275,-0.00024413,-0.00016604,-0.00000825,0.0000413
 0,0.00009482,0.00025483,0.00099163,0.00052961,0.00004683,-0.00008608,-
 0.00003359,-0.00051647,-0.00010432,-0.00054221,0.00041572,-0.00070836,
 -0.00044719,-0.00005888,0.00012655,0.00053934,-0.00033218,0.00021646,0
 .00000090,0.00021078,-0.00015397,0.00000117,0.00192212,0.00120834,-0.0
 0000313,-0.00015932,-0.00011071,0.00000106,-0.00165715,-0.00318316,-0.
 00000511,0.00049483,-0.00008040,-0.00000003,0.00018932,0.00016746,-0.0
 0013195,-0.00085434,-0.00012432,-0.00040015,0.00000151,-0.00012245,0.0
 0035359,-0.00000155,0.00096551,-0.00300096,-0.00000284,0.00004256,0.00
 010635,-0.00000044,-0.00113531,0.00360797,0.00000798,-0.00122251,-0.00
 013503,-0.00001106,-0.00008832,0.00002022,0.00009774,0.00177291,-0.000
 57313,-0.00000052,-0.00000327,0.00026286,0.00000014,0.00000125,0.00001
 847,-0.00000207,-0.00000270,-0.00139265,0.00000067,0.00000019,-0.00010
 169,0.00000011,0.00000963,0.00037081,-0.00000436,-0.00000752,0.0015521
 5,0.00013262,-0.00025622,-0.00020064,0.00000782,0.00000391,-0.00030610
 ,-0.00008950,0.00008486,0.00014423,0.00001956,0.00001858,0.00010051,0.
 00060813,-0.00169535,-0.00235746,-0.00004098,-0.00004092,-0.00013973,0
 .00025540,0.00081994,0.00164594,0.00025849,0.00052848,0.00055076,-0.00
 014804,-0.00005422,0.00012092,0.00018595,-0.00008807,-0.00013442,-0.00
 104900,-0.00077119,0.00051292,-0.00008188,0.00031964,-0.00002095,-0.00
 024691,0.00095822,-0.00037509,0.00248585,0.00005477,-0.00014722,0.0001
 6881,-0.00163567,-0.00108331,-0.00126067,0.00053398,0.00211162,-0.0010
 6636,-0.00004952,0.00010656,-0.00011433,0.00016307,0.00002114,0.000254
 74,0.00042670,-0.00112567,0.00012012,0.00024632,-0.00016222,0.00000948
 ,-0.00004207,0.00008995,-0.00025669,-0.00098465,0.00053851,-0.00004756
 ,0.00008645,-0.00002887,0.00050897,0.00010111,-0.00054909,-0.00041045,
 0.00071853,-0.00046149,-0.00012240,0.00010882,0.00022589,0.00012927,-0
 .00009525,-0.00020320,0.00006925,-0.00013925,0.00055052\\@
 The archive entry for this job was punched.


 Children are likely to live up to what you believe of them.
 -- Lady Bird Johnson
 Job cpu time:       1 days  5 hours 46 minutes  9.7 seconds.
 Elapsed time:       0 days  0 hours 45 minutes 33.0 seconds.
 File lengths (MBytes):  RWF=   1741 Int=      0 D2E=      0 Chk=     43 Scr=      1
 Normal termination of Gaussian 16 at Sun Mar 30 03:24:09 2025.
