 Entering Gaussian System, Link 0=g16
 Input=hconmeht_mp2_avdz_opt_anharm.gjf
 Output=hconmeht_mp2_avdz_opt_anharm.log
 Initial command:
 /sw/contrib/chem-src/g16/c01/g16/l1.exe "/scr/Gau-19311.inp" -scrdir="/scr/"
 Entering Link 1 = /sw/contrib/chem-src/g16/c01/g16/l1.exe PID=     19312.
  
 Copyright (c) 1988-2019, Gaussian, Inc.  All Rights Reserved.
  
 This is part of the Gaussian(R) 16 program.  It is based on
 the Gaussian(R) 09 system (copyright 2009, Gaussian, Inc.),
 the Gaussian(R) 03 system (copyright 2003, Gaussian, Inc.),
 the Gaussian(R) 98 system (copyright 1998, Gaussian, Inc.),
 the Gaussian(R) 94 system (copyright 1995, Gaussian, Inc.),
 the Gaussian 92(TM) system (copyright 1992, Gaussian, Inc.),
 the Gaussian 90(TM) system (copyright 1990, Gaussian, Inc.),
 the Gaussian 88(TM) system (copyright 1988, Gaussian, Inc.),
 the Gaussian 86(TM) system (copyright 1986, Carnegie Mellon
 University), and the Gaussian 82(TM) system (copyright 1983,
 Carnegie Mellon University). Gaussian is a federally registered
 trademark of Gaussian, Inc.
  
 This software contains proprietary and confidential information,
 including trade secrets, belonging to Gaussian, Inc.
  
 This software is provided under written license and may be
 used, copied, transmitted, or stored only in accord with that
 written license.
  
 The following legend is applicable only to US Government
 contracts under FAR:
  
                    RESTRICTED RIGHTS LEGEND
  
 Use, reproduction and disclosure by the US Government is
 subject to restrictions as set forth in subparagraphs (a)
 and (c) of the Commercial Computer Software - Restricted
 Rights clause in FAR 52.227-19.
  
 Gaussian, Inc.
 340 Quinnipiac St., Bldg. 40, Wallingford CT 06492
  
  
 ---------------------------------------------------------------
 Warning -- This program may not be used in any manner that
 competes with the business of Gaussian, Inc. or will provide
 assistance to any competitor of Gaussian, Inc.  The licensee
 of this program is prohibited from giving any competitor of
 Gaussian, Inc. access to this program.  By using this program,
 the user acknowledges that Gaussian, Inc. is engaged in the
 business of creating and licensing software in the field of
 computational chemistry and represents and warrants to the
 licensee that it is not a competitor of Gaussian, Inc. and that
 it will not use this program in any manner prohibited above.
 ---------------------------------------------------------------
  

 Cite this work as:
 Gaussian 16, Revision C.01,
 M. J. Frisch, G. W. Trucks, H. B. Schlegel, G. E. Scuseria, 
 M. A. Robb, J. R. Cheeseman, G. Scalmani, V. Barone, 
 G. A. Petersson, H. Nakatsuji, X. Li, M. Caricato, A. V. Marenich, 
 J. Bloino, B. G. Janesko, R. Gomperts, B. Mennucci, H. P. Hratchian, 
 J. V. Ortiz, A. F. Izmaylov, J. L. Sonnenberg, D. Williams-Young, 
 F. Ding, F. Lipparini, F. Egidi, J. Goings, B. Peng, A. Petrone, 
 T. Henderson, D. Ranasinghe, V. G. Zakrzewski, J. Gao, N. Rega, 
 G. Zheng, W. Liang, M. Hada, M. Ehara, K. Toyota, R. Fukuda, 
 J. Hasegawa, M. Ishida, T. Nakajima, Y. Honda, O. Kitao, H. Nakai, 
 T. Vreven, K. Throssell, J. A. Montgomery, Jr., J. E. Peralta, 
 F. Ogliaro, M. J. Bearpark, J. J. Heyd, E. N. Brothers, K. N. Kudin, 
 V. N. Staroverov, T. A. Keith, R. Kobayashi, J. Normand, 
 K. Raghavachari, A. P. Rendell, J. C. Burant, S. S. Iyengar, 
 J. Tomasi, M. Cossi, J. M. Millam, M. Klene, C. Adamo, R. Cammi, 
 J. W. Ochterski, R. L. Martin, K. Morokuma, O. Farkas, 
 J. B. Foresman, and D. J. Fox, Gaussian, Inc., Wallingford CT, 2019.
 
 ******************************************
 Gaussian 16:  EM64L-G16RevC.01  3-Jul-2019
                 3-Apr-2025 
 ******************************************
 %nprocshared=40
 Will use up to   40 processors via shared memory.
 %mem=50gb
 ----------------------------------------------
 # MP2/aug-cc-pVDZ opt freq=(vibrot,anharmonic)
 ----------------------------------------------
 1/18=20,19=15,38=1,80=1/1,3;
 2/9=110,12=2,17=6,18=5,40=1/2;
 3/5=16,7=10,11=9,25=1,30=1,71=1/1,2,3;
 4//1;
 5/5=2,38=5/2;
 8/6=4,10=1/1;
 9/15=2,16=-3/6;
 10/5=1/2;
 6/7=2,8=2,9=2,10=2/1;
 7/12=2/1,2,3,16;
 1/18=20,19=15,80=1/3(2);
 2/9=110/2;
 99//99;
 2/9=110/2;
 3/5=16,7=10,11=9,25=1,30=1,71=1/1,2,3;
 4/5=5,16=3,69=1/1;
 5/5=2,38=5/2;
 8/6=4,10=1/1;
 9/15=2,16=-3/6;
 10/5=1/2;
 7/12=2/1,2,3,16;
 1/18=20,19=15,80=1/3(-8);
 2/9=110/2;
 6/7=2,8=2,9=2,10=2/1;
 99/9=10/99;
 ----
 blah
 ----
 Symbolic Z-matrix:
 Charge =  0 Multiplicity = 1
 C                    -0.86766   0.43801  -0.00001 
 O                    -1.41338  -0.6666    0. 
 N                     0.48302   0.64836   0. 
 H                    -1.44055   1.38926   0.00001 
 H                     0.80433   1.60814   0.00001 
 C                     1.45147  -0.44112   0. 
 H                     1.37164  -1.04696   0.91119 
 H                     2.42212   0.07689  -0.00573 
 H                     1.38553  -1.09974  -0.87887 
 

 GradGradGradGradGradGradGradGradGradGradGradGradGradGradGradGradGradGrad
 Berny optimization.
 Initialization pass.
                           ----------------------------
                           !    Initial Parameters    !
                           ! (Angstroms and Degrees)  !
 --------------------------                            --------------------------
 ! Name  Definition              Value          Derivative Info.                !
 --------------------------------------------------------------------------------
 ! R1    R(1,2)                  1.2321         estimate D2E/DX2                !
 ! R2    R(1,3)                  1.367          estimate D2E/DX2                !
 ! R3    R(1,4)                  1.1104         estimate D2E/DX2                !
 ! R4    R(3,5)                  1.0121         estimate D2E/DX2                !
 ! R5    R(3,6)                  1.4577         estimate D2E/DX2                !
 ! R6    R(6,7)                  1.0971         estimate D2E/DX2                !
 ! R7    R(6,8)                  1.1002         estimate D2E/DX2                !
 ! R8    R(6,9)                  1.1002         estimate D2E/DX2                !
 ! A1    A(2,1,3)              125.1428         estimate D2E/DX2                !
 ! A2    A(2,1,4)              122.6506         estimate D2E/DX2                !
 ! A3    A(3,1,4)              112.2066         estimate D2E/DX2                !
 ! A4    A(1,3,5)              117.3608         estimate D2E/DX2                !
 ! A5    A(1,3,6)              122.7827         estimate D2E/DX2                !
 ! A6    A(5,3,6)              119.8565         estimate D2E/DX2                !
 ! A7    A(3,6,7)              111.3698         estimate D2E/DX2                !
 ! A8    A(3,6,8)              103.547          estimate D2E/DX2                !
 ! A9    A(3,6,9)              114.0537         estimate D2E/DX2                !
 ! A10   A(7,6,8)              109.1774         estimate D2E/DX2                !
 ! A11   A(7,6,9)              109.1774         estimate D2E/DX2                !
 ! A12   A(8,6,9)              109.3016         estimate D2E/DX2                !
 ! D1    D(2,1,3,5)           -179.9991         estimate D2E/DX2                !
 ! D2    D(2,1,3,6)              0.0008         estimate D2E/DX2                !
 ! D3    D(4,1,3,5)             -0.0007         estimate D2E/DX2                !
 ! D4    D(4,1,3,6)            179.9992         estimate D2E/DX2                !
 ! D5    D(1,3,6,7)            -63.1056         estimate D2E/DX2                !
 ! D6    D(1,3,6,8)            179.6929         estimate D2E/DX2                !
 ! D7    D(1,3,6,9)             61.0154         estimate D2E/DX2                !
 ! D8    D(5,3,6,7)            116.8942         estimate D2E/DX2                !
 ! D9    D(5,3,6,8)             -0.3073         estimate D2E/DX2                !
 ! D10   D(5,3,6,9)           -118.9848         estimate D2E/DX2                !
 --------------------------------------------------------------------------------
 Trust Radius=3.00D-01 FncErr=1.00D-07 GrdErr=1.00D-07 EigMax=2.50D+02 EigMin=1.00D-04
 Number of steps in this run=     40 maximum allowed number of steps=    100.
 GradGradGradGradGradGradGradGradGradGradGradGradGradGradGradGradGradGrad

                          Input orientation:                          
 ---------------------------------------------------------------------
 Center     Atomic      Atomic             Coordinates (Angstroms)
 Number     Number       Type             X           Y           Z
 ---------------------------------------------------------------------
      1          6           0       -0.867658    0.438012   -0.000006
      2          8           0       -1.413376   -0.666596    0.000002
      3          7           0        0.483021    0.648355    0.000000
      4          1           0       -1.440545    1.389264    0.000010
      5          1           0        0.804331    1.608140    0.000007
      6          6           0        1.451466   -0.441115    0.000000
      7          1           0        1.371645   -1.046961    0.911191
      8          1           0        2.422123    0.076887   -0.005728
      9          1           0        1.385535   -1.099737   -0.878865
 ---------------------------------------------------------------------
                    Distance matrix (angstroms):
                    1          2          3          4          5
     1  C    0.000000
     2  O    1.232058   0.000000
     3  N    1.366959   2.307687   0.000000
     4  H    1.110441   2.056040   2.061323   0.000000
     5  H    2.040771   3.176893   1.012140   2.255521   0.000000
     6  C    2.480161   2.873702   1.457680   3.422574   2.149007
     7  H    2.837235   2.954874   2.119909   3.830646   2.863854
     8  H    3.309547   3.906898   2.021565   4.079531   2.227559
     9  H    2.865998   2.965455   2.154707   3.867076   2.905652
                    6          7          8          9
     6  C    0.000000
     7  H    1.097128   0.000000
     8  H    1.100243   1.790888   0.000000
     9  H    1.100243   1.790888   1.794806   0.000000
 Stoichiometry    C2H5NO
 Framework group  C1[X(C2H5NO)]
 Deg. of freedom    21
 Full point group                 C1      NOp   1
 Largest Abelian subgroup         C1      NOp   1
 Largest concise Abelian subgroup C1      NOp   1
                         Standard orientation:                         
 ---------------------------------------------------------------------
 Center     Atomic      Atomic             Coordinates (Angstroms)
 Number     Number       Type             X           Y           Z
 ---------------------------------------------------------------------
      1          6           0       -0.869671    0.437900   -0.000862
      2          8           0       -1.419791   -0.664521    0.000303
      3          7           0        0.481837    0.642853   -0.001570
      4          1           0       -1.438758    1.391430   -0.001428
      5          1           0        0.806973    1.601348   -0.002507
      6          6           0        1.445928   -0.450472   -0.001026
      7          1           0        1.364054   -1.055220    0.910712
      8          1           0        2.418641    0.063648   -0.007580
      9          1           0        1.377018   -1.109573   -0.879304
 ---------------------------------------------------------------------
 Rotational constants (GHZ):          19.5225264           6.0480085           4.7579527
 Standard basis: Aug-CC-pVDZ (5D, 7F)
 There are   145 symmetry adapted cartesian basis functions of A   symmetry.
 There are   137 symmetry adapted basis functions of A   symmetry.
   137 basis functions,   227 primitive gaussians,   145 cartesian basis functions
    16 alpha electrons       16 beta electrons
       nuclear repulsion energy       120.3766932559 Hartrees.
 NAtoms=    9 NActive=    9 NUniq=    9 SFac= 1.00D+00 NAtFMM=   60 NAOKFM=F Big=F
 Integral buffers will be    131072 words long.
 Raffenetti 1 integral format.
 Two-electron integral symmetry is turned on.
 One-electron integrals computed using PRISM.
 NBasis=   137 RedAO= T EigKep=  2.24D-04  NBF=   137
 NBsUse=   137 1.00D-06 EigRej= -1.00D+00 NBFU=   137
 ExpMin= 2.97D-02 ExpMax= 1.17D+04 ExpMxC= 4.01D+02 IAcc=3 IRadAn=         5 AccDes= 0.00D+00
 Harris functional with IExCor=  205 and IRadAn=       5 diagonalized for initial guess.
 HarFok:  IExCor=  205 AccDes= 0.00D+00 IRadAn=         5 IDoV= 1 UseB2=F ITyADJ=14
 ICtDFT=  3500011 ScaDFX=  1.000000  1.000000  1.000000  1.000000
 FoFCou: FMM=F IPFlag=           0 FMFlag=      100000 FMFlg1=           0
         NFxFlg=           0 DoJE=T BraDBF=F KetDBF=T FulRan=T
         wScrn=  0.000000 ICntrl=       500 IOpCl=  0 I1Cent=   200000004 NGrid=           0
         NMat0=    1 NMatS0=      1 NMatT0=    0 NMatD0=    1 NMtDS0=    0 NMtDT0=    0
 Petite list used in FoFCou.
 Keep R1 ints in memory in canonical form, NReq=53319180.
 Requested convergence on RMS density matrix=1.00D-08 within 128 cycles.
 Requested convergence on MAX density matrix=1.00D-06.
 Requested convergence on             energy=1.00D-06.
 No special actions if energy rises.
 SCF Done:  E(RHF) =  -207.990647220     A.U. after   13 cycles
            NFock= 13  Conv=0.38D-08     -V/T= 2.0024
 ExpMin= 2.97D-02 ExpMax= 1.17D+04 ExpMxC= 4.01D+02 IAcc=3 IRadAn=         5 AccDes= 0.00D+00
 HarFok:  IExCor=  205 AccDes= 0.00D+00 IRadAn=         5 IDoV=-2 UseB2=F ITyADJ=14
 ICtDFT= 12500011 ScaDFX=  1.000000  1.000000  1.000000  1.000000
 Range of M.O.s used for correlation:     5   137
 NBasis=   137 NAE=    16 NBE=    16 NFC=     4 NFV=     0
 NROrb=    133 NOA=    12 NOB=    12 NVA=   121 NVB=   121

 **** Warning!!: The largest alpha MO coefficient is  0.20541284D+02

 Fully direct method using O(ONN) memory.
 JobTyp=1 Pass  1:  I=   5 to  16 NPSUse= 40 ParTrn=T ParDer=T DoDerP=T.
 Spin components of T(2) and E(2):
     alpha-alpha T2 =       0.2730420250D-01 E2=     -0.8376634451D-01
     alpha-beta  T2 =       0.1554038550D+00 E2=     -0.4928303489D+00
     beta-beta   T2 =       0.2730420250D-01 E2=     -0.8376634451D-01
 ANorm=    0.1100005573D+01
 E2 =    -0.6603630379D+00 EUMP2 =    -0.20865101025795D+03
          IDoAtm=111111111
          Differentiating once with respect to electric field.
                with respect to dipole field.
          Differentiating once with respect to nuclear coordinates.
 Keep R1 ints in memory in canonical form, NReq=53324159.
          There are     1 degrees of freedom in the 1st order CPHF.  IDoFFX=0 NUNeed=     1.
 LinEq1:  Iter=  0 NonCon=     1 RMS=5.64D-03 Max=1.24D-01 NDo=     1
 AX will form     1 AO Fock derivatives at one time.
 LinEq1:  Iter=  1 NonCon=     1 RMS=1.67D-03 Max=2.56D-02 NDo=     1
 LinEq1:  Iter=  2 NonCon=     1 RMS=6.20D-04 Max=8.99D-03 NDo=     1
 LinEq1:  Iter=  3 NonCon=     1 RMS=2.32D-04 Max=3.95D-03 NDo=     1
 LinEq1:  Iter=  4 NonCon=     1 RMS=6.47D-05 Max=4.88D-04 NDo=     1
 LinEq1:  Iter=  5 NonCon=     1 RMS=2.28D-05 Max=3.13D-04 NDo=     1
 LinEq1:  Iter=  6 NonCon=     1 RMS=5.96D-06 Max=5.83D-05 NDo=     1
 LinEq1:  Iter=  7 NonCon=     1 RMS=1.52D-06 Max=1.62D-05 NDo=     1
 LinEq1:  Iter=  8 NonCon=     1 RMS=3.38D-07 Max=4.05D-06 NDo=     1
 LinEq1:  Iter=  9 NonCon=     1 RMS=7.72D-08 Max=7.61D-07 NDo=     1
 LinEq1:  Iter= 10 NonCon=     1 RMS=1.55D-08 Max=1.29D-07 NDo=     1
 LinEq1:  Iter= 11 NonCon=     1 RMS=2.75D-09 Max=1.73D-08 NDo=     1
 LinEq1:  Iter= 12 NonCon=     1 RMS=7.40D-10 Max=7.38D-09 NDo=     1
 LinEq1:  Iter= 13 NonCon=     1 RMS=2.31D-10 Max=4.47D-09 NDo=     1
 LinEq1:  Iter= 14 NonCon=     1 RMS=6.36D-11 Max=1.42D-09 NDo=     1
 LinEq1:  Iter= 15 NonCon=     0 RMS=1.28D-11 Max=1.47D-10 NDo=     1
 Linear equations converged to 1.000D-10 1.000D-09 after    15 iterations.
 End of Minotr F.D. properties file   721 does not exist.
 End of Minotr F.D. properties file   722 does not exist.
 End of Minotr F.D. properties file   788 does not exist.

 **********************************************************************

            Population analysis using the SCF Density.

 **********************************************************************

 Orbital symmetries:
       Occupied  (A) (A) (A) (A) (A) (A) (A) (A) (A) (A) (A) (A)
                 (A) (A) (A) (A)
       Virtual   (A) (A) (A) (A) (A) (A) (A) (A) (A) (A) (A) (A)
                 (A) (A) (A) (A) (A) (A) (A) (A) (A) (A) (A) (A)
                 (A) (A) (A) (A) (A) (A) (A) (A) (A) (A) (A) (A)
                 (A) (A) (A) (A) (A) (A) (A) (A) (A) (A) (A) (A)
                 (A) (A) (A) (A) (A) (A) (A) (A) (A) (A) (A) (A)
                 (A) (A) (A) (A) (A) (A) (A) (A) (A) (A) (A) (A)
                 (A) (A) (A) (A) (A) (A) (A) (A) (A) (A) (A) (A)
                 (A) (A) (A) (A) (A) (A) (A) (A) (A) (A) (A) (A)
                 (A) (A) (A) (A) (A) (A) (A) (A) (A) (A) (A) (A)
                 (A) (A) (A) (A) (A) (A) (A) (A) (A) (A) (A) (A)
                 (A)
 The electronic state is 1-A.
 Alpha  occ. eigenvalues --  -20.53757 -15.60540 -11.36289 -11.27978  -1.37633
 Alpha  occ. eigenvalues --   -1.23602  -0.96828  -0.80951  -0.74031  -0.64320
 Alpha  occ. eigenvalues --   -0.62418  -0.59113  -0.55637  -0.52912  -0.43086
 Alpha  occ. eigenvalues --   -0.39785
 Alpha virt. eigenvalues --    0.02625   0.04297   0.05327   0.06299   0.07063
 Alpha virt. eigenvalues --    0.10275   0.10500   0.12325   0.14254   0.15474
 Alpha virt. eigenvalues --    0.16004   0.16929   0.18291   0.18353   0.19084
 Alpha virt. eigenvalues --    0.22523   0.23282   0.25409   0.27610   0.28617
 Alpha virt. eigenvalues --    0.31440   0.31957   0.33655   0.35098   0.35579
 Alpha virt. eigenvalues --    0.37295   0.37876   0.41647   0.42969   0.43327
 Alpha virt. eigenvalues --    0.43510   0.46176   0.46974   0.50413   0.50868
 Alpha virt. eigenvalues --    0.52858   0.54116   0.56422   0.58275   0.58777
 Alpha virt. eigenvalues --    0.60203   0.61594   0.62767   0.63381   0.66126
 Alpha virt. eigenvalues --    0.66646   0.68646   0.70265   0.71588   0.73919
 Alpha virt. eigenvalues --    0.74905   0.77076   0.78154   0.81282   0.83871
 Alpha virt. eigenvalues --    0.84850   0.89305   0.94098   0.96271   0.99963
 Alpha virt. eigenvalues --    1.02370   1.09052   1.09871   1.12038   1.14240
 Alpha virt. eigenvalues --    1.14332   1.23778   1.29440   1.31655   1.32703
 Alpha virt. eigenvalues --    1.40057   1.42024   1.42607   1.51414   1.55367
 Alpha virt. eigenvalues --    1.57202   1.64873   1.67965   1.69051   1.75976
 Alpha virt. eigenvalues --    1.79106   1.86833   1.87738   1.89205   1.91204
 Alpha virt. eigenvalues --    1.95966   1.98176   2.07328   2.07703   2.11101
 Alpha virt. eigenvalues --    2.11488   2.13278   2.19057   2.22994   2.26299
 Alpha virt. eigenvalues --    2.31341   2.33800   2.39632   2.40726   2.46048
 Alpha virt. eigenvalues --    2.47972   2.55712   2.57396   2.67751   2.76191
 Alpha virt. eigenvalues --    2.78375   2.83872   2.89297   2.94786   2.98792
 Alpha virt. eigenvalues --    3.00613   3.06022   3.15538   3.29401   3.38053
 Alpha virt. eigenvalues --    3.55536   3.74650   3.79594   3.82837   4.02405
 Alpha virt. eigenvalues --    4.13443
          Condensed to atoms (all electrons):
               1          2          3          4          5          6
     1  C    4.242653   0.364157   0.347710   0.269269  -0.083690  -0.044756
     2  O    0.364157   8.464553  -0.077514  -0.080001  -0.003840   0.019220
     3  N    0.347710  -0.077514   6.724940  -0.040015   0.423259   0.209484
     4  H    0.269269  -0.080001  -0.040015   0.933660   0.011716   0.002299
     5  H   -0.083690  -0.003840   0.423259   0.011716   0.824674  -0.093091
     6  C   -0.044756   0.019220   0.209484   0.002299  -0.093091   4.042823
     7  H    0.022376   0.004027  -0.027936   0.002340  -0.004333   0.357876
     8  H   -0.033789   0.002864  -0.088258  -0.002005   0.019155   0.454408
     9  H    0.020521   0.003687  -0.030779   0.001852  -0.004063   0.353649
               7          8          9
     1  C    0.022376  -0.033789   0.020521
     2  O    0.004027   0.002864   0.003687
     3  N   -0.027936  -0.088258  -0.030779
     4  H    0.002340  -0.002005   0.001852
     5  H   -0.004333   0.019155  -0.004063
     6  C    0.357876   0.454408   0.353649
     7  H    0.888684  -0.118437  -0.067107
     8  H   -0.118437   1.049938  -0.125459
     9  H   -0.067107  -0.125459   0.898490
 Mulliken charges:
               1
     1  C    0.895549
     2  O   -0.697151
     3  N   -0.440890
     4  H   -0.099113
     5  H   -0.089787
     6  C    0.698088
     7  H   -0.057489
     8  H   -0.158418
     9  H   -0.050790
 Sum of Mulliken charges =  -0.00000
 Mulliken charges with hydrogens summed into heavy atoms:
               1
     1  C    0.796436
     2  O   -0.697151
     3  N   -0.530677
     6  C    0.431392
 Electronic spatial extent (au):  <R**2>=            284.9127
 Charge=             -0.0000 electrons
 Dipole moment (field-independent basis, Debye):
    X=              3.1064    Y=              3.1078    Z=             -0.0037  Tot=              4.3941
 Quadrupole moment (field-independent basis, Debye-Ang):
   XX=            -26.1911   YY=            -22.4590   ZZ=            -25.2069
   XY=             -3.4551   XZ=             -0.0212   YZ=              0.0312
 Traceless Quadrupole moment (field-independent basis, Debye-Ang):
   XX=             -1.5721   YY=              2.1600   ZZ=             -0.5879
   XY=             -3.4551   XZ=             -0.0212   YZ=              0.0312
 Octapole moment (field-independent basis, Debye-Ang**2):
  XXX=              7.7489  YYY=              7.0397  ZZZ=              0.0748  XYY=              2.6548
  XXY=              7.0977  XXZ=             -0.0777  XZZ=             -0.9440  YZZ=             -1.4633
  YYZ=             -0.0897  XYZ=              0.0568
 Hexadecapole moment (field-independent basis, Debye-Ang**3):
 XXXX=           -248.9211 YYYY=            -81.6717 ZZZZ=            -31.2751 XXXY=             -3.0311
 XXXZ=             -0.1534 YYYX=              3.6038 YYYZ=              0.1773 ZZZX=              0.0603
 ZZZY=             -0.0090 XXYY=            -52.5577 XXZZ=            -46.7955 YYZZ=            -20.6703
 XXYZ=              0.0903 YYXZ=             -0.1403 ZZXY=             -0.8265
 N-N= 1.203766932559D+02 E-N=-7.288474238306D+02  KE= 2.074903311193D+02
 Calling FoFJK, ICntrl=  10002127 FMM=F ISym2X=0 I1Cent= 0 IOpClX= 0 NMat=1 NMatS=1 NMatT=0.
 ***** Axes restored to original set *****
 -------------------------------------------------------------------
 Center     Atomic                   Forces (Hartrees/Bohr)
 Number     Number              X              Y              Z
 -------------------------------------------------------------------
      1        6           0.000440691    0.001913010   -0.000016701
      2        8           0.003063670   -0.000841824   -0.000015619
      3        7          -0.009840099   -0.004283482   -0.002601245
      4        1          -0.000551192    0.000405013    0.000119458
      5        1           0.000305831   -0.000984634   -0.000294644
      6        6           0.008898422    0.009935127    0.002314282
      7        1          -0.001564656   -0.001344214    0.001029803
      8        1           0.003581506   -0.007487435   -0.000036658
      9        1          -0.004334172    0.002688439   -0.000498677
 -------------------------------------------------------------------
 Cartesian Forces:  Max     0.009935127 RMS     0.003949848

 GradGradGradGradGradGradGradGradGradGradGradGradGradGradGradGradGradGrad
 Berny optimization.
 FormGI is forming the generalized inverse of G from B-inverse, IUseBI=4.
 Internal  Forces:  Max     0.014734881 RMS     0.003839061
 Search for a local minimum.
 Step number   1 out of a maximum of   40
 All quantities printed in internal units (Hartrees-Bohrs-Radians)
 Mixed Optimization -- RFO/linear search
 Second derivative matrix not updated -- first step.
 ITU=  0
     Eigenvalues ---    0.00929   0.01395   0.02129   0.02129   0.06974
     Eigenvalues ---    0.08085   0.16000   0.16000   0.16000   0.16000
     Eigenvalues ---    0.16000   0.22000   0.22000   0.32553   0.33655
     Eigenvalues ---    0.33655   0.34002   0.37256   0.45616   0.51565
     Eigenvalues ---    0.90234
 RFO step:  Lambda=-3.02913144D-03 EMin= 9.28786307D-03
 Linear search not attempted -- first point.
 Iteration  1 RMS(Cart)=  0.05236207 RMS(Int)=  0.00236352
 Iteration  2 RMS(Cart)=  0.00218915 RMS(Int)=  0.00085073
 Iteration  3 RMS(Cart)=  0.00000178 RMS(Int)=  0.00085073
 Iteration  4 RMS(Cart)=  0.00000000 RMS(Int)=  0.00085073
 Variable       Old X    -DE/DX   Delta X   Delta X   Delta X     New X
                                 (Linear)    (Quad)   (Total)
    R1        2.32825  -0.00060   0.00000  -0.00067  -0.00067   2.32759
    R2        2.58318  -0.00315   0.00000  -0.00606  -0.00606   2.57712
    R3        2.09843   0.00063   0.00000   0.00192   0.00192   2.10035
    R4        1.91267  -0.00084   0.00000  -0.00182  -0.00182   1.91085
    R5        2.75462   0.00154   0.00000   0.00410   0.00410   2.75871
    R6        2.07327   0.00171   0.00000   0.00499   0.00499   2.07826
    R7        2.07916  -0.00037   0.00000  -0.00108  -0.00108   2.07808
    R8        2.07916  -0.00095   0.00000  -0.00280  -0.00280   2.07636
    A1        2.18415  -0.00503   0.00000  -0.02254  -0.02254   2.16161
    A2        2.14066   0.00224   0.00000   0.00957   0.00957   2.15023
    A3        1.95837   0.00279   0.00000   0.01296   0.01296   1.97133
    A4        2.04833   0.00212   0.00000   0.01048   0.01048   2.05881
    A5        2.14296  -0.00310   0.00000  -0.01389  -0.01389   2.12908
    A6        2.09189   0.00097   0.00000   0.00341   0.00341   2.09530
    A7        1.94377  -0.00145   0.00000  -0.01576  -0.01756   1.92621
    A8        1.80724   0.01473   0.00000   0.10521   0.10546   1.91270
    A9        1.99061  -0.00986   0.00000  -0.06977  -0.07031   1.92030
   A10        1.90551  -0.00309   0.00000  -0.00007  -0.00106   1.90444
   A11        1.90551   0.00210   0.00000  -0.01124  -0.01380   1.89171
   A12        1.90767  -0.00193   0.00000  -0.00096   0.00054   1.90822
    D1       -3.14158  -0.00003   0.00000  -0.00134  -0.00134   3.14027
    D2        0.00001  -0.00000   0.00000   0.00011   0.00011   0.00013
    D3       -0.00001  -0.00013   0.00000  -0.00550  -0.00550  -0.00551
    D4        3.14158  -0.00010   0.00000  -0.00405  -0.00405   3.13753
    D5       -1.10140   0.00341   0.00000   0.05189   0.05126  -1.05014
    D6        3.13623  -0.00058   0.00000   0.00010  -0.00091   3.13532
    D7        1.06492  -0.00257   0.00000  -0.02993  -0.02828   1.03664
    D8        2.04019   0.00344   0.00000   0.05337   0.05274   2.09293
    D9       -0.00536  -0.00056   0.00000   0.00158   0.00057  -0.00479
   D10       -2.07668  -0.00254   0.00000  -0.02845  -0.02680  -2.10348
         Item               Value     Threshold  Converged?
 Maximum Force            0.014735     0.000450     NO 
 RMS     Force            0.003839     0.000300     NO 
 Maximum Displacement     0.140682     0.001800     NO 
 RMS     Displacement     0.052568     0.001200     NO 
 Predicted change in Energy=-1.528092D-03
 GradGradGradGradGradGradGradGradGradGradGradGradGradGradGradGradGradGrad

                          Input orientation:                          
 ---------------------------------------------------------------------
 Center     Atomic      Atomic             Coordinates (Angstroms)
 Number     Number       Type             X           Y           Z
 ---------------------------------------------------------------------
      1          6           0       -0.858643    0.433890   -0.002111
      2          8           0       -1.357432   -0.692277    0.005445
      3          7           0        0.484541    0.669843   -0.001475
      4          1           0       -1.462558    1.366955   -0.005906
      5          1           0        0.796984    1.631505   -0.009310
      6          6           0        1.460419   -0.415846    0.008261
      7          1           0        1.333211   -1.036708    0.907059
      8          1           0        2.477403    0.002441    0.000478
      9          1           0        1.322618   -1.053553   -0.875830
 ---------------------------------------------------------------------
                    Distance matrix (angstroms):
                    1          2          3          4          5
     1  C    0.000000
     2  O    1.231706   0.000000
     3  N    1.363751   2.290913   0.000000
     4  H    1.111458   2.061945   2.068134   0.000000
     5  H    2.043388   3.168862   1.011176   2.274979   0.000000
     6  C    2.469860   2.831379   1.459847   3.423796   2.152232
     7  H    2.791679   2.858513   2.111395   3.798345   2.871695
     8  H    3.363831   3.897258   2.101649   4.169561   2.340460
     9  H    2.780965   2.844263   2.106410   3.791152   2.869962
                    6          7          8          9
     6  C    0.000000
     7  H    1.099768   0.000000
     8  H    1.099674   1.791898   0.000000
     9  H    1.098761   1.782999   1.793479   0.000000
 Stoichiometry    C2H5NO
 Framework group  C1[X(C2H5NO)]
 Deg. of freedom    21
 Full point group                 C1      NOp   1
 Largest Abelian subgroup         C1      NOp   1
 Largest concise Abelian subgroup C1      NOp   1
                         Standard orientation:                         
 ---------------------------------------------------------------------
 Center     Atomic      Atomic             Coordinates (Angstroms)
 Number     Number       Type             X           Y           Z
 ---------------------------------------------------------------------
      1          6           0       -0.871412    0.441312   -0.000194
      2          8           0       -1.386499   -0.677520   -0.000116
      3          7           0        0.475058    0.657728   -0.000055
      4          1           0       -1.461711    1.383049    0.003901
      5          1           0        0.801429    1.614785   -0.001315
      6          6           0        1.435072   -0.442057    0.000046
      7          1           0        1.300257   -1.067641    0.894450
      8          1           0        2.458013   -0.038532   -0.006345
      9          1           0        1.286642   -1.071135   -0.888494
 ---------------------------------------------------------------------
 Rotational constants (GHZ):          19.2066303           6.2008800           4.8310776
 Standard basis: Aug-CC-pVDZ (5D, 7F)
 There are   145 symmetry adapted cartesian basis functions of A   symmetry.
 There are   137 symmetry adapted basis functions of A   symmetry.
   137 basis functions,   227 primitive gaussians,   145 cartesian basis functions
    16 alpha electrons       16 beta electrons
       nuclear repulsion energy       120.7585963783 Hartrees.
 NAtoms=    9 NActive=    9 NUniq=    9 SFac= 1.00D+00 NAtFMM=   60 NAOKFM=F Big=F
 Integral buffers will be    131072 words long.
 Raffenetti 1 integral format.
 Two-electron integral symmetry is turned on.
 One-electron integrals computed using PRISM.
 NBasis=   137 RedAO= T EigKep=  2.26D-04  NBF=   137
 NBsUse=   137 1.00D-06 EigRej= -1.00D+00 NBFU=   137
 Initial guess from the checkpoint file:  "/scr/Gau-19312.chk"
 B after Tr=     0.000000    0.000000    0.000000
         Rot=    0.999996   -0.002575   -0.000459   -0.000948 Ang=  -0.32 deg.
 ExpMin= 2.97D-02 ExpMax= 1.17D+04 ExpMxC= 4.01D+02 IAcc=3 IRadAn=         5 AccDes= 0.00D+00
 Harris functional with IExCor=  205 and IRadAn=       5 diagonalized for initial guess.
 HarFok:  IExCor=  205 AccDes= 0.00D+00 IRadAn=         5 IDoV= 1 UseB2=F ITyADJ=14
 ICtDFT=  3500011 ScaDFX=  1.000000  1.000000  1.000000  1.000000
 FoFCou: FMM=F IPFlag=           0 FMFlag=      100000 FMFlg1=           0
         NFxFlg=           0 DoJE=T BraDBF=F KetDBF=T FulRan=T
         wScrn=  0.000000 ICntrl=       500 IOpCl=  0 I1Cent=   200000004 NGrid=           0
         NMat0=    1 NMatS0=      1 NMatT0=    0 NMatD0=    1 NMtDS0=    0 NMtDT0=    0
 Petite list used in FoFCou.
 Keep R1 ints in memory in canonical form, NReq=53319357.
 Requested convergence on RMS density matrix=1.00D-08 within 128 cycles.
 Requested convergence on MAX density matrix=1.00D-06.
 Requested convergence on             energy=1.00D-06.
 No special actions if energy rises.
 SCF Done:  E(RHF) =  -207.992030831     A.U. after   12 cycles
            NFock= 12  Conv=0.41D-08     -V/T= 2.0024
 ExpMin= 2.97D-02 ExpMax= 1.17D+04 ExpMxC= 4.01D+02 IAcc=3 IRadAn=         5 AccDes= 0.00D+00
 HarFok:  IExCor=  205 AccDes= 0.00D+00 IRadAn=         5 IDoV=-2 UseB2=F ITyADJ=14
 ICtDFT= 12500011 ScaDFX=  1.000000  1.000000  1.000000  1.000000
 Range of M.O.s used for correlation:     5   137
 NBasis=   137 NAE=    16 NBE=    16 NFC=     4 NFV=     0
 NROrb=    133 NOA=    12 NOB=    12 NVA=   121 NVB=   121

 **** Warning!!: The largest alpha MO coefficient is  0.19555684D+02

 Fully direct method using O(ONN) memory.
 JobTyp=1 Pass  1:  I=   5 to  16 NPSUse= 40 ParTrn=T ParDer=T DoDerP=T.
 Spin components of T(2) and E(2):
     alpha-alpha T2 =       0.2729181954D-01 E2=     -0.8378067052D-01
     alpha-beta  T2 =       0.1552840504D+00 E2=     -0.4927054370D+00
     beta-beta   T2 =       0.2729181954D-01 E2=     -0.8378067052D-01
 ANorm=    0.1099939857D+01
 E2 =    -0.6602667780D+00 EUMP2 =    -0.20865229760874D+03
          IDoAtm=111111111
          Differentiating once with respect to electric field.
                with respect to dipole field.
          Differentiating once with respect to nuclear coordinates.
 Keep R1 ints in memory in canonical form, NReq=53324395.
          There are     1 degrees of freedom in the 1st order CPHF.  IDoFFX=0 NUNeed=     1.
 LinEq1:  Iter=  0 NonCon=     1 RMS=5.63D-03 Max=1.23D-01 NDo=     1
 AX will form     1 AO Fock derivatives at one time.
 LinEq1:  Iter=  1 NonCon=     1 RMS=1.66D-03 Max=2.56D-02 NDo=     1
 LinEq1:  Iter=  2 NonCon=     1 RMS=6.18D-04 Max=8.97D-03 NDo=     1
 LinEq1:  Iter=  3 NonCon=     1 RMS=2.31D-04 Max=3.97D-03 NDo=     1
 LinEq1:  Iter=  4 NonCon=     1 RMS=6.44D-05 Max=4.65D-04 NDo=     1
 LinEq1:  Iter=  5 NonCon=     1 RMS=2.29D-05 Max=3.18D-04 NDo=     1
 LinEq1:  Iter=  6 NonCon=     1 RMS=5.95D-06 Max=5.61D-05 NDo=     1
 LinEq1:  Iter=  7 NonCon=     1 RMS=1.52D-06 Max=1.58D-05 NDo=     1
 LinEq1:  Iter=  8 NonCon=     1 RMS=3.40D-07 Max=4.22D-06 NDo=     1
 LinEq1:  Iter=  9 NonCon=     1 RMS=7.89D-08 Max=8.00D-07 NDo=     1
 LinEq1:  Iter= 10 NonCon=     1 RMS=1.67D-08 Max=1.47D-07 NDo=     1
 LinEq1:  Iter= 11 NonCon=     1 RMS=3.87D-09 Max=2.85D-08 NDo=     1
 LinEq1:  Iter= 12 NonCon=     1 RMS=1.13D-09 Max=8.30D-09 NDo=     1
 LinEq1:  Iter= 13 NonCon=     1 RMS=2.34D-10 Max=4.17D-09 NDo=     1
 LinEq1:  Iter= 14 NonCon=     1 RMS=5.81D-11 Max=1.37D-09 NDo=     1
 LinEq1:  Iter= 15 NonCon=     0 RMS=1.23D-11 Max=1.70D-10 NDo=     1
 Linear equations converged to 1.000D-10 1.000D-09 after    15 iterations.
 End of Minotr F.D. properties file   721 does not exist.
 End of Minotr F.D. properties file   722 does not exist.
 End of Minotr F.D. properties file   788 does not exist.
 Calling FoFJK, ICntrl=  10002127 FMM=F ISym2X=0 I1Cent= 0 IOpClX= 0 NMat=1 NMatS=1 NMatT=0.
 ***** Axes restored to original set *****
 -------------------------------------------------------------------
 Center     Atomic                   Forces (Hartrees/Bohr)
 Number     Number              X              Y              Z
 -------------------------------------------------------------------
      1        6           0.001772144   -0.000240769    0.000460524
      2        8          -0.001176119   -0.001527534   -0.000108201
      3        7           0.002221930    0.003117297    0.000174325
      4        1           0.000388335   -0.000496676   -0.000225051
      5        1           0.000161997    0.000450295    0.000068620
      6        6          -0.001294277   -0.000799952    0.000202994
      7        1          -0.000179944   -0.000467907    0.000018849
      8        1          -0.002196798    0.001064350   -0.000186728
      9        1           0.000302732   -0.001099104   -0.000405332
 -------------------------------------------------------------------
 Cartesian Forces:  Max     0.003117297 RMS     0.001098335

 GradGradGradGradGradGradGradGradGradGradGradGradGradGradGradGradGradGrad
 Berny optimization.
 Using GEDIIS/GDIIS optimizer.
 FormGI is forming the generalized inverse of G from B-inverse, IUseBI=4.
 Internal  Forces:  Max     0.003328183 RMS     0.001164760
 Search for a local minimum.
 Step number   2 out of a maximum of   40
 All quantities printed in internal units (Hartrees-Bohrs-Radians)
 Mixed Optimization -- RFO/linear search
 Update second derivatives using D2CorX and points    1    2
 DE= -1.29D-03 DEPred=-1.53D-03 R= 8.42D-01
 TightC=F SS=  1.41D+00  RLast= 1.57D-01 DXNew= 5.0454D-01 4.7168D-01
 Trust test= 8.42D-01 RLast= 1.57D-01 DXMaxT set to 4.72D-01
 ITU=  1  0
 Use linear search instead of GDIIS.
     Eigenvalues ---    0.00929   0.01397   0.02129   0.02131   0.07397
     Eigenvalues ---    0.07571   0.15863   0.16000   0.16000   0.16000
     Eigenvalues ---    0.17432   0.21436   0.23682   0.32592   0.33636
     Eigenvalues ---    0.33865   0.34003   0.37480   0.45650   0.51439
     Eigenvalues ---    0.90426
 RFO step:  Lambda=-1.01802259D-04 EMin= 9.29473751D-03
 Quartic linear search produced a step of -0.12597.
 Iteration  1 RMS(Cart)=  0.00816664 RMS(Int)=  0.00010361
 Iteration  2 RMS(Cart)=  0.00004180 RMS(Int)=  0.00009997
 Iteration  3 RMS(Cart)=  0.00000000 RMS(Int)=  0.00009997
 Variable       Old X    -DE/DX   Delta X   Delta X   Delta X     New X
                                 (Linear)    (Quad)   (Total)
    R1        2.32759   0.00187   0.00008   0.00171   0.00179   2.32938
    R2        2.57712  -0.00058   0.00076  -0.00195  -0.00119   2.57593
    R3        2.10035  -0.00063  -0.00024  -0.00138  -0.00162   2.09873
    R4        1.91085   0.00048   0.00023   0.00062   0.00085   1.91170
    R5        2.75871  -0.00129  -0.00052  -0.00236  -0.00287   2.75584
    R6        2.07826   0.00030  -0.00063   0.00157   0.00094   2.07920
    R7        2.07808  -0.00163   0.00014  -0.00439  -0.00426   2.07383
    R8        2.07636   0.00093   0.00035   0.00195   0.00231   2.07866
    A1        2.16161   0.00075   0.00284  -0.00063   0.00219   2.16380
    A2        2.15023  -0.00031  -0.00121   0.00039  -0.00084   2.14938
    A3        1.97133  -0.00043  -0.00163   0.00029  -0.00137   1.96996
    A4        2.05881   0.00168  -0.00132   0.00836   0.00704   2.06585
    A5        2.12908  -0.00333   0.00175  -0.01544  -0.01369   2.11539
    A6        2.09530   0.00165  -0.00043   0.00707   0.00664   2.10194
    A7        1.92621   0.00049   0.00221   0.00075   0.00318   1.92939
    A8        1.91270  -0.00297  -0.01329  -0.00071  -0.01402   1.89868
    A9        1.92030   0.00152   0.00886  -0.00232   0.00661   1.92690
   A10        1.90444   0.00103   0.00013   0.00405   0.00431   1.90876
   A11        1.89171  -0.00060   0.00174  -0.00340  -0.00136   1.89035
   A12        1.90822   0.00056  -0.00007   0.00167   0.00143   1.90965
    D1        3.14027  -0.00012   0.00017  -0.00506  -0.00489   3.13538
    D2        0.00013  -0.00011  -0.00001  -0.00447  -0.00449  -0.00436
    D3       -0.00551   0.00022   0.00069   0.00793   0.00862   0.00311
    D4        3.13753   0.00022   0.00051   0.00851   0.00902  -3.13664
    D5       -1.05014  -0.00029  -0.00646   0.00361  -0.00278  -1.05293
    D6        3.13532   0.00001   0.00011  -0.00143  -0.00120   3.13413
    D7        1.03664   0.00024   0.00356  -0.00160   0.00178   1.03841
    D8        2.09293  -0.00029  -0.00664   0.00420  -0.00238   2.09055
    D9       -0.00479   0.00002  -0.00007  -0.00084  -0.00079  -0.00558
   D10       -2.10348   0.00025   0.00338  -0.00100   0.00218  -2.10129
         Item               Value     Threshold  Converged?
 Maximum Force            0.003328     0.000450     NO 
 RMS     Force            0.001165     0.000300     NO 
 Maximum Displacement     0.019738     0.001800     NO 
 RMS     Displacement     0.008192     0.001200     NO 
 Predicted change in Energy=-7.777010D-05
 GradGradGradGradGradGradGradGradGradGradGradGradGradGradGradGradGradGrad

                          Input orientation:                          
 ---------------------------------------------------------------------
 Center     Atomic      Atomic             Coordinates (Angstroms)
 Number     Number       Type             X           Y           Z
 ---------------------------------------------------------------------
      1          6           0       -0.852717    0.432323    0.001589
      2          8           0       -1.348050   -0.696424    0.004389
      3          7           0        0.488511    0.675658    0.000507
      4          1           0       -1.460085    1.362060   -0.009856
      5          1           0        0.802491    1.637294   -0.007363
      6          6           0        1.454562   -0.416773    0.008095
      7          1           0        1.327946   -1.037978    0.907350
      8          1           0        2.466958    0.006647   -0.002062
      9          1           0        1.316925   -1.056558   -0.876038
 ---------------------------------------------------------------------
                    Distance matrix (angstroms):
                    1          2          3          4          5
     1  C    0.000000
     2  O    1.232653   0.000000
     3  N    1.363123   2.292505   0.000000
     4  H    1.110602   2.061580   2.065982   0.000000
     5  H    2.047375   3.173516   1.011627   2.279256   0.000000
     6  C    2.458565   2.816532   1.458326   3.414635   2.155140
     7  H    2.781633   2.844812   2.112714   3.791381   2.875740
     8  H    3.346858   3.879258   2.088501   4.154380   2.330127
     9  H    2.773868   2.829654   2.110727   3.783090   2.876817
                    6          7          8          9
     6  C    0.000000
     7  H    1.100266   0.000000
     8  H    1.097422   1.793215   0.000000
     9  H    1.099982   1.783519   1.793548   0.000000
 Stoichiometry    C2H5NO
 Framework group  C1[X(C2H5NO)]
 Deg. of freedom    21
 Full point group                 C1      NOp   1
 Largest Abelian subgroup         C1      NOp   1
 Largest concise Abelian subgroup C1      NOp   1
                         Standard orientation:                         
 ---------------------------------------------------------------------
 Center     Atomic      Atomic             Coordinates (Angstroms)
 Number     Number       Type             X           Y           Z
 ---------------------------------------------------------------------
      1          6           0       -0.866687    0.443076    0.002041
      2          8           0       -1.382480   -0.676470   -0.000732
      3          7           0        0.478746    0.661969    0.000135
      4          1           0       -1.457046    1.383760   -0.003148
      5          1           0        0.810166    1.617763   -0.002810
      6          6           0        1.424760   -0.447883   -0.000042
      7          1           0        1.288240   -1.071784    0.895891
      8          1           0        2.444680   -0.042903   -0.009465
      9          1           0        1.274140   -1.080021   -0.887553
 ---------------------------------------------------------------------
 Rotational constants (GHZ):          19.0781977           6.2549506           4.8556523
 Standard basis: Aug-CC-pVDZ (5D, 7F)
 There are   145 symmetry adapted cartesian basis functions of A   symmetry.
 There are   137 symmetry adapted basis functions of A   symmetry.
   137 basis functions,   227 primitive gaussians,   145 cartesian basis functions
    16 alpha electrons       16 beta electrons
       nuclear repulsion energy       120.8782236416 Hartrees.
 NAtoms=    9 NActive=    9 NUniq=    9 SFac= 1.00D+00 NAtFMM=   60 NAOKFM=F Big=F
 Integral buffers will be    131072 words long.
 Raffenetti 1 integral format.
 Two-electron integral symmetry is turned on.
 One-electron integrals computed using PRISM.
 NBasis=   137 RedAO= T EigKep=  2.25D-04  NBF=   137
 NBsUse=   137 1.00D-06 EigRej= -1.00D+00 NBFU=   137
 Initial guess from the checkpoint file:  "/scr/Gau-19312.chk"
 B after Tr=    -0.000000   -0.000000   -0.000000
         Rot=    0.999999    0.000241   -0.000009    0.001341 Ang=   0.16 deg.
 Keep R1 ints in memory in canonical form, NReq=53319416.
 Requested convergence on RMS density matrix=1.00D-08 within 128 cycles.
 Requested convergence on MAX density matrix=1.00D-06.
 Requested convergence on             energy=1.00D-06.
 No special actions if energy rises.
 SCF Done:  E(RHF) =  -207.992013176     A.U. after   10 cycles
            NFock= 10  Conv=0.84D-08     -V/T= 2.0024
 ExpMin= 2.97D-02 ExpMax= 1.17D+04 ExpMxC= 4.01D+02 IAcc=3 IRadAn=         5 AccDes= 0.00D+00
 HarFok:  IExCor=  205 AccDes= 0.00D+00 IRadAn=         5 IDoV=-2 UseB2=F ITyADJ=14
 ICtDFT= 12500011 ScaDFX=  1.000000  1.000000  1.000000  1.000000
 Range of M.O.s used for correlation:     5   137
 NBasis=   137 NAE=    16 NBE=    16 NFC=     4 NFV=     0
 NROrb=    133 NOA=    12 NOB=    12 NVA=   121 NVB=   121

 **** Warning!!: The largest alpha MO coefficient is  0.20097696D+02

 Fully direct method using O(ONN) memory.
 JobTyp=1 Pass  1:  I=   5 to  16 NPSUse= 40 ParTrn=T ParDer=T DoDerP=T.
 Spin components of T(2) and E(2):
     alpha-alpha T2 =       0.2730114053D-01 E2=     -0.8380959177D-01
     alpha-beta  T2 =       0.1552782285D+00 E2=     -0.4927475867D+00
     beta-beta   T2 =       0.2730114053D-01 E2=     -0.8380959177D-01
 ANorm=    0.1099945685D+01
 E2 =    -0.6603667703D+00 EUMP2 =    -0.20865237994605D+03
          IDoAtm=111111111
          Differentiating once with respect to electric field.
                with respect to dipole field.
          Differentiating once with respect to nuclear coordinates.
 Keep R1 ints in memory in canonical form, NReq=53324572.
          There are     1 degrees of freedom in the 1st order CPHF.  IDoFFX=0 NUNeed=     1.
 LinEq1:  Iter=  0 NonCon=     1 RMS=5.63D-03 Max=1.22D-01 NDo=     1
 AX will form     1 AO Fock derivatives at one time.
 LinEq1:  Iter=  1 NonCon=     1 RMS=1.66D-03 Max=2.54D-02 NDo=     1
 LinEq1:  Iter=  2 NonCon=     1 RMS=6.19D-04 Max=8.98D-03 NDo=     1
 LinEq1:  Iter=  3 NonCon=     1 RMS=2.31D-04 Max=3.93D-03 NDo=     1
 LinEq1:  Iter=  4 NonCon=     1 RMS=6.45D-05 Max=4.62D-04 NDo=     1
 LinEq1:  Iter=  5 NonCon=     1 RMS=2.28D-05 Max=3.17D-04 NDo=     1
 LinEq1:  Iter=  6 NonCon=     1 RMS=5.91D-06 Max=5.24D-05 NDo=     1
 LinEq1:  Iter=  7 NonCon=     1 RMS=1.51D-06 Max=1.47D-05 NDo=     1
 LinEq1:  Iter=  8 NonCon=     1 RMS=3.27D-07 Max=4.07D-06 NDo=     1
 LinEq1:  Iter=  9 NonCon=     1 RMS=7.66D-08 Max=7.73D-07 NDo=     1
 LinEq1:  Iter= 10 NonCon=     1 RMS=1.64D-08 Max=1.52D-07 NDo=     1
 LinEq1:  Iter= 11 NonCon=     1 RMS=3.64D-09 Max=2.67D-08 NDo=     1
 LinEq1:  Iter= 12 NonCon=     1 RMS=1.08D-09 Max=7.87D-09 NDo=     1
 LinEq1:  Iter= 13 NonCon=     1 RMS=2.28D-10 Max=3.82D-09 NDo=     1
 LinEq1:  Iter= 14 NonCon=     1 RMS=5.53D-11 Max=1.29D-09 NDo=     1
 LinEq1:  Iter= 15 NonCon=     0 RMS=1.21D-11 Max=1.78D-10 NDo=     1
 Linear equations converged to 1.000D-10 1.000D-09 after    15 iterations.
 End of Minotr F.D. properties file   721 does not exist.
 End of Minotr F.D. properties file   722 does not exist.
 End of Minotr F.D. properties file   788 does not exist.
 Calling FoFJK, ICntrl=  10002127 FMM=F ISym2X=0 I1Cent= 0 IOpClX= 0 NMat=1 NMatS=1 NMatT=0.
 ***** Axes restored to original set *****
 -------------------------------------------------------------------
 Center     Atomic                   Forces (Hartrees/Bohr)
 Number     Number              X              Y              Z
 -------------------------------------------------------------------
      1        6           0.000144983    0.000438329   -0.001158033
      2        8          -0.000045070   -0.000399861    0.000466552
      3        7           0.000386845    0.000782115    0.000324919
      4        1          -0.000209758   -0.000151794    0.000365979
      5        1          -0.000051512   -0.000168487    0.000100260
      6        6          -0.000073309   -0.000557526    0.000029599
      7        1          -0.000127715   -0.000002415   -0.000168506
      8        1          -0.000008259    0.000232565   -0.000029472
      9        1          -0.000016206   -0.000172926    0.000068702
 -------------------------------------------------------------------
 Cartesian Forces:  Max     0.001158033 RMS     0.000359758

 GradGradGradGradGradGradGradGradGradGradGradGradGradGradGradGradGradGrad
 Berny optimization.
 Using GEDIIS/GDIIS optimizer.
 FormGI is forming the generalized inverse of G from B-inverse, IUseBI=4.
 Internal  Forces:  Max     0.000703049 RMS     0.000272691
 Search for a local minimum.
 Step number   3 out of a maximum of   40
 All quantities printed in internal units (Hartrees-Bohrs-Radians)
 Mixed Optimization -- En-DIIS/RFO-DIIS
 Update second derivatives using D2CorX and points    1    2    3
 DE= -8.23D-05 DEPred=-7.78D-05 R= 1.06D+00
 TightC=F SS=  1.41D+00  RLast= 2.87D-02 DXNew= 7.9327D-01 8.6161D-02
 Trust test= 1.06D+00 RLast= 2.87D-02 DXMaxT set to 4.72D-01
 ITU=  1  1  0
 Use linear search instead of GDIIS.
     Eigenvalues ---    0.00929   0.01398   0.02111   0.02481   0.07355
     Eigenvalues ---    0.07636   0.15308   0.15893   0.16000   0.16041
     Eigenvalues ---    0.17391   0.17723   0.23572   0.32585   0.33653
     Eigenvalues ---    0.33938   0.34281   0.38231   0.45858   0.51641
     Eigenvalues ---    0.89668
 RFO step:  Lambda=-4.21726143D-05 EMin= 9.29429077D-03
 Quartic linear search produced a step of  0.05516.
 Iteration  1 RMS(Cart)=  0.00769009 RMS(Int)=  0.00009816
 Iteration  2 RMS(Cart)=  0.00008285 RMS(Int)=  0.00006259
 Iteration  3 RMS(Cart)=  0.00000001 RMS(Int)=  0.00006259
 Variable       Old X    -DE/DX   Delta X   Delta X   Delta X     New X
                                 (Linear)    (Quad)   (Total)
    R1        2.32938   0.00039   0.00010   0.00089   0.00099   2.33037
    R2        2.57593   0.00013  -0.00007  -0.00014  -0.00020   2.57573
    R3        2.09873  -0.00002  -0.00009  -0.00042  -0.00051   2.09822
    R4        1.91170  -0.00018   0.00005  -0.00023  -0.00018   1.91152
    R5        2.75584   0.00022  -0.00016  -0.00001  -0.00017   2.75567
    R6        2.07920  -0.00012   0.00005  -0.00006  -0.00001   2.07920
    R7        2.07383   0.00008  -0.00023  -0.00082  -0.00106   2.07277
    R8        2.07866   0.00005   0.00013   0.00068   0.00081   2.07947
    A1        2.16380  -0.00037   0.00012  -0.00154  -0.00162   2.16219
    A2        2.14938  -0.00009  -0.00005  -0.00085  -0.00109   2.14829
    A3        1.96996   0.00046  -0.00008   0.00270   0.00243   1.97239
    A4        2.06585   0.00035   0.00039   0.00366   0.00405   2.06990
    A5        2.11539  -0.00070  -0.00076  -0.00705  -0.00781   2.10758
    A6        2.10194   0.00035   0.00037   0.00339   0.00376   2.10570
    A7        1.92939  -0.00006   0.00018  -0.00006   0.00012   1.92951
    A8        1.89868  -0.00030  -0.00077  -0.00352  -0.00429   1.89439
    A9        1.92690   0.00021   0.00036   0.00176   0.00213   1.92903
   A10        1.90876   0.00020   0.00024   0.00243   0.00267   1.91143
   A11        1.89035  -0.00013  -0.00007  -0.00182  -0.00190   1.88845
   A12        1.90965   0.00010   0.00008   0.00128   0.00136   1.91101
    D1        3.13538   0.00046  -0.00027   0.02213   0.02185  -3.12595
    D2       -0.00436   0.00044  -0.00025   0.02032   0.02007   0.01571
    D3        0.00311  -0.00034   0.00048  -0.01456  -0.01408  -0.01097
    D4       -3.13664  -0.00037   0.00050  -0.01636  -0.01586   3.13069
    D5       -1.05293   0.00004  -0.00015   0.00143   0.00127  -1.05165
    D6        3.13413   0.00003  -0.00007   0.00069   0.00062   3.13475
    D7        1.03841  -0.00003   0.00010   0.00026   0.00036   1.03877
    D8        2.09055   0.00002  -0.00013  -0.00041  -0.00054   2.09001
    D9       -0.00558   0.00000  -0.00004  -0.00115  -0.00119  -0.00677
   D10       -2.10129  -0.00006   0.00012  -0.00158  -0.00146  -2.10275
         Item               Value     Threshold  Converged?
 Maximum Force            0.000703     0.000450     NO 
 RMS     Force            0.000273     0.000300     YES
 Maximum Displacement     0.018681     0.001800     NO 
 RMS     Displacement     0.007707     0.001200     NO 
 Predicted change in Energy=-2.129132D-05
 GradGradGradGradGradGradGradGradGradGradGradGradGradGradGradGradGradGrad

                          Input orientation:                          
 ---------------------------------------------------------------------
 Center     Atomic      Atomic             Coordinates (Angstroms)
 Number     Number       Type             X           Y           Z
 ---------------------------------------------------------------------
      1          6           0       -0.849383    0.432265   -0.007690
      2          8           0       -1.339547   -0.699125    0.012799
      3          7           0        0.490936    0.679931   -0.003230
      4          1           0       -1.461879    1.358371   -0.004607
      5          1           0        0.805679    1.641239   -0.007479
      6          6           0        1.451896   -0.416837    0.007354
      7          1           0        1.318061   -1.039011    0.904888
      8          1           0        2.463922    0.006106    0.002238
      9          1           0        1.316856   -1.056688   -0.877663
 ---------------------------------------------------------------------
                    Distance matrix (angstroms):
                    1          2          3          4          5
     1  C    0.000000
     2  O    1.233177   0.000000
     3  N    1.363016   2.291881   0.000000
     4  H    1.110330   2.061203   2.067309   0.000000
     5  H    2.049597   3.174856   1.011531   2.285135   0.000000
     6  C    2.452975   2.805685   1.458238   3.411978   2.157196
     7  H    2.774033   2.823867   2.112717   3.781889   2.877271
     8  H    3.340613   3.868312   2.084885   4.152178   2.328846
     9  H    2.768831   2.824403   2.112492   3.783663   2.880509
                    6          7          8          9
     6  C    0.000000
     7  H    1.100263   0.000000
     8  H    1.096861   1.794448   0.000000
     9  H    1.100409   1.782639   1.794301   0.000000
 Stoichiometry    C2H5NO
 Framework group  C1[X(C2H5NO)]
 Deg. of freedom    21
 Full point group                 C1      NOp   1
 Largest Abelian subgroup         C1      NOp   1
 Largest concise Abelian subgroup C1      NOp   1
                         Standard orientation:                         
 ---------------------------------------------------------------------
 Center     Atomic      Atomic             Coordinates (Angstroms)
 Number     Number       Type             X           Y           Z
 ---------------------------------------------------------------------
      1          6           0       -0.865051    0.444313   -0.005978
      2          8           0       -1.377558   -0.677290    0.002236
      3          7           0        0.479914    0.665288    0.001106
      4          1           0       -1.459063    1.382295    0.007200
      5          1           0        0.813658    1.620155    0.007291
      6          6           0        1.418935   -0.450371   -0.000278
      7          1           0        1.272639   -1.079485    0.890447
      8          1           0        2.439150   -0.047549   -0.000847
      9          1           0        1.271380   -1.077762   -0.892190
 ---------------------------------------------------------------------
 Rotational constants (GHZ):          18.9829235           6.2933869           4.8724322
 Standard basis: Aug-CC-pVDZ (5D, 7F)
 There are   145 symmetry adapted cartesian basis functions of A   symmetry.
 There are   137 symmetry adapted basis functions of A   symmetry.
   137 basis functions,   227 primitive gaussians,   145 cartesian basis functions
    16 alpha electrons       16 beta electrons
       nuclear repulsion energy       120.9503612793 Hartrees.
 NAtoms=    9 NActive=    9 NUniq=    9 SFac= 1.00D+00 NAtFMM=   60 NAOKFM=F Big=F
 Integral buffers will be    131072 words long.
 Raffenetti 1 integral format.
 Two-electron integral symmetry is turned on.
 One-electron integrals computed using PRISM.
 NBasis=   137 RedAO= T EigKep=  2.25D-04  NBF=   137
 NBsUse=   137 1.00D-06 EigRej= -1.00D+00 NBFU=   137
 Initial guess from the checkpoint file:  "/scr/Gau-19312.chk"
 B after Tr=     0.000000   -0.000000   -0.000000
         Rot=    1.000000   -0.000504    0.000243    0.000353 Ang=  -0.08 deg.
 Keep R1 ints in memory in canonical form, NReq=53319475.
 Requested convergence on RMS density matrix=1.00D-08 within 128 cycles.
 Requested convergence on MAX density matrix=1.00D-06.
 Requested convergence on             energy=1.00D-06.
 No special actions if energy rises.
 SCF Done:  E(RHF) =  -207.991907146     A.U. after   11 cycles
            NFock= 11  Conv=0.55D-08     -V/T= 2.0024
 ExpMin= 2.97D-02 ExpMax= 1.17D+04 ExpMxC= 4.01D+02 IAcc=3 IRadAn=         5 AccDes= 0.00D+00
 HarFok:  IExCor=  205 AccDes= 0.00D+00 IRadAn=         5 IDoV=-2 UseB2=F ITyADJ=14
 ICtDFT= 12500011 ScaDFX=  1.000000  1.000000  1.000000  1.000000
 Range of M.O.s used for correlation:     5   137
 NBasis=   137 NAE=    16 NBE=    16 NFC=     4 NFV=     0
 NROrb=    133 NOA=    12 NOB=    12 NVA=   121 NVB=   121

 **** Warning!!: The largest alpha MO coefficient is  0.20346132D+02

 Fully direct method using O(ONN) memory.
 JobTyp=1 Pass  1:  I=   5 to  16 NPSUse= 40 ParTrn=T ParDer=T DoDerP=T.
 Spin components of T(2) and E(2):
     alpha-alpha T2 =       0.2730942366D-01 E2=     -0.8382753623D-01
     alpha-beta  T2 =       0.1552991825D+00 E2=     -0.4927914715D+00
     beta-beta   T2 =       0.2730942366D-01 E2=     -0.8382753623D-01
 ANorm=    0.1099962740D+01
 E2 =    -0.6604465440D+00 EUMP2 =    -0.20865235368986D+03
          IDoAtm=111111111
          Differentiating once with respect to electric field.
                with respect to dipole field.
          Differentiating once with respect to nuclear coordinates.
 Keep R1 ints in memory in canonical form, NReq=53324631.
          There are     1 degrees of freedom in the 1st order CPHF.  IDoFFX=0 NUNeed=     1.
 LinEq1:  Iter=  0 NonCon=     1 RMS=5.63D-03 Max=1.20D-01 NDo=     1
 AX will form     1 AO Fock derivatives at one time.
 LinEq1:  Iter=  1 NonCon=     1 RMS=1.67D-03 Max=2.50D-02 NDo=     1
 LinEq1:  Iter=  2 NonCon=     1 RMS=6.20D-04 Max=8.86D-03 NDo=     1
 LinEq1:  Iter=  3 NonCon=     1 RMS=2.32D-04 Max=3.86D-03 NDo=     1
 LinEq1:  Iter=  4 NonCon=     1 RMS=6.47D-05 Max=4.59D-04 NDo=     1
 LinEq1:  Iter=  5 NonCon=     1 RMS=2.27D-05 Max=3.18D-04 NDo=     1
 LinEq1:  Iter=  6 NonCon=     1 RMS=5.91D-06 Max=4.95D-05 NDo=     1
 LinEq1:  Iter=  7 NonCon=     1 RMS=1.51D-06 Max=1.37D-05 NDo=     1
 LinEq1:  Iter=  8 NonCon=     1 RMS=3.31D-07 Max=3.72D-06 NDo=     1
 LinEq1:  Iter=  9 NonCon=     1 RMS=7.86D-08 Max=7.18D-07 NDo=     1
 LinEq1:  Iter= 10 NonCon=     1 RMS=1.70D-08 Max=1.64D-07 NDo=     1
 LinEq1:  Iter= 11 NonCon=     1 RMS=3.83D-09 Max=4.82D-08 NDo=     1
 LinEq1:  Iter= 12 NonCon=     1 RMS=1.30D-09 Max=2.12D-08 NDo=     1
 LinEq1:  Iter= 13 NonCon=     1 RMS=3.88D-10 Max=7.03D-09 NDo=     1
 LinEq1:  Iter= 14 NonCon=     0 RMS=8.48D-11 Max=8.00D-10 NDo=     1
 Linear equations converged to 1.000D-10 1.000D-09 after    14 iterations.
 End of Minotr F.D. properties file   721 does not exist.
 End of Minotr F.D. properties file   722 does not exist.
 End of Minotr F.D. properties file   788 does not exist.
 Calling FoFJK, ICntrl=  10002127 FMM=F ISym2X=0 I1Cent= 0 IOpClX= 0 NMat=1 NMatS=1 NMatT=0.
 ***** Axes restored to original set *****
 -------------------------------------------------------------------
 Center     Atomic                   Forces (Hartrees/Bohr)
 Number     Number              X              Y              Z
 -------------------------------------------------------------------
      1        6          -0.000379319    0.000381848    0.003350817
      2        8           0.000166509    0.000114851   -0.001327199
      3        7          -0.000427563   -0.000377055   -0.000823153
      4        1          -0.000181302    0.000006768   -0.001053772
      5        1          -0.000023815   -0.000186020   -0.000211706
      6        6           0.000331256   -0.000217355   -0.000063794
      7        1          -0.000058661    0.000154576   -0.000060466
      8        1           0.000597588   -0.000113425    0.000004678
      9        1          -0.000024693    0.000235811    0.000184595
 -------------------------------------------------------------------
 Cartesian Forces:  Max     0.003350817 RMS     0.000774555

 GradGradGradGradGradGradGradGradGradGradGradGradGradGradGradGradGradGrad
 Berny optimization.
 Using GEDIIS/GDIIS optimizer.
 FormGI is forming the generalized inverse of G from B-inverse, IUseBI=4.
 Internal  Forces:  Max     0.001299142 RMS     0.000495500
 Search for a local minimum.
 Step number   4 out of a maximum of   40
 All quantities printed in internal units (Hartrees-Bohrs-Radians)
 Mixed Optimization -- En-DIIS/RFO-DIIS
 Swapping is turned off.
 Update second derivatives using D2CorX and points    1    2    3    4
 DE=  2.63D-05 DEPred=-2.13D-05 R=-1.23D+00
 Trust test=-1.23D+00 RLast= 3.84D-02 DXMaxT set to 2.36D-01
 ITU= -1  1  1  0
     Eigenvalues ---    0.00930   0.01397   0.02120   0.06641   0.07389
     Eigenvalues ---    0.07677   0.11807   0.15907   0.16009   0.16042
     Eigenvalues ---    0.16722   0.17534   0.22999   0.32553   0.33652
     Eigenvalues ---    0.33900   0.34383   0.38394   0.45864   0.51923
     Eigenvalues ---    0.88887
 En-DIIS/RFO-DIIS/Sim-DIIS IScMMF=       -3 using points:     4    3
 RFO step:  Lambda=-7.08410552D-05.
 DidBck=T Rises=T En-DIIS coefs:    0.40472    0.59528
 Iteration  1 RMS(Cart)=  0.00439231 RMS(Int)=  0.00003838
 Iteration  2 RMS(Cart)=  0.00004026 RMS(Int)=  0.00000095
 Iteration  3 RMS(Cart)=  0.00000000 RMS(Int)=  0.00000095
 Variable       Old X    -DE/DX   Delta X   Delta X   Delta X     New X
                                 (Linear)    (Quad)   (Total)
    R1        2.33037  -0.00019  -0.00059   0.00042  -0.00017   2.33020
    R2        2.57573   0.00029   0.00012   0.00025   0.00037   2.57610
    R3        2.09822   0.00010   0.00031  -0.00005   0.00025   2.09848
    R4        1.91152  -0.00018   0.00011  -0.00040  -0.00029   1.91123
    R5        2.75567   0.00051   0.00010   0.00076   0.00086   2.75653
    R6        2.07920  -0.00013   0.00000  -0.00030  -0.00030   2.07890
    R7        2.07277   0.00051   0.00063   0.00035   0.00098   2.07375
    R8        2.07947  -0.00028  -0.00048  -0.00000  -0.00048   2.07899
    A1        2.16219  -0.00022   0.00096  -0.00171  -0.00075   2.16143
    A2        2.14829  -0.00002   0.00065  -0.00079  -0.00014   2.14815
    A3        1.97239   0.00030  -0.00144   0.00266   0.00122   1.97360
    A4        2.06990  -0.00028  -0.00241   0.00158  -0.00083   2.06907
    A5        2.10758   0.00062   0.00465  -0.00290   0.00175   2.10933
    A6        2.10570  -0.00034  -0.00224   0.00132  -0.00092   2.10478
    A7        1.92951  -0.00024  -0.00007  -0.00091  -0.00098   1.92853
    A8        1.89439   0.00057   0.00256  -0.00038   0.00218   1.89657
    A9        1.92903  -0.00021  -0.00127   0.00050  -0.00077   1.92826
   A10        1.91143  -0.00012  -0.00159   0.00126  -0.00033   1.91110
   A11        1.88845   0.00012   0.00113  -0.00115  -0.00002   1.88843
   A12        1.91101  -0.00012  -0.00081   0.00071  -0.00010   1.91091
    D1       -3.12595  -0.00130  -0.01301  -0.00308  -0.01609   3.14115
    D2        0.01571  -0.00127  -0.01195  -0.00372  -0.01567   0.00004
    D3       -0.01097   0.00100   0.00838   0.00357   0.01195   0.00098
    D4        3.13069   0.00103   0.00944   0.00292   0.01237  -3.14013
    D5       -1.05165   0.00006  -0.00076   0.00112   0.00036  -1.05129
    D6        3.13475  -0.00001  -0.00037   0.00035  -0.00002   3.13473
    D7        1.03877  -0.00009  -0.00021  -0.00059  -0.00080   1.03797
    D8        2.09001   0.00009   0.00032   0.00046   0.00079   2.09080
    D9       -0.00677   0.00002   0.00071  -0.00030   0.00041  -0.00636
   D10       -2.10275  -0.00006   0.00087  -0.00124  -0.00037  -2.10313
         Item               Value     Threshold  Converged?
 Maximum Force            0.001299     0.000450     NO 
 RMS     Force            0.000495     0.000300     NO 
 Maximum Displacement     0.013827     0.001800     NO 
 RMS     Displacement     0.004389     0.001200     NO 
 Predicted change in Energy=-3.543875D-05
 GradGradGradGradGradGradGradGradGradGradGradGradGradGradGradGradGradGrad

                          Input orientation:                          
 ---------------------------------------------------------------------
 Center     Atomic      Atomic             Coordinates (Angstroms)
 Number     Number       Type             X           Y           Z
 ---------------------------------------------------------------------
      1          6           0       -0.850210    0.432827   -0.000373
      2          8           0       -1.340298   -0.698662    0.006589
      3          7           0        0.490508    0.679438   -0.000572
      4          1           0       -1.463138    1.358778   -0.008602
      5          1           0        0.805170    1.640600   -0.006988
      6          6           0        1.452829   -0.416760    0.007654
      7          1           0        1.321552   -1.037846    0.906124
      8          1           0        2.465835    0.005121   -0.001177
      9          1           0        1.314294   -1.057248   -0.876044
 ---------------------------------------------------------------------
                    Distance matrix (angstroms):
                    1          2          3          4          5
     1  C    0.000000
     2  O    1.233087   0.000000
     3  N    1.363211   2.291520   0.000000
     4  H    1.110465   2.061160   2.068405   0.000000
     5  H    2.049156   3.174171   1.011377   2.285749   0.000000
     6  C    2.454761   2.807317   1.458691   3.414039   2.156943
     7  H    2.775098   2.830134   2.112297   3.786163   2.876543
     8  H    3.343515   3.870662   2.087252   4.155631   2.330801
     9  H    2.769874   2.820370   2.112144   3.782032   2.879730
                    6          7          8          9
     6  C    0.000000
     7  H    1.100105   0.000000
     8  H    1.097381   1.794536   0.000000
     9  H    1.100154   1.782288   1.794455   0.000000
 Stoichiometry    C2H5NO
 Framework group  C1[X(C2H5NO)]
 Deg. of freedom    21
 Full point group                 C1      NOp   1
 Largest Abelian subgroup         C1      NOp   1
 Largest concise Abelian subgroup C1      NOp   1
                         Standard orientation:                         
 ---------------------------------------------------------------------
 Center     Atomic      Atomic             Coordinates (Angstroms)
 Number     Number       Type             X           Y           Z
 ---------------------------------------------------------------------
      1          6           0       -0.865930    0.444143    0.000178
      2          8           0       -1.377636   -0.677757   -0.000023
      3          7           0        0.479273    0.664984    0.000202
      4          1           0       -1.460983    1.381717   -0.001092
      5          1           0        0.812317    1.619953   -0.000021
      6          6           0        1.420386   -0.449505   -0.000068
      7          1           0        1.278071   -1.074070    0.894300
      8          1           0        2.441294   -0.047085   -0.007128
      9          1           0        1.268743   -1.081177   -0.887949
 ---------------------------------------------------------------------
 Rotational constants (GHZ):          18.9933994           6.2869431           4.8691418
 Standard basis: Aug-CC-pVDZ (5D, 7F)
 There are   145 symmetry adapted cartesian basis functions of A   symmetry.
 There are   137 symmetry adapted basis functions of A   symmetry.
   137 basis functions,   227 primitive gaussians,   145 cartesian basis functions
    16 alpha electrons       16 beta electrons
       nuclear repulsion energy       120.9299151061 Hartrees.
 NAtoms=    9 NActive=    9 NUniq=    9 SFac= 1.00D+00 NAtFMM=   60 NAOKFM=F Big=F
 Integral buffers will be    131072 words long.
 Raffenetti 1 integral format.
 Two-electron integral symmetry is turned on.
 One-electron integrals computed using PRISM.
 NBasis=   137 RedAO= T EigKep=  2.25D-04  NBF=   137
 NBsUse=   137 1.00D-06 EigRej= -1.00D+00 NBFU=   137
 Initial guess from the checkpoint file:  "/scr/Gau-19312.chk"
 B after Tr=    -0.000000    0.000000    0.000000
         Rot=    1.000000    0.000446   -0.000153   -0.000273 Ang=   0.06 deg.
 Keep R1 ints in memory in canonical form, NReq=53319475.
 Requested convergence on RMS density matrix=1.00D-08 within 128 cycles.
 Requested convergence on MAX density matrix=1.00D-06.
 Requested convergence on             energy=1.00D-06.
 No special actions if energy rises.
 SCF Done:  E(RHF) =  -207.991954779     A.U. after   10 cycles
            NFock= 10  Conv=0.91D-08     -V/T= 2.0024
 ExpMin= 2.97D-02 ExpMax= 1.17D+04 ExpMxC= 4.01D+02 IAcc=3 IRadAn=         5 AccDes= 0.00D+00
 HarFok:  IExCor=  205 AccDes= 0.00D+00 IRadAn=         5 IDoV=-2 UseB2=F ITyADJ=14
 ICtDFT= 12500011 ScaDFX=  1.000000  1.000000  1.000000  1.000000
 Range of M.O.s used for correlation:     5   137
 NBasis=   137 NAE=    16 NBE=    16 NFC=     4 NFV=     0
 NROrb=    133 NOA=    12 NOB=    12 NVA=   121 NVB=   121

 **** Warning!!: The largest alpha MO coefficient is  0.20274861D+02

 Fully direct method using O(ONN) memory.
 JobTyp=1 Pass  1:  I=   5 to  16 NPSUse= 40 ParTrn=T ParDer=T DoDerP=T.
 Spin components of T(2) and E(2):
     alpha-alpha T2 =       0.2730877231D-01 E2=     -0.8382269036D-01
     alpha-beta  T2 =       0.1553049199D+00 E2=     -0.4927880247D+00
     beta-beta   T2 =       0.2730877231D-01 E2=     -0.8382269036D-01
 ANorm=    0.1099964756D+01
 E2 =    -0.6604334054D+00 EUMP2 =    -0.20865238818415D+03
          IDoAtm=111111111
          Differentiating once with respect to electric field.
                with respect to dipole field.
          Differentiating once with respect to nuclear coordinates.
 Keep R1 ints in memory in canonical form, NReq=53324631.
          There are     1 degrees of freedom in the 1st order CPHF.  IDoFFX=0 NUNeed=     1.
 LinEq1:  Iter=  0 NonCon=     1 RMS=5.63D-03 Max=1.23D-01 NDo=     1
 AX will form     1 AO Fock derivatives at one time.
 LinEq1:  Iter=  1 NonCon=     1 RMS=1.67D-03 Max=2.56D-02 NDo=     1
 LinEq1:  Iter=  2 NonCon=     1 RMS=6.20D-04 Max=9.09D-03 NDo=     1
 LinEq1:  Iter=  3 NonCon=     1 RMS=2.32D-04 Max=3.96D-03 NDo=     1
 LinEq1:  Iter=  4 NonCon=     1 RMS=6.46D-05 Max=4.59D-04 NDo=     1
 LinEq1:  Iter=  5 NonCon=     1 RMS=2.28D-05 Max=3.18D-04 NDo=     1
 LinEq1:  Iter=  6 NonCon=     1 RMS=5.90D-06 Max=5.14D-05 NDo=     1
 LinEq1:  Iter=  7 NonCon=     1 RMS=1.50D-06 Max=1.44D-05 NDo=     1
 LinEq1:  Iter=  8 NonCon=     1 RMS=3.22D-07 Max=4.06D-06 NDo=     1
 LinEq1:  Iter=  9 NonCon=     1 RMS=7.56D-08 Max=7.73D-07 NDo=     1
 LinEq1:  Iter= 10 NonCon=     1 RMS=1.63D-08 Max=1.59D-07 NDo=     1
 LinEq1:  Iter= 11 NonCon=     1 RMS=3.55D-09 Max=2.72D-08 NDo=     1
 LinEq1:  Iter= 12 NonCon=     1 RMS=1.05D-09 Max=6.17D-09 NDo=     1
 LinEq1:  Iter= 13 NonCon=     1 RMS=1.98D-10 Max=1.29D-09 NDo=     1
 LinEq1:  Iter= 14 NonCon=     0 RMS=3.23D-11 Max=2.52D-10 NDo=     1
 Linear equations converged to 1.000D-10 1.000D-09 after    14 iterations.
 End of Minotr F.D. properties file   721 does not exist.
 End of Minotr F.D. properties file   722 does not exist.
 End of Minotr F.D. properties file   788 does not exist.
 Calling FoFJK, ICntrl=  10002127 FMM=F ISym2X=0 I1Cent= 0 IOpClX= 0 NMat=1 NMatS=1 NMatT=0.
 ***** Axes restored to original set *****
 -------------------------------------------------------------------
 Center     Atomic                   Forces (Hartrees/Bohr)
 Number     Number              X              Y              Z
 -------------------------------------------------------------------
      1        6          -0.000078554    0.000092230   -0.000152364
      2        8          -0.000005989    0.000021565    0.000058173
      3        7          -0.000218682   -0.000127773   -0.000027031
      4        1           0.000014012   -0.000018333    0.000061524
      5        1           0.000033857   -0.000017194    0.000008813
      6        6           0.000136892   -0.000076731   -0.000003436
      7        1           0.000012532    0.000040797   -0.000000977
      8        1           0.000139505   -0.000030727    0.000017016
      9        1          -0.000033574    0.000116167    0.000038283
 -------------------------------------------------------------------
 Cartesian Forces:  Max     0.000218682 RMS     0.000080677

 GradGradGradGradGradGradGradGradGradGradGradGradGradGradGradGradGradGrad
 Berny optimization.
 Using GEDIIS/GDIIS optimizer.
 FormGI is forming the generalized inverse of G from B-inverse, IUseBI=4.
 Internal  Forces:  Max     0.000230924 RMS     0.000079193
 Search for a local minimum.
 Step number   5 out of a maximum of   40
 All quantities printed in internal units (Hartrees-Bohrs-Radians)
 Mixed Optimization -- En-DIIS/RFO-DIIS
 Swapping is turned off.
 Update second derivatives using D2CorX and points    1    2    3    4    5
 DE= -3.45D-05 DEPred=-3.54D-05 R= 9.73D-01
 TightC=F SS=  1.41D+00  RLast= 2.86D-02 DXNew= 3.9664D-01 8.5759D-02
 Trust test= 9.73D-01 RLast= 2.86D-02 DXMaxT set to 2.36D-01
 ITU=  1 -1  1  1  0
     Eigenvalues ---    0.00930   0.01393   0.02130   0.06940   0.07640
     Eigenvalues ---    0.08569   0.13972   0.15959   0.16010   0.16268
     Eigenvalues ---    0.17228   0.18352   0.23450   0.32568   0.33682
     Eigenvalues ---    0.33968   0.34587   0.38562   0.45875   0.51924
     Eigenvalues ---    0.89081
 En-DIIS/RFO-DIIS/Sim-DIIS IScMMF=       -3 using points:     5    4    3
 RFO step:  Lambda=-9.79714989D-07.
 DidBck=F Rises=F RFO-DIIS coefs:    0.75011    0.08618    0.16371
 Iteration  1 RMS(Cart)=  0.00088629 RMS(Int)=  0.00000368
 Iteration  2 RMS(Cart)=  0.00000048 RMS(Int)=  0.00000366
 Variable       Old X    -DE/DX   Delta X   Delta X   Delta X     New X
                                 (Linear)    (Quad)   (Total)
    R1        2.33020  -0.00002  -0.00012   0.00004  -0.00007   2.33012
    R2        2.57610   0.00005  -0.00006   0.00014   0.00008   2.57618
    R3        2.09848  -0.00002   0.00002  -0.00005  -0.00003   2.09844
    R4        1.91123  -0.00001   0.00010  -0.00008   0.00002   1.91125
    R5        2.75653   0.00013  -0.00019   0.00041   0.00022   2.75675
    R6        2.07890  -0.00003   0.00008  -0.00012  -0.00005   2.07885
    R7        2.07375   0.00012  -0.00007   0.00036   0.00029   2.07404
    R8        2.07899  -0.00009  -0.00001  -0.00022  -0.00023   2.07875
    A1        2.16143   0.00002   0.00045  -0.00020   0.00026   2.16170
    A2        2.14815  -0.00001   0.00021  -0.00020   0.00003   2.14818
    A3        1.97360  -0.00001  -0.00070   0.00040  -0.00029   1.97331
    A4        2.06907  -0.00008  -0.00046  -0.00003  -0.00049   2.06859
    A5        2.10933   0.00023   0.00084   0.00042   0.00126   2.11060
    A6        2.10478  -0.00015  -0.00039  -0.00039  -0.00078   2.10400
    A7        1.92853  -0.00002   0.00023  -0.00029  -0.00007   1.92846
    A8        1.89657   0.00014   0.00016   0.00057   0.00072   1.89729
    A9        1.92826  -0.00014  -0.00016  -0.00049  -0.00064   1.92762
   A10        1.91110  -0.00005  -0.00036   0.00002  -0.00033   1.91077
   A11        1.88843   0.00007   0.00032   0.00006   0.00038   1.88880
   A12        1.91091  -0.00000  -0.00020   0.00013  -0.00007   1.91084
    D1        3.14115   0.00006   0.00044   0.00020   0.00064  -3.14139
    D2        0.00004   0.00005   0.00063  -0.00041   0.00022   0.00027
    D3        0.00098  -0.00005  -0.00068  -0.00002  -0.00070   0.00028
    D4       -3.14013  -0.00006  -0.00049  -0.00062  -0.00112  -3.14125
    D5       -1.05129   0.00002  -0.00030   0.00077   0.00047  -1.05082
    D6        3.13473   0.00000  -0.00010   0.00056   0.00046   3.13520
    D7        1.03797   0.00000   0.00014   0.00034   0.00048   1.03846
    D8        2.09080   0.00001  -0.00011   0.00015   0.00004   2.09084
    D9       -0.00636  -0.00001   0.00009  -0.00006   0.00004  -0.00633
   D10       -2.10313  -0.00001   0.00033  -0.00028   0.00006  -2.10307
         Item               Value     Threshold  Converged?
 Maximum Force            0.000231     0.000450     YES
 RMS     Force            0.000079     0.000300     YES
 Maximum Displacement     0.002683     0.001800     NO 
 RMS     Displacement     0.000886     0.001200     YES
 Predicted change in Energy=-4.885818D-07
 GradGradGradGradGradGradGradGradGradGradGradGradGradGradGradGradGradGrad

                          Input orientation:                          
 ---------------------------------------------------------------------
 Center     Atomic      Atomic             Coordinates (Angstroms)
 Number     Number       Type             X           Y           Z
 ---------------------------------------------------------------------
      1          6           0       -0.850774    0.432840   -0.000719
      2          8           0       -1.341718   -0.698232    0.006828
      3          7           0        0.490113    0.678780   -0.000942
      4          1           0       -1.462954    1.359273   -0.008145
      5          1           0        0.804796    1.639946   -0.007296
      6          6           0        1.453340   -0.416776    0.007689
      7          1           0        1.322133   -1.037881    0.906124
      8          1           0        2.466475    0.005199   -0.000761
      9          1           0        1.315130   -1.056900   -0.876169
 ---------------------------------------------------------------------
                    Distance matrix (angstroms):
                    1          2          3          4          5
     1  C    0.000000
     2  O    1.233047   0.000000
     3  N    1.363255   2.291686   0.000000
     4  H    1.110449   2.061127   2.068234   0.000000
     5  H    2.048917   3.174082   1.011388   2.285053   0.000000
     6  C    2.455780   2.809193   1.458809   3.414582   2.156604
     7  H    2.776132   2.831995   2.112333   3.786680   2.876235
     8  H    3.344700   3.872623   2.087994   4.156198   2.331013
     9  H    2.770718   2.822617   2.111696   3.782738   2.878951
                    6          7          8          9
     6  C    0.000000
     7  H    1.100079   0.000000
     8  H    1.097532   1.794429   0.000000
     9  H    1.100029   1.782408   1.794433   0.000000
 Stoichiometry    C2H5NO
 Framework group  C1[X(C2H5NO)]
 Deg. of freedom    21
 Full point group                 C1      NOp   1
 Largest Abelian subgroup         C1      NOp   1
 Largest concise Abelian subgroup C1      NOp   1
[...]
 6,0.00000029,-0.00070634,-0.00024173,0.00000014,0.00005221,0.00006769,
 -0.00000913,0.00058455,0.00024094,-0.00000986,-0.00000788,-0.00000386,
 -0.00000137,0.00000474,-0.00000771,0.00000798,0.00001408,-0.00013597,0
 .00000038,-0.00000531,0.00006101,0.00000059,-0.00000224,0.00002419,0.0
 0000975,0.00000962,0.00005403,-0.00004829,0.00009692,0.00001306,-0.000
 00456,-0.00000411,-0.00000912,0.00051858,0.00001649,0.00112994,0.00000
 496,-0.00003046,-0.00027332,-0.00092038,0.00011087,-0.00039232,0.00009
 390,0.00019784,-0.00054629,0.00007996,-0.00000073,-0.00014075,-0.00003
 944,-0.00052017,-0.00004540,0.00010883,-0.00001201,-0.00000055,0.00014
 593,0.00005250,0.00004538,0.00000765,-0.00029214,0.00026736,-0.0004667
 1,0.00002446,-0.00015379,0.00005850,0.00032854,-0.00009124,0.00024367,
 -0.00003120,-0.00008294,0.00026382,-0.00004221,0.00004826,0.00009723,-
 0.00019923,0.00001582,-0.00061152,-0.00001020,0.00007684,0.00004521,0.
 00003633,0.00006454,-0.00010582,0.00018566,-0.00014486,0.00026675,0.00
 000053,0.00049722,0.00021061,0.00004001,-0.00017443,-0.00052375,0.0002
 1673,-0.00019484,-0.00001213,0.00008927,-0.00022644,-0.00001024,-0.000
 01430,-0.00002552,-0.00019073,-0.00077418,-0.00064788,0.00000253,-0.00
 004019,0.00008863,0.00003367,0.00000652,0.00000436,0.00022330,0.000475
 61,0.00067890,-0.00251362,-0.00196626,-0.00378648,0.00003789,0.0000607
 4,-0.00169597,0.00088722,0.00072514,-0.00000353,-0.00061806,0.00219236
 ,0.00229029,-0.00006198,-0.00111202,-0.00224124,-0.00002253,-0.0000441
 5,-0.00026778,0.00001019,0.00004923,0.00036543,0.00385636,0.00225740,-
 0.00005125,-0.00040901,-0.00159266,0.00002903,-0.00980943,-0.00558240,
 0.00068600,-0.00000314,0.00093885,0.00171279,-0.00001215,0.00800760,-0
 .01020041,0.00001877,0.00001449,0.00171692,-0.00002047,-0.00001192,-0.
 00027943,-0.00003100,0.00010336,-0.00071845,-0.00008213,0.00148415,0.0
 0000061,-0.00002474,-0.00025779,-0.00000688,-0.00016969,-0.00022634,-0
 .00000246,0.00019595,0.00123244,-0.00154424,0.00001971,-0.00012371,0.0
 0004707,-0.00000906,0.00013021,-0.00017126,-0.00000409,-0.00107952,0.0
 0147497,-0.00001484,-0.00000473,0.00029984,0.00001109,0.00000531,0.000
 09516,-0.00000207,0.00000536,0.00022497,0.00000911,-0.00000323,-0.0004
 9843,0.00035868,0.00027814,0.00000044,-0.00007941,-0.00015988,0.000000
 33,0.00078001,0.00018639,-0.00001951,-0.00002165,-0.00000993,-0.000002
 42,-0.00112868,0.00001818,0.00036168,0.00000319,-0.00005660,-0.0001850
 8,-0.00000067,-0.00184009,0.00016788,-0.00000273,0.00002924,-0.0000126
 3,-0.00000006,0.00119722,-0.00084444,0.00000550,0.00000081,0.00048772,
 -0.00000026,0.00000022,-0.00026176,-0.00001609,0.00000461,-0.00041012,
 -0.00000149,0.00000122,0.00008099,0.00000433,0.00000207,-0.00033143,-0
 .00236582,-0.00035414,0.00000922,0.00011481,0.00096904,-0.00000436,0.0
 0749288,-0.01288630,0.00022492,-0.00030169,-0.00014262,-0.00000757,-0.
 00082864,0.00100721,-0.00000576,0.11280552,0.00256538,-0.00257585,0.00
 003030,-0.00066790,0.00079867,-0.00001235,-0.00648985,0.01053171,-0.00
 020053,0.00041032,0.00031320,-0.00000208,0.00024254,-0.00001093,-0.000
 01207,0.50960482,0.42357489,-0.00003576,0.00002836,0.00062513,0.000000
 52,-0.00000007,0.00062722,0.00004736,-0.00004985,-0.00263987,-0.000002
 81,-0.00000982,-0.00047864,-0.00000998,0.00001307,0.00009078,-0.003373
 92,-0.00413727,1.26853145,-0.00004673,-0.00064886,-0.00004000,0.000085
 10,-0.00011377,-0.00031899,-0.00206339,0.00559591,-0.00552778,0.000069
 55,0.00002952,0.00028421,0.00011365,0.00002813,0.00032756,0.20250117,-
 0.10113985,0.14273294,-0.20654756,0.00033216,0.00231736,0.00011149,0.0
 0016562,-0.00099667,0.00024557,-0.00357730,-0.00084051,0.00174517,-0.0
 0023073,-0.00004586,-0.00022255,-0.00036232,0.00022954,0.00015487,-0.1
 0397498,-0.20323561,0.63664015,0.10128402,0.18801172,0.00081850,-0.000
 39052,-0.00045710,-0.00026033,0.00000045,-0.00007085,0.00215771,-0.007
 54706,0.00192855,0.00018191,0.00008519,0.00010315,0.00086217,-0.000710
 66,-0.00001567,0.14697451,0.62380075,-0.71251983,-0.14999085,-0.624905
 23,0.70589118,-0.00004801,-0.00111980,0.00000677,-0.00003947,0.0001868
 5,-0.00000424,0.00234185,-0.00174275,0.00000786,0.00026261,-0.00006334
 ,0.00000369,0.00070225,-0.00041520,0.00000808,-0.51606005,-0.29701873,
 0.00581757,0.00395814,0.00344753,-0.00553519,0.50500604,0.00089135,-0.
 00005186,0.00000249,-0.00003870,-0.00043710,0.00000043,0.00669713,-0.0
 0119161,-0.00001268,0.00010509,-0.00001648,0.00000195,-0.00099788,0.00
 005728,-0.00000106,-0.28372941,-0.00316834,0.00251974,-0.00796569,0.00
 019789,-0.00744222,0.29320086,0.00435934,-0.00001227,-0.00000288,-0.00
 025434,0.00000751,0.00000446,-0.00015378,-0.00007860,0.00001430,-0.001
 55868,-0.00000276,0.00000205,0.00007712,0.00000723,0.00000276,0.000379
 74,0.00547767,0.00251066,0.11769353,0.01744101,0.00381947,0.00613085,-
 0.00573459,-0.00264033,-0.12836105,-0.00004595,-0.00065577,0.00003984,
 0.00008355,-0.00011213,0.00031745,-0.00201956,0.00570905,0.00534966,0.
 00007178,0.00002695,-0.00028119,0.00010379,0.00003191,-0.00032186,0.19
 664182,-0.10750674,-0.14517592,0.00193008,0.00291600,0.00479158,0.0038
 7663,-0.00816276,-0.01710520,-0.20064214,0.00031677,0.00230309,-0.0001
 6280,0.00016933,-0.00098873,-0.00021685,-0.00359244,-0.00069457,-0.001
 63107,-0.00023443,-0.00004476,0.00022004,-0.00037428,0.00023670,-0.000
 15066,-0.11049362,-0.22622774,-0.63500432,0.00293060,0.01436214,0.0171
 0930,0.00352457,0.00025087,-0.00371047,0.10775350,0.21080300,-0.000795
 25,0.00033788,-0.00045441,0.00025527,0.00001432,-0.00005421,-0.0020550
 7,0.00748457,0.00173611,-0.00017523,-0.00008197,0.00009584,-0.00084259
 ,0.00069303,-0.00002025,-0.14929471,-0.62197742,-0.67192977,-0.0049081
 0,-0.01758894,-0.00099028,0.00543005,0.00757169,0.00604660,0.15238563,
 0.62354683,0.66557037,-0.00254459,-0.00211677,-0.00710659,0.00003560,0
 .00008178,-0.00070097,0.00130155,0.00158190,-0.00000569,-0.00088980,0.
 00366769,0.00361390,-0.00007097,-0.00212407,-0.00354738,-0.00002942,-0
 .00005116,-0.00061554,0.00001209,0.00005707,0.00067340,0.00554641,0.00
 300027,-0.00006849,-0.00125226,-0.00272502,0.00003466,-0.01583286,-0.0
 0748996,-0.00048748,0.00002690,0.00126217,0.00268702,-0.00002600,0.023
 24414,-0.01513740,0.00005862,0.00003036,0.00136323,-0.00002283,-0.0000
 2372,-0.00046745,-0.00016541,0.00012448,0.00523387,-0.00020321,0.00038
 987,0.00001076,-0.00009400,-0.00031547,-0.00000707,0.00019671,-0.00027
 713,-0.00000362,0.00026413,0.00035813,-0.00005110,0.00000493,-0.000209
 31,0.00000045,-0.00000871,0.00008014,-0.00021880,-0.00000024,-0.000106
 68,0.00005824,-0.00000923,-0.00002179,-0.00031023,0.00001130,0.0000049
 2,0.00018242,0.00000413,0.00000521,0.00063593,0.00000183,0.00001018,-0
 .00021210,0.00066724,0.00025938,0.00000377,-0.00011444,-0.00025601,0.0
 0000141,-0.00104303,-0.00015875,0.00000186,-0.00001195,0.00002495,-0.0
 0000306,0.00026107,0.00009476,0.00066168,0.00000044,-0.00017664,-0.000
 40424,-0.00000008,-0.00165375,0.00009517,-0.00000909,0.00004013,-0.000
 03118,0.00000077,0.00095106,-0.00084423,-0.00001391,-0.00000444,0.0003
 7905,0.00000542,0.00000701,-0.00042056,0.00002838,-0.00002382,-0.00122
 626,-0.00000246,0.00000171,0.00019414,-0.00000131,0.00000184,0.0005278
 1,-0.00422083,0.00016401,-0.00002339,0.00136474,0.00101008,-0.00000093
 ,0.01060442,-0.03678437,0.00027358,-0.00025064,-0.00025840,0.00000304,
 0.00159626,-0.00008273,0.00001364,-0.62894293,0.01070838,0.00188960,-0
 .00004020,-0.00259908,-0.00255166,0.00002552,-0.02665296,0.01741984,-0
 .00027499,0.00053657,0.00032901,0.00000220,0.00018143,-0.00001057,0.00
 004031,0.29970101,0.67694888,-0.00013312,-0.00003390,0.00013632,0.0000
 1114,0.00005322,0.00108307,0.00013032,-0.00017501,-0.01463921,-0.00000
 274,-0.00000925,-0.00053567,-0.00000556,0.00001227,-0.00028271,0.00801
 435,0.01220374,1.83657638,-0.00031806,-0.00148197,0.00032822,-0.000145
 17,0.00038871,-0.00032924,0.00056564,0.00931758,-0.00486902,0.00000199
 ,0.00005330,0.00019116,-0.00063669,0.00039398,0.00005469,0.30850223,-0
 .13083318,0.19044996,-0.30119265,-0.00309386,0.00019473,0.00002629,0.0
 0107912,0.00050729,0.00036931,0.00332769,-0.00246111,0.00218115,-0.000
 09082,-0.00002628,-0.00033563,-0.00046975,0.00033047,-0.00056605,-0.13
 247425,-0.32098981,0.93009034,0.13077082,0.32998313,-0.00096835,-0.002
 27476,-0.00072572,-0.00010180,0.00134222,-0.00007042,0.00715290,-0.008
 93106,0.00368927,0.00016250,0.00011396,0.00011458,0.00077598,-0.000548
 05,0.00076245,0.18492154,0.92666004,-0.92595134,-0.18848356,-0.9215824
 8,0.90835710,0.00007549,-0.00030048,0.00000860,-0.00002491,-0.00002418
 ,-0.00000478,0.00066972,0.00132243,-0.00002666,0.00009186,0.00000705,0
 .00000214,-0.00007431,0.00002808,-0.00000872,0.00620040,-0.00806813,-0
 .00061041,-0.00314752,0.00285149,-0.00519039,-0.00079982,0.00094812,0.
 00102767,0.00000348,0.00010038,-0.00077665,0.00000086,-0.00177648,0.00
 041788,0.00002053,-0.00007899,-0.00003473,-0.00000154,-0.00004167,-0.0
 0014257,-0.00000094,0.01339737,-0.01178101,-0.00046142,-0.00674762,0.0
 0468263,-0.00342217,0.00120670,0.00180773,0.00002126,0.00000212,0.0012
 6073,-0.00000236,-0.00000932,-0.00033600,0.00005494,0.00003227,0.00186
 549,0.00000274,0.00000042,-0.00017882,-0.00000628,-0.00000487,-0.00068
 996,-0.00074695,-0.00037805,-0.01275062,0.00422531,-0.00191672,0.00609
 513,0.00071347,0.00040559,-0.00135653,-0.00030399,-0.00149622,-0.00028
 939,-0.00014573,0.00037825,0.00032328,0.00054528,0.00956389,0.00475350
 ,0.00000511,0.00005082,-0.00020131,-0.00064415,0.00040510,-0.00007573,
 0.30514635,-0.14297405,-0.19785394,-0.00362978,-0.00190045,0.00173117,
 -0.00299090,-0.00700781,-0.00426214,-0.29798218,-0.00307651,0.00025758
 ,-0.00003264,0.00108553,0.00047125,-0.00036681,0.00315597,-0.00231512,
 -0.00204847,-0.00009749,-0.00002563,0.00033568,-0.00049065,0.00034547,
 0.00054438,-0.14467273,-0.36125427,-0.94167998,-0.00186162,-0.01222106
 ,0.00864229,0.00297703,0.00479905,0.00186857,0.14298047,0.36994272,0.0
 0103855,0.00227180,-0.00078687,0.00009274,-0.00136043,-0.00002890,-0.0
 0717144,0.00896702,0.00354515,-0.00016194,-0.00011300,0.00010976,-0.00
 076682,0.00054678,0.00075605,-0.19245488,-0.93823856,-0.88363622,-0.00
 156752,-0.00826620,0.00772895,0.00511676,0.00345561,0.00609059,0.19587
 456,0.93273698,0.86622150,-0.00410887,-0.00201173,-0.00306490,0.000028
 41,0.00004302,-0.00181641,-0.00055414,-0.00097981,0.00000657,-0.000121
 86,0.00218404,0.00126017,-0.00004253,0.00059018,-0.00137757,-0.0000237
 8,-0.00003800,0.00002948,0.00000554,0.00004210,-0.00001663,0.00316085,
 0.00314194,-0.00004273,0.00065960,-0.00129443,0.00002080,-0.01337244,-
 0.00349644,0.00257483,-0.00003192,0.00009555,0.00100691,-0.00000319,0.
 00657079,-0.01041465,0.00003046,-0.00000672,0.00134624,-0.00002102,-0.
 00001479,-0.00008909,-0.00003384,0.00010442,0.00160660,0.00024853,0.00
 083811,0.00000514,0.00009949,-0.00035116,-0.00000495,-0.00058247,-0.00
 069670,0.00000714,-0.00007353,0.00034806,-0.00081284,0.00000763,0.0000
 8379,0.00028611,-0.00000871,-0.00021536,-0.00019007,-0.00000325,-0.000
 02814,0.00058360,-0.00000757,-0.00000903,-0.00015970,0.00000987,0.0000
 0237,0.00010559,0.00000406,0.00000040,-0.00019501,-0.00000309,0.000009
 00,0.00026325,-0.00012062,0.00001576,0.00000357,0.00000300,0.00004576,
 -0.00000100,0.00196389,0.00075063,-0.00000472,-0.00000536,-0.00003324,
 -0.00000260,-0.00267190,-0.00049822,0.00007645,0.00000943,0.00015773,0
 .00006546,-0.00000069,-0.00115056,-0.00092932,-0.00000020,0.00010828,0
 .00003392,-0.00000232,0.00117030,0.00112372,0.00000584,0.00000443,0.00
 108675,0.00000050,0.00000020,-0.00017348,-0.00000024,0.00002655,0.0009
 1467,-0.00000073,-0.00000063,-0.00004838,-0.00000172,-0.00001931,-0.00
 154411,-0.00118055,0.00129330,-0.00002026,0.00075953,0.00009918,-0.000
 00451,0.00281268,-0.00517694,-0.00004344,-0.00036750,-0.00016235,0.000
 00233,-0.00031825,0.00244382,-0.00000971,1.96839896,0.00295409,0.00204
 965,-0.00000824,0.00013161,-0.00103190,0.00001099,-0.03375813,0.007122
 97,-0.00002276,-0.00074495,0.00012220,-0.00000807,0.00173391,-0.001039
 99,0.00001236,1.11410317,0.01997099,-0.00001408,-0.00004837,-0.0017434
 3,-0.00000970,0.00001395,0.00014998,0.00045264,-0.00033986,-0.00889588
 ,0.00001037,0.00000040,0.00018294,-0.00000898,0.00001751,0.00103051,-0
 .01852814,0.00545712,-0.06075670,0.00004407,-0.00076344,0.00147813,-0.
 00024898,0.00023132,-0.00018096,0.00045806,0.00153199,0.00079698,-0.00
 000271,0.00008265,-0.00019065,-0.00012686,-0.00022548,-0.00108942,0.06
 885500,-0.00908202,0.01608336,-0.08248610,0.00047182,0.00024569,0.0006
 3364,-0.00007797,-0.00029078,-0.00002832,0.00132837,0.00122569,0.00156
 002,0.00004381,0.00000171,-0.00013052,-0.00044192,0.00011509,-0.000491
 40,-0.01974134,-0.05766350,0.19335436,0.00781528,0.05177396,0.00010587
 ,-0.00068999,0.00017771,-0.00015991,0.00041708,-0.00002660,0.00137619,
 -0.00268733,0.00205476,0.00002627,0.00002946,-0.00006851,0.00023998,-0
 .00005288,-0.00019118,0.03228624,0.19453943,-0.23609558,-0.02159092,-0
 .19484457,0.23768191,0.00248366,-0.00072038,0.00001326,-0.00035118,-0.
 00175296,0.00001084,0.00440820,-0.00114172,0.00002307,0.00069003,-0.00
 016281,0.00000390,0.00140683,-0.00179402,0.00000627,-2.11135786,-1.063
 12764,0.02214040,0.00696201,0.00979609,-0.01077375,2.08885149,-0.00039
 998,-0.00258842,0.00003340,0.00006405,0.00037795,-0.00000551,0.0240719
 9,-0.00161690,-0.00003056,0.00078879,-0.00002637,0.00000525,-0.0027945
 5,0.00043371,-0.00001359,-1.06968108,0.10024702,0.00916166,-0.00047549
 ,0.00002519,-0.00120720,1.04888171,-0.09682005,-0.00001687,0.00003222,
 0.00090319,0.00000422,0.00001089,0.00003723,-0.00034099,0.00007965,0.0
 0114668,-0.00001221,0.00000087,-0.00000186,0.00002356,-0.00000699,-0.0
 0087044,0.02232155,0.00916640,0.54450456,0.00324474,0.00436702,-0.0049
 4273,-0.02198567,-0.00914885,-0.53578709,0.00002707,-0.00081374,-0.001
 47207,-0.00024549,0.00024808,0.00017801,0.00049164,0.00156285,-0.00075
 463,-0.00000648,0.00008740,0.00018376,-0.00013073,-0.00021184,0.001089
 20,0.07239797,-0.01221004,-0.02012586,0.00654551,0.00080585,-0.0015099
 8,0.00690681,-0.00045543,-0.00323831,-0.08598633,0.00044837,0.00025937
 ,-0.00064442,-0.00006512,-0.00029637,0.00003133,0.00130539,0.00122055,
 -0.00158616,0.00004196,0.00000174,0.00013292,-0.00044665,0.00012097,0.
 00048139,-0.02317776,-0.06977743,-0.20761677,0.00088518,0.00456696,0.0
 0449599,0.01002174,-0.00003213,-0.00450121,0.01098688,0.06393634,-0.00
 010828,0.00071244,0.00017617,0.00016393,-0.00042928,-0.00001649,-0.001
 43588,0.00285129,0.00211105,-0.00002793,-0.00003478,-0.00007833,-0.000
 24810,0.00005545,-0.00020434,-0.03600405,-0.20914722,-0.23837641,0.001
 44874,-0.00442023,0.00141022,0.01056169,0.00120538,-0.00498954,0.02564
 987,0.20920694,0.23996768,-0.02093179,-0.00989080,-0.00793511,0.000070
 93,0.00007940,-0.00213940,0.00803373,-0.00440841,0.00004070,-0.0063528
 3,0.00891675,-0.00027220,-0.00001615,-0.00269369,-0.00038925,-0.000063
 99,-0.00001684,0.00239300,0.00001215,0.00002837,-0.00085123,0.02639699
 ,0.03721825,-0.00026956,0.00166058,-0.00745185,0.00007231,-0.49609908,
 -0.00491399,-0.00705979,0.00007780,0.00150639,-0.00113700,-0.00004740,
 1.87754714,4.71402006,0.00003871,0.00010362,0.00383162,-0.00002632,-0.
 00004658,-0.00771777,-0.01229817,-0.03898846,-1.17393156,-0.00006226,0
 .00036804,0.00001202,0.00009583,-0.00018962,-0.00000718,-0.00451854,0.
 00018260,-0.00001477,-0.00093186,-0.00118895,-0.00174363,0.00000397,0.
 00047331,0.00038350,-0.00000676,-0.00085153,0.00219714,0.00000286,-0.0
 0068801,0.00095335,0.00000139,-0.00001436,-0.00156378,0.00000669,0.000
 00485,0.00053208,-0.00000020,0.00000915,0.00363840,0.00000227,0.000008
 88,0.00053443,-0.01164221,-0.02075751,0.00013615,-0.00260131,-0.000699
 91,-0.00000185,0.46859970,-1.87192550,0.01225247,0.00479924,0.00228030
 ,-0.00000996,-0.45943567,0.00837841,0.01850741,-0.00012498,0.00445701,
 0.00168244,0.00002647,-1.87995551,-4.71941109,0.03892711,-0.00012673,-
 0.00171411,-0.00000564,1.86991376,4.69541820,-0.00006949,-0.00014859,-
 0.00051149,-0.00003045,0.00002079,0.00433836,0.01231974,0.03894392,1.1
 6712664,0.00000869,-0.00000489,-0.00263485,-0.01221968,-0.03876440,-1.
 16455117,-0.00251382,-0.00103405,-0.00000633,-0.00013560,0.00212076,-0
 .00001070,0.00718758,-0.00754123,0.00012430,0.00041753,-0.00013535,-0.
 00000022,0.00057658,0.00205586,-0.00005530,-0.00953953,-0.00100551,-0.
 00108141,-0.00002808,0.00079719,-0.00033630,0.00002100,-0.02683490,0.0
 0945497,0.00002442,0.00056915,-0.00019069,-0.00000305,0.02278893,0.004
 17071,-0.00004754,0.00486975,-0.01325143,0.00002121,-0.00001494,-0.002
 20955,-0.00000236,0.00000980,0.00157650,0.00014254,0.00007589,0.007427
 23,-0.00000296,-0.00000269,-0.00058568,-0.00017015,-0.00006289,-0.0031
 1714,-0.00001111,0.00001411,-0.00375423,0.00051480,-0.00042188,-0.0003
 3779,-0.00037914,-0.00004844,0.00016454,-0.00062985,0.00125534,0.00181
 582,0.00003817,0.00004649,-0.00013523,-0.00108100,-0.00115570,-0.00057
 650,0.00222059,-0.00023553,-0.00098606,-0.00086231,-0.00029238,-0.0002
 5576,0.00061369,0.00008457,0.00015913,-0.00028786,-0.00116196,0.000915
 09,-0.00314310,-0.00000889,-0.00000099,0.00004547,0.00136941,0.0003674
 0,0.00174596,-0.00028193,0.00010097,0.00088131,0.00046327,-0.00138682,
 0.00019581,-0.00004673,0.00000379,0.00006103,-0.00004251,-0.00010928,-
 0.00116648,0.00039492,0.00039226,-0.00001618,0.00001600,0.00006240,0.0
 0031972,0.00028343,-0.00047522,0.00053519,-0.00081342,-0.00045200,-0.0
 0003505,0.00017342,0.00061807,-0.00029854,-0.00064742,0.00000238,0.000
 06882,0.00009193,-0.00000061,-0.00199507,0.00267804,-0.00002031,0.0001
 2432,0.00001346,0.00000092,0.00188749,-0.00240990,0.00001630,-0.000469
 56,-0.00075661,0.00001602,0.00008097,-0.00008191,-0.00004997,0.0005210
 8,0.00028499,0.00010751,0.00000671,-0.00029785,-0.00025463,0.00000103,
 0.00263925,0.00003996,-0.00002420,-0.00009931,0.00011674,-0.00000263,-
 0.00433834,0.00063676,0.00001245,0.00025305,0.00102420,0.00000760,0.00
 018622,0.00016800,0.00019434,0.00119185,-0.00200503,-0.00000139,0.0000
 0060,0.00018463,0.00000037,0.00000314,-0.00004994,-0.00000987,-0.00003
 498,-0.00112210,0.00000167,-0.00000179,-0.00004586,0.00003622,0.000007
 14,0.00026952,-0.00000552,0.00002126,0.00157383,0.00024256,-0.00019412
 ,-0.00023309,-0.00001476,0.00001192,-0.00034052,0.00050309,-0.00042624
 ,0.00035149,-0.00039009,-0.00004594,-0.00016467,-0.00060228,0.00121122
 ,-0.00187173,0.00003757,0.00005028,0.00013434,-0.00110282,-0.00115720,
 0.00060669,0.00225623,-0.00019247,0.00099286,0.00009776,-0.00009019,0.
 00015594,0.00008050,0.00018013,-0.00024929,-0.00087997,-0.00028852,-0.
 00026702,-0.00061236,0.00008148,0.00016429,0.00028199,-0.00114890,0.00
 098066,0.00314433,-0.00000723,-0.00000130,-0.00004267,0.00136885,0.000
 34229,-0.00175771,-0.00030686,0.00010899,-0.00090819,-0.00008979,-0.00
 006703,-0.00015944,-0.00007944,0.00016649,0.00018683,0.00047041,-0.001
 42738,-0.00019318,0.00005785,0.00001117,-0.00006180,0.00003829,-0.0001
 1174,0.00120969,-0.00043083,0.00035528,0.00001644,-0.00001559,0.000062
 86,-0.00034293,-0.00028624,-0.00044465,-0.00057033,0.00081130,-0.00045
 896,-0.00015230,0.00016523,0.00019306,0.00005004,-0.00020722,-0.000236
 47,0.00004438,-0.00013279,0.00062946\\@
 The archive entry for this job was punched.


 PENOTUS DIED A HUNDRED YEARS OLD WANTING BUT TWO...
 AND HE USED TO SAY BEFORE HE DIED, HAVING SPENT HIS
 WHOLE LIFE IN VAINLY SEARCHING AFTER THE PHILOSOPHER'S
 STONE, THAT IF HE HAD A MORTAL ENEMY HE DID NOT DARE
 TO ENCOUNTER OPENLY, HE WOULD ADVISE HIM ABOVE ALL
 THINGS TO GIVE HIMSELF UP TO THE STUDY AND PRACTICE
 OF ALCHEMY.  --  NICOLAS LEMERY, M.D.
 "A COURSE OF CHYMISTRY", WALTER KETTILBY, LONDON, 1686
 Job cpu time:       1 days  5 hours 29 minutes 44.0 seconds.
 Elapsed time:       0 days  0 hours 45 minutes 12.1 seconds.
 File lengths (MBytes):  RWF=   1741 Int=      0 D2E=      0 Chk=     43 Scr=      1
 Normal termination of Gaussian 16 at Thu Apr  3 11:33:45 2025.
