 Entering Gaussian System, Link 0=g16
 Input=hconh2_mp2_avdz_opt_anharm.gjf
 Output=hconh2_mp2_avdz_opt_anharm.log
 Initial command:
 /sw/contrib/chem-src/g16/c01/g16/l1.exe "/scr/Gau-8599.inp" -scrdir="/scr/"
 Entering Link 1 = /sw/contrib/chem-src/g16/c01/g16/l1.exe PID=      8600.
  
 Copyright (c) 1988-2019, Gaussian, Inc.  All Rights Reserved.
  
 This is part of the Gaussian(R) 16 program.  It is based on
 the Gaussian(R) 09 system (copyright 2009, Gaussian, Inc.),
 the Gaussian(R) 03 system (copyright 2003, Gaussian, Inc.),
 the Gaussian(R) 98 system (copyright 1998, Gaussian, Inc.),
 the Gaussian(R) 94 system (copyright 1995, Gaussian, Inc.),
 the Gaussian 92(TM) system (copyright 1992, Gaussian, Inc.),
 the Gaussian 90(TM) system (copyright 1990, Gaussian, Inc.),
 the Gaussian 88(TM) system (copyright 1988, Gaussian, Inc.),
 the Gaussian 86(TM) system (copyright 1986, Carnegie Mellon
 University), and the Gaussian 82(TM) system (copyright 1983,
 Carnegie Mellon University). Gaussian is a federally registered
 trademark of Gaussian, Inc.
  
 This software contains proprietary and confidential information,
 including trade secrets, belonging to Gaussian, Inc.
  
 This software is provided under written license and may be
 used, copied, transmitted, or stored only in accord with that
 written license.
  
 The following legend is applicable only to US Government
 contracts under FAR:
  
                    RESTRICTED RIGHTS LEGEND
  
 Use, reproduction and disclosure by the US Government is
 subject to restrictions as set forth in subparagraphs (a)
 and (c) of the Commercial Computer Software - Restricted
 Rights clause in FAR 52.227-19.
  
 Gaussian, Inc.
 340 Quinnipiac St., Bldg. 40, Wallingford CT 06492
  
  
 ---------------------------------------------------------------
 Warning -- This program may not be used in any manner that
 competes with the business of Gaussian, Inc. or will provide
 assistance to any competitor of Gaussian, Inc.  The licensee
 of this program is prohibited from giving any competitor of
 Gaussian, Inc. access to this program.  By using this program,
 the user acknowledges that Gaussian, Inc. is engaged in the
 business of creating and licensing software in the field of
 computational chemistry and represents and warrants to the
 licensee that it is not a competitor of Gaussian, Inc. and that
 it will not use this program in any manner prohibited above.
 ---------------------------------------------------------------
  

 Cite this work as:
 Gaussian 16, Revision C.01,
 M. J. Frisch, G. W. Trucks, H. B. Schlegel, G. E. Scuseria, 
 M. A. Robb, J. R. Cheeseman, G. Scalmani, V. Barone, 
 G. A. Petersson, H. Nakatsuji, X. Li, M. Caricato, A. V. Marenich, 
 J. Bloino, B. G. Janesko, R. Gomperts, B. Mennucci, H. P. Hratchian, 
 J. V. Ortiz, A. F. Izmaylov, J. L. Sonnenberg, D. Williams-Young, 
 F. Ding, F. Lipparini, F. Egidi, J. Goings, B. Peng, A. Petrone, 
 T. Henderson, D. Ranasinghe, V. G. Zakrzewski, J. Gao, N. Rega, 
 G. Zheng, W. Liang, M. Hada, M. Ehara, K. Toyota, R. Fukuda, 
 J. Hasegawa, M. Ishida, T. Nakajima, Y. Honda, O. Kitao, H. Nakai, 
 T. Vreven, K. Throssell, J. A. Montgomery, Jr., J. E. Peralta, 
 F. Ogliaro, M. J. Bearpark, J. J. Heyd, E. N. Brothers, K. N. Kudin, 
 V. N. Staroverov, T. A. Keith, R. Kobayashi, J. Normand, 
 K. Raghavachari, A. P. Rendell, J. C. Burant, S. S. Iyengar, 
 J. Tomasi, M. Cossi, J. M. Millam, M. Klene, C. Adamo, R. Cammi, 
 J. W. Ochterski, R. L. Martin, K. Morokuma, O. Farkas, 
 J. B. Foresman, and D. J. Fox, Gaussian, Inc., Wallingford CT, 2019.
 
 ******************************************
 Gaussian 16:  EM64L-G16RevC.01  3-Jul-2019
                30-Mar-2025 
 ******************************************
 %nprocshared=40
 Will use up to   40 processors via shared memory.
 %mem=50gb
 ----------------------------------------------
 # MP2/aug-cc-pVDZ opt freq=(vibrot,anharmonic)
 ----------------------------------------------
 1/18=20,19=15,38=1,80=1/1,3;
 2/9=110,12=2,17=6,18=5,40=1/2;
 3/5=16,7=10,11=9,25=1,30=1,71=1/1,2,3;
 4//1;
 5/5=2,38=5/2;
 8/6=4,10=1/1;
 9/15=2,16=-3/6;
 10/5=1/2;
 6/7=2,8=2,9=2,10=2/1;
 7/12=2/1,2,3,16;
 1/18=20,19=15,80=1/3(2);
 2/9=110/2;
 99//99;
 2/9=110/2;
 3/5=16,7=10,11=9,25=1,30=1,71=1/1,2,3;
 4/5=5,16=3,69=1/1;
 5/5=2,38=5/2;
 8/6=4,10=1/1;
 9/15=2,16=-3/6;
 10/5=1/2;
 7/12=2/1,2,3,16;
 1/18=20,19=15,80=1/3(-8);
 2/9=110/2;
 6/7=2,8=2,9=2,10=2/1;
 99/9=10/99;
 ----
 blah
 ----
 Symbolic Z-matrix:
 Charge =  0 Multiplicity = 1
 C                    -1.10744   0.10834   0.00085 
 O                    -2.27416  -0.25175   0.0107 
 N                    -0.11375  -0.80493  -0.01088 
 H                    -0.87386   1.1682    0.00157 
 H                     0.86998  -0.49851  -0.01918 
 H                    -0.32644  -1.81345  -0.01165 
 

 GradGradGradGradGradGradGradGradGradGradGradGradGradGradGradGradGradGrad
 Berny optimization.
 Initialization pass.
                           ----------------------------
                           !    Initial Parameters    !
                           ! (Angstroms and Degrees)  !
 --------------------------                            --------------------------
 ! Name  Definition              Value          Derivative Info.                !
 --------------------------------------------------------------------------------
 ! R1    R(1,2)                  1.2211         estimate D2E/DX2                !
 ! R2    R(1,3)                  1.3497         estimate D2E/DX2                !
 ! R3    R(1,4)                  1.0853         estimate D2E/DX2                !
 ! R4    R(3,5)                  1.0304         estimate D2E/DX2                !
 ! R5    R(3,6)                  1.0307         estimate D2E/DX2                !
 ! A1    A(2,1,3)              120.2647         estimate D2E/DX2                !
 ! A2    A(2,1,4)              119.5798         estimate D2E/DX2                !
 ! A3    A(3,1,4)              120.1555         estimate D2E/DX2                !
 ! A4    A(1,3,5)              120.1158         estimate D2E/DX2                !
 ! A5    A(1,3,6)              120.6753         estimate D2E/DX2                !
 ! A6    A(5,3,6)              119.2088         estimate D2E/DX2                !
 ! D1    D(2,1,3,5)            180.0            estimate D2E/DX2                !
 ! D2    D(2,1,3,6)              0.0            estimate D2E/DX2                !
 ! D3    D(4,1,3,5)              0.0            estimate D2E/DX2                !
 ! D4    D(4,1,3,6)            180.0            estimate D2E/DX2                !
 --------------------------------------------------------------------------------
 Trust Radius=3.00D-01 FncErr=1.00D-07 GrdErr=1.00D-07 EigMax=2.50D+02 EigMin=1.00D-04
 Number of steps in this run=     25 maximum allowed number of steps=    100.
 GradGradGradGradGradGradGradGradGradGradGradGradGradGradGradGradGradGrad

                          Input orientation:                          
 ---------------------------------------------------------------------
 Center     Atomic      Atomic             Coordinates (Angstroms)
 Number     Number       Type             X           Y           Z
 ---------------------------------------------------------------------
      1          6           0       -1.107442    0.108344    0.000846
      2          8           0       -2.274163   -0.251753    0.010699
      3          7           0       -0.113749   -0.804933   -0.010876
      4          1           0       -0.873857    1.168198    0.001571
      5          1           0        0.869982   -0.498513   -0.019176
      6          1           0       -0.326443   -1.813445   -0.011655
 ---------------------------------------------------------------------
                    Distance matrix (angstroms):
                    1          2          3          4          5
     1  C    0.000000
     2  O    1.221067   0.000000
     3  N    1.349681   2.230216   0.000000
     4  H    1.085290   1.994292   2.114514   0.000000
     5  H    2.068546   3.153955   1.030383   2.412329   0.000000
     6  H    2.074461   2.496597   1.030697   3.031507   1.777790
                    6
     6  H    0.000000
 Stoichiometry    CH3NO
 Framework group  CS[SG(CH3NO)]
 Deg. of freedom     9
 Full point group                 CS      NOp   2
 Largest Abelian subgroup         CS      NOp   2
 Largest concise Abelian subgroup C1      NOp   1
                         Standard orientation:                         
 ---------------------------------------------------------------------
 Center     Atomic      Atomic             Coordinates (Angstroms)
 Number     Number       Type             X           Y           Z
 ---------------------------------------------------------------------
      1          6           0        0.000000    0.448337   -0.000000
      2          8           0       -1.185420    0.155448    0.000000
      3          7           0        0.939990   -0.520196   -0.000000
      4          1           0        0.293704    1.493130   -0.000000
      5          1           0        1.939647   -0.270446   -0.000000
      6          1           0        0.670074   -1.514922    0.000000
 ---------------------------------------------------------------------
 Rotational constants (GHZ):          67.7295702          11.8203400          10.0639529
 Standard basis: Aug-CC-pVDZ (5D, 7F)
 There are    75 symmetry adapted cartesian basis functions of A'  symmetry.
 There are    27 symmetry adapted cartesian basis functions of A"  symmetry.
 There are    69 symmetry adapted basis functions of A'  symmetry.
 There are    27 symmetry adapted basis functions of A"  symmetry.
    96 basis functions,   162 primitive gaussians,   102 cartesian basis functions
    12 alpha electrons       12 beta electrons
       nuclear repulsion energy        71.3405964550 Hartrees.
 NAtoms=    6 NActive=    6 NUniq=    6 SFac= 1.00D+00 NAtFMM=   60 NAOKFM=F Big=F
 Integral buffers will be    131072 words long.
 Raffenetti 1 integral format.
 Two-electron integral symmetry is turned on.
 One-electron integrals computed using PRISM.
 NBasis=    96 RedAO= T EigKep=  3.90D-04  NBF=    69    27
 NBsUse=    96 1.00D-06 EigRej= -1.00D+00 NBFU=    69    27
 ExpMin= 2.97D-02 ExpMax= 1.17D+04 ExpMxC= 4.01D+02 IAcc=3 IRadAn=         5 AccDes= 0.00D+00
 Harris functional with IExCor=  205 and IRadAn=       5 diagonalized for initial guess.
 HarFok:  IExCor=  205 AccDes= 0.00D+00 IRadAn=         5 IDoV= 1 UseB2=F ITyADJ=14
 ICtDFT=  3500011 ScaDFX=  1.000000  1.000000  1.000000  1.000000
 FoFCou: FMM=F IPFlag=           0 FMFlag=      100000 FMFlg1=           0
         NFxFlg=           0 DoJE=T BraDBF=F KetDBF=T FulRan=T
         wScrn=  0.000000 ICntrl=       500 IOpCl=  0 I1Cent=   200000004 NGrid=           0
         NMat0=    1 NMatS0=      1 NMatT0=    0 NMatD0=    1 NMtDS0=    0 NMtDT0=    0
 Petite list used in FoFCou.
 Initial guess orbital symmetries:
       Occupied  (A') (A') (A') (A') (A') (A') (A') (A') (A') (A")
                 (A') (A")
       Virtual   (A") (A') (A') (A') (A") (A') (A') (A') (A') (A')
                 (A") (A') (A') (A") (A') (A') (A') (A') (A") (A')
                 (A") (A') (A') (A') (A") (A') (A") (A') (A') (A')
                 (A') (A") (A') (A') (A") (A') (A') (A') (A') (A")
                 (A") (A') (A') (A") (A") (A') (A') (A') (A') (A")
                 (A') (A') (A") (A") (A') (A') (A') (A") (A') (A")
                 (A') (A") (A') (A') (A') (A") (A') (A') (A') (A')
                 (A') (A") (A") (A') (A') (A') (A') (A') (A') (A")
                 (A") (A') (A') (A')
 The electronic state of the initial guess is 1-A'.
 Keep R1 ints in memory in symmetry-blocked form, NReq=19282249.
 Requested convergence on RMS density matrix=1.00D-08 within 128 cycles.
 Requested convergence on MAX density matrix=1.00D-06.
 Requested convergence on             energy=1.00D-06.
 No special actions if energy rises.
 SCF Done:  E(RHF) =  -168.958988963     A.U. after   13 cycles
            NFock= 13  Conv=0.16D-08     -V/T= 2.0020
 ExpMin= 2.97D-02 ExpMax= 1.17D+04 ExpMxC= 4.01D+02 IAcc=3 IRadAn=         5 AccDes= 0.00D+00
 HarFok:  IExCor=  205 AccDes= 0.00D+00 IRadAn=         5 IDoV=-2 UseB2=F ITyADJ=14
 ICtDFT= 12500011 ScaDFX=  1.000000  1.000000  1.000000  1.000000
 Range of M.O.s used for correlation:     4    96
 NBasis=    96 NAE=    12 NBE=    12 NFC=     3 NFV=     0
 NROrb=     93 NOA=     9 NOB=     9 NVA=    84 NVB=    84

 **** Warning!!: The largest alpha MO coefficient is  0.16447554D+02

 Fully direct method using O(ONN) memory.
 JobTyp=1 Pass  1:  I=   4 to  12 NPSUse= 40 ParTrn=T ParDer=T DoDerP=T.
 Spin components of T(2) and E(2):
     alpha-alpha T2 =       0.2105897212D-01 E2=     -0.6671736430D-01
     alpha-beta  T2 =       0.1160364157D+00 E2=     -0.3779104231D+00
     beta-beta   T2 =       0.2105897212D-01 E2=     -0.6671736430D-01
 ANorm=    0.1076175803D+01
 E2 =    -0.5113451517D+00 EUMP2 =    -0.16947033411461D+03
          IDoAtm=111111
          Differentiating once with respect to electric field.
                with respect to dipole field.
          Differentiating once with respect to nuclear coordinates.
 Keep R1 ints in memory in symmetry-blocked form, NReq=19285444.
          There are     1 degrees of freedom in the 1st order CPHF.  IDoFFX=0 NUNeed=     1.
 LinEq1:  Iter=  0 NonCon=     1 RMS=7.11D-03 Max=9.06D-02 NDo=     1
 AX will form     1 AO Fock derivatives at one time.
 LinEq1:  Iter=  1 NonCon=     1 RMS=2.15D-03 Max=2.06D-02 NDo=     1
 LinEq1:  Iter=  2 NonCon=     1 RMS=7.62D-04 Max=7.34D-03 NDo=     1
 LinEq1:  Iter=  3 NonCon=     1 RMS=2.56D-04 Max=2.41D-03 NDo=     1
 LinEq1:  Iter=  4 NonCon=     1 RMS=6.88D-05 Max=5.67D-04 NDo=     1
 LinEq1:  Iter=  5 NonCon=     1 RMS=1.99D-05 Max=2.31D-04 NDo=     1
 LinEq1:  Iter=  6 NonCon=     1 RMS=5.55D-06 Max=3.88D-05 NDo=     1
 LinEq1:  Iter=  7 NonCon=     1 RMS=1.24D-06 Max=8.29D-06 NDo=     1
 LinEq1:  Iter=  8 NonCon=     1 RMS=2.55D-07 Max=2.06D-06 NDo=     1
 LinEq1:  Iter=  9 NonCon=     1 RMS=5.86D-08 Max=5.61D-07 NDo=     1
 LinEq1:  Iter= 10 NonCon=     1 RMS=1.22D-08 Max=9.67D-08 NDo=     1
 LinEq1:  Iter= 11 NonCon=     1 RMS=1.77D-09 Max=1.13D-08 NDo=     1
 LinEq1:  Iter= 12 NonCon=     1 RMS=2.51D-10 Max=1.63D-09 NDo=     1
 LinEq1:  Iter= 13 NonCon=     0 RMS=3.96D-11 Max=1.97D-10 NDo=     1
 Linear equations converged to 1.000D-10 1.000D-09 after    13 iterations.
 End of Minotr F.D. properties file   721 does not exist.
 End of Minotr F.D. properties file   722 does not exist.
 End of Minotr F.D. properties file   788 does not exist.

 **********************************************************************

            Population analysis using the SCF Density.

 **********************************************************************

 Orbital symmetries:
       Occupied  (A') (A') (A') (A') (A') (A') (A') (A') (A') (A")
                 (A') (A")
       Virtual   (A') (A') (A') (A") (A') (A') (A') (A") (A') (A")
                 (A') (A') (A') (A') (A") (A') (A') (A') (A") (A")
                 (A') (A') (A') (A") (A') (A') (A') (A") (A') (A')
                 (A') (A") (A') (A') (A") (A') (A') (A') (A") (A')
                 (A') (A") (A') (A") (A') (A") (A') (A') (A') (A")
                 (A') (A') (A") (A') (A") (A') (A") (A') (A") (A')
                 (A') (A") (A') (A') (A') (A") (A') (A') (A') (A')
                 (A') (A") (A") (A') (A') (A') (A') (A') (A') (A")
                 (A") (A') (A') (A')
 The electronic state is 1-A'.
 Alpha  occ. eigenvalues --  -20.53334 -15.60811 -11.36376  -1.38636  -1.21436
 Alpha  occ. eigenvalues --   -0.85144  -0.74679  -0.68031  -0.60179  -0.57034
 Alpha  occ. eigenvalues --   -0.43443  -0.41572
 Alpha virt. eigenvalues --    0.02664   0.04333   0.05839   0.09484   0.11529
 Alpha virt. eigenvalues --    0.12359   0.15582   0.15709   0.16938   0.19599
 Alpha virt. eigenvalues --    0.19846   0.23423   0.26550   0.27697   0.28496
 Alpha virt. eigenvalues --    0.32538   0.33982   0.34687   0.34956   0.41525
 Alpha virt. eigenvalues --    0.42946   0.43263   0.46400   0.50727   0.51130
 Alpha virt. eigenvalues --    0.54724   0.58980   0.59096   0.61059   0.63571
 Alpha virt. eigenvalues --    0.65155   0.66749   0.70188   0.71800   0.78438
 Alpha virt. eigenvalues --    0.78464   0.82316   0.90058   0.94128   0.94669
 Alpha virt. eigenvalues --    0.97545   0.99645   1.06076   1.21664   1.22625
 Alpha virt. eigenvalues --    1.26381   1.30454   1.34244   1.41434   1.46031
 Alpha virt. eigenvalues --    1.47646   1.54819   1.60159   1.66600   1.73495
 Alpha virt. eigenvalues --    1.85261   1.91027   1.94953   1.98574   1.99774
 Alpha virt. eigenvalues --    2.03132   2.06069   2.21077   2.23548   2.26580
 Alpha virt. eigenvalues --    2.28065   2.36293   2.38875   2.46599   2.51177
 Alpha virt. eigenvalues --    2.67278   2.74617   2.79835   2.86418   2.94354
 Alpha virt. eigenvalues --    3.13588   3.29431   3.42874   3.58282   3.73481
 Alpha virt. eigenvalues --    3.78754   3.79346   4.08284   4.11335
          Condensed to atoms (all electrons):
               1          2          3          4          5          6
     1  C    4.112070   0.398665   0.333127   0.254241  -0.077485  -0.075866
     2  O    0.398665   8.439193  -0.101015  -0.067257   0.003736   0.003766
     3  N    0.333127  -0.101015   6.275980  -0.049901   0.404961   0.433168
     4  H    0.254241  -0.067257  -0.049901   0.969089   0.003542   0.020733
     5  H   -0.077485   0.003736   0.404961   0.003542   0.757993  -0.127959
     6  H   -0.075866   0.003766   0.433168   0.020733  -0.127959   0.732762
 Mulliken charges:
               1
     1  C    1.055248
     2  O   -0.677089
     3  N   -0.296320
     4  H   -0.130447
     5  H    0.035212
     6  H    0.013396
 Sum of Mulliken charges =  -0.00000
 Mulliken charges with hydrogens summed into heavy atoms:
               1
     1  C    0.924802
     2  O   -0.677089
     3  N   -0.247712
 Electronic spatial extent (au):  <R**2>=            144.7651
 Charge=             -0.0000 electrons
 Dipole moment (field-independent basis, Debye):
    X=              4.3041    Y=             -0.1252    Z=              0.0000  Tot=              4.3059
 Quadrupole moment (field-independent basis, Debye-Ang):
   XX=            -19.2450   YY=            -14.0698   ZZ=            -19.1501
   XY=              0.0222   XZ=             -0.0000   YZ=             -0.0000
 Traceless Quadrupole moment (field-independent basis, Debye-Ang):
   XX=             -1.7567   YY=              3.4185   ZZ=             -1.6618
   XY=              0.0222   XZ=             -0.0000   YZ=             -0.0000
 Octapole moment (field-independent basis, Debye-Ang**2):
  XXX=             13.1542  YYY=             -3.7720  ZZZ=              0.0000  XYY=              2.3014
  XXY=             -1.8639  XXZ=             -0.0000  XZZ=             -1.3141  YZZ=              0.5869
  YYZ=              0.0000  XYZ=              0.0000
 Hexadecapole moment (field-independent basis, Debye-Ang**3):
 XXXX=            -97.2551 YYYY=            -35.6623 ZZZZ=            -18.6598 XXXY=             12.9729
 XXXZ=             -0.0000 YYYX=             10.3094 YYYZ=             -0.0000 ZZZX=              0.0000
 ZZZY=              0.0000 XXYY=            -26.8083 XXZZ=            -23.5822 YYZZ=            -11.8538
 XXYZ=              0.0000 YYXZ=             -0.0000 ZZXY=              5.2418
 N-N= 7.134059645504D+01 E-N=-5.404050732225D+02  KE= 1.686194387287D+02
 Symmetry A'   KE= 1.618713410598D+02
 Symmetry A"   KE= 6.748097668940D+00
 Calling FoFJK, ICntrl=  10002127 FMM=F ISym2X=1 I1Cent= 0 IOpClX= 0 NMat=1 NMatS=1 NMatT=0.
 ***** Axes restored to original set *****
 -------------------------------------------------------------------
 Center     Atomic                   Forces (Hartrees/Bohr)
 Number     Number              X              Y              Z
 -------------------------------------------------------------------
      1        6          -0.016969008   -0.016194435    0.000113376
      2        8          -0.026269436   -0.000119009    0.000243648
      3        7           0.041999123   -0.005381364   -0.000404754
      4        1           0.015809540    0.011655863   -0.000115000
      5        1          -0.014668713   -0.007341388    0.000116186
      6        1           0.000098493    0.017380333    0.000046544
 -------------------------------------------------------------------
 Cartesian Forces:  Max     0.041999123 RMS     0.014889236

 GradGradGradGradGradGradGradGradGradGradGradGradGradGradGradGradGradGrad
 Berny optimization.
 FormGI is forming the generalized inverse of G from B-inverse, IUseBI=4.
 Internal  Forces:  Max     0.025137325 RMS     0.013545032
 Search for a local minimum.
 Step number   1 out of a maximum of   25
 All quantities printed in internal units (Hartrees-Bohrs-Radians)
 Mixed Optimization -- RFO/linear search
 Second derivative matrix not updated -- first step.
 The second derivative matrix:
                          R1        R2        R3        R4        R5
           R1           0.94912
           R2           0.00000   0.55089
           R3           0.00000   0.00000   0.35363
           R4           0.00000   0.00000   0.00000   0.42722
           R5           0.00000   0.00000   0.00000   0.00000   0.42674
           A1           0.00000   0.00000   0.00000   0.00000   0.00000
           A2           0.00000   0.00000   0.00000   0.00000   0.00000
           A3           0.00000   0.00000   0.00000   0.00000   0.00000
           A4           0.00000   0.00000   0.00000   0.00000   0.00000
           A5           0.00000   0.00000   0.00000   0.00000   0.00000
           A6           0.00000   0.00000   0.00000   0.00000   0.00000
           D1           0.00000   0.00000   0.00000   0.00000   0.00000
           D2           0.00000   0.00000   0.00000   0.00000   0.00000
           D3           0.00000   0.00000   0.00000   0.00000   0.00000
           D4           0.00000   0.00000   0.00000   0.00000   0.00000
                          A1        A2        A3        A4        A5
           A1           0.25000
           A2           0.00000   0.16000
           A3           0.00000   0.00000   0.16000
           A4           0.00000   0.00000   0.00000   0.16000
           A5           0.00000   0.00000   0.00000   0.00000   0.16000
           A6           0.00000   0.00000   0.00000   0.00000   0.00000
           D1           0.00000   0.00000   0.00000   0.00000   0.00000
           D2           0.00000   0.00000   0.00000   0.00000   0.00000
           D3           0.00000   0.00000   0.00000   0.00000   0.00000
           D4           0.00000   0.00000   0.00000   0.00000   0.00000
                          A6        D1        D2        D3        D4
           A6           0.16000
           D1           0.00000   0.02357
           D2           0.00000   0.00000   0.02357
           D3           0.00000   0.00000   0.00000   0.02357
           D4           0.00000   0.00000   0.00000   0.00000   0.02357
 ITU=  0
     Eigenvalues ---    0.02357   0.02357   0.02357   0.16000   0.16000
     Eigenvalues ---    0.16000   0.22000   0.35363   0.42674   0.42722
     Eigenvalues ---    0.55089   0.94912
 RFO step:  Lambda=-8.35011125D-03 EMin= 2.35740641D-02
 Linear search not attempted -- first point.
 Iteration  1 RMS(Cart)=  0.05356275 RMS(Int)=  0.00201083
 Iteration  2 RMS(Cart)=  0.00234979 RMS(Int)=  0.00000204
 Iteration  3 RMS(Cart)=  0.00000224 RMS(Int)=  0.00000000
 Iteration  4 RMS(Cart)=  0.00000000 RMS(Int)=  0.00000001
 ClnCor:  largest displacement from symmetrization is 1.60D-08 for atom     1.
 Variable       Old X    -DE/DX   Delta X   Delta X   Delta X     New X
                                 (Linear)    (Quad)   (Total)
    R1        2.30748   0.02514   0.00000   0.02625   0.02625   2.33374
    R2        2.55053   0.01704   0.00000   0.03048   0.03048   2.58101
    R3        2.05090   0.01479   0.00000   0.04085   0.04085   2.09175
    R4        1.94714  -0.01619   0.00000  -0.03717  -0.03717   1.90997
    R5        1.94773  -0.01703   0.00000  -0.03913  -0.03913   1.90860
    A1        2.09901   0.02058   0.00000   0.09014   0.09014   2.18915
    A2        2.08706   0.00297   0.00000   0.03370   0.03370   2.12076
    A3        2.09711  -0.02355   0.00000  -0.12383  -0.12383   1.97328
    A4        2.09642   0.00570   0.00000   0.03387   0.03387   2.13029
    A5        2.10618  -0.00625   0.00000  -0.03713  -0.03713   2.06906
    A6        2.08059   0.00055   0.00000   0.00326   0.00326   2.08384
    D1        3.14159   0.00000   0.00000   0.00000   0.00000   3.14159
    D2       -0.00000   0.00000   0.00000   0.00000   0.00000   0.00000
    D3        0.00000  -0.00000   0.00000  -0.00000  -0.00000   0.00000
    D4        3.14159  -0.00000   0.00000  -0.00000   0.00000   3.14159
         Item               Value     Threshold  Converged?
 Maximum Force            0.025137     0.000450     NO 
 RMS     Force            0.013545     0.000300     NO 
 Maximum Displacement     0.119168     0.001800     NO 
 RMS     Displacement     0.054146     0.001200     NO 
 Predicted change in Energy=-4.314212D-03
 GradGradGradGradGradGradGradGradGradGradGradGradGradGradGradGradGradGrad

                          Input orientation:                          
 ---------------------------------------------------------------------
 Center     Atomic      Atomic             Coordinates (Angstroms)
 Number     Number       Type             X           Y           Z
 ---------------------------------------------------------------------
      1          6           0       -1.141840    0.078966    0.001086
      2          8           0       -2.337224   -0.230997    0.011341
      3          7           0       -0.096167   -0.799587   -0.011025
      4          1           0       -0.818676    1.137646    0.000975
      5          1           0        0.865542   -0.488788   -0.019108
      6          1           0       -0.297308   -1.789344   -0.011859
 ---------------------------------------------------------------------
                    Distance matrix (angstroms):
                    1          2          3          4          5
     1  C    0.000000
     2  O    1.234960   0.000000
     3  N    1.365809   2.312171   0.000000
     4  H    1.106905   2.044329   2.067616   0.000000
     5  H    2.086225   3.213268   1.010715   2.341426   0.000000
     6  H    2.050362   2.567146   1.009988   2.973089   1.744625
                    6
     6  H    0.000000
 Stoichiometry    CH3NO
 Framework group  CS[SG(CH3NO)]
 Deg. of freedom     9
 Full point group                 CS      NOp   2
 Largest Abelian subgroup         CS      NOp   2
 Largest concise Abelian subgroup C1      NOp   1
                         Standard orientation:                         
 ---------------------------------------------------------------------
 Center     Atomic      Atomic             Coordinates (Angstroms)
 Number     Number       Type             X           Y           Z
 ---------------------------------------------------------------------
      1          6           0        0.000000    0.418763    0.000000
      2          8           0       -1.219021    0.220991   -0.000000
      3          7           0        0.959762   -0.552984    0.000000
      4          1           0        0.419935    1.442917    0.000000
      5          1           0        1.946181   -0.332709    0.000000
      6          1           0        0.667719   -1.519828    0.000000
 ---------------------------------------------------------------------
 Rotational constants (GHZ):          73.2371099          11.0555037           9.6055052
 Standard basis: Aug-CC-pVDZ (5D, 7F)
 There are    75 symmetry adapted cartesian basis functions of A'  symmetry.
 There are    27 symmetry adapted cartesian basis functions of A"  symmetry.
 There are    69 symmetry adapted basis functions of A'  symmetry.
 There are    27 symmetry adapted basis functions of A"  symmetry.
    96 basis functions,   162 primitive gaussians,   102 cartesian basis functions
    12 alpha electrons       12 beta electrons
       nuclear repulsion energy        70.4647841864 Hartrees.
 NAtoms=    6 NActive=    6 NUniq=    6 SFac= 1.00D+00 NAtFMM=   60 NAOKFM=F Big=F
 Integral buffers will be    131072 words long.
 Raffenetti 1 integral format.
 Two-electron integral symmetry is turned on.
 One-electron integrals computed using PRISM.
 NBasis=    96 RedAO= T EigKep=  3.84D-04  NBF=    69    27
 NBsUse=    96 1.00D-06 EigRej= -1.00D+00 NBFU=    69    27
 Initial guess from the checkpoint file:  "/scr/Gau-8600.chk"
 B after Tr=     0.000000   -0.000000    0.000000
         Rot=    0.999848   -0.000000    0.000000    0.017429 Ang=   2.00 deg.
 Initial guess orbital symmetries:
       Occupied  (A') (A') (A') (A') (A') (A') (A') (A') (A') (A")
                 (A') (A")
       Virtual   (A') (A') (A') (A") (A') (A') (A') (A") (A') (A")
                 (A') (A') (A') (A') (A") (A') (A') (A') (A") (A")
                 (A') (A') (A') (A") (A') (A') (A') (A") (A') (A')
                 (A') (A") (A') (A') (A") (A') (A') (A') (A") (A')
                 (A') (A") (A') (A") (A') (A") (A') (A') (A') (A")
                 (A') (A') (A") (A') (A") (A') (A") (A') (A") (A')
                 (A') (A") (A') (A') (A') (A") (A') (A') (A') (A')
                 (A') (A") (A") (A') (A') (A') (A') (A') (A') (A")
                 (A") (A') (A') (A')
 ExpMin= 2.97D-02 ExpMax= 1.17D+04 ExpMxC= 4.01D+02 IAcc=3 IRadAn=         5 AccDes= 0.00D+00
 Harris functional with IExCor=  205 and IRadAn=       5 diagonalized for initial guess.
 HarFok:  IExCor=  205 AccDes= 0.00D+00 IRadAn=         5 IDoV= 1 UseB2=F ITyADJ=14
 ICtDFT=  3500011 ScaDFX=  1.000000  1.000000  1.000000  1.000000
 FoFCou: FMM=F IPFlag=           0 FMFlag=      100000 FMFlg1=           0
         NFxFlg=           0 DoJE=T BraDBF=F KetDBF=T FulRan=T
         wScrn=  0.000000 ICntrl=       500 IOpCl=  0 I1Cent=   200000004 NGrid=           0
         NMat0=    1 NMatS0=      1 NMatT0=    0 NMatD0=    1 NMtDS0=    0 NMtDT0=    0
 Petite list used in FoFCou.
 Keep R1 ints in memory in symmetry-blocked form, NReq=19282544.
 Requested convergence on RMS density matrix=1.00D-08 within 128 cycles.
 Requested convergence on MAX density matrix=1.00D-06.
 Requested convergence on             energy=1.00D-06.
 No special actions if energy rises.
 SCF Done:  E(RHF) =  -168.960972219     A.U. after   11 cycles
            NFock= 11  Conv=0.82D-08     -V/T= 2.0025
 ExpMin= 2.97D-02 ExpMax= 1.17D+04 ExpMxC= 4.01D+02 IAcc=3 IRadAn=         5 AccDes= 0.00D+00
 HarFok:  IExCor=  205 AccDes= 0.00D+00 IRadAn=         5 IDoV=-2 UseB2=F ITyADJ=14
 ICtDFT= 12500011 ScaDFX=  1.000000  1.000000  1.000000  1.000000
 Range of M.O.s used for correlation:     4    96
 NBasis=    96 NAE=    12 NBE=    12 NFC=     3 NFV=     0
 NROrb=     93 NOA=     9 NOB=     9 NVA=    84 NVB=    84

 **** Warning!!: The largest alpha MO coefficient is  0.16439668D+02

 Fully direct method using O(ONN) memory.
 JobTyp=1 Pass  1:  I=   4 to  12 NPSUse= 40 ParTrn=T ParDer=T DoDerP=T.
 Spin components of T(2) and E(2):
     alpha-alpha T2 =       0.2129118483D-01 E2=     -0.6693678394D-01
     alpha-beta  T2 =       0.1171490237D+00 E2=     -0.3792616527D+00
     beta-beta   T2 =       0.2129118483D-01 E2=     -0.6693678394D-01
 ANorm=    0.1076908257D+01
 E2 =    -0.5131352206D+00 EUMP2 =    -0.16947410743967D+03
          IDoAtm=111111
          Differentiating once with respect to electric field.
                with respect to dipole field.
          Differentiating once with respect to nuclear coordinates.
 Keep R1 ints in memory in symmetry-blocked form, NReq=19285149.
          There are     1 degrees of freedom in the 1st order CPHF.  IDoFFX=0 NUNeed=     1.
 LinEq1:  Iter=  0 NonCon=     1 RMS=7.30D-03 Max=9.21D-02 NDo=     1
 AX will form     1 AO Fock derivatives at one time.
 LinEq1:  Iter=  1 NonCon=     1 RMS=2.25D-03 Max=2.01D-02 NDo=     1
 LinEq1:  Iter=  2 NonCon=     1 RMS=8.05D-04 Max=7.90D-03 NDo=     1
 LinEq1:  Iter=  3 NonCon=     1 RMS=2.78D-04 Max=2.70D-03 NDo=     1
 LinEq1:  Iter=  4 NonCon=     1 RMS=7.41D-05 Max=5.02D-04 NDo=     1
 LinEq1:  Iter=  5 NonCon=     1 RMS=2.15D-05 Max=2.12D-04 NDo=     1
 LinEq1:  Iter=  6 NonCon=     1 RMS=6.41D-06 Max=5.35D-05 NDo=     1
 LinEq1:  Iter=  7 NonCon=     1 RMS=1.60D-06 Max=1.58D-05 NDo=     1
 LinEq1:  Iter=  8 NonCon=     1 RMS=3.83D-07 Max=4.72D-06 NDo=     1
 LinEq1:  Iter=  9 NonCon=     1 RMS=8.51D-08 Max=6.53D-07 NDo=     1
 LinEq1:  Iter= 10 NonCon=     1 RMS=1.53D-08 Max=9.85D-08 NDo=     1
 LinEq1:  Iter= 11 NonCon=     1 RMS=2.05D-09 Max=1.39D-08 NDo=     1
 LinEq1:  Iter= 12 NonCon=     1 RMS=2.74D-10 Max=1.91D-09 NDo=     1
 LinEq1:  Iter= 13 NonCon=     0 RMS=4.19D-11 Max=2.17D-10 NDo=     1
 Linear equations converged to 1.000D-10 1.000D-09 after    13 iterations.
 End of Minotr F.D. properties file   721 does not exist.
 End of Minotr F.D. properties file   722 does not exist.
 End of Minotr F.D. properties file   788 does not exist.
 Calling FoFJK, ICntrl=  10002127 FMM=F ISym2X=1 I1Cent= 0 IOpClX= 0 NMat=1 NMatS=1 NMatT=0.
 ***** Axes restored to original set *****
 -------------------------------------------------------------------
 Center     Atomic                   Forces (Hartrees/Bohr)
 Number     Number              X              Y              Z
 -------------------------------------------------------------------
      1        6          -0.009299928    0.002664749    0.000093648
      2        8           0.009619875   -0.001427320   -0.000093240
      3        7          -0.001153373   -0.001110670    0.000007679
      4        1           0.002181261    0.001521758   -0.000016103
      5        1          -0.001494597    0.001092799    0.000016865
      6        1           0.000146761   -0.002741317   -0.000008849
 -------------------------------------------------------------------
 Cartesian Forces:  Max     0.009619875 RMS     0.003405786

 GradGradGradGradGradGradGradGradGradGradGradGradGradGradGradGradGradGrad
 Berny optimization.
 Using GEDIIS/GDIIS optimizer.
 FormGI is forming the generalized inverse of G from B-inverse, IUseBI=4.
 Internal  Forces:  Max     0.008954125 RMS     0.003075242
 Search for a local minimum.
 Step number   2 out of a maximum of   25
 All quantities printed in internal units (Hartrees-Bohrs-Radians)
 Mixed Optimization -- RFO/linear search
 Update second derivatives using D2CorX and points    1    2
 DE= -3.77D-03 DEPred=-4.31D-03 R= 8.75D-01
 TightC=F SS=  1.41D+00  RLast= 1.83D-01 DXNew= 5.0454D-01 5.4770D-01
 Trust test= 8.75D-01 RLast= 1.83D-01 DXMaxT set to 5.05D-01
 The second derivative matrix:
                          R1        R2        R3        R4        R5
           R1           1.00010
           R2           0.01264   0.54847
           R3           0.00303  -0.00604   0.34551
           R4          -0.00764   0.00447   0.00732   0.42109
           R5          -0.02230  -0.00249   0.00239  -0.00014   0.43483
           A1           0.02552   0.00106  -0.00492   0.00221  -0.00828
           A2          -0.02088  -0.01335  -0.01123   0.01248   0.01360
           A3          -0.02968  -0.00458   0.00163   0.00127   0.01146
           A4           0.01347   0.00395   0.00155  -0.00272  -0.00623
           A5          -0.01199  -0.00293  -0.00066   0.00175   0.00522
           A6          -0.00149  -0.00102  -0.00089   0.00097   0.00101
           D1          -0.00000  -0.00000  -0.00000   0.00000   0.00000
           D2          -0.00000  -0.00000  -0.00000   0.00000   0.00000
           D3           0.00000   0.00000   0.00000  -0.00000  -0.00000
           D4          -0.00000  -0.00000  -0.00000   0.00000   0.00000
                          A1        A2        A3        A4        A5
           A1           0.25778
           A2          -0.01820   0.15654
           A3          -0.01223   0.01624   0.17589
           A4           0.00732  -0.00462  -0.00815   0.16349
           A5          -0.00596   0.00497   0.00696  -0.00317   0.16282
           A6          -0.00136  -0.00035   0.00119  -0.00032   0.00035
           D1          -0.00000  -0.00000   0.00000  -0.00000   0.00000
           D2          -0.00000  -0.00000   0.00000  -0.00000   0.00000
           D3           0.00000   0.00000  -0.00000   0.00000  -0.00000
           D4          -0.00000   0.00000   0.00000  -0.00000   0.00000
                          A6        D1        D2        D3        D4
           A6           0.15997
           D1          -0.00000   0.02357
           D2          -0.00000  -0.00000   0.02357
           D3           0.00000   0.00000   0.00000   0.02357
           D4          -0.00000  -0.00000  -0.00000  -0.00000   0.02357
 ITU=  1  0
 Use linear search instead of GDIIS.
     Eigenvalues ---    0.02357   0.02357   0.02357   0.14847   0.16000
     Eigenvalues ---    0.16405   0.25112   0.34506   0.42187   0.43550
     Eigenvalues ---    0.54881   1.00433
 RFO step:  Lambda=-2.50350903D-04 EMin= 2.35740641D-02
 Quartic linear search produced a step of -0.08274.
 Iteration  1 RMS(Cart)=  0.00998229 RMS(Int)=  0.00005402
 Iteration  2 RMS(Cart)=  0.00005436 RMS(Int)=  0.00000001
 Iteration  3 RMS(Cart)=  0.00000000 RMS(Int)=  0.00000000
 ClnCor:  largest displacement from symmetrization is 1.26D-08 for atom     6.
 Variable       Old X    -DE/DX   Delta X   Delta X   Delta X     New X
                                 (Linear)    (Quad)   (Total)
    R1        2.33374  -0.00895  -0.00217  -0.00570  -0.00787   2.32586
    R2        2.58101  -0.00014  -0.00252   0.00320   0.00067   2.58168
    R3        2.09175   0.00209  -0.00338   0.01003   0.00665   2.09839
    R4        1.90997  -0.00109   0.00308  -0.00652  -0.00344   1.90653
    R5        1.90860   0.00266   0.00324   0.00130   0.00454   1.91314
    A1        2.18915  -0.00476  -0.00746  -0.00964  -0.01709   2.17206
    A2        2.12076   0.00410  -0.00279   0.02358   0.02079   2.14155
    A3        1.97328   0.00066   0.01025  -0.01395  -0.00370   1.96958
    A4        2.13029  -0.00235  -0.00280  -0.00960  -0.01240   2.11789
    A5        2.06906   0.00183   0.00307   0.00628   0.00935   2.07840
    A6        2.08384   0.00052  -0.00027   0.00332   0.00305   2.08690
    D1       -3.14159   0.00000  -0.00000   0.00000  -0.00000   3.14159
    D2        0.00000   0.00000  -0.00000   0.00000  -0.00000   0.00000
    D3       -0.00000  -0.00000   0.00000  -0.00000   0.00000   0.00000
    D4        3.14159  -0.00000   0.00000  -0.00000   0.00000   3.14159
         Item               Value     Threshold  Converged?
 Maximum Force            0.008954     0.000450     NO 
 RMS     Force            0.003075     0.000300     NO 
 Maximum Displacement     0.017453     0.001800     NO 
 RMS     Displacement     0.009983     0.001200     NO 
 Predicted change in Energy=-1.559205D-04
 GradGradGradGradGradGradGradGradGradGradGradGradGradGradGradGradGradGrad

                          Input orientation:                          
 ---------------------------------------------------------------------
 Center     Atomic      Atomic             Coordinates (Angstroms)
 Number     Number       Type             X           Y           Z
 ---------------------------------------------------------------------
      1          6           0       -1.142808    0.083216    0.001106
      2          8           0       -2.330297   -0.240233    0.011252
      3          7           0       -0.101160   -0.800659   -0.010981
      4          1           0       -0.809519    1.142440    0.000903
      5          1           0        0.856454   -0.483207   -0.019008
      6          1           0       -0.298343   -1.793660   -0.011862
 ---------------------------------------------------------------------
                    Distance matrix (angstroms):
                    1          2          3          4          5
     1  C    0.000000
     2  O    1.230794   0.000000
     3  N    1.366166   2.298613   0.000000
     4  H    1.110423   2.055397   2.068223   0.000000
     5  H    2.078049   3.196144   1.008894   2.327787   0.000000
     6  H    2.058143   2.557833   1.012390   2.980294   1.746682
                    6
     6  H    0.000000
 Stoichiometry    CH3NO
 Framework group  CS[SG(CH3NO)]
 Deg. of freedom     9
 Full point group                 CS      NOp   2
 Largest Abelian subgroup         CS      NOp   2
 Largest concise Abelian subgroup C1      NOp   1
                         Standard orientation:                         
 ---------------------------------------------------------------------
 Center     Atomic      Atomic             Coordinates (Angstroms)
 Number     Number       Type             X           Y           Z
 ---------------------------------------------------------------------
      1          6           0        0.000000    0.425205   -0.000000
      2          8           0       -1.212878    0.215970   -0.000000
      3          7           0        0.953086   -0.553588    0.000000
      4          1           0        0.432342    1.448005    0.000000
      5          1           0        1.936550   -0.328495    0.000000
      6          1           0        0.662528   -1.523386    0.000000
 ---------------------------------------------------------------------
 Rotational constants (GHZ):          71.8787247          11.1825400           9.6770344
 Standard basis: Aug-CC-pVDZ (5D, 7F)
 There are    75 symmetry adapted cartesian basis functions of A'  symmetry.
 There are    27 symmetry adapted cartesian basis functions of A"  symmetry.
 There are    69 symmetry adapted basis functions of A'  symmetry.
 There are    27 symmetry adapted basis functions of A"  symmetry.
    96 basis functions,   162 primitive gaussians,   102 cartesian basis functions
    12 alpha electrons       12 beta electrons
       nuclear repulsion energy        70.5966374865 Hartrees.
 NAtoms=    6 NActive=    6 NUniq=    6 SFac= 1.00D+00 NAtFMM=   60 NAOKFM=F Big=F
 Integral buffers will be    131072 words long.
 Raffenetti 1 integral format.
 Two-electron integral symmetry is turned on.
 One-electron integrals computed using PRISM.
 NBasis=    96 RedAO= T EigKep=  3.86D-04  NBF=    69    27
 NBsUse=    96 1.00D-06 EigRej= -1.00D+00 NBFU=    69    27
 Initial guess from the checkpoint file:  "/scr/Gau-8600.chk"
 B after Tr=     0.000000    0.000000    0.000000
         Rot=    1.000000    0.000000   -0.000000    0.000209 Ang=   0.02 deg.
 Initial guess orbital symmetries:
       Occupied  (A') (A') (A') (A') (A') (A') (A') (A') (A') (A")
                 (A') (A")
       Virtual   (A') (A') (A') (A") (A') (A') (A') (A") (A') (A")
                 (A') (A') (A') (A') (A") (A') (A') (A') (A") (A")
                 (A') (A') (A') (A") (A') (A') (A") (A') (A') (A')
                 (A') (A") (A') (A') (A') (A") (A') (A') (A") (A')
                 (A') (A") (A') (A") (A') (A") (A') (A') (A') (A")
                 (A') (A') (A") (A') (A") (A') (A") (A') (A') (A")
                 (A') (A") (A') (A') (A') (A") (A') (A') (A') (A')
                 (A') (A") (A") (A') (A') (A') (A') (A') (A') (A")
                 (A') (A") (A') (A')
 Keep R1 ints in memory in symmetry-blocked form, NReq=19282367.
 Requested convergence on RMS density matrix=1.00D-08 within 128 cycles.
 Requested convergence on MAX density matrix=1.00D-06.
 Requested convergence on             energy=1.00D-06.
 No special actions if energy rises.
 SCF Done:  E(RHF) =  -168.961489446     A.U. after   11 cycles
            NFock= 11  Conv=0.19D-08     -V/T= 2.0025
 ExpMin= 2.97D-02 ExpMax= 1.17D+04 ExpMxC= 4.01D+02 IAcc=3 IRadAn=         5 AccDes= 0.00D+00
 HarFok:  IExCor=  205 AccDes= 0.00D+00 IRadAn=         5 IDoV=-2 UseB2=F ITyADJ=14
 ICtDFT= 12500011 ScaDFX=  1.000000  1.000000  1.000000  1.000000
 Range of M.O.s used for correlation:     4    96
 NBasis=    96 NAE=    12 NBE=    12 NFC=     3 NFV=     0
 NROrb=     93 NOA=     9 NOB=     9 NVA=    84 NVB=    84

 **** Warning!!: The largest alpha MO coefficient is  0.16457391D+02

 Fully direct method using O(ONN) memory.
 JobTyp=1 Pass  1:  I=   4 to  12 NPSUse= 40 ParTrn=T ParDer=T DoDerP=T.
 Spin components of T(2) and E(2):
     alpha-alpha T2 =       0.2124540168D-01 E2=     -0.6688895845D-01
     alpha-beta  T2 =       0.1169441529D+00 E2=     -0.3790107878D+00
     beta-beta   T2 =       0.2124540168D-01 E2=     -0.6688895845D-01
 ANorm=    0.1076770614D+01
 E2 =    -0.5127887047D+00 EUMP2 =    -0.16947427815077D+03
          IDoAtm=111111
          Differentiating once with respect to electric field.
                with respect to dipole field.
          Differentiating once with respect to nuclear coordinates.
 Keep R1 ints in memory in symmetry-blocked form, NReq=19285267.
          There are     1 degrees of freedom in the 1st order CPHF.  IDoFFX=0 NUNeed=     1.
 LinEq1:  Iter=  0 NonCon=     1 RMS=7.26D-03 Max=9.12D-02 NDo=     1
 AX will form     1 AO Fock derivatives at one time.
 LinEq1:  Iter=  1 NonCon=     1 RMS=2.23D-03 Max=2.01D-02 NDo=     1
 LinEq1:  Iter=  2 NonCon=     1 RMS=7.95D-04 Max=7.78D-03 NDo=     1
 LinEq1:  Iter=  3 NonCon=     1 RMS=2.76D-04 Max=2.62D-03 NDo=     1
 LinEq1:  Iter=  4 NonCon=     1 RMS=7.30D-05 Max=4.68D-04 NDo=     1
 LinEq1:  Iter=  5 NonCon=     1 RMS=2.12D-05 Max=2.27D-04 NDo=     1
 LinEq1:  Iter=  6 NonCon=     1 RMS=6.10D-06 Max=4.94D-05 NDo=     1
 LinEq1:  Iter=  7 NonCon=     1 RMS=1.45D-06 Max=1.20D-05 NDo=     1
 LinEq1:  Iter=  8 NonCon=     1 RMS=3.34D-07 Max=3.76D-06 NDo=     1
 LinEq1:  Iter=  9 NonCon=     1 RMS=7.83D-08 Max=6.72D-07 NDo=     1
 LinEq1:  Iter= 10 NonCon=     1 RMS=1.48D-08 Max=9.81D-08 NDo=     1
 LinEq1:  Iter= 11 NonCon=     1 RMS=2.01D-09 Max=1.33D-08 NDo=     1
 LinEq1:  Iter= 12 NonCon=     1 RMS=2.67D-10 Max=1.86D-09 NDo=     1
 LinEq1:  Iter= 13 NonCon=     0 RMS=4.02D-11 Max=2.06D-10 NDo=     1
 Linear equations converged to 1.000D-10 1.000D-09 after    13 iterations.
 End of Minotr F.D. properties file   721 does not exist.
 End of Minotr F.D. properties file   722 does not exist.
 End of Minotr F.D. properties file   788 does not exist.
 Calling FoFJK, ICntrl=  10002127 FMM=F ISym2X=1 I1Cent= 0 IOpClX= 0 NMat=1 NMatS=1 NMatT=0.
 ***** Axes restored to original set *****
 -------------------------------------------------------------------
 Center     Atomic                   Forces (Hartrees/Bohr)
 Number     Number              X              Y              Z
 -------------------------------------------------------------------
      1        6          -0.003972332   -0.000009166    0.000036867
      2        8           0.002966204    0.000874356   -0.000025161
      3        7           0.000033097   -0.001105330   -0.000003326
      4        1           0.000195129   -0.000192158   -0.000002337
      5        1           0.000750177    0.000545292   -0.000005478
      6        1           0.000027726   -0.000112994   -0.000000566
 -------------------------------------------------------------------
 Cartesian Forces:  Max     0.003972332 RMS     0.001236390

 GradGradGradGradGradGradGradGradGradGradGradGradGradGradGradGradGradGrad
 Berny optimization.
 Using GEDIIS/GDIIS optimizer.
 FormGI is forming the generalized inverse of G from B-inverse, IUseBI=4.
 Internal  Forces:  Max     0.003091826 RMS     0.000892540
 Search for a local minimum.
 Step number   3 out of a maximum of   25
 All quantities printed in internal units (Hartrees-Bohrs-Radians)
 Mixed Optimization -- En-DIIS/RFO-DIIS
 Update second derivatives using D2CorX and points    1    2    3
 DE= -1.71D-04 DEPred=-1.56D-04 R= 1.09D+00
 TightC=F SS=  1.41D+00  RLast= 3.36D-02 DXNew= 8.4853D-01 1.0075D-01
 Trust test= 1.09D+00 RLast= 3.36D-02 DXMaxT set to 5.05D-01
 The second derivative matrix:
                          R1        R2        R3        R4        R5
           R1           0.87168
           R2           0.03568   0.54898
           R3           0.02223  -0.01614   0.35049
           R4          -0.00436   0.01270  -0.00389   0.43556
           R5          -0.00178  -0.00982   0.00442  -0.00744   0.43441
           A1          -0.01580   0.01721  -0.01030   0.01875  -0.00847
           A2           0.00664  -0.02813  -0.00306  -0.00482   0.01679
           A3          -0.04652  -0.00414   0.00835  -0.00378   0.01622
           A4          -0.01280   0.01107   0.00239   0.00211  -0.00389
           A5           0.00698  -0.00838  -0.00080  -0.00235   0.00378
           A6           0.00582  -0.00269  -0.00159   0.00025   0.00011
           D1          -0.00000  -0.00000   0.00000  -0.00000   0.00000
           D2          -0.00000  -0.00000   0.00000  -0.00000   0.00000
           D3           0.00000   0.00000  -0.00000   0.00000  -0.00000
           D4          -0.00000  -0.00000   0.00000  -0.00000   0.00000
                          A1        A2        A3        A4        A5
           A1           0.26038
           A2          -0.02682   0.16951
           A3          -0.02279   0.02587   0.17495
           A4           0.00319  -0.00370  -0.01304   0.15929
           A5          -0.00357   0.00499   0.01065  -0.00030   0.16089
           A6           0.00038  -0.00129   0.00239   0.00101  -0.00058
           D1          -0.00000   0.00000   0.00000  -0.00000   0.00000
           D2          -0.00000   0.00000   0.00000  -0.00000   0.00000
           D3           0.00000  -0.00000  -0.00000   0.00000  -0.00000
           D4          -0.00000   0.00000   0.00000  -0.00000   0.00000
                          A6        D1        D2        D3        D4
           A6           0.15957
           D1           0.00000   0.02357
           D2           0.00000  -0.00000   0.02357
           D3          -0.00000   0.00000   0.00000   0.02357
           D4           0.00000  -0.00000  -0.00000   0.00000   0.02357
 ITU=  1  1  0
 Use linear search instead of GDIIS.
     Eigenvalues ---    0.02357   0.02357   0.02357   0.13806   0.16005
     Eigenvalues ---    0.16235   0.26653   0.34904   0.42750   0.44329
     Eigenvalues ---    0.55469   0.87841
 RFO step:  Lambda=-1.69470181D-05 EMin= 2.35740641D-02
 Quartic linear search produced a step of  0.09974.
 Iteration  1 RMS(Cart)=  0.00223345 RMS(Int)=  0.00000409
 Iteration  2 RMS(Cart)=  0.00000386 RMS(Int)=  0.00000001
 Iteration  3 RMS(Cart)=  0.00000000 RMS(Int)=  0.00000001
 ClnCor:  largest displacement from symmetrization is 5.39D-09 for atom     1.
 Variable       Old X    -DE/DX   Delta X   Delta X   Delta X     New X
                                 (Linear)    (Quad)   (Total)
    R1        2.32586  -0.00309  -0.00079  -0.00309  -0.00388   2.32199
    R2        2.58168   0.00105   0.00007   0.00224   0.00230   2.58398
    R3        2.09839  -0.00012   0.00066  -0.00050   0.00017   2.09856
    R4        1.90653   0.00088  -0.00034   0.00226   0.00191   1.90845
    R5        1.91314   0.00011   0.00045  -0.00014   0.00031   1.91345
    A1        2.17206   0.00027  -0.00170   0.00263   0.00093   2.17298
    A2        2.14155   0.00012   0.00207   0.00025   0.00233   2.14388
    A3        1.96958  -0.00039  -0.00037  -0.00288  -0.00325   1.96632
    A4        2.11789  -0.00039  -0.00124  -0.00191  -0.00315   2.11473
    A5        2.07840   0.00024   0.00093   0.00103   0.00196   2.08036
    A6        2.08690   0.00015   0.00030   0.00089   0.00119   2.08809
    D1        3.14159   0.00000  -0.00000  -0.00000   0.00000   3.14159
    D2        0.00000   0.00000  -0.00000  -0.00000  -0.00000   0.00000
    D3       -0.00000   0.00000   0.00000   0.00000   0.00000   0.00000
    D4        3.14159  -0.00000   0.00000   0.00000   0.00000   3.14159
         Item               Value     Threshold  Converged?
 Maximum Force            0.003092     0.000450     NO 
 RMS     Force            0.000893     0.000300     NO 
 Maximum Displacement     0.004586     0.001800     NO 
 RMS     Displacement     0.002234     0.001200     NO 
 Predicted change in Energy=-9.914993D-06
 GradGradGradGradGradGradGradGradGradGradGradGradGradGradGradGradGradGrad

                          Input orientation:                          
 ---------------------------------------------------------------------
 Center     Atomic      Atomic             Coordinates (Angstroms)
 Number     Number       Type             X           Y           Z
 ---------------------------------------------------------------------
      1          6           0       -1.144458    0.083022    0.001121
      2          8           0       -2.330254   -0.238833    0.011255
      3          7           0       -0.101850   -0.801604   -0.010977
      4          1           0       -0.807735    1.141251    0.000884
      5          1           0        0.855709   -0.480780   -0.018995
      6          1           0       -0.297083   -1.795159   -0.011877
 ---------------------------------------------------------------------
                    Distance matrix (angstroms):
                    1          2          3          4          5
     1  C    0.000000
     2  O    1.228742   0.000000
     3  N    1.367384   2.298476   0.000000
     4  H    1.110510   2.054946   2.067148   0.000000
     5  H    2.078207   3.195280   1.009907   2.323451   0.000000
     6  H    2.060528   2.560561   1.012555   2.980509   1.748305
                    6
     6  H    0.000000
 Stoichiometry    CH3NO
 Framework group  CS[SG(CH3NO)]
 Deg. of freedom     9
 Full point group                 CS      NOp   2
 Largest Abelian subgroup         CS      NOp   2
 Largest concise Abelian subgroup C1      NOp   1
                         Standard orientation:                         
 ---------------------------------------------------------------------
 Center     Atomic      Atomic             Coordinates (Angstroms)
 Number     Number       Type             X           Y           Z
 ---------------------------------------------------------------------
      1          6           0        0.000000    0.424992    0.000000
      2          8           0       -1.211610    0.220524   -0.000000
      3          7           0        0.951265   -0.557268    0.000000
      4          1           0        0.438482    1.445269    0.000000
      5          1           0        1.935619   -0.331527    0.000000
      6          1           0        0.659920   -1.527003    0.000000
 ---------------------------------------------------------------------
 Rotational constants (GHZ):          71.9596830          11.1825479           9.6785063
 Standard basis: Aug-CC-pVDZ (5D, 7F)
 There are    75 symmetry adapted cartesian basis functions of A'  symmetry.
 There are    27 symmetry adapted cartesian basis functions of A"  symmetry.
 There are    69 symmetry adapted basis functions of A'  symmetry.
 There are    27 symmetry adapted basis functions of A"  symmetry.
    96 basis functions,   162 primitive gaussians,   102 cartesian basis functions
    12 alpha electrons       12 beta electrons
       nuclear repulsion energy        70.6110762816 Hartrees.
 NAtoms=    6 NActive=    6 NUniq=    6 SFac= 1.00D+00 NAtFMM=   60 NAOKFM=F Big=F
 Integral buffers will be    131072 words long.
 Raffenetti 1 integral format.
 Two-electron integral symmetry is turned on.
 One-electron integrals computed using PRISM.
 NBasis=    96 RedAO= T EigKep=  3.87D-04  NBF=    69    27
 NBsUse=    96 1.00D-06 EigRej= -1.00D+00 NBFU=    69    27
 Initial guess from the checkpoint file:  "/scr/Gau-8600.chk"
 B after Tr=    -0.000000   -0.000000   -0.000000
         Rot=    0.999999   -0.000000    0.000000    0.001642 Ang=   0.19 deg.
 Initial guess orbital symmetries:
       Occupied  (A') (A') (A') (A') (A') (A') (A') (A') (A') (A")
                 (A') (A")
       Virtual   (A') (A') (A') (A") (A') (A') (A') (A") (A') (A")
                 (A') (A') (A') (A') (A") (A') (A') (A') (A") (A")
                 (A') (A') (A') (A") (A') (A') (A") (A') (A') (A')
                 (A') (A") (A') (A') (A') (A") (A') (A') (A") (A')
                 (A') (A") (A') (A") (A') (A") (A') (A') (A') (A")
                 (A') (A') (A") (A') (A") (A') (A") (A') (A') (A")
                 (A') (A") (A') (A') (A') (A") (A') (A') (A') (A')
                 (A') (A") (A") (A') (A') (A') (A') (A') (A') (A")
                 (A') (A") (A') (A')
 Keep R1 ints in memory in symmetry-blocked form, NReq=19282426.
 Requested convergence on RMS density matrix=1.00D-08 within 128 cycles.
 Requested convergence on MAX density matrix=1.00D-06.
 Requested convergence on             energy=1.00D-06.
 No special actions if energy rises.
 SCF Done:  E(RHF) =  -168.961626812     A.U. after   10 cycles
            NFock= 10  Conv=0.19D-08     -V/T= 2.0025
 ExpMin= 2.97D-02 ExpMax= 1.17D+04 ExpMxC= 4.01D+02 IAcc=3 IRadAn=         5 AccDes= 0.00D+00
 HarFok:  IExCor=  205 AccDes= 0.00D+00 IRadAn=         5 IDoV=-2 UseB2=F ITyADJ=14
 ICtDFT= 12500011 ScaDFX=  1.000000  1.000000  1.000000  1.000000
 Range of M.O.s used for correlation:     4    96
 NBasis=    96 NAE=    12 NBE=    12 NFC=     3 NFV=     0
 NROrb=     93 NOA=     9 NOB=     9 NVA=    84 NVB=    84

 **** Warning!!: The largest alpha MO coefficient is  0.16437473D+02

 Fully direct method using O(ONN) memory.
 JobTyp=1 Pass  1:  I=   4 to  12 NPSUse= 40 ParTrn=T ParDer=T DoDerP=T.
 Spin components of T(2) and E(2):
     alpha-alpha T2 =       0.2122966631D-01 E2=     -0.6686813362D-01
     alpha-beta  T2 =       0.1168770050D+00 E2=     -0.3789266383D+00
     beta-beta   T2 =       0.2122966631D-01 E2=     -0.6686813362D-01
 ANorm=    0.1076724820D+01
 E2 =    -0.5126629056D+00 EUMP2 =    -0.16947428971737D+03
          IDoAtm=111111
          Differentiating once with respect to electric field.
                with respect to dipole field.
          Differentiating once with respect to nuclear coordinates.
 Keep R1 ints in memory in symmetry-blocked form, NReq=19285267.
          There are     1 degrees of freedom in the 1st order CPHF.  IDoFFX=0 NUNeed=     1.
 LinEq1:  Iter=  0 NonCon=     1 RMS=7.25D-03 Max=9.09D-02 NDo=     1
 AX will form     1 AO Fock derivatives at one time.
 LinEq1:  Iter=  1 NonCon=     1 RMS=2.22D-03 Max=2.01D-02 NDo=     1
 LinEq1:  Iter=  2 NonCon=     1 RMS=7.91D-04 Max=7.70D-03 NDo=     1
 LinEq1:  Iter=  3 NonCon=     1 RMS=2.75D-04 Max=2.57D-03 NDo=     1
 LinEq1:  Iter=  4 NonCon=     1 RMS=7.25D-05 Max=4.61D-04 NDo=     1
 LinEq1:  Iter=  5 NonCon=     1 RMS=2.11D-05 Max=2.36D-04 NDo=     1
 LinEq1:  Iter=  6 NonCon=     1 RMS=5.97D-06 Max=4.71D-05 NDo=     1
 LinEq1:  Iter=  7 NonCon=     1 RMS=1.37D-06 Max=9.19D-06 NDo=     1
 LinEq1:  Iter=  8 NonCon=     1 RMS=2.96D-07 Max=2.90D-06 NDo=     1
 LinEq1:  Iter=  9 NonCon=     1 RMS=7.02D-08 Max=6.43D-07 NDo=     1
 LinEq1:  Iter= 10 NonCon=     1 RMS=1.41D-08 Max=9.55D-08 NDo=     1
 LinEq1:  Iter= 11 NonCon=     1 RMS=1.97D-09 Max=1.25D-08 NDo=     1
 LinEq1:  Iter= 12 NonCon=     1 RMS=2.64D-10 Max=1.83D-09 NDo=     1
 LinEq1:  Iter= 13 NonCon=     0 RMS=3.97D-11 Max=2.04D-10 NDo=     1
 Linear equations converged to 1.000D-10 1.000D-09 after    13 iterations.
 End of Minotr F.D. properties file   721 does not exist.
 End of Minotr F.D. properties file   722 does not exist.
 End of Minotr F.D. properties file   788 does not exist.
 Calling FoFJK, ICntrl=  10002127 FMM=F ISym2X=1 I1Cent= 0 IOpClX= 0 NMat=1 NMatS=1 NMatT=0.
 ***** Axes restored to original set *****
 -------------------------------------------------------------------
 Center     Atomic                   Forces (Hartrees/Bohr)
 Number     Number              X              Y              Z
 -------------------------------------------------------------------
      1        6          -0.000738300    0.000004567    0.000006869
      2        8           0.000386934    0.000245128   -0.000002924
      3        7           0.000342644   -0.000294737   -0.000003987
      4        1           0.000001736   -0.000044942   -0.000000139
      5        1          -0.000052677    0.000024881    0.000000557
      6        1           0.000059664    0.000065103   -0.000000376
 -------------------------------------------------------------------
 Cartesian Forces:  Max     0.000738300 RMS     0.000232436

 GradGradGradGradGradGradGradGradGradGradGradGradGradGradGradGradGradGrad
 Berny optimization.
 Using GEDIIS/GDIIS optimizer.
 FormGI is forming the generalized inverse of G from B-inverse, IUseBI=4.
 Internal  Forces:  Max     0.000437643 RMS     0.000172585
 Search for a local minimum.
 Step number   4 out of a maximum of   25
 All quantities printed in internal units (Hartrees-Bohrs-Radians)
 Mixed Optimization -- En-DIIS/RFO-DIIS
 Swapping is turned off.
 Update second derivatives using D2CorX and points    1    2    3    4
 DE= -1.16D-05 DEPred=-9.91D-06 R= 1.17D+00
 TightC=F SS=  1.41D+00  RLast= 7.50D-03 DXNew= 8.4853D-01 2.2488D-02
 Trust test= 1.17D+00 RLast= 7.50D-03 DXMaxT set to 5.05D-01
 The second derivative matrix:
                          R1        R2        R3        R4        R5
           R1           0.81508
           R2           0.09393   0.51953
           R3           0.01585  -0.01521   0.35305
           R4          -0.01572   0.00399  -0.00444   0.44723
           R5          -0.01355  -0.00815   0.00532  -0.00210   0.43525
           A1           0.03399   0.00286  -0.01100   0.00536  -0.01126
           A2           0.00765  -0.03146   0.00187  -0.00503   0.01719
           A3          -0.04710   0.00416   0.00821  -0.00531   0.01200
           A4          -0.02398   0.01944   0.00113   0.00162  -0.00488
           A5           0.01959  -0.01462  -0.00015  -0.00339   0.00369
           A6           0.00439  -0.00481  -0.00098   0.00177   0.00119
           D1           0.00000  -0.00000   0.00000  -0.00000  -0.00000
           D2           0.00000  -0.00000   0.00000  -0.00000  -0.00000
           D3           0.00000   0.00000  -0.00000   0.00000  -0.00000
           D4           0.00000  -0.00000   0.00000  -0.00000  -0.00000
                          A1        A2        A3        A4        A5
           A1           0.26022
           A2          -0.03163   0.17401
           A3          -0.01558   0.02203   0.16957
           A4           0.00968  -0.00321  -0.01265   0.15722
           A5          -0.00723   0.00353   0.01048   0.00184   0.15901
           A6          -0.00245  -0.00032   0.00218   0.00094  -0.00085
           D1          -0.00000  -0.00000   0.00000   0.00000  -0.00000
           D2          -0.00000  -0.00000   0.00000   0.00000  -0.00000
           D3           0.00000  -0.00000  -0.00000   0.00000  -0.00000
           D4          -0.00000   0.00000   0.00000   0.00000  -0.00000
                          A6        D1        D2        D3        D4
           A6           0.15991
           D1          -0.00000   0.02357
           D2          -0.00000  -0.00000   0.02357
           D3          -0.00000   0.00000   0.00000   0.02357
           D4          -0.00000  -0.00000  -0.00000   0.00000   0.02357
 ITU=  1  1  1  0
     Eigenvalues ---    0.02357   0.02357   0.02357   0.13137   0.16027
     Eigenvalues ---    0.16113   0.26564   0.35191   0.43609   0.44689
     Eigenvalues ---    0.50307   0.84924
 En-DIIS/RFO-DIIS/Sim-DIIS IScMMF=       -3 using points:     4    3
 RFO step:  Lambda=-1.23162675D-06.
 DidBck=F Rises=F RFO-DIIS coefs:    1.24209   -0.24209
 Iteration  1 RMS(Cart)=  0.00090904 RMS(Int)=  0.00000046
 Iteration  2 RMS(Cart)=  0.00000048 RMS(Int)=  0.00000000
 ClnCor:  largest displacement from symmetrization is 5.59D-09 for atom     3.
 Variable       Old X    -DE/DX   Delta X   Delta X   Delta X     New X
                                 (Linear)    (Quad)   (Total)
    R1        2.32199  -0.00044  -0.00094   0.00014  -0.00080   2.32119
    R2        2.58398   0.00040   0.00056   0.00041   0.00097   2.58495
    R3        2.09856  -0.00004   0.00004  -0.00003   0.00001   2.09857
    R4        1.90845  -0.00004   0.00046  -0.00061  -0.00014   1.90830
    R5        1.91345  -0.00008   0.00008  -0.00022  -0.00015   1.91331
    A1        2.17298   0.00022   0.00022   0.00074   0.00097   2.17395
    A2        2.14388  -0.00009   0.00056  -0.00057  -0.00001   2.14387
    A3        1.96632  -0.00013  -0.00079  -0.00018  -0.00096   1.96536
    A4        2.11473  -0.00008  -0.00076  -0.00014  -0.00091   2.11383
    A5        2.08036   0.00008   0.00047   0.00036   0.00084   2.08120
    A6        2.08809  -0.00000   0.00029  -0.00022   0.00007   2.08816
    D1       -3.14159   0.00000   0.00000  -0.00000  -0.00000   3.14159
    D2        0.00000  -0.00000   0.00000  -0.00000  -0.00000   0.00000
    D3       -0.00000   0.00000   0.00000  -0.00000   0.00000   0.00000
    D4        3.14159  -0.00000   0.00000  -0.00000   0.00000   3.14159
         Item               Value     Threshold  Converged?
 Maximum Force            0.000438     0.000450     YES
 RMS     Force            0.000173     0.000300     YES
 Maximum Displacement     0.001795     0.001800     YES
 RMS     Displacement     0.000909     0.001200     YES
 Predicted change in Energy=-6.158162D-07
 Optimization completed.
    -- Stationary point found.
                           ----------------------------
                           !   Optimized Parameters   !
                           ! (Angstroms and Degrees)  !
 --------------------------                            --------------------------
 ! Name  Definition              Value          Derivative Info.                !
 --------------------------------------------------------------------------------
 ! R1    R(1,2)                  1.2287         -DE/DX =   -0.0004              !
 ! R2    R(1,3)                  1.3674         -DE/DX =    0.0004              !
 ! R3    R(1,4)                  1.1105         -DE/DX =    0.0                 !
 ! R4    R(3,5)                  1.0099         -DE/DX =    0.0                 !
 ! R5    R(3,6)                  1.0126         -DE/DX =   -0.0001              !
 ! A1    A(2,1,3)              124.5028         -DE/DX =    0.0002              !
 ! A2    A(2,1,4)              122.8353         -DE/DX =   -0.0001              !
 ! A3    A(3,1,4)              112.6619         -DE/DX =   -0.0001              !
 ! A4    A(1,3,5)              121.1654         -DE/DX =   -0.0001              !
 ! A5    A(1,3,6)              119.1961         -DE/DX =    0.0001              !
 ! A6    A(5,3,6)              119.6385         -DE/DX =    0.0                 !
 ! D1    D(2,1,3,5)            180.0            -DE/DX =    0.0                 !
 ! D2    D(2,1,3,6)              0.0            -DE/DX =    0.0                 !
 ! D3    D(4,1,3,5)              0.0            -DE/DX =    0.0                 !
 ! D4    D(4,1,3,6)            180.0            -DE/DX =    0.0                 !
 --------------------------------------------------------------------------------
 GradGradGradGradGradGradGradGradGradGradGradGradGradGradGradGradGradGrad

                          Input orientation:                          
 ---------------------------------------------------------------------
 Center     Atomic      Atomic             Coordinates (Angstroms)
 Number     Number       Type             X           Y           Z
 ---------------------------------------------------------------------
      1          6           0       -1.144458    0.083022    0.001121
      2          8           0       -2.330254   -0.238833    0.011255
      3          7           0       -0.101850   -0.801604   -0.010977
      4          1           0       -0.807735    1.141251    0.000884
      5          1           0        0.855709   -0.480780   -0.018995
      6          1           0       -0.297083   -1.795159   -0.011877
 ---------------------------------------------------------------------
                    Distance matrix (angstroms):
                    1          2          3          4          5
     1  C    0.000000
     2  O    1.228742   0.000000
     3  N    1.367384   2.298476   0.000000
     4  H    1.110510   2.054946   2.067148   0.000000
     5  H    2.078207   3.195280   1.009907   2.323451   0.000000
     6  H    2.060528   2.560561   1.012555   2.980509   1.748305
                    6
     6  H    0.000000
 Stoichiometry    CH3NO
 Framework group  CS[SG(CH3NO)]
 Deg. of freedom     9
 Full point group                 CS      NOp   2
 Largest Abelian subgroup         CS      NOp   2
 Largest concise Abelian subgroup C1      NOp   1
                         Standard orientation:                         
 ---------------------------------------------------------------------
 Center     Atomic      Atomic             Coordinates (Angstroms)
 Number     Number       Type             X           Y           Z
 ---------------------------------------------------------------------
      1          6           0       -0.000000    0.424992   -0.000000
      2          8           0       -1.211610    0.220524   -0.000000
      3          7           0        0.951265   -0.557268    0.000000
      4          1           0        0.438482    1.445269    0.000000
      5          1           0        1.935619   -0.331527    0.000000
      6          1           0        0.659920   -1.527003    0.000000
 ---------------------------------------------------------------------
 Rotational constants (GHZ):          71.9596830          11.1825479           9.6785063

 **********************************************************************

            Population analysis using the SCF Density.

 **********************************************************************

 Orbital symmetries:
       Occupied  (A') (A') (A') (A') (A') (A') (A') (A') (A') (A")
                 (A') (A")
       Virtual   (A') (A') (A') (A") (A') (A') (A') (A") (A') (A")
                 (A') (A') (A') (A') (A") (A') (A') (A') (A") (A")
                 (A') (A') (A') (A") (A') (A') (A") (A') (A') (A')
                 (A') (A") (A') (A') (A') (A") (A') (A') (A") (A')
                 (A') (A") (A') (A") (A') (A") (A') (A') (A') (A")
                 (A') (A') (A") (A') (A") (A') (A") (A') (A') (A")
                 (A') (A") (A') (A') (A') (A") (A') (A') (A') (A')
                 (A') (A") (A") (A') (A') (A') (A') (A') (A') (A")
                 (A') (A") (A') (A')
 The electronic state is 1-A'.
 Alpha  occ. eigenvalues --  -20.54274 -15.60812 -11.37273  -1.38246  -1.22074
 Alpha  occ. eigenvalues --   -0.85365  -0.75038  -0.67432  -0.60825  -0.56789
 Alpha  occ. eigenvalues --   -0.43746  -0.42112
 Alpha virt. eigenvalues --    0.02643   0.04358   0.05865   0.09550   0.11535
 Alpha virt. eigenvalues --    0.12333   0.15535   0.15643   0.17044   0.19297
 Alpha virt. eigenvalues --    0.19732   0.23743   0.26596   0.27541   0.28412
 Alpha virt. eigenvalues --    0.33150   0.33986   0.34054   0.34514   0.41743
 Alpha virt. eigenvalues --    0.42460   0.43235   0.46419   0.50587   0.51183
 Alpha virt. eigenvalues --    0.54765   0.58526   0.58931   0.61840   0.64254
 Alpha virt. eigenvalues --    0.64528   0.66976   0.67964   0.70187   0.78084
 Alpha virt. eigenvalues --    0.78828   0.81915   0.89938   0.93828   0.94124
 Alpha virt. eigenvalues --    0.97809   0.99093   1.04897   1.21316   1.24189
 Alpha virt. eigenvalues --    1.25996   1.29046   1.34819   1.40933   1.45327
 Alpha virt. eigenvalues --    1.47475   1.51805   1.60541   1.66627   1.73092
 Alpha virt. eigenvalues --    1.85642   1.89803   1.92997   1.97453   1.99146
 Alpha virt. eigenvalues --    2.02704   2.05478   2.21756   2.22813   2.26999
 Alpha virt. eigenvalues --    2.28896   2.35932   2.41763   2.43806   2.51199
 Alpha virt. eigenvalues --    2.66639   2.75614   2.78877   2.88192   2.93448
 Alpha virt. eigenvalues --    3.12388   3.27665   3.45782   3.59469   3.72805
 Alpha virt. eigenvalues --    3.78179   3.78547   4.03582   4.11920
          Condensed to atoms (all electrons):
               1          2          3          4          5          6
     1  C    4.138264   0.397972   0.330066   0.273940  -0.066141  -0.076844
     2  O    0.397972   8.418343  -0.079792  -0.067794   0.001567   0.005326
     3  N    0.330066  -0.079792   6.198843  -0.050609   0.406750   0.428289
     4  H    0.273940  -0.067794  -0.050609   0.907831   0.001224   0.024444
     5  H   -0.066141   0.001567   0.406750   0.001224   0.791082  -0.141107
     6  H   -0.076844   0.005326   0.428289   0.024444  -0.141107   0.771055
 Mulliken charges:
               1
     1  C    1.002743
     2  O   -0.675622
     3  N   -0.233546
     4  H   -0.089036
     5  H    0.006625
     6  H   -0.011163
 Sum of Mulliken charges =  -0.00000
 Mulliken charges with hydrogens summed into heavy atoms:
               1
     1  C    0.913706
     2  O   -0.675622
     3  N   -0.238085
 Electronic spatial extent (au):  <R**2>=            148.6684
 Charge=             -0.0000 electrons
 Dipole moment (field-independent basis, Debye):
    X=              4.3345    Y=             -0.3953    Z=              0.0000  Tot=              4.3525
 Quadrupole moment (field-independent basis, Debye-Ang):
   XX=            -19.1236   YY=            -14.5374   ZZ=            -19.1821
   XY=              0.3151   XZ=             -0.0000   YZ=             -0.0000
 Traceless Quadrupole moment (field-independent basis, Debye-Ang):
   XX=             -1.5092   YY=              3.0770   ZZ=             -1.5678
   XY=              0.3151   XZ=             -0.0000   YZ=             -0.0000
 Octapole moment (field-independent basis, Debye-Ang**2):
  XXX=             13.4003  YYY=             -4.3163  ZZZ=             -0.0000  XYY=              2.5330
  XXY=             -2.1910  XXZ=              0.0000  XZZ=             -1.3193  YZZ=              0.5728
  YYZ=              0.0000  XYZ=             -0.0000
 Hexadecapole moment (field-independent basis, Debye-Ang**3):
 XXXX=            -99.2712 YYYY=            -38.4984 ZZZZ=            -18.7295 XXXY=             14.2757
 XXXZ=             -0.0000 YYYX=             12.9258 YYYZ=             -0.0000 ZZZX=             -0.0000
 ZZZY=              0.0000 XXYY=            -27.4644 XXZZ=            -24.0019 YYZZ=            -12.2317
 XXYZ=             -0.0000 YYXZ=             -0.0000 ZZXY=              5.8949
 N-N= 7.061107628164D+01 E-N=-5.388143569530D+02  KE= 1.685486709894D+02
 Symmetry A'   KE= 1.618063404640D+02
 Symmetry A"   KE= 6.742330525374D+00
 Unable to Open any file for archive entry.
 1\1\GINC-N3134\FOpt\RMP2-FC\Aug-CC-pVDZ\C1H3N1O1\GDS001\30-Mar-2025\0\
 \# MP2/aug-cc-pVDZ opt freq=(vibrot,anharmonic)\\blah\\0,1\C,-1.144458
 0845,0.0830215569,0.001121132\O,-2.3302544314,-0.2388327298,0.01125513
 6\N,-0.101850405,-0.8016044391,-0.0109774696\H,-0.8077352904,1.1412513
 477,0.0008835016\H,0.8557085075,-0.4807797996,-0.0189945721\H,-0.29708
 26036,-1.795159137,-0.0118773041\\Version=EM64L-G16RevC.01\State=1-A'\
 HF=-168.9616268\MP2=-169.4742897\RMSD=1.939e-09\RMSF=2.324e-04\Dipole=
 1.5346774,-0.0800189,-0.0144715\PG=CS [SG(C1H3N1O1)]\\@
 The archive entry for this job was punched.


 POCKETA-POCKETA
 BARON VON RICHTOFEN
 SLAUGHTERED THE ALLIES WITH
 HARDLY A CARE.
 KILLED EIGHTY-ONE WITH HIS
 BLOOD-COLORED TRIPLANE, THEN
 UN-AEROBATICALLY
 PLUNGED FROM THE AIR.
   -- TONY HOFFMAN
 Job cpu time:       0 days  0 hours  7 minutes 42.9 seconds.
 Elapsed time:       0 days  0 hours  0 minutes 13.5 seconds.
 File lengths (MBytes):  RWF=     10 Int=      0 D2E=      0 Chk=      2 Scr=      1
 Normal termination of Gaussian 16 at Sun Mar 30 00:32:12 2025.
 Link1:  Proceeding to internal job step number  2.
 ----------------------------------------------------------------------
 #N Geom=AllCheck Guess=TCheck SCRF=Check GenChk RMP2(FC)/Aug-CC-pVDZ F
 req
 ----------------------------------------------------------------------
 1/10=4,29=7,30=1,38=21,40=1,80=1/1,6,3;
 2/12=2,40=1/2;
 3/5=16,7=10,11=1,14=-4,25=1,30=1,70=2,71=2,116=1,140=1/1,2,3;
 4/5=101,69=2/1;
 5/5=2,38=6,98=1/2;
 8/6=3,8=1,10=1,19=11,30=-1/1;
 9/15=3,16=-3/6;
 11/6=1,8=1,15=11,17=12,24=-1,27=1,28=-2,29=300,32=6,42=3/1,2,10;
 10/6=2,21=1,60=-2/2;
 8/6=4,8=1,10=1,19=11,30=-1/11,4;
 10/5=1,20=4,60=-2/2;
 11/12=2,14=11,16=1,17=2,28=-2,42=3,76=2/2,10,12;
 6/7=2,8=2,9=2,10=2,22=-1/1;
 7/10=1,12=2,25=1,44=2,70=1,71=2/1,2,3,16;
 1/38=20,80=1/6(3);
 7/8=1,25=202,44=-1,70=1,71=1,92=10/16,17;
 1/10=4,30=1,38=20,80=1/3;
 99//99;
 3/5=16,7=10,11=1,14=-2,25=1,30=1,70=5,71=2,116=1,140=1/1,2,3;
 4/5=5,16=3,69=2/1;
 5/5=2,38=5,98=1/2;
 8/6=3,8=1,10=1,19=11,30=-1/1;
 9/15=3,16=-3/6;
 11/6=1,8=1,15=11,17=12,24=-1,27=1,28=-2,29=300,32=6,42=3/1,2,10;
 10/6=2,21=1,60=-2/2;
 8/6=4,8=1,10=1,19=11,30=-1/11,4;
 10/5=1,20=4,60=-2/2;
 11/12=2,14=11,16=1,17=2,28=-2,42=3,76=2/2,10,12;
 6/7=2,8=2,9=2,10=2,22=-1/1;
 7/7=1,10=1,12=2,25=1,44=2,70=1,71=1/1,2,3,16;
 1/38=20,80=1/6(-12);
 7/8=1,25=202,44=-1,70=1,71=1,92=10/16,17;
 1/10=4,30=1,38=20,80=1/3;
 99//99;
 Structure from the checkpoint file:  "/scr/Gau-8600.chk"
 ----
 blah
 ----
 Charge =  0 Multiplicity = 1
 Redundant internal coordinates found in file.  (old form).
 C,0,-1.1444580845,0.0830215569,0.001121132
 O,0,-2.3302544314,-0.2388327298,0.011255136
 N,0,-0.101850405,-0.8016044391,-0.0109774696
 H,0,-0.8077352904,1.1412513477,0.0008835016
 H,0,0.8557085075,-0.4807797996,-0.0189945721
 H,0,-0.2970826036,-1.795159137,-0.0118773041
 Recover connectivity data from disk.
 Numerical evaluation of third derivatives.
 Nuclear step= 0.010000 Angstroms, electric field step= 0.000333 atomic units, NStep=1.

 GradGradGradGradGradGradGradGradGradGradGradGradGradGradGradGradGradGrad
 Berny optimization.
 Initialization pass.
                           ----------------------------
                           !    Initial Parameters    !
                           ! (Angstroms and Degrees)  !
 --------------------------                            --------------------------
 ! Name  Definition              Value          Derivative Info.                !
 --------------------------------------------------------------------------------
 ! R1    R(1,2)                  1.2287         calculate D2E/DX2 analytically  !
 ! R2    R(1,3)                  1.3674         calculate D2E/DX2 analytically  !
 ! R3    R(1,4)                  1.1105         calculate D2E/DX2 analytically  !
 ! R4    R(3,5)                  1.0099         calculate D2E/DX2 analytically  !
 ! R5    R(3,6)                  1.0126         calculate D2E/DX2 analytically  !
 ! A1    A(2,1,3)              124.5028         calculate D2E/DX2 analytically  !
 ! A2    A(2,1,4)              122.8353         calculate D2E/DX2 analytically  !
 ! A3    A(3,1,4)              112.6619         calculate D2E/DX2 analytically  !
 ! A4    A(1,3,5)              121.1654         calculate D2E/DX2 analytically  !
 ! A5    A(1,3,6)              119.1961         calculate D2E/DX2 analytically  !
 ! A6    A(5,3,6)              119.6385         calculate D2E/DX2 analytically  !
 ! D1    D(2,1,3,5)           -180.0            calculate D2E/DX2 analytically  !
 ! D2    D(2,1,3,6)              0.0            calculate D2E/DX2 analytically  !
 ! D3    D(4,1,3,5)              0.0            calculate D2E/DX2 analytically  !
 ! D4    D(4,1,3,6)            180.0            calculate D2E/DX2 analytically  !
 --------------------------------------------------------------------------------
 Trust Radius=3.00D-01 FncErr=1.00D-07 GrdErr=1.00D-07 EigMax=2.50D+02 EigMin=1.00D-04
 Number of steps in this run=      2 maximum allowed number of steps=      2.
 GradGradGradGradGradGradGradGradGradGradGradGradGradGradGradGradGradGrad

[...]
 0.00473680,0.00117434,-0.00006379,-0.00288013,-0.00536631,-0.00004788,
 0.00002033,-0.00337970,-0.00000220,-0.00001545,0.00011896,0.00011670,-
 0.00000779,0.00842290,-0.00000408,0.00001448,-0.00087166,-0.00001315,0
 .00152611,0.00003548,-0.00162128,0.00001371,-0.00001782,0.24693179,0.1
 0112141,-0.00286806,-0.00074799,0.00010414,0.00001583,-0.24786953,-0.0
 0483949,-0.00170114,0.00003113,-0.00155728,0.00102419,0.00002694,0.091
 58248,0.02512882,-0.00053177,-0.00037979,0.00013464,0.00000137,-0.1015
 5811,-0.02582856,0.00001810,-0.00002799,0.00335863,-0.00002211,0.00001
 235,-0.00354357,-0.00289411,-0.00062037,-0.09158918,0.00001451,-0.0000
 0313,0.00092583,0.00291819,0.00060998,0.09617682,-0.00404057,-0.013385
 23,0.00000392,-0.00270189,0.00213630,0.00007357,-0.01073520,0.13183063
 ,-0.00125966,0.00244852,-0.00262804,-0.00007837,0.00332014,0.01675219,
 -0.00003458,0.01170901,0.00681772,-0.01223420,-0.00009759,-0.00209444,
 -0.00017419,0.00000644,0.12890934,0.56432061,0.00084923,0.00228050,-0.
 00219758,-0.00001293,-0.00120727,0.00124205,0.00002916,-0.13470585,-0.
 55095668,0.00005908,0.00009004,0.00031646,0.00006201,-0.00003285,0.004
 59039,-0.00126763,0.00082210,-0.18511324,-0.00006497,0.00003265,-0.005
 21632,-0.00008362,-0.00013764,-0.00532853,0.00129512,-0.00077430,0.190
 75124,-0.08572668,-0.19236653,-0.55712250,0.00092575,0.00007274,0.0705
 0282,0.05939009,0.04437506,-0.00028213,-0.05923458,0.01027610,0.027630
 62,-0.00006358,-0.01738450,-0.01009901,-0.00037524,-0.00038027,0.01596
 726,0.00054022,0.00012283,0.00403996,0.00698661,-0.01584622,0.00005477
 ,0.00435860,0.00224737,-0.00010440,-0.01162275,0.01603500,0.03369755,-
 0.00010481,-0.00892027,-0.00324557,0.00009458,0.00671812,-0.03750923,0
 .00014183,0.00019128,0.01754228,-0.00013489,-0.00000914,-0.00754156,0.
 00014890,-0.00017146,0.00243252,0.02419855,0.16587394,-0.00077482,-0.0
 0645861,0.00362524,-0.00004279,-0.00070104,-0.01334112,-0.00010784,-0.
 01867459,0.16126004,0.49476121,0.00014823,-0.01688075,-0.01457450,0.00
 015011,0.01003644,-0.01231960,-0.00010394,-0.15480129,-0.46619614,-0.0
 0078741,0.00010538,-0.10799071,-0.00009878,-0.00004034,-0.01213056,-0.
 00004400,0.00011317,-0.00838917,0.00098761,-0.00019898,0.13316918,-0.0
 0008211,0.00125032,0.00000042,0.00025642,0.00003599,-0.00000271,-0.000
 09985,-0.00221826,-0.00001984,-0.00020313,-0.00051112,0.00000009,-0.00
 004741,0.00143106,-0.00083153,-0.00001446,-0.00056432,-0.00025176,0.00
 000468,-0.00219301,0.00184643,0.00002973,-0.00021632,0.00052874,0.0000
 0357,0.00103139,-0.00082620,0.00000092,-0.00001278,-0.00040430,-0.0000
 0435,-0.00000090,-0.00004575,-0.00001977,0.00002997,-0.00158375,0.0000
 0090,0.00000631,-0.00004305,0.00001911,-0.00001649,0.00170628,-0.00476
 646,-0.00328658,0.00007600,0.00168804,0.00119980,-0.00001509,0.0010784
 4,0.00172653,-0.00002815,0.00183882,0.00089667,-0.00005750,0.00017608,
 0.00051119,0.00000320,-0.00001493,0.00336434,0.00186464,-0.00003812,-0
 .00062523,0.00054019,0.00000807,-0.00096271,0.01753042,0.00006353,-0.0
 0114046,-0.00219971,0.00001719,0.00041168,-0.00046568,-0.00000611,-0.0
 0104762,-0.01726986,0.00009416,0.00002365,0.00438264,-0.00002007,-0.00
 000888,-0.00028937,-0.00003550,0.00003855,-0.00246032,-0.00006306,-0.0
 0000173,-0.00461569,0.00000293,-0.00000703,0.00037057,0.00002154,-0.00
 004456,0.00261217,0.02974793,-0.05086942,0.01329155,-0.00065927,0.0005
 8050,-0.02627402,-0.01955562,-0.00555418,0.00020897,0.03338418,-0.0065
 2785,0.00045975,0.00004938,0.00388543,-0.00278702,0.00020632,0.0000403
 4,0.00457662,-0.00036835,-0.00002343,-0.00741644,0.00502720,0.06254559
 ,0.00032349,-0.00854159,-0.00244186,0.00009754,-0.23126083,0.05746555,
 -0.01582433,-0.00063554,0.00598035,-0.00157598,-0.00006716,-0.26566888
 ,-0.19751989,0.00030962,-0.00068272,0.02146470,0.00012054,0.00001106,0
 .00267787,0.00175504,0.00183018,0.03581030,0.00618764,0.00542857,-0.00
 005224,-0.00253383,0.00151105,0.00002725,-0.00812967,-0.00192424,0.000
 05453,0.00223801,0.00782513,0.02207747,-0.00000957,-0.00013341,-0.0009
 9251,-0.00000135,0.00506967,0.00055413,-0.00004095,-0.01080571,-0.0188
 6129,-0.00004570,0.00001269,-0.00103278,0.00002276,-0.00001662,-0.0000
 4411,0.00007363,0.00002401,-0.00169301,-0.00003422,0.00004413,0.001730
 70,-0.01873252,0.00072459,0.00019240,-0.00145973,0.00198543,0.00001803
 ,0.28097531,0.12773777,-0.00257148,-0.00013978,-0.00050304,0.00000982,
 -0.25856927,-0.01027700,-0.01323322,0.00005448,-0.00410389,0.00441690,
 0.00005045,0.13081948,-0.01496541,-0.00116445,0.00482486,-0.00291473,-
 0.00005568,-0.13191621,0.02566085,0.00016236,-0.00004770,0.00176928,0.
 00000140,-0.00000610,-0.00010201,-0.00256307,-0.00113583,-0.03344192,0
 .00002437,-0.00000620,0.00106570,0.00232099,0.00121296,0.03010726,-0.0
 0267463,-0.01227514,-0.00001336,-0.00129345,0.00158780,0.00001921,-0.0
 3807042,0.07640945,0.00033175,0.00237763,-0.00145264,-0.00002630,-0.00
 207402,0.01065276,0.00005394,0.04173490,0.00238359,-0.00677121,-0.0000
 3925,-0.00007431,0.00047884,0.00000116,0.06967600,0.22933147,0.0000468
 7,0.00096549,0.00013693,-0.00000852,0.00197146,0.00103561,-0.00001713,
 -0.07492222,-0.22421163,0.00002667,0.00009689,-0.00050380,0.00001467,-
 0.00001428,0.00030804,0.00031337,-0.00001566,-0.02481793,-0.00001969,0
 .00001394,-0.00002651,0.00003024,-0.00009775,0.00060169,-0.00036525,0.
 00001687,0.02443851,0.12529640,-0.17891975,0.02773844,-0.00214051,0.00
 188099,-0.05254991,0.06190185,0.02142051,-0.00053380,-0.05831816,0.026
 65779,0.00221458,-0.00023642,-0.02695176,-0.00028008,-0.00051950,-0.00
 018778,-0.00186822,0.00051094,0.00023693,0.00461686,-0.20022232,0.1603
 2389,0.00276412,0.00268965,0.00034635,-0.00003972,0.19472032,0.1426834
 4,-0.00813016,-0.00148460,0.00672266,-0.00385499,-0.00006835,-0.218380
 51,-0.16439295,0.00271595,-0.00164843,0.05023312,-0.00002231,-0.000009
 13,-0.00168901,-0.00269237,0.00166384,-0.03094065,0.00598808,0.0014418
 6,-0.00005835,-0.00285092,0.00079410,0.00002128,0.00097415,0.00165976,
 0.00002272,-0.00371794,0.00601832,0.00866068,-0.00003028,-0.00062395,-
 0.00075617,0.00000590,0.00082079,-0.00969317,-0.00004210,-0.00555604,0
 .00274223,-0.00004586,0.00001222,-0.00071832,0.00001741,-0.00000727,-0
 .00079352,0.00002043,-0.00004989,0.00293270,-0.00000351,0.00006581,-0.
 00246192,0.00061421,0.00325784,0.00001446,0.00027364,-0.00113633,-0.00
 000595,0.01791394,0.00934754,-0.00017190,-0.00027858,-0.00029046,-0.00
 000455,-0.01822703,-0.00002773,-0.00518353,-0.00001721,-0.00115514,0.0
 0173406,0.00001555,0.00688931,0.00888572,-0.00003059,0.00049888,0.0004
 6298,-0.00000150,-0.01080218,-0.00184883,0.00000548,-0.00004772,0.0012
 1273,-0.00000601,0.00001538,-0.00003332,-0.00017861,-0.00005342,-0.003
 34188,-0.00000239,0.00000583,-0.00068282,0.00015765,0.00009002,0.00192
 206,0.00642178,-0.00752436,-0.00004591,-0.00369609,0.00028985,0.000032
 96,-0.01607573,0.05796711,0.00014791,-0.00011478,-0.00036866,0.0000160
 7,-0.00029617,0.00459686,0.00002388,0.01376099,0.00358793,-0.02530001,
 -0.00011248,0.00058768,0.00094258,-0.00000225,0.05000017,0.17718556,0.
 00006641,0.00116144,-0.00141656,-0.00001936,-0.00037642,-0.00405040,-0
 .00001009,-0.05496080,-0.14736117,-0.00001557,-0.00000928,0.00369061,0
 .00003377,0.00000052,-0.00023283,0.00012615,-0.00000759,-0.01719427,0.
 00002025,-0.00000515,0.00172388,0.00001030,-0.00005627,0.00092323,-0.0
 0017491,0.00007778,0.01108938,0.05649583,-0.18555991,-0.49868025,-0.00
 112310,0.00038861,-0.00986325,-0.04934656,0.01060096,0.00074425,0.0583
 3512,-0.03198546,0.03530188,0.00031789,0.02663713,-0.00074546,0.000627
 96,-0.00007762,0.02766659,-0.00074042,-0.00016963,-0.02921449,-0.00083
 551,-0.00835660,0.00008281,0.00097216,0.00453057,-0.00001293,-0.022001
 14,0.02332599,0.01787555,-0.00019660,-0.00049018,0.00320992,0.00001810
 ,-0.00293216,-0.00265563,0.00016932,0.00009765,0.01053677,-0.00002664,
 -0.00002853,-0.00175193,0.00014645,0.00003465,-0.00537179,-0.00464740,
 0.18573641,0.00026207,-0.01058635,0.00032253,0.00013345,0.00287030,-0.
 02788289,-0.00010475,0.00957662,0.18897349,0.44812164,-0.00044665,-0.0
 3527986,-0.03916525,0.00021064,0.00291918,-0.02237567,-0.00008764,-0.1
 5682407,-0.38273148,0.00027091,-0.00041659,-0.03104197,0.00003623,-0.0
 0012001,0.00368726,-0.00002064,0.00019843,-0.00020985,-0.00026280,0.00
 033659,0.02739161,0.00050642,-0.00112889,-0.00002575,-0.00017176,0.000
 87400,0.00001015,0.01927879,0.00679763,-0.00017350,-0.00095932,0.00059
 460,0.00002053,-0.01844330,0.00299011,-0.00040411,-0.00002359,-0.00207
 013,-0.00061532,0.00001573,0.00433169,-0.00186743,-0.00004150,0.000682
 36,-0.00041940,-0.00001042,-0.00690166,0.00312592,-0.00001450,0.000014
 66,-0.00193383,0.00000211,-0.00001161,0.00066452,-0.00018024,-0.000064
 40,-0.00139993,0.00002076,-0.00000961,0.00107567,0.00016511,0.00006891
 ,0.00136277,-0.00217277,-0.00129197,0.00005971,0.00079736,-0.00037877,
 -0.00001821,-0.00028460,0.00118162,-0.00001088,0.00374616,-0.00038335,
 -0.00004423,-0.00021083,0.00096763,0.00000674,-0.00187531,0.00225578,-
 0.00221471,-0.00003966,0.00060207,0.00201422,0.00000278,-0.00049267,0.
 00581326,0.00002537,-0.00203433,-0.00342984,0.00001199,-0.00023568,0.0
 0018032,0.00000205,-0.00009516,-0.00236325,0.00006940,-0.00000671,0.00
 463568,-0.00001553,0.00001189,-0.00105199,-0.00001545,0.00000982,-0.00
 180326,-0.00004873,-0.00000334,-0.00090271,0.00000346,-0.00000912,0.00
 023079,0.00000686,-0.00000254,-0.00110851,0.07536826,0.00319364,-0.032
 15751,-0.00102831,-0.00001837,-0.03628340,-0.06763590,-0.01963436,0.00
 070963,0.07637658,-0.01294186,0.01253596,0.00011471,0.01365413,-0.0112
 7937,0.00072790,0.00017686,0.01453897,-0.00080391,-0.00011884,-0.01419
 137,0.00344344,0.02692374,0.00017571,-0.00134046,0.00004104,0.00002831
 ,-0.55652971,0.03302948,0.04151747,-0.00023284,0.01045055,-0.00437014,
 -0.00011362,-0.29229100,-0.48420726,0.00019238,-0.00017613,0.01444435,
 0.00005674,-0.00001695,0.00169540,0.00461296,0.00132114,0.02606423,0.0
 0216752,-0.00063705,-0.00001561,-0.00117950,-0.00067895,0.00001120,-0.
 00310925,-0.00034828,0.00002340,0.00048985,-0.00438160,0.00412580,0.00
 005012,0.00081001,-0.00113241,-0.00001123,0.00852568,-0.00071625,-0.00
 007981,-0.00078190,-0.00059694,-0.00002583,0.00001534,0.00067455,0.000
 01527,0.00000260,0.00022629,0.00004764,0.00000261,-0.00048726,-0.00001
 581,0.00000832,-0.00098243,-0.01865807,0.00508171,0.00021310,-0.001105
 78,0.00128418,0.00000997,0.55926636,0.20314491,-0.00489748,0.00016161,
 -0.00081747,-0.00000348,-0.50149992,-0.02235164,-0.01009582,0.00017239
 ,-0.00387898,0.00407521,0.00004827,0.16565323,0.00935838,-0.00143703,0
 .00065196,-0.00172337,-0.00001084,-0.17431830,0.03169729,0.00013819,-0
 .00008239,0.00279143,-0.00000413,0.00000032,-0.00040963,-0.00499985,-0
 .00178523,-0.02774973,0.00000054,0.00000281,0.00002778,0.00441469,0.00
 163697,0.02506249,0.00531476,-0.01492768,-0.00005452,-0.00511496,-0.00
 135853,0.00002652,-0.00173038,0.04601434,0.00001199,0.00146977,-0.0033
 5472,-0.00001779,-0.03816421,0.03424372,0.00045056,0.03822501,0.003451
 98,-0.01592589,-0.00008602,-0.00140135,0.00017074,0.00001856,0.0911473
 0,0.43841782,0.00038878,0.00179422,0.00004316,-0.00001802,-0.03437503,
 -0.03331168,0.00022752,-0.06061712,-0.38939414,-0.00000433,0.00008468,
 0.00383410,0.00002641,0.00001816,-0.00185969,0.00013523,0.00080794,-0.
 01396699,-0.00000373,0.00002980,0.00054107,0.00026319,-0.00040976,0.00
 027766,-0.00041678,-0.00053082,0.01117385,0.93434758,0.21672380,-0.052
 64254,-0.00980703,-0.00165046,-0.18524560,-0.91992017,-0.33454133,0.00
 908288,0.93137776,-0.33444798,0.05630396,0.00283272,0.33070217,-0.0545
 7203,0.00908314,0.00283359,0.15635154,-0.00920608,-0.00279135,-0.15702
 916,-0.00733033,0.08482162,0.00058775,-0.00704377,0.00094024,0.0000630
 7,-0.00158767,0.09037590,-0.08338185,-0.00115173,0.00327569,0.00156900
 ,-0.00002469,-0.11144334,0.01092087,0.00060292,-0.00110014,0.03100769,
 0.00006945,-0.00000300,-0.00052937,-0.00055862,0.00114394,-0.02896148,
 -0.00142480,0.03598482,0.00006988,-0.00208176,0.00205363,0.00003084,0.
 00172690,-0.00208838,-0.00001769,0.00009072,0.02618292,0.07919121,-0.0
 0001469,-0.00274887,-0.00339167,0.00001453,0.01088069,-0.00222390,-0.0
 0010832,-0.03412790,-0.07126489,0.00004311,-0.00010573,-0.00448157,0.0
 0001773,-0.00003007,0.00063480,0.00001773,0.00001213,0.00043624,-0.000
 05706,0.00011149,0.00398187,-0.00182582,0.00018816,0.00003397,-0.00184
 308,0.00080114,0.00002191,0.01393852,0.00138557,-0.00012324,0.00038007
 ,0.00091965,0.00000269,-0.00884792,-0.00087240,0.00217418,0.00000919,0
 .00111900,-0.00073971,-0.00001318,0.00216697,0.00603478,-0.00000436,-0
 .00173257,-0.00107448,0.00001207,-0.00203583,-0.00293045,0.00003108,-0
 .00000066,0.00177638,0.00002278,-0.00001023,0.00027997,-0.00012111,0.0
 0000290,0.00026230,-0.00000455,-0.00001256,0.00039910,0.00004845,0.000
 01919,-0.00303333,-0.00384645,-0.00317708,0.00003255,-0.00048902,-0.00
 004920,0.00000712,0.00029636,0.01849456,0.00002717,0.00130887,-0.00110
 650,-0.00002419,-0.00180178,0.00135483,0.00002337,0.00453202,0.0020377
 5,-0.00164495,-0.00002503,0.00219333,0.00083042,-0.00001890,0.01263382
 ,0.06708110,0.00007189,-0.00008961,-0.00123627,0.00000011,-0.00125869,
 -0.00346431,0.00000137,-0.01551660,-0.06156599,0.00004678,0.00002340,0
 .00059155,0.00001325,0.00000193,0.00029220,0.00001117,0.00001746,-0.00
 221537,-0.00002142,0.00000955,-0.00097044,0.00001623,-0.00002290,0.000
 31558,-0.00006602,-0.00002943,0.00198647,-0.23780341,1.08865076,2.6345
 7494,-0.00028995,-0.00130801,-0.58910470,-0.00912085,-0.02155320,-0.00
 012849,0.00422715,0.02907026,-0.00024249,-0.00022527,-0.01823281,-0.00
 771515,0.00000974,0.00024489,-0.01661865,-0.00001316,0.00012596,0.0081
 7111,0.01379492,0.00217479,-0.00023402,-0.00214602,0.00080803,0.000025
 46,-0.00218335,-0.03826536,0.00372243,0.00039843,0.00082697,-0.0081092
 8,-0.00003080,0.00169520,-0.01137544,-0.00034444,0.00002285,-0.0120386
 0,0.00002551,-0.00003062,0.00035722,0.00004824,-0.00005366,0.00251148,
 0.23689013,-1.07687969,0.00061352,0.00592078,-0.01111254,-0.00001614,-
 0.01279349,0.03847969,0.00030484,-0.22736262,-1.08115932,-2.63660734,0
 .00114969,0.03953105,0.01598523,-0.00034383,-0.00203789,0.01377810,0.0
 0003275,1.04904058,2.60384786,0.00060183,0.00110995,0.61956719,0.00012
 215,0.00012651,0.00744982,0.00019420,-0.00034355,0.00871368,-0.0009384
 0,-0.00089370,-0.63683216,-0.00195559,0.00429317,0.00004481,0.00093696
 ,-0.00137579,-0.00001250,0.00006494,-0.00097849,-0.00001967,-0.0003988
 6,-0.00149945,-0.00001064,0.00109259,0.00233367,-0.00138291,-0.0000298
 4,0.00024022,0.00076060,-0.00000014,-0.00049670,0.00162067,0.00001386,
 -0.00217672,0.00133236,0.00002687,-0.00023887,-0.00213552,0.00003946,-
 0.00004804,0.00160697,-0.00000809,0.00001487,-0.00000444,-0.00001835,0
 .00001833,-0.00176475,-0.00001249,0.00002058,-0.00110383,-0.00000481,-
 0.00000537,0.00064483,-0.00180519,0.00331417,-0.00000588,0.00018195,0.
 00084284,0.00000660,0.00326302,-0.00175801,-0.00001448,-0.00225594,-0.
 00387496,0.00003086,0.00025995,0.00033840,0.00000428,0.00035622,-0.000
 63001,-0.00006463,0.00001499,-0.00081222,-0.00067891,0.00000393,-0.002
 14343,0.00036352,0.00001484,0.00264868,0.00166379,-0.00002608,-0.00020
 057,-0.00019520,-0.00000037,0.00113755,-0.00108857,-0.00001665,-0.0000
 2164,-0.00341221,0.00000208,-0.00001144,0.00064491,-0.00001553,0.00001
 126,0.00222097,0.00004867,0.00003451,0.00220530,0.00000281,-0.00000537
 ,0.00062121,-0.00002138,-0.00000731,-0.00228019,-0.01601569,-0.0029747
 3,-0.01449003,0.00006445,0.00001046,-0.00820206,0.00790054,-0.00325825
 ,-0.00007449,-0.00478840,0.00325440,0.00551761,-0.00001745,-0.00022769
 ,-0.00375491,-0.00005670,0.00004304,0.00083907,0.00004431,-0.00000827,
 0.00004929,0.01189700,-0.01562611,-0.00016765,-0.00733442,-0.00072689,
 0.00007265,1.33412366,-0.01197826,0.00289481,0.00012341,0.00398907,-0.
 00119409,-0.00004222,1.55899033,2.80965829,-0.00015769,0.00015729,-0.0
 0155826,0.00008553,0.00000157,0.00070104,-0.01822136,-0.00384072,-1.08
 604760,0.00312823,0.00035460,-0.00000440,-0.00039917,-0.00004666,-0.00
 000091,-0.00066140,0.00103803,-0.00000299,-0.00235827,-0.00295389,0.00
 020503,0.00002103,0.00077843,0.00008247,-0.00000568,0.00056427,-0.0014
 4489,-0.00000567,0.00160637,-0.00110179,-0.00001344,-0.00000970,0.0025
 5012,0.00000134,0.00000198,-0.00048393,-0.00000429,-0.00001007,-0.0012
 8869,0.00001995,-0.00001606,-0.00068318,-0.00162814,-0.00217323,0.0000
 2655,0.00123622,0.00055013,-0.00000343,-1.75503422,-0.80036946,0.01815
 140,0.00116844,-0.00099483,-0.00002170,1.74928952,0.01610146,0.0022302
 4,-0.00014855,0.00061832,-0.00179593,-0.00001257,-0.76866918,0.0903402
 2,0.00619851,-0.00235426,0.00068481,0.00002612,0.79867701,-0.09697216,
 0.00007645,0.00002117,0.00186901,-0.00000324,-0.00001194,0.00070536,0.
 01823796,0.00649292,0.43456482,-0.00002541,0.00001350,-0.00087481,-0.0
 1819975,-0.00646677,-0.44501798,-0.00528194,0.02367772,0.00015554,0.00
 338520,-0.00280330,-0.00005592,0.41700941,-0.75166972,0.00014511,-0.00
 087783,0.00099966,0.00001813,0.00496819,-0.04437336,-0.00008602,-0.419
 20304,-0.00144898,0.00364235,0.00001111,-0.00189989,0.00114483,0.00002
 572,-0.77453243,-2.90025432,-0.00251099,-0.00059807,0.00157438,0.00000
 772,0.00431037,0.00551282,-0.00004888,0.77416900,2.88837995,0.00008692
 ,-0.00022225,0.00450212,-0.00005345,0.00003411,-0.00181086,0.00008268,
 -0.00272332,0.65362871,0.00001377,-0.00000712,0.00078049,0.00004692,0.
 00040326,0.00875360,-0.00017685,0.00251532,-0.66585407,-0.02370453,0.0
 1520976,-0.01568599,0.00031223,-0.00019895,0.00543860,0.00448738,-0.00
 601971,-0.00005051,-0.00288326,0.00258983,0.00344910,-0.00001687,0.001
 21718,-0.00258920,-0.00002700,0.00006309,0.00081919,0.00002326,-0.0000
 1636,-0.00073678,0.01732723,-0.02469674,-0.00027700,-0.00408184,-0.000
 55780,0.00001657,2.53759392,-0.03152071,-0.00148329,0.00030299,0.00316
 238,0.00252369,-0.00001665,1.62498077,1.79248205,-0.00029564,0.0002396
 2,-0.00523418,0.00002673,0.00001790,-0.00213398,-0.03058392,-0.0068295
 6,-1.23299602,0.00031009,0.00153735,-0.00000024,0.00012413,-0.00048735
 ,0.00000028,0.00114105,0.00201359,-0.00000286,-0.00122376,-0.00247358,
 0.00045044,0.00002466,0.00022498,0.00007086,-0.00000271,0.00189747,-0.
 00174236,-0.00002304,0.00066791,0.00006060,-0.00001119,-0.00001259,-0.
 00016746,0.00000223,0.00000391,0.00029787,-0.00000318,-0.00002412,0.00
 024102,0.00001071,-0.00000531,-0.00026677,0.00470063,0.00372039,-0.000
 04714,0.00088761,-0.00238182,0.00000821,-2.94220538,-1.14761814,0.0310
 8840,-0.00007045,-0.00115330,-0.00001068,2.93783115,0.01474554,0.00374
 020,-0.00012272,0.00189819,-0.00142990,-0.00002828,-1.15467200,0.33308
 198,0.00960552,-0.00225577,0.00044869,0.00002458,1.13805889,-0.3313814
 6,-0.00001703,-0.00002033,-0.00146831,0.00001990,0.00001147,0.00247196
 ,0.03106914,0.00954001,0.74235432,-0.00001369,0.00001434,-0.00088109,-
 0.03100829,-0.00946587,-0.73529211,-0.00312079,0.01024895,0.00006266,0
 .00146595,-0.00038003,-0.00002133,0.39022502,-0.45101788,-0.00023271,-
 0.00028105,0.00083653,0.00001211,-0.00114355,0.00222515,-0.00005003,-0
 .38714557,0.00144916,0.00952955,0.00001089,-0.00048302,-0.00202458,0.0
 0000092,-0.44695169,-2.12486206,-0.00301044,-0.00147574,0.00071177,0.0
 0001353,0.00937399,-0.00445951,-0.00007962,0.43808729,2.12110484,0.000
 03863,-0.00007084,0.00061216,-0.00002161,-0.00000004,-0.00071830,-0.00
 022160,-0.00297267,0.49776883,0.00000579,-0.00000795,0.00077644,-0.000
 03051,-0.00001322,-0.00718477,0.00022930,0.00306472,-0.49125437\\@
 The archive entry for this job was punched.


 THE BEST WAY TO CONVINCE A FOOL THAT HE IS WRONG 
 IS TO LET HIM HAVE HIS OWN WAY.

                                         JOSH BILLINGS
 Job cpu time:       0 days  5 hours 39 minutes 41.0 seconds.
 Elapsed time:       0 days  0 hours  8 minutes 47.1 seconds.
 File lengths (MBytes):  RWF=    526 Int=      0 D2E=      0 Chk=     40 Scr=      1
 Normal termination of Gaussian 16 at Sun Mar 30 00:41:03 2025.
