 Entering Gaussian System, Link 0=g16
 Input=hconh2_mp2_avtz_opt_anharm.gjf
 Output=hconh2_mp2_avtz_opt_anharm.log
 Initial command:
 /sw/contrib/chem-src/g16/c01/g16/l1.exe "/scr/Gau-64526.inp" -scrdir="/scr/"
 Entering Link 1 = /sw/contrib/chem-src/g16/c01/g16/l1.exe PID=     64527.
  
 Copyright (c) 1988-2019, Gaussian, Inc.  All Rights Reserved.
  
 This is part of the Gaussian(R) 16 program.  It is based on
 the Gaussian(R) 09 system (copyright 2009, Gaussian, Inc.),
 the Gaussian(R) 03 system (copyright 2003, Gaussian, Inc.),
 the Gaussian(R) 98 system (copyright 1998, Gaussian, Inc.),
 the Gaussian(R) 94 system (copyright 1995, Gaussian, Inc.),
 the Gaussian 92(TM) system (copyright 1992, Gaussian, Inc.),
 the Gaussian 90(TM) system (copyright 1990, Gaussian, Inc.),
 the Gaussian 88(TM) system (copyright 1988, Gaussian, Inc.),
 the Gaussian 86(TM) system (copyright 1986, Carnegie Mellon
 University), and the Gaussian 82(TM) system (copyright 1983,
 Carnegie Mellon University). Gaussian is a federally registered
 trademark of Gaussian, Inc.
  
 This software contains proprietary and confidential information,
 including trade secrets, belonging to Gaussian, Inc.
  
 This software is provided under written license and may be
 used, copied, transmitted, or stored only in accord with that
 written license.
  
 The following legend is applicable only to US Government
 contracts under FAR:
  
                    RESTRICTED RIGHTS LEGEND
  
 Use, reproduction and disclosure by the US Government is
 subject to restrictions as set forth in subparagraphs (a)
 and (c) of the Commercial Computer Software - Restricted
 Rights clause in FAR 52.227-19.
  
 Gaussian, Inc.
 340 Quinnipiac St., Bldg. 40, Wallingford CT 06492
  
  
 ---------------------------------------------------------------
 Warning -- This program may not be used in any manner that
 competes with the business of Gaussian, Inc. or will provide
 assistance to any competitor of Gaussian, Inc.  The licensee
 of this program is prohibited from giving any competitor of
 Gaussian, Inc. access to this program.  By using this program,
 the user acknowledges that Gaussian, Inc. is engaged in the
 business of creating and licensing software in the field of
 computational chemistry and represents and warrants to the
 licensee that it is not a competitor of Gaussian, Inc. and that
 it will not use this program in any manner prohibited above.
 ---------------------------------------------------------------
  

 Cite this work as:
 Gaussian 16, Revision C.01,
 M. J. Frisch, G. W. Trucks, H. B. Schlegel, G. E. Scuseria, 
 M. A. Robb, J. R. Cheeseman, G. Scalmani, V. Barone, 
 G. A. Petersson, H. Nakatsuji, X. Li, M. Caricato, A. V. Marenich, 
 J. Bloino, B. G. Janesko, R. Gomperts, B. Mennucci, H. P. Hratchian, 
 J. V. Ortiz, A. F. Izmaylov, J. L. Sonnenberg, D. Williams-Young, 
 F. Ding, F. Lipparini, F. Egidi, J. Goings, B. Peng, A. Petrone, 
 T. Henderson, D. Ranasinghe, V. G. Zakrzewski, J. Gao, N. Rega, 
 G. Zheng, W. Liang, M. Hada, M. Ehara, K. Toyota, R. Fukuda, 
 J. Hasegawa, M. Ishida, T. Nakajima, Y. Honda, O. Kitao, H. Nakai, 
 T. Vreven, K. Throssell, J. A. Montgomery, Jr., J. E. Peralta, 
 F. Ogliaro, M. J. Bearpark, J. J. Heyd, E. N. Brothers, K. N. Kudin, 
 V. N. Staroverov, T. A. Keith, R. Kobayashi, J. Normand, 
 K. Raghavachari, A. P. Rendell, J. C. Burant, S. S. Iyengar, 
 J. Tomasi, M. Cossi, J. M. Millam, M. Klene, C. Adamo, R. Cammi, 
 J. W. Ochterski, R. L. Martin, K. Morokuma, O. Farkas, 
 J. B. Foresman, and D. J. Fox, Gaussian, Inc., Wallingford CT, 2019.
 
 ******************************************
 Gaussian 16:  EM64L-G16RevC.01  3-Jul-2019
                30-Mar-2025 
 ******************************************
 %nprocshared=40
 Will use up to   40 processors via shared memory.
 %mem=50gb
 ----------------------------------------------
 # MP2/aug-cc-pVTZ opt freq=(vibrot,anharmonic)
 ----------------------------------------------
 1/18=20,19=15,38=1,80=1/1,3;
 2/9=110,12=2,17=6,18=5,40=1/2;
 3/5=16,6=1,7=10,11=9,25=1,30=1,71=1/1,2,3;
 4//1;
 5/5=2,38=5/2;
 8/6=4,10=1/1;
 9/15=2,16=-3/6;
 10/5=1/2;
 6/7=2,8=2,9=2,10=2/1;
 7/12=2/1,2,3,16;
 1/18=20,19=15,80=1/3(2);
 2/9=110/2;
 99//99;
 2/9=110/2;
 3/5=16,6=1,7=10,11=9,25=1,30=1,71=1/1,2,3;
 4/5=5,16=3,69=1/1;
 5/5=2,38=5/2;
 8/6=4,10=1/1;
 9/15=2,16=-3/6;
 10/5=1/2;
 7/12=2/1,2,3,16;
 1/18=20,19=15,80=1/3(-8);
 2/9=110/2;
 6/7=2,8=2,9=2,10=2/1;
 99/9=10/99;
 ----
 blah
 ----
 Symbolic Z-matrix:
 Charge =  0 Multiplicity = 1
 C                    -1.10744   0.10834   0.00085 
 O                    -2.27416  -0.25175   0.0107 
 N                    -0.11375  -0.80493  -0.01088 
 H                    -0.87386   1.1682    0.00157 
 H                     0.86998  -0.49851  -0.01918 
 H                    -0.32644  -1.81345  -0.01165 
 

 GradGradGradGradGradGradGradGradGradGradGradGradGradGradGradGradGradGrad
 Berny optimization.
 Initialization pass.
                           ----------------------------
                           !    Initial Parameters    !
                           ! (Angstroms and Degrees)  !
 --------------------------                            --------------------------
 ! Name  Definition              Value          Derivative Info.                !
 --------------------------------------------------------------------------------
 ! R1    R(1,2)                  1.2211         estimate D2E/DX2                !
 ! R2    R(1,3)                  1.3497         estimate D2E/DX2                !
 ! R3    R(1,4)                  1.0853         estimate D2E/DX2                !
 ! R4    R(3,5)                  1.0304         estimate D2E/DX2                !
 ! R5    R(3,6)                  1.0307         estimate D2E/DX2                !
 ! A1    A(2,1,3)              120.2647         estimate D2E/DX2                !
 ! A2    A(2,1,4)              119.5798         estimate D2E/DX2                !
 ! A3    A(3,1,4)              120.1555         estimate D2E/DX2                !
 ! A4    A(1,3,5)              120.1158         estimate D2E/DX2                !
 ! A5    A(1,3,6)              120.6753         estimate D2E/DX2                !
 ! A6    A(5,3,6)              119.2088         estimate D2E/DX2                !
 ! D1    D(2,1,3,5)            180.0            estimate D2E/DX2                !
 ! D2    D(2,1,3,6)              0.0            estimate D2E/DX2                !
 ! D3    D(4,1,3,5)              0.0            estimate D2E/DX2                !
 ! D4    D(4,1,3,6)            180.0            estimate D2E/DX2                !
 --------------------------------------------------------------------------------
 Trust Radius=3.00D-01 FncErr=1.00D-07 GrdErr=1.00D-07 EigMax=2.50D+02 EigMin=1.00D-04
 Number of steps in this run=     25 maximum allowed number of steps=    100.
 GradGradGradGradGradGradGradGradGradGradGradGradGradGradGradGradGradGrad

                          Input orientation:                          
 ---------------------------------------------------------------------
 Center     Atomic      Atomic             Coordinates (Angstroms)
 Number     Number       Type             X           Y           Z
 ---------------------------------------------------------------------
      1          6           0       -1.107442    0.108344    0.000846
      2          8           0       -2.274163   -0.251753    0.010699
      3          7           0       -0.113749   -0.804933   -0.010876
      4          1           0       -0.873857    1.168198    0.001571
      5          1           0        0.869982   -0.498513   -0.019176
      6          1           0       -0.326443   -1.813445   -0.011655
 ---------------------------------------------------------------------
                    Distance matrix (angstroms):
                    1          2          3          4          5
     1  C    0.000000
     2  O    1.221067   0.000000
     3  N    1.349681   2.230216   0.000000
     4  H    1.085290   1.994292   2.114514   0.000000
     5  H    2.068546   3.153955   1.030383   2.412329   0.000000
     6  H    2.074461   2.496597   1.030697   3.031507   1.777790
                    6
     6  H    0.000000
 Stoichiometry    CH3NO
 Framework group  CS[SG(CH3NO)]
 Deg. of freedom     9
 Full point group                 CS      NOp   2
 Largest Abelian subgroup         CS      NOp   2
 Largest concise Abelian subgroup C1      NOp   1
                         Standard orientation:                         
 ---------------------------------------------------------------------
 Center     Atomic      Atomic             Coordinates (Angstroms)
 Number     Number       Type             X           Y           Z
 ---------------------------------------------------------------------
      1          6           0        0.000000    0.448337   -0.000000
      2          8           0       -1.185420    0.155448    0.000000
      3          7           0        0.939990   -0.520196   -0.000000
      4          1           0        0.293704    1.493130   -0.000000
      5          1           0        1.939647   -0.270446   -0.000000
      6          1           0        0.670074   -1.514922    0.000000
 ---------------------------------------------------------------------
 Rotational constants (GHZ):          67.7295702          11.8203400          10.0639529
 Standard basis: Aug-CC-pVTZ (5D, 7F)
 There are   165 symmetry adapted cartesian basis functions of A'  symmetry.
 There are    75 symmetry adapted cartesian basis functions of A"  symmetry.
 There are   138 symmetry adapted basis functions of A'  symmetry.
 There are    69 symmetry adapted basis functions of A"  symmetry.
   207 basis functions,   297 primitive gaussians,   240 cartesian basis functions
    12 alpha electrons       12 beta electrons
       nuclear repulsion energy        71.3405964550 Hartrees.
 NAtoms=    6 NActive=    6 NUniq=    6 SFac= 1.00D+00 NAtFMM=   60 NAOKFM=F Big=F
 Integral buffers will be    131072 words long.
 Raffenetti 1 integral format.
 Two-electron integral symmetry is turned on.
 One-electron integrals computed using PRISM.
 NBasis=   207 RedAO= T EigKep=  5.56D-05  NBF=   138    69
 NBsUse=   207 1.00D-06 EigRej= -1.00D+00 NBFU=   138    69
 ExpMin= 2.53D-02 ExpMax= 1.53D+04 ExpMxC= 5.22D+02 IAcc=3 IRadAn=         5 AccDes= 0.00D+00
 Harris functional with IExCor=  205 and IRadAn=       5 diagonalized for initial guess.
 HarFok:  IExCor=  205 AccDes= 0.00D+00 IRadAn=         5 IDoV= 1 UseB2=F ITyADJ=14
 ICtDFT=  3500011 ScaDFX=  1.000000  1.000000  1.000000  1.000000
 FoFCou: FMM=F IPFlag=           0 FMFlag=      100000 FMFlg1=           0
         NFxFlg=           0 DoJE=T BraDBF=F KetDBF=T FulRan=T
         wScrn=  0.000000 ICntrl=       500 IOpCl=  0 I1Cent=   200000004 NGrid=           0
         NMat0=    1 NMatS0=      1 NMatT0=    0 NMatD0=    1 NMtDS0=    0 NMtDT0=    0
 Petite list used in FoFCou.
 Initial guess orbital symmetries:
       Occupied  (A') (A') (A') (A') (A') (A') (A') (A') (A') (A")
                 (A') (A")
       Virtual   (A") (A') (A') (A') (A") (A') (A') (A') (A') (A')
                 (A") (A') (A") (A') (A') (A') (A") (A') (A') (A')
                 (A") (A') (A") (A') (A') (A") (A') (A') (A') (A')
                 (A') (A") (A') (A') (A") (A') (A') (A') (A") (A')
                 (A") (A') (A') (A") (A') (A") (A') (A') (A') (A")
                 (A") (A') (A') (A') (A") (A') (A') (A") (A") (A')
                 (A') (A') (A") (A") (A") (A') (A') (A') (A') (A")
                 (A') (A') (A") (A') (A") (A') (A') (A") (A') (A')
                 (A") (A') (A") (A') (A') (A") (A') (A') (A") (A')
                 (A') (A") (A') (A') (A") (A') (A") (A') (A') (A')
                 (A") (A') (A") (A') (A") (A') (A') (A') (A") (A')
                 (A') (A") (A') (A") (A') (A') (A") (A') (A') (A")
                 (A') (A') (A") (A') (A') (A") (A") (A') (A") (A')
                 (A') (A') (A') (A") (A") (A') (A') (A') (A") (A')
                 (A") (A") (A') (A') (A") (A") (A') (A') (A') (A')
                 (A") (A') (A") (A") (A') (A') (A") (A') (A') (A')
                 (A") (A') (A") (A') (A') (A") (A') (A") (A') (A')
                 (A") (A") (A') (A') (A') (A') (A") (A') (A') (A")
                 (A') (A') (A") (A") (A') (A') (A") (A') (A') (A')
                 (A') (A') (A') (A') (A')
 The electronic state of the initial guess is 1-A'.
 Keep R1 ints in memory in symmetry-blocked form, NReq=349202805.
 Requested convergence on RMS density matrix=1.00D-08 within 128 cycles.
 Requested convergence on MAX density matrix=1.00D-06.
 Requested convergence on             energy=1.00D-06.
 No special actions if energy rises.
 SCF Done:  E(RHF) =  -168.999809430     A.U. after   12 cycles
            NFock= 12  Conv=0.41D-08     -V/T= 2.0021
 ExpMin= 2.53D-02 ExpMax= 1.53D+04 ExpMxC= 5.22D+02 IAcc=3 IRadAn=         5 AccDes= 0.00D+00
 HarFok:  IExCor=  205 AccDes= 0.00D+00 IRadAn=         5 IDoV=-2 UseB2=F ITyADJ=14
 ICtDFT= 12500011 ScaDFX=  1.000000  1.000000  1.000000  1.000000
 Range of M.O.s used for correlation:     4   207
 NBasis=   207 NAE=    12 NBE=    12 NFC=     3 NFV=     0
 NROrb=    204 NOA=     9 NOB=     9 NVA=   195 NVB=   195

 **** Warning!!: The largest alpha MO coefficient is  0.32574295D+02

 Fully direct method using O(ONN) memory.
 JobTyp=1 Pass  1:  I=   4 to  12 NPSUse= 40 ParTrn=T ParDer=T DoDerP=T.
 Spin components of T(2) and E(2):
     alpha-alpha T2 =       0.2218300157D-01 E2=     -0.7688853275D-01
     alpha-beta  T2 =       0.1251173085D+00 E2=     -0.4634026718D+00
     beta-beta   T2 =       0.2218300157D-01 E2=     -0.7688853275D-01
 ANorm=    0.1081426517D+01
 E2 =    -0.6171797373D+00 EUMP2 =    -0.16961698916690D+03
          IDoAtm=111111
          Differentiating once with respect to electric field.
                with respect to dipole field.
          Differentiating once with respect to nuclear coordinates.
 Keep R1 ints in memory in symmetry-blocked form, NReq=349204137.
          There are     1 degrees of freedom in the 1st order CPHF.  IDoFFX=0 NUNeed=     1.
 LinEq1:  Iter=  0 NonCon=     1 RMS=4.53D-03 Max=9.85D-02 NDo=     1
 AX will form     1 AO Fock derivatives at one time.
 LinEq1:  Iter=  1 NonCon=     1 RMS=1.33D-03 Max=1.83D-02 NDo=     1
 LinEq1:  Iter=  2 NonCon=     1 RMS=4.85D-04 Max=5.45D-03 NDo=     1
 LinEq1:  Iter=  3 NonCon=     1 RMS=2.16D-04 Max=2.90D-03 NDo=     1
 LinEq1:  Iter=  4 NonCon=     1 RMS=5.05D-05 Max=5.32D-04 NDo=     1
 LinEq1:  Iter=  5 NonCon=     1 RMS=8.83D-06 Max=1.07D-04 NDo=     1
 LinEq1:  Iter=  6 NonCon=     1 RMS=1.91D-06 Max=2.12D-05 NDo=     1
 LinEq1:  Iter=  7 NonCon=     1 RMS=4.10D-07 Max=5.70D-06 NDo=     1
 LinEq1:  Iter=  8 NonCon=     1 RMS=8.78D-08 Max=1.77D-06 NDo=     1
 LinEq1:  Iter=  9 NonCon=     1 RMS=1.87D-08 Max=2.09D-07 NDo=     1
 LinEq1:  Iter= 10 NonCon=     1 RMS=7.25D-09 Max=7.28D-08 NDo=     1
 LinEq1:  Iter= 11 NonCon=     1 RMS=1.76D-09 Max=1.54D-08 NDo=     1
 LinEq1:  Iter= 12 NonCon=     1 RMS=2.50D-10 Max=2.03D-09 NDo=     1
 LinEq1:  Iter= 13 NonCon=     0 RMS=3.09D-11 Max=2.24D-10 NDo=     1
 Linear equations converged to 1.000D-10 1.000D-09 after    13 iterations.
 End of Minotr F.D. properties file   721 does not exist.
 End of Minotr F.D. properties file   722 does not exist.
 End of Minotr F.D. properties file   788 does not exist.

 **********************************************************************

            Population analysis using the SCF Density.

 **********************************************************************

 Orbital symmetries:
       Occupied  (A') (A') (A') (A') (A') (A') (A') (A') (A') (A")
                 (A') (A")
       Virtual   (A') (A') (A') (A") (A') (A') (A') (A") (A') (A')
                 (A") (A') (A') (A") (A') (A") (A') (A') (A') (A")
                 (A') (A') (A") (A') (A') (A') (A") (A') (A') (A')
                 (A") (A') (A') (A") (A') (A') (A') (A") (A') (A")
                 (A') (A') (A') (A') (A") (A') (A") (A') (A') (A")
                 (A") (A') (A') (A') (A") (A') (A") (A') (A') (A")
                 (A') (A") (A") (A') (A') (A") (A') (A') (A') (A')
                 (A") (A') (A') (A") (A") (A') (A') (A') (A") (A')
                 (A") (A') (A") (A') (A') (A') (A") (A') (A") (A')
                 (A') (A") (A') (A") (A') (A') (A') (A") (A') (A')
                 (A") (A') (A") (A") (A') (A') (A') (A") (A') (A')
                 (A') (A") (A') (A') (A") (A') (A") (A') (A') (A")
                 (A') (A') (A") (A') (A") (A') (A') (A") (A") (A')
                 (A') (A') (A") (A') (A') (A') (A") (A") (A') (A")
                 (A') (A") (A") (A') (A') (A") (A') (A') (A') (A")
                 (A') (A') (A") (A") (A') (A') (A') (A") (A') (A")
                 (A') (A') (A') (A") (A') (A') (A") (A") (A') (A")
                 (A') (A") (A') (A') (A') (A') (A") (A') (A') (A")
                 (A') (A') (A") (A") (A') (A') (A') (A') (A") (A')
                 (A') (A') (A') (A') (A')
 The electronic state is 1-A'.
 Alpha  occ. eigenvalues --  -20.52313 -15.60048 -11.35383  -1.38135  -1.21172
 Alpha  occ. eigenvalues --   -0.85008  -0.74562  -0.67942  -0.60063  -0.57033
 Alpha  occ. eigenvalues --   -0.43521  -0.41683
 Alpha virt. eigenvalues --    0.02084   0.03623   0.04866   0.08006   0.09858
 Alpha virt. eigenvalues --    0.10677   0.12479   0.13062   0.13735   0.16086
 Alpha virt. eigenvalues --    0.16528   0.18333   0.21439   0.22295   0.22485
 Alpha virt. eigenvalues --    0.25368   0.26672   0.27555   0.27984   0.30254
 Alpha virt. eigenvalues --    0.32372   0.33161   0.36196   0.36324   0.36649
 Alpha virt. eigenvalues --    0.38474   0.40033   0.40868   0.42865   0.45394
 Alpha virt. eigenvalues --    0.47497   0.49061   0.51497   0.51881   0.56591
 Alpha virt. eigenvalues --    0.59707   0.61527   0.62135   0.63869   0.65990
 Alpha virt. eigenvalues --    0.67271   0.73213   0.78087   0.81352   0.83113
 Alpha virt. eigenvalues --    0.84240   0.85973   0.86387   0.87263   0.88538
 Alpha virt. eigenvalues --    0.90558   0.91682   0.94370   0.96319   0.96427
 Alpha virt. eigenvalues --    0.97169   1.00766   1.01640   1.03516   1.04967
 Alpha virt. eigenvalues --    1.05190   1.07567   1.09484   1.10130   1.13026
 Alpha virt. eigenvalues --    1.13202   1.13860   1.17841   1.20797   1.24432
 Alpha virt. eigenvalues --    1.25174   1.29432   1.32515   1.36677   1.38622
 Alpha virt. eigenvalues --    1.38671   1.41853   1.44373   1.44572   1.47434
 Alpha virt. eigenvalues --    1.52176   1.54338   1.59793   1.63478   1.68886
 Alpha virt. eigenvalues --    1.74032   1.75684   1.76300   1.88967   1.89631
 Alpha virt. eigenvalues --    1.97163   2.00450   2.02222   2.03106   2.03969
 Alpha virt. eigenvalues --    2.11228   2.13718   2.19705   2.25401   2.30824
 Alpha virt. eigenvalues --    2.35373   2.37333   2.40728   2.43594   2.43642
 Alpha virt. eigenvalues --    2.48016   2.50901   2.53338   2.53506   2.57116
 Alpha virt. eigenvalues --    2.61456   2.63401   2.67538   2.75396   2.78756
 Alpha virt. eigenvalues --    2.83490   2.87885   3.04639   3.10309   3.16197
 Alpha virt. eigenvalues --    3.17817   3.26765   3.38090   3.47352   3.55356
 Alpha virt. eigenvalues --    3.55962   3.64183   3.68076   3.74714   3.78090
 Alpha virt. eigenvalues --    3.87707   3.95323   4.00382   4.01174   4.10363
 Alpha virt. eigenvalues --    4.11957   4.13343   4.21833   4.24129   4.27317
 Alpha virt. eigenvalues --    4.30671   4.32687   4.38283   4.42412   4.43744
 Alpha virt. eigenvalues --    4.47640   4.58106   4.65739   4.67559   4.68395
 Alpha virt. eigenvalues --    4.74442   4.78086   4.82177   4.86058   4.95551
 Alpha virt. eigenvalues --    4.99260   5.12046   5.15558   5.20043   5.25035
 Alpha virt. eigenvalues --    5.30939   5.33746   5.45022   5.50026   5.53828
 Alpha virt. eigenvalues --    5.58352   5.63643   5.77626   5.79358   5.99782
 Alpha virt. eigenvalues --    6.00646   6.09153   6.18471   6.21153   6.34355
 Alpha virt. eigenvalues --    6.46227   6.65553   6.68471   6.71388   6.95500
 Alpha virt. eigenvalues --    7.00247   7.02742   7.14464   7.30113   7.32397
 Alpha virt. eigenvalues --    7.33978   7.49797   7.59299   7.59767   7.80785
 Alpha virt. eigenvalues --    7.82399   8.00929  15.19343  16.65560  17.47551
          Condensed to atoms (all electrons):
               1          2          3          4          5          6
     1  C    5.057217   0.463026   0.383579   0.216853  -0.037654  -0.024560
     2  O    0.463026   8.307162  -0.122182  -0.042329  -0.000222   0.007269
     3  N    0.383579  -0.122182   6.220424  -0.020840   0.427380   0.407700
     4  H    0.216853  -0.042329  -0.020840   0.228627   0.004507  -0.000957
     5  H   -0.037654  -0.000222   0.427380   0.004507   0.509366  -0.054950
     6  H   -0.024560   0.007269   0.407700  -0.000957  -0.054950   0.463962
 Mulliken charges:
               1
     1  C   -0.058461
     2  O   -0.612725
     3  N   -0.296061
     4  H    0.614138
     5  H    0.151572
     6  H    0.201536
 Sum of Mulliken charges =  -0.00000
 Mulliken charges with hydrogens summed into heavy atoms:
               1
     1  C    0.555678
     2  O   -0.612725
     3  N    0.057047
 Electronic spatial extent (au):  <R**2>=            144.6009
 Charge=             -0.0000 electrons
 Dipole moment (field-independent basis, Debye):
    X=              4.2950    Y=             -0.1295    Z=             -0.0000  Tot=              4.2970
 Quadrupole moment (field-independent basis, Debye-Ang):
   XX=            -19.1600   YY=            -14.0218   ZZ=            -19.0621
   XY=              0.0413   XZ=             -0.0000   YZ=             -0.0000
 Traceless Quadrupole moment (field-independent basis, Debye-Ang):
   XX=             -1.7454   YY=              3.3929   ZZ=             -1.6475
   XY=              0.0413   XZ=             -0.0000   YZ=             -0.0000
 Octapole moment (field-independent basis, Debye-Ang**2):
  XXX=             13.0617  YYY=             -3.7822  ZZZ=              0.0000  XYY=              2.2417
  XXY=             -1.8358  XXZ=             -0.0000  XZZ=             -1.2666  YZZ=              0.5274
  YYZ=             -0.0000  XYZ=              0.0000
 Hexadecapole moment (field-independent basis, Debye-Ang**3):
 XXXX=            -96.5954 YYYY=            -35.5100 ZZZZ=            -18.3622 XXXY=             12.9591
 XXXZ=             -0.0000 YYYX=             10.3464 YYYZ=             -0.0000 ZZZX=              0.0000
 ZZZY=             -0.0000 XXYY=            -26.7283 XXZZ=            -23.3345 YYZZ=            -11.7754
 XXYZ=              0.0000 YYXZ=             -0.0000 ZZXY=              5.1768
 N-N= 7.134059645504D+01 E-N=-5.405848849616D+02  KE= 1.686413048501D+02
 Symmetry A'   KE= 1.618625958486D+02
 Symmetry A"   KE= 6.778709001582D+00
 Calling FoFJK, ICntrl=  10002127 FMM=F ISym2X=1 I1Cent= 0 IOpClX= 0 NMat=1 NMatS=1 NMatT=0.
 ***** Axes restored to original set *****
 -------------------------------------------------------------------
 Center     Atomic                   Forces (Hartrees/Bohr)
 Number     Number              X              Y              Z
 -------------------------------------------------------------------
      1        6          -0.023794518   -0.020674986    0.000164532
      2        8          -0.008879695    0.004984574    0.000096079
      3        7           0.037822817   -0.001938437   -0.000356566
      4        1           0.013847489    0.003705525   -0.000118488
      5        1          -0.020110377   -0.008863035    0.000162570
      6        1           0.001114284    0.022786359    0.000051872
 -------------------------------------------------------------------
 Cartesian Forces:  Max     0.037822817 RMS     0.014416008

 GradGradGradGradGradGradGradGradGradGradGradGradGradGradGradGradGradGrad
 Berny optimization.
 FormGI is forming the generalized inverse of G from B-inverse, IUseBI=4.
 Internal  Forces:  Max     0.023077602 RMS     0.011903130
 Search for a local minimum.
 Step number   1 out of a maximum of   25
 All quantities printed in internal units (Hartrees-Bohrs-Radians)
 Mixed Optimization -- RFO/linear search
 Second derivative matrix not updated -- first step.
 The second derivative matrix:
                          R1        R2        R3        R4        R5
           R1           0.94912
           R2           0.00000   0.55089
           R3           0.00000   0.00000   0.35363
           R4           0.00000   0.00000   0.00000   0.42722
           R5           0.00000   0.00000   0.00000   0.00000   0.42674
           A1           0.00000   0.00000   0.00000   0.00000   0.00000
           A2           0.00000   0.00000   0.00000   0.00000   0.00000
           A3           0.00000   0.00000   0.00000   0.00000   0.00000
           A4           0.00000   0.00000   0.00000   0.00000   0.00000
           A5           0.00000   0.00000   0.00000   0.00000   0.00000
           A6           0.00000   0.00000   0.00000   0.00000   0.00000
           D1           0.00000   0.00000   0.00000   0.00000   0.00000
           D2           0.00000   0.00000   0.00000   0.00000   0.00000
           D3           0.00000   0.00000   0.00000   0.00000   0.00000
           D4           0.00000   0.00000   0.00000   0.00000   0.00000
                          A1        A2        A3        A4        A5
           A1           0.25000
           A2           0.00000   0.16000
           A3           0.00000   0.00000   0.16000
           A4           0.00000   0.00000   0.00000   0.16000
           A5           0.00000   0.00000   0.00000   0.00000   0.16000
           A6           0.00000   0.00000   0.00000   0.00000   0.00000
           D1           0.00000   0.00000   0.00000   0.00000   0.00000
           D2           0.00000   0.00000   0.00000   0.00000   0.00000
           D3           0.00000   0.00000   0.00000   0.00000   0.00000
           D4           0.00000   0.00000   0.00000   0.00000   0.00000
                          A6        D1        D2        D3        D4
           A6           0.16000
           D1           0.00000   0.02357
           D2           0.00000   0.00000   0.02357
           D3           0.00000   0.00000   0.00000   0.02357
           D4           0.00000   0.00000   0.00000   0.00000   0.02357
 ITU=  0
     Eigenvalues ---    0.02357   0.02357   0.02357   0.16000   0.16000
     Eigenvalues ---    0.16000   0.22000   0.35363   0.42674   0.42722
     Eigenvalues ---    0.55089   0.94912
 RFO step:  Lambda=-7.60399484D-03 EMin= 2.35740641D-02
 Linear search not attempted -- first point.
 Iteration  1 RMS(Cart)=  0.05294555 RMS(Int)=  0.00185854
 Iteration  2 RMS(Cart)=  0.00205855 RMS(Int)=  0.00000096
 Iteration  3 RMS(Cart)=  0.00000110 RMS(Int)=  0.00000000
 Iteration  4 RMS(Cart)=  0.00000000 RMS(Int)=  0.00000001
 ClnCor:  largest displacement from symmetrization is 2.00D-08 for atom     1.
 Variable       Old X    -DE/DX   Delta X   Delta X   Delta X     New X
                                 (Linear)    (Quad)   (Total)
    R1        2.30748   0.00702   0.00000   0.00733   0.00733   2.31481
    R2        2.55053   0.00575   0.00000   0.01030   0.01030   2.56083
    R3        2.05090   0.00660   0.00000   0.01827   0.01827   2.06917
    R4        1.94714  -0.02184   0.00000  -0.05022  -0.05022   1.89692
    R5        1.94773  -0.02253   0.00000  -0.05186  -0.05186   1.89587
    A1        2.09901   0.02006   0.00000   0.08812   0.08812   2.18713
    A2        2.08706   0.00302   0.00000   0.03380   0.03380   2.12086
    A3        2.09711  -0.02308   0.00000  -0.12192  -0.12192   1.97519
    A4        2.09642   0.00557   0.00000   0.03321   0.03321   2.12963
    A5        2.10618  -0.00630   0.00000  -0.03759  -0.03759   2.06859
    A6        2.08059   0.00073   0.00000   0.00438   0.00438   2.08497
    D1        3.14159   0.00000   0.00000   0.00000   0.00000   3.14159
    D2       -0.00000   0.00000   0.00000   0.00000   0.00000   0.00000
    D3        0.00000   0.00000   0.00000   0.00000  -0.00000   0.00000
    D4        3.14159  -0.00000   0.00000  -0.00000   0.00000  -3.14159
         Item               Value     Threshold  Converged?
 Maximum Force            0.023078     0.000450     NO 
 RMS     Force            0.011903     0.000300     NO 
 Maximum Displacement     0.104357     0.001800     NO 
 RMS     Displacement     0.053510     0.001200     NO 
 Predicted change in Energy=-3.923711D-03
 GradGradGradGradGradGradGradGradGradGradGradGradGradGradGradGradGradGrad

                          Input orientation:                          
 ---------------------------------------------------------------------
 Center     Atomic      Atomic             Coordinates (Angstroms)
 Number     Number       Type             X           Y           Z
 ---------------------------------------------------------------------
      1          6           0       -1.137207    0.076880    0.001037
      2          8           0       -2.322542   -0.231947    0.011202
      3          7           0       -0.100460   -0.795699   -0.010974
      4          1           0       -0.818634    1.124468    0.000939
      5          1           0        0.854737   -0.487216   -0.019003
      6          1           0       -0.301566   -1.778589   -0.011790
 ---------------------------------------------------------------------
                    Distance matrix (angstroms):
                    1          2          3          4          5
     1  C    0.000000
     2  O    1.224947   0.000000
     3  N    1.355131   2.292587   0.000000
     4  H    1.094957   2.025267   2.050111   0.000000
     5  H    2.070374   3.187660   1.003807   2.323380   0.000000
     6  H    2.034999   2.544990   1.003253   2.948773   1.733417
                    6
     6  H    0.000000
 Stoichiometry    CH3NO
 Framework group  CS[SG(CH3NO)]
 Deg. of freedom     9
 Full point group                 CS      NOp   2
 Largest Abelian subgroup         CS      NOp   2
 Largest concise Abelian subgroup C1      NOp   1
                         Standard orientation:                         
 ---------------------------------------------------------------------
 Center     Atomic      Atomic             Coordinates (Angstroms)
 Number     Number       Type             X           Y           Z
 ---------------------------------------------------------------------
      1          6           0       -0.000000    0.416384    0.000000
      2          8           0       -1.208795    0.218118   -0.000000
      3          7           0        0.951981   -0.548040    0.000000
      4          1           0        0.413754    1.430158    0.000000
      5          1           0        1.931578   -0.328905    0.000000
      6          1           0        0.661162   -1.508217    0.000000
 ---------------------------------------------------------------------
 Rotational constants (GHZ):          74.3212145          11.2442407           9.7666239
 Standard basis: Aug-CC-pVTZ (5D, 7F)
 There are   165 symmetry adapted cartesian basis functions of A'  symmetry.
 There are    75 symmetry adapted cartesian basis functions of A"  symmetry.
 There are   138 symmetry adapted basis functions of A'  symmetry.
 There are    69 symmetry adapted basis functions of A"  symmetry.
   207 basis functions,   297 primitive gaussians,   240 cartesian basis functions
    12 alpha electrons       12 beta electrons
       nuclear repulsion energy        71.0400062843 Hartrees.
 NAtoms=    6 NActive=    6 NUniq=    6 SFac= 1.00D+00 NAtFMM=   60 NAOKFM=F Big=F
 Integral buffers will be    131072 words long.
 Raffenetti 1 integral format.
 Two-electron integral symmetry is turned on.
 One-electron integrals computed using PRISM.
 NBasis=   207 RedAO= T EigKep=  5.49D-05  NBF=   138    69
 NBsUse=   207 1.00D-06 EigRej= -1.00D+00 NBFU=   138    69
 Initial guess from the checkpoint file:  "/scr/Gau-64527.chk"
 B after Tr=     0.000000   -0.000000    0.000000
         Rot=    0.999853    0.000000    0.000000    0.017149 Ang=   1.97 deg.
 Initial guess orbital symmetries:
       Occupied  (A') (A') (A') (A') (A') (A') (A') (A') (A') (A")
                 (A') (A")
       Virtual   (A') (A') (A') (A") (A') (A') (A') (A") (A') (A')
                 (A") (A') (A') (A") (A') (A") (A') (A') (A') (A")
                 (A') (A') (A") (A') (A') (A') (A") (A') (A') (A')
                 (A") (A') (A') (A") (A') (A') (A') (A") (A') (A")
                 (A') (A') (A') (A') (A") (A') (A") (A') (A') (A")
                 (A") (A') (A') (A') (A") (A') (A") (A') (A') (A")
                 (A') (A") (A") (A') (A') (A") (A') (A') (A') (A')
                 (A") (A') (A') (A") (A") (A') (A') (A') (A") (A')
                 (A") (A') (A") (A') (A') (A') (A") (A') (A") (A')
                 (A') (A") (A') (A") (A') (A') (A') (A") (A') (A')
                 (A") (A') (A") (A") (A') (A') (A') (A") (A') (A')
                 (A') (A") (A') (A') (A") (A') (A") (A') (A') (A")
                 (A') (A') (A") (A') (A") (A') (A') (A") (A") (A')
                 (A') (A') (A") (A') (A') (A') (A") (A") (A') (A")
                 (A') (A") (A") (A') (A') (A") (A') (A') (A') (A")
                 (A') (A') (A") (A") (A') (A') (A') (A") (A') (A")
                 (A') (A') (A') (A") (A') (A') (A") (A") (A') (A")
                 (A') (A") (A') (A') (A') (A') (A") (A') (A') (A")
                 (A') (A') (A") (A") (A') (A') (A') (A') (A") (A')
                 (A') (A') (A') (A') (A')
 ExpMin= 2.53D-02 ExpMax= 1.53D+04 ExpMxC= 5.22D+02 IAcc=3 IRadAn=         5 AccDes= 0.00D+00
 Harris functional with IExCor=  205 and IRadAn=       5 diagonalized for initial guess.
 HarFok:  IExCor=  205 AccDes= 0.00D+00 IRadAn=         5 IDoV= 1 UseB2=F ITyADJ=14
 ICtDFT=  3500011 ScaDFX=  1.000000  1.000000  1.000000  1.000000
 FoFCou: FMM=F IPFlag=           0 FMFlag=      100000 FMFlg1=           0
         NFxFlg=           0 DoJE=T BraDBF=F KetDBF=T FulRan=T
         wScrn=  0.000000 ICntrl=       500 IOpCl=  0 I1Cent=   200000004 NGrid=           0
         NMat0=    1 NMatS0=      1 NMatT0=    0 NMatD0=    1 NMtDS0=    0 NMtDT0=    0
 Petite list used in FoFCou.
 Keep R1 ints in memory in symmetry-blocked form, NReq=349202805.
 Requested convergence on RMS density matrix=1.00D-08 within 128 cycles.
 Requested convergence on MAX density matrix=1.00D-06.
 Requested convergence on             energy=1.00D-06.
 No special actions if energy rises.
 SCF Done:  E(RHF) =  -169.003891363     A.U. after   10 cycles
            NFock= 10  Conv=0.74D-08     -V/T= 2.0020
 ExpMin= 2.53D-02 ExpMax= 1.53D+04 ExpMxC= 5.22D+02 IAcc=3 IRadAn=         5 AccDes= 0.00D+00
 HarFok:  IExCor=  205 AccDes= 0.00D+00 IRadAn=         5 IDoV=-2 UseB2=F ITyADJ=14
 ICtDFT= 12500011 ScaDFX=  1.000000  1.000000  1.000000  1.000000
 Range of M.O.s used for correlation:     4   207
 NBasis=   207 NAE=    12 NBE=    12 NFC=     3 NFV=     0
 NROrb=    204 NOA=     9 NOB=     9 NVA=   195 NVB=   195

 **** Warning!!: The largest alpha MO coefficient is  0.31626254D+02

 Fully direct method using O(ONN) memory.
 JobTyp=1 Pass  1:  I=   4 to  12 NPSUse= 40 ParTrn=T ParDer=T DoDerP=T.
 Spin components of T(2) and E(2):
     alpha-alpha T2 =       0.2214602810D-01 E2=     -0.7682192291D-01
     alpha-beta  T2 =       0.1246642017D+00 E2=     -0.4630524809D+00
     beta-beta   T2 =       0.2214602810D-01 E2=     -0.7682192291D-01
 ANorm=    0.1081182805D+01
 E2 =    -0.6166963267D+00 EUMP2 =    -0.16962058768952D+03
          IDoAtm=111111
          Differentiating once with respect to electric field.
                with respect to dipole field.
          Differentiating once with respect to nuclear coordinates.
 Keep R1 ints in memory in symmetry-blocked form, NReq=349204137.
          There are     1 degrees of freedom in the 1st order CPHF.  IDoFFX=0 NUNeed=     1.
 LinEq1:  Iter=  0 NonCon=     1 RMS=4.55D-03 Max=1.02D-01 NDo=     1
 AX will form     1 AO Fock derivatives at one time.
 LinEq1:  Iter=  1 NonCon=     1 RMS=1.34D-03 Max=1.82D-02 NDo=     1
 LinEq1:  Iter=  2 NonCon=     1 RMS=4.89D-04 Max=5.67D-03 NDo=     1
 LinEq1:  Iter=  3 NonCon=     1 RMS=2.21D-04 Max=2.89D-03 NDo=     1
 LinEq1:  Iter=  4 NonCon=     1 RMS=5.03D-05 Max=5.86D-04 NDo=     1
 LinEq1:  Iter=  5 NonCon=     1 RMS=8.77D-06 Max=1.05D-04 NDo=     1
 LinEq1:  Iter=  6 NonCon=     1 RMS=2.09D-06 Max=2.70D-05 NDo=     1
 LinEq1:  Iter=  7 NonCon=     1 RMS=6.40D-07 Max=7.44D-06 NDo=     1
 LinEq1:  Iter=  8 NonCon=     1 RMS=2.60D-07 Max=5.85D-06 NDo=     1
 LinEq1:  Iter=  9 NonCon=     1 RMS=6.65D-08 Max=9.75D-07 NDo=     1
 LinEq1:  Iter= 10 NonCon=     1 RMS=1.30D-08 Max=1.15D-07 NDo=     1
 LinEq1:  Iter= 11 NonCon=     1 RMS=1.81D-09 Max=1.72D-08 NDo=     1
 LinEq1:  Iter= 12 NonCon=     1 RMS=2.47D-10 Max=1.93D-09 NDo=     1
 LinEq1:  Iter= 13 NonCon=     0 RMS=3.05D-11 Max=2.29D-10 NDo=     1
 Linear equations converged to 1.000D-10 1.000D-09 after    13 iterations.
 End of Minotr F.D. properties file   721 does not exist.
 End of Minotr F.D. properties file   722 does not exist.
 End of Minotr F.D. properties file   788 does not exist.
 Calling FoFJK, ICntrl=  10002127 FMM=F ISym2X=1 I1Cent= 0 IOpClX= 0 NMat=1 NMatS=1 NMatT=0.
 ***** Axes restored to original set *****
 -------------------------------------------------------------------
 Center     Atomic                   Forces (Hartrees/Bohr)
 Number     Number              X              Y              Z
 -------------------------------------------------------------------
      1        6          -0.010978262    0.001296010    0.000105497
      2        8           0.010300352   -0.000777530   -0.000097786
      3        7          -0.000529402   -0.001016019    0.000002142
      4        1           0.002464030    0.002136613   -0.000017050
      5        1          -0.001475357    0.000959539    0.000016322
      6        1           0.000218639   -0.002598612   -0.000009126
 -------------------------------------------------------------------
 Cartesian Forces:  Max     0.010978262 RMS     0.003732531

 GradGradGradGradGradGradGradGradGradGradGradGradGradGradGradGradGradGrad
 Berny optimization.
 Using GEDIIS/GDIIS optimizer.
 FormGI is forming the generalized inverse of G from B-inverse, IUseBI=4.
 Internal  Forces:  Max     0.009772043 RMS     0.003151914
 Search for a local minimum.
 Step number   2 out of a maximum of   25
 All quantities printed in internal units (Hartrees-Bohrs-Radians)
 Mixed Optimization -- RFO/linear search
 Update second derivatives using D2CorX and points    1    2
 DE= -3.60D-03 DEPred=-3.92D-03 R= 9.17D-01
 TightC=F SS=  1.41D+00  RLast= 1.79D-01 DXNew= 5.0454D-01 5.3676D-01
 Trust test= 9.17D-01 RLast= 1.79D-01 DXMaxT set to 5.05D-01
 The second derivative matrix:
                          R1        R2        R3        R4        R5
           R1           0.97742
           R2           0.00587   0.55014
           R3           0.00187  -0.00241   0.34978
           R4          -0.02278   0.00266   0.00898   0.41786
           R5          -0.03108   0.00030   0.00754  -0.00030   0.43773
           A1           0.02909  -0.00090  -0.00792   0.00257  -0.00819
           A2          -0.00669  -0.00468  -0.00511   0.01771   0.01862
           A3          -0.02990  -0.00054   0.00607   0.00283   0.01342
           A4           0.01110   0.00110  -0.00098  -0.00442  -0.00806
           A5          -0.01113  -0.00078   0.00143   0.00323   0.00699
           A6           0.00003  -0.00032  -0.00046   0.00118   0.00107
           D1          -0.00000  -0.00000  -0.00000   0.00000   0.00000
           D2          -0.00000  -0.00000  -0.00000   0.00000   0.00000
           D3           0.00000   0.00000   0.00000  -0.00000  -0.00000
           D4          -0.00000  -0.00000  -0.00000   0.00000   0.00000
                          A1        A2        A3        A4        A5
           A1           0.25552
           A2          -0.01845   0.15610
           A3          -0.01081   0.01652   0.17531
           A4           0.00717  -0.00463  -0.00826   0.16362
           A5          -0.00607   0.00518   0.00737  -0.00343   0.16319
           A6          -0.00110  -0.00055   0.00089  -0.00018   0.00024
           D1          -0.00000  -0.00000   0.00000  -0.00000   0.00000
           D2          -0.00000  -0.00000   0.00000  -0.00000   0.00000
           D3           0.00000   0.00000  -0.00000   0.00000  -0.00000
           D4          -0.00000   0.00000   0.00000  -0.00000   0.00000
                          A6        D1        D2        D3        D4
           A6           0.15995
           D1          -0.00000   0.02357
           D2          -0.00000  -0.00000   0.02357
           D3           0.00000   0.00000   0.00000   0.02357
           D4          -0.00000  -0.00000  -0.00000  -0.00000   0.02357
 ITU=  1  0
 Use linear search instead of GDIIS.
     Eigenvalues ---    0.02357   0.02357   0.02357   0.14735   0.16000
     Eigenvalues ---    0.16438   0.24835   0.34855   0.41876   0.43884
     Eigenvalues ---    0.55018   0.98305
 RFO step:  Lambda=-2.74203018D-04 EMin= 2.35740641D-02
 Quartic linear search produced a step of -0.05747.
 Iteration  1 RMS(Cart)=  0.00958099 RMS(Int)=  0.00004863
 Iteration  2 RMS(Cart)=  0.00005117 RMS(Int)=  0.00000000
 Iteration  3 RMS(Cart)=  0.00000000 RMS(Int)=  0.00000001
 ClnCor:  largest displacement from symmetrization is 3.63D-09 for atom     2.
 Variable       Old X    -DE/DX   Delta X   Delta X   Delta X     New X
                                 (Linear)    (Quad)   (Total)
    R1        2.31481  -0.00977  -0.00042  -0.00901  -0.00943   2.30538
    R2        2.56083   0.00034  -0.00059   0.00156   0.00097   2.56179
    R3        2.06917   0.00276  -0.00105   0.00909   0.00804   2.07721
    R4        1.89692  -0.00111   0.00289  -0.00721  -0.00432   1.89260
    R5        1.89587   0.00250   0.00298   0.00061   0.00359   1.89946
    A1        2.18713  -0.00397  -0.00506  -0.00849  -0.01356   2.17357
    A2        2.12086   0.00378  -0.00194   0.02242   0.02048   2.14134
    A3        1.97519   0.00019   0.00701  -0.01393  -0.00692   1.96827
    A4        2.12963  -0.00219  -0.00191  -0.00965  -0.01156   2.11807
    A5        2.06859   0.00179   0.00216   0.00687   0.00903   2.07762
    A6        2.08497   0.00040  -0.00025   0.00278   0.00253   2.08750
    D1        3.14159  -0.00000  -0.00000   0.00000  -0.00000   3.14159
    D2       -0.00000  -0.00000  -0.00000   0.00000   0.00000   0.00000
    D3        0.00000  -0.00000   0.00000  -0.00000  -0.00000  -0.00000
    D4        3.14159   0.00000   0.00000  -0.00000   0.00000   3.14159
         Item               Value     Threshold  Converged?
 Maximum Force            0.009772     0.000450     NO 
 RMS     Force            0.003152     0.000300     NO 
 Maximum Displacement     0.019098     0.001800     NO 
 RMS     Displacement     0.009580     0.001200     NO 
 Predicted change in Energy=-1.506870D-04
 GradGradGradGradGradGradGradGradGradGradGradGradGradGradGradGradGradGrad

                          Input orientation:                          
 ---------------------------------------------------------------------
 Center     Atomic      Atomic             Coordinates (Angstroms)
 Number     Number       Type             X           Y           Z
 ---------------------------------------------------------------------
      1          6           0       -1.139291    0.079848    0.001064
      2          8           0       -2.316646   -0.239563    0.011127
      3          7           0       -0.105225   -0.796698   -0.010933
      4          1           0       -0.808528    1.128115    0.000855
      5          1           0        0.845292   -0.481261   -0.018899
      6          1           0       -0.301274   -1.782544   -0.011804
 ---------------------------------------------------------------------
                    Distance matrix (angstroms):
                    1          2          3          4          5
     1  C    0.000000
     2  O    1.219955   0.000000
     3  N    1.355643   2.280629   0.000000
     4  H    1.099212   2.035944   2.049311   0.000000
     5  H    2.062477   3.171304   1.001522   2.307726   0.000000
     6  H    2.042288   2.538314   1.005151   2.954556   1.734359
                    6
     6  H    0.000000
 Stoichiometry    CH3NO
 Framework group  CS[SG(CH3NO)]
 Deg. of freedom     9
 Full point group                 CS      NOp   2
 Largest Abelian subgroup         CS      NOp   2
 Largest concise Abelian subgroup C1      NOp   1
                         Standard orientation:                         
 ---------------------------------------------------------------------
 Center     Atomic      Atomic             Coordinates (Angstroms)
 Number     Number       Type             X           Y           Z
 ---------------------------------------------------------------------
      1          6           0       -0.000000    0.421388    0.000000
      2          8           0       -1.202672    0.216769   -0.000000
      3          7           0        0.944976   -0.550614    0.000000
      4          1           0        0.430098    1.432963    0.000000
      5          1           0        1.921470   -0.328119    0.000000
      6          1           0        0.654977   -1.513022    0.000000
 ---------------------------------------------------------------------
 Rotational constants (GHZ):          73.2310578          11.3590674           9.8337308
 Standard basis: Aug-CC-pVTZ (5D, 7F)
 There are   165 symmetry adapted cartesian basis functions of A'  symmetry.
 There are    75 symmetry adapted cartesian basis functions of A"  symmetry.
 There are   138 symmetry adapted basis functions of A'  symmetry.
 There are    69 symmetry adapted basis functions of A"  symmetry.
   207 basis functions,   297 primitive gaussians,   240 cartesian basis functions
    12 alpha electrons       12 beta electrons
       nuclear repulsion energy        71.1789715001 Hartrees.
 NAtoms=    6 NActive=    6 NUniq=    6 SFac= 1.00D+00 NAtFMM=   60 NAOKFM=F Big=F
 Integral buffers will be    131072 words long.
 Raffenetti 1 integral format.
 Two-electron integral symmetry is turned on.
 One-electron integrals computed using PRISM.
 NBasis=   207 RedAO= T EigKep=  5.58D-05  NBF=   138    69
 NBsUse=   207 1.00D-06 EigRej= -1.00D+00 NBFU=   138    69
 Initial guess from the checkpoint file:  "/scr/Gau-64527.chk"
 B after Tr=     0.000000   -0.000000   -0.000000
         Rot=    0.999999    0.000000   -0.000000    0.001293 Ang=   0.15 deg.
 Initial guess orbital symmetries:
       Occupied  (A') (A') (A') (A') (A') (A') (A') (A') (A') (A")
                 (A') (A")
       Virtual   (A') (A') (A') (A") (A') (A') (A') (A") (A') (A')
                 (A") (A') (A') (A") (A') (A") (A') (A') (A') (A")
                 (A') (A') (A") (A') (A') (A') (A") (A') (A') (A')
                 (A") (A') (A') (A") (A') (A') (A') (A") (A') (A")
                 (A') (A') (A') (A') (A") (A') (A") (A') (A') (A")
                 (A") (A') (A') (A") (A') (A') (A") (A') (A') (A')
                 (A") (A") (A') (A") (A') (A') (A") (A') (A') (A')
                 (A") (A') (A') (A") (A') (A") (A') (A") (A') (A')
                 (A") (A') (A') (A") (A') (A') (A") (A') (A") (A')
                 (A') (A") (A') (A") (A') (A') (A') (A") (A') (A')
                 (A") (A') (A") (A") (A') (A') (A') (A") (A') (A')
                 (A') (A") (A') (A') (A") (A') (A") (A') (A') (A")
                 (A') (A') (A") (A') (A") (A') (A') (A") (A") (A')
                 (A') (A') (A') (A") (A') (A') (A") (A") (A') (A")
                 (A') (A") (A") (A') (A') (A") (A') (A") (A') (A')
                 (A') (A') (A") (A") (A') (A') (A') (A") (A") (A')
                 (A') (A') (A") (A') (A') (A') (A") (A') (A") (A')
                 (A") (A") (A') (A') (A') (A') (A") (A') (A') (A")
                 (A') (A') (A") (A') (A") (A') (A') (A") (A') (A')
                 (A') (A') (A') (A') (A')
 Keep R1 ints in memory in symmetry-blocked form, NReq=349202805.
 Requested convergence on RMS density matrix=1.00D-08 within 128 cycles.
 Requested convergence on MAX density matrix=1.00D-06.
 Requested convergence on             energy=1.00D-06.
 No special actions if energy rises.
 SCF Done:  E(RHF) =  -169.004450581     A.U. after    9 cycles
            NFock=  9  Conv=0.88D-08     -V/T= 2.0019
 ExpMin= 2.53D-02 ExpMax= 1.53D+04 ExpMxC= 5.22D+02 IAcc=3 IRadAn=         5 AccDes= 0.00D+00
 HarFok:  IExCor=  205 AccDes= 0.00D+00 IRadAn=         5 IDoV=-2 UseB2=F ITyADJ=14
 ICtDFT= 12500011 ScaDFX=  1.000000  1.000000  1.000000  1.000000
 Range of M.O.s used for correlation:     4   207
 NBasis=   207 NAE=    12 NBE=    12 NFC=     3 NFV=     0
 NROrb=    204 NOA=     9 NOB=     9 NVA=   195 NVB=   195

 **** Warning!!: The largest alpha MO coefficient is  0.30074252D+02

 Fully direct method using O(ONN) memory.
 JobTyp=1 Pass  1:  I=   4 to  12 NPSUse= 40 ParTrn=T ParDer=T DoDerP=T.
 Spin components of T(2) and E(2):
     alpha-alpha T2 =       0.2209103709D-01 E2=     -0.7677162480D-01
     alpha-beta  T2 =       0.1244048600D+00 E2=     -0.4627617450D+00
     beta-beta   T2 =       0.2209103709D-01 E2=     -0.7677162480D-01
 ANorm=    0.1081011995D+01
 E2 =    -0.6163049946D+00 EUMP2 =    -0.16962075557581D+03
          IDoAtm=111111
          Differentiating once with respect to electric field.
                with respect to dipole field.
          Differentiating once with respect to nuclear coordinates.
 Keep R1 ints in memory in symmetry-blocked form, NReq=349204137.
          There are     1 degrees of freedom in the 1st order CPHF.  IDoFFX=0 NUNeed=     1.
 LinEq1:  Iter=  0 NonCon=     1 RMS=4.52D-03 Max=1.00D-01 NDo=     1
 AX will form     1 AO Fock derivatives at one time.
 LinEq1:  Iter=  1 NonCon=     1 RMS=1.33D-03 Max=1.81D-02 NDo=     1
 LinEq1:  Iter=  2 NonCon=     1 RMS=4.82D-04 Max=5.55D-03 NDo=     1
 LinEq1:  Iter=  3 NonCon=     1 RMS=2.18D-04 Max=2.97D-03 NDo=     1
 LinEq1:  Iter=  4 NonCon=     1 RMS=4.95D-05 Max=5.65D-04 NDo=     1
 LinEq1:  Iter=  5 NonCon=     1 RMS=8.60D-06 Max=1.01D-04 NDo=     1
 LinEq1:  Iter=  6 NonCon=     1 RMS=1.95D-06 Max=2.19D-05 NDo=     1
 LinEq1:  Iter=  7 NonCon=     1 RMS=5.79D-07 Max=6.95D-06 NDo=     1
 LinEq1:  Iter=  8 NonCon=     1 RMS=2.23D-07 Max=4.40D-06 NDo=     1
 LinEq1:  Iter=  9 NonCon=     1 RMS=5.82D-08 Max=9.70D-07 NDo=     1
 LinEq1:  Iter= 10 NonCon=     1 RMS=1.23D-08 Max=1.44D-07 NDo=     1
 LinEq1:  Iter= 11 NonCon=     1 RMS=1.76D-09 Max=1.66D-08 NDo=     1
 LinEq1:  Iter= 12 NonCon=     1 RMS=2.41D-10 Max=1.88D-09 NDo=     1
 LinEq1:  Iter= 13 NonCon=     0 RMS=2.96D-11 Max=2.26D-10 NDo=     1
 Linear equations converged to 1.000D-10 1.000D-09 after    13 iterations.
 End of Minotr F.D. properties file   721 does not exist.
 End of Minotr F.D. properties file   722 does not exist.
 End of Minotr F.D. properties file   788 does not exist.
 Calling FoFJK, ICntrl=  10002127 FMM=F ISym2X=1 I1Cent= 0 IOpClX= 0 NMat=1 NMatS=1 NMatT=0.
 ***** Axes restored to original set *****
 -------------------------------------------------------------------
 Center     Atomic                   Forces (Hartrees/Bohr)
 Number     Number              X              Y              Z
 -------------------------------------------------------------------
      1        6          -0.004013520    0.000010507    0.000037304
      2        8           0.002699302    0.000860344   -0.000022720
      3        7          -0.000063816   -0.001249347   -0.000002819
      4        1           0.000225066    0.000179941   -0.000001599
      5        1           0.001084457    0.000673724   -0.000008232
      6        1           0.000068511   -0.000475169   -0.000001934
 -------------------------------------------------------------------
 Cartesian Forces:  Max     0.004013520 RMS     0.001239294

 GradGradGradGradGradGradGradGradGradGradGradGradGradGradGradGradGradGrad
 Berny optimization.
 Using GEDIIS/GDIIS optimizer.
 FormGI is forming the generalized inverse of G from B-inverse, IUseBI=4.
 Internal  Forces:  Max     0.002830487 RMS     0.000919249
 Search for a local minimum.
 Step number   3 out of a maximum of   25
 All quantities printed in internal units (Hartrees-Bohrs-Radians)
 Mixed Optimization -- En-DIIS/RFO-DIIS
 Update second derivatives using D2CorX and points    1    2    3
 DE= -1.68D-04 DEPred=-1.51D-04 R= 1.11D+00
 TightC=F SS=  1.41D+00  RLast= 3.25D-02 DXNew= 8.4853D-01 9.7606D-02
 Trust test= 1.11D+00 RLast= 3.25D-02 DXMaxT set to 5.05D-01
 The second derivative matrix:
                          R1        R2        R3        R4        R5
           R1           0.84178
           R2           0.04818   0.55278
           R3           0.02803  -0.01819   0.34830
           R4          -0.00400   0.01788  -0.00452   0.44262
           R5          -0.00864  -0.00741   0.00372  -0.00482   0.43375
           A1           0.00472   0.01900  -0.00923   0.02256  -0.00454
           A2           0.00849  -0.02558  -0.00035  -0.00565   0.01700
           A3          -0.05464   0.00255   0.01325  -0.00038   0.01740
           A4          -0.01395   0.01037   0.00312   0.00107  -0.00393
           A5           0.00885  -0.00801  -0.00190  -0.00096   0.00366
           A6           0.00510  -0.00236  -0.00122  -0.00011   0.00027
           D1          -0.00000  -0.00000  -0.00000   0.00000   0.00000
           D2          -0.00000  -0.00000  -0.00000   0.00000   0.00000
           D3           0.00000   0.00000   0.00000  -0.00000  -0.00000
           D4          -0.00000   0.00000   0.00000  -0.00000   0.00000
                          A1        A2        A3        A4        A5
           A1           0.26058
           A2          -0.02836   0.17081
           A3          -0.01865   0.02419   0.17180
           A4           0.00377  -0.00335  -0.01320   0.15911
           A5          -0.00321   0.00400   0.01123   0.00018   0.16030
           A6          -0.00056  -0.00065   0.00197   0.00071  -0.00048
           D1          -0.00000  -0.00000   0.00000  -0.00000   0.00000
           D2          -0.00000  -0.00000   0.00000  -0.00000   0.00000
           D3           0.00000   0.00000  -0.00000   0.00000  -0.00000
           D4          -0.00000   0.00000  -0.00000  -0.00000   0.00000
                          A6        D1        D2        D3        D4
           A6           0.15977
           D1          -0.00000   0.02357
           D2          -0.00000  -0.00000   0.02357
           D3           0.00000   0.00000   0.00000   0.02357
           D4           0.00000   0.00000   0.00000  -0.00000   0.02357
 ITU=  1  1  0
 Use linear search instead of GDIIS.
     Eigenvalues ---    0.02357   0.02357   0.02357   0.13554   0.16001
     Eigenvalues ---    0.16300   0.26391   0.34672   0.43178   0.44404
     Eigenvalues ---    0.55598   0.85476
 RFO step:  Lambda=-2.02583732D-05 EMin= 2.35740641D-02
 Quartic linear search produced a step of  0.12641.
 Iteration  1 RMS(Cart)=  0.00275607 RMS(Int)=  0.00000557
 Iteration  2 RMS(Cart)=  0.00000575 RMS(Int)=  0.00000000
 Iteration  3 RMS(Cart)=  0.00000000 RMS(Int)=  0.00000001
 ClnCor:  largest displacement from symmetrization is 9.50D-09 for atom     1.
 Variable       Old X    -DE/DX   Delta X   Delta X   Delta X     New X
                                 (Linear)    (Quad)   (Total)
    R1        2.30538  -0.00283  -0.00119  -0.00272  -0.00391   2.30147
    R2        2.56179   0.00151   0.00012   0.00310   0.00322   2.56502
    R3        2.07721   0.00024   0.00102   0.00039   0.00140   2.07861
    R4        1.89260   0.00124  -0.00055   0.00318   0.00264   1.89524
    R5        1.89946   0.00045   0.00045   0.00059   0.00105   1.90051
    A1        2.17357   0.00030  -0.00171   0.00307   0.00135   2.17493
    A2        2.14134   0.00002   0.00259  -0.00065   0.00194   2.14328
    A3        1.96827  -0.00032  -0.00087  -0.00242  -0.00329   1.96498
    A4        2.11807  -0.00048  -0.00146  -0.00236  -0.00382   2.11425
    A5        2.07762   0.00039   0.00114   0.00188   0.00302   2.08064
    A6        2.08750   0.00009   0.00032   0.00048   0.00080   2.08830
    D1        3.14159  -0.00000   0.00000   0.00000   0.00000   3.14159
    D2       -0.00000  -0.00000   0.00000  -0.00000   0.00000   0.00000
    D3        0.00000  -0.00000   0.00000  -0.00000   0.00000   0.00000
    D4        3.14159  -0.00000  -0.00000  -0.00000   0.00000  -3.14159
         Item               Value     Threshold  Converged?
 Maximum Force            0.002830     0.000450     NO 
 RMS     Force            0.000919     0.000300     NO 
 Maximum Displacement     0.004989     0.001800     NO 
 RMS     Displacement     0.002757     0.001200     NO 
 Predicted change in Energy=-1.230887D-05
 GradGradGradGradGradGradGradGradGradGradGradGradGradGradGradGradGradGrad

                          Input orientation:                          
 ---------------------------------------------------------------------
 Center     Atomic      Atomic             Coordinates (Angstroms)
 Number     Number       Type             X           Y           Z
 ---------------------------------------------------------------------
      1          6           0       -1.141283    0.079652    0.001082
      2          8           0       -2.317095   -0.237546    0.011136
      3          7           0       -0.105976   -0.798067   -0.010929
      4          1           0       -0.806772    1.127508    0.000837
      5          1           0        0.844673   -0.478621   -0.018886
      6          1           0       -0.299220   -1.785030   -0.011830
 ---------------------------------------------------------------------
                    Distance matrix (angstroms):
                    1          2          3          4          5
     1  C    0.000000
     2  O    1.217887   0.000000
     3  N    1.357349   2.281166   0.000000
     4  H    1.099955   2.035818   2.049169   0.000000
     5  H    2.063030   3.171087   1.002917   2.303760   0.000000
     6  H    2.046040   2.543041   1.005704   2.956459   1.736447
                    6
     6  H    0.000000
 Stoichiometry    CH3NO
 Framework group  CS[SG(CH3NO)]
 Deg. of freedom     9
 Full point group                 CS      NOp   2
 Largest Abelian subgroup         CS      NOp   2
 Largest concise Abelian subgroup C1      NOp   1
                         Standard orientation:                         
 ---------------------------------------------------------------------
 Center     Atomic      Atomic             Coordinates (Angstroms)
 Number     Number       Type             X           Y           Z
 ---------------------------------------------------------------------
      1          6           0       -0.000000    0.421112   -0.000000
      2          8           0       -1.201538    0.222231   -0.000000
      3          7           0        0.943109   -0.555075    0.000000
      4          1           0        0.436889    1.430582    0.000000
      5          1           0        1.920811   -0.331600    0.000000
      6          1           0        0.652841   -1.517980    0.000000
 ---------------------------------------------------------------------
 Rotational constants (GHZ):          73.2972877          11.3518329           9.8295004
 Standard basis: Aug-CC-pVTZ (5D, 7F)
 There are   165 symmetry adapted cartesian basis functions of A'  symmetry.
 There are    75 symmetry adapted cartesian basis functions of A"  symmetry.
 There are   138 symmetry adapted basis functions of A'  symmetry.
 There are    69 symmetry adapted basis functions of A"  symmetry.
   207 basis functions,   297 primitive gaussians,   240 cartesian basis functions
    12 alpha electrons       12 beta electrons
       nuclear repulsion energy        71.1754301099 Hartrees.
 NAtoms=    6 NActive=    6 NUniq=    6 SFac= 1.00D+00 NAtFMM=   60 NAOKFM=F Big=F
 Integral buffers will be    131072 words long.
 Raffenetti 1 integral format.
 Two-electron integral symmetry is turned on.
 One-electron integrals computed using PRISM.
 NBasis=   207 RedAO= T EigKep=  5.60D-05  NBF=   138    69
 NBsUse=   207 1.00D-06 EigRej= -1.00D+00 NBFU=   138    69
 Initial guess from the checkpoint file:  "/scr/Gau-64527.chk"
 B after Tr=    -0.000000    0.000000   -0.000000
         Rot=    0.999998   -0.000000   -0.000000    0.001913 Ang=   0.22 deg.
 Initial guess orbital symmetries:
       Occupied  (A') (A') (A') (A') (A') (A') (A') (A') (A') (A")
                 (A') (A")
       Virtual   (A') (A') (A') (A") (A') (A') (A') (A") (A') (A')
                 (A") (A') (A') (A") (A') (A") (A') (A') (A') (A")
                 (A') (A') (A") (A') (A') (A') (A") (A') (A') (A')
                 (A") (A') (A') (A") (A') (A') (A') (A") (A') (A")
                 (A') (A') (A') (A') (A") (A') (A") (A') (A') (A")
                 (A") (A') (A') (A") (A') (A') (A") (A') (A') (A')
                 (A") (A") (A') (A") (A') (A') (A") (A') (A') (A')
                 (A") (A') (A') (A") (A') (A") (A') (A") (A') (A')
                 (A") (A') (A') (A") (A') (A') (A") (A') (A") (A')
                 (A') (A") (A') (A") (A') (A') (A') (A") (A') (A')
                 (A") (A') (A") (A") (A') (A') (A') (A') (A") (A')
                 (A") (A') (A') (A') (A") (A') (A") (A') (A') (A")
                 (A') (A') (A") (A') (A") (A') (A') (A") (A") (A')
                 (A') (A') (A') (A") (A') (A') (A") (A") (A') (A")
                 (A') (A") (A") (A') (A") (A') (A') (A") (A') (A')
                 (A') (A') (A") (A") (A') (A') (A') (A") (A") (A')
                 (A') (A') (A") (A') (A') (A') (A") (A') (A") (A')
                 (A") (A") (A') (A') (A') (A') (A") (A') (A') (A")
                 (A') (A') (A") (A') (A") (A') (A') (A") (A') (A')
                 (A') (A') (A') (A') (A')
 Keep R1 ints in memory in symmetry-blocked form, NReq=349202805.
 Requested convergence on RMS density matrix=1.00D-08 within 128 cycles.
 Requested convergence on MAX density matrix=1.00D-06.
 Requested convergence on             energy=1.00D-06.
 No special actions if energy rises.
 SCF Done:  E(RHF) =  -169.004541688     A.U. after    9 cycles
            NFock=  9  Conv=0.39D-08     -V/T= 2.0019
 ExpMin= 2.53D-02 ExpMax= 1.53D+04 ExpMxC= 5.22D+02 IAcc=3 IRadAn=         5 AccDes= 0.00D+00
 HarFok:  IExCor=  205 AccDes= 0.00D+00 IRadAn=         5 IDoV=-2 UseB2=F ITyADJ=14
 ICtDFT= 12500011 ScaDFX=  1.000000  1.000000  1.000000  1.000000
 Range of M.O.s used for correlation:     4   207
 NBasis=   207 NAE=    12 NBE=    12 NFC=     3 NFV=     0
 NROrb=    204 NOA=     9 NOB=     9 NVA=   195 NVB=   195

 **** Warning!!: The largest alpha MO coefficient is  0.30093534D+02

 Fully direct method using O(ONN) memory.
 JobTyp=1 Pass  1:  I=   4 to  12 NPSUse= 40 ParTrn=T ParDer=T DoDerP=T.
 Spin components of T(2) and E(2):
     alpha-alpha T2 =       0.2208159199D-01 E2=     -0.7675612994D-01
     alpha-beta  T2 =       0.1243801316D+00 E2=     -0.4627153251D+00
     beta-beta   T2 =       0.2208159199D-01 E2=     -0.7675612994D-01
 ANorm=    0.1080991820D+01
 E2 =    -0.6162275849D+00 EUMP2 =    -0.16962076927333D+03
          IDoAtm=111111
          Differentiating once with respect to electric field.
                with respect to dipole field.
          Differentiating once with respect to nuclear coordinates.
 Keep R1 ints in memory in symmetry-blocked form, NReq=349204137.
          There are     1 degrees of freedom in the 1st order CPHF.  IDoFFX=0 NUNeed=     1.
 LinEq1:  Iter=  0 NonCon=     1 RMS=4.51D-03 Max=9.99D-02 NDo=     1
 AX will form     1 AO Fock derivatives at one time.
 LinEq1:  Iter=  1 NonCon=     1 RMS=1.32D-03 Max=1.82D-02 NDo=     1
 LinEq1:  Iter=  2 NonCon=     1 RMS=4.80D-04 Max=5.52D-03 NDo=     1
 LinEq1:  Iter=  3 NonCon=     1 RMS=2.17D-04 Max=3.02D-03 NDo=     1
 LinEq1:  Iter=  4 NonCon=     1 RMS=4.92D-05 Max=5.59D-04 NDo=     1
 LinEq1:  Iter=  5 NonCon=     1 RMS=8.53D-06 Max=1.00D-04 NDo=     1
 LinEq1:  Iter=  6 NonCon=     1 RMS=1.90D-06 Max=1.86D-05 NDo=     1
 LinEq1:  Iter=  7 NonCon=     1 RMS=5.51D-07 Max=6.45D-06 NDo=     1
 LinEq1:  Iter=  8 NonCon=     1 RMS=1.99D-07 Max=3.18D-06 NDo=     1
 LinEq1:  Iter=  9 NonCon=     1 RMS=4.97D-08 Max=8.30D-07 NDo=     1
 LinEq1:  Iter= 10 NonCon=     1 RMS=1.12D-08 Max=1.68D-07 NDo=     1
 LinEq1:  Iter= 11 NonCon=     1 RMS=1.70D-09 Max=1.79D-08 NDo=     1
 LinEq1:  Iter= 12 NonCon=     1 RMS=2.38D-10 Max=1.89D-09 NDo=     1
 LinEq1:  Iter= 13 NonCon=     0 RMS=2.93D-11 Max=2.25D-10 NDo=     1
 Linear equations converged to 1.000D-10 1.000D-09 after    13 iterations.
 End of Minotr F.D. properties file   721 does not exist.
 End of Minotr F.D. properties file   722 does not exist.
 End of Minotr F.D. properties file   788 does not exist.
 Calling FoFJK, ICntrl=  10002127 FMM=F ISym2X=1 I1Cent= 0 IOpClX= 0 NMat=1 NMatS=1 NMatT=0.
 ***** Axes restored to original set *****
 -------------------------------------------------------------------
 Center     Atomic                   Forces (Hartrees/Bohr)
 Number     Number              X              Y              Z
 -------------------------------------------------------------------
      1        6          -0.000429800    0.000154363    0.000004413
      2        8           0.000146225    0.000166694   -0.000000903
      3        7           0.000271779   -0.000367996   -0.000003529
      4        1          -0.000027311   -0.000078132    0.000000040
      5        1          -0.000052411    0.000037490    0.000000589
      6        1           0.000091519    0.000087580   -0.000000611
 -------------------------------------------------------------------
 Cartesian Forces:  Max     0.000429800 RMS     0.000165679

 GradGradGradGradGradGradGradGradGradGradGradGradGradGradGradGradGradGrad
 Berny optimization.
 Using GEDIIS/GDIIS optimizer.
 FormGI is forming the generalized inverse of G from B-inverse, IUseBI=4.
 Internal  Forces:  Max     0.000394243 RMS     0.000138910
 Search for a local minimum.
 Step number   4 out of a maximum of   25
 All quantities printed in internal units (Hartrees-Bohrs-Radians)
 Mixed Optimization -- En-DIIS/RFO-DIIS
 Swapping is turned off.
 Update second derivatives using D2CorX and points    1    2    3    4
 DE= -1.37D-05 DEPred=-1.23D-05 R= 1.11D+00
 TightC=F SS=  1.41D+00  RLast= 8.75D-03 DXNew= 8.4853D-01 2.6239D-02
 Trust test= 1.11D+00 RLast= 8.75D-03 DXMaxT set to 5.05D-01
 The second derivative matrix:
                          R1        R2        R3        R4        R5
           R1           0.83986
           R2           0.08925   0.52073
           R3           0.01391  -0.01917   0.35303
           R4          -0.01494   0.00965   0.00075   0.45277
           R5          -0.02481  -0.00734   0.00835   0.00384   0.43942
           A1           0.04228   0.00321  -0.01455   0.00949  -0.01080
           A2           0.00771  -0.02987   0.00232  -0.00607   0.01745
           A3          -0.04862   0.00516   0.01102  -0.00276   0.01373
           A4          -0.02451   0.02060   0.00246   0.00248  -0.00449
           A5           0.02198  -0.01769  -0.00220  -0.00354   0.00315
           A6           0.00253  -0.00292  -0.00026   0.00106   0.00133
           D1          -0.00000  -0.00000  -0.00000   0.00000   0.00000
           D2           0.00000  -0.00000  -0.00000  -0.00000  -0.00000
           D3           0.00000   0.00000   0.00000  -0.00000  -0.00000
           D4           0.00000  -0.00000  -0.00000  -0.00000  -0.00000
                          A1        A2        A3        A4        A5
           A1           0.25951
           A2          -0.03146   0.17184
           A3          -0.01427   0.02169   0.17040
           A4           0.00964  -0.00190  -0.01269   0.15572
           A5          -0.00770   0.00211   0.01114   0.00361   0.15703
           A6          -0.00194  -0.00021   0.00156   0.00067  -0.00064
           D1          -0.00000  -0.00000   0.00000  -0.00000   0.00000
           D2          -0.00000  -0.00000   0.00000   0.00000  -0.00000
           D3           0.00000   0.00000  -0.00000   0.00000  -0.00000
           D4          -0.00000  -0.00000   0.00000   0.00000  -0.00000
                          A6        D1        D2        D3        D4
           A6           0.15997
           D1          -0.00000   0.02357
           D2          -0.00000  -0.00000   0.02357
           D3           0.00000   0.00000   0.00000   0.02357
           D4          -0.00000   0.00000  -0.00000  -0.00000   0.02357
 ITU=  1  1  1  0
     Eigenvalues ---    0.02357   0.02357   0.02357   0.12756   0.16011
     Eigenvalues ---    0.16074   0.26176   0.35215   0.44041   0.45087
     Eigenvalues ---    0.51014   0.87200
 En-DIIS/RFO-DIIS/Sim-DIIS IScMMF=       -3 using points:     4    3
 RFO step:  Lambda=-9.58756103D-07.
 DidBck=F Rises=F RFO-DIIS coefs:    1.18967   -0.18967
 Iteration  1 RMS(Cart)=  0.00091203 RMS(Int)=  0.00000046
 Iteration  2 RMS(Cart)=  0.00000047 RMS(Int)=  0.00000001
 ClnCor:  largest displacement from symmetrization is 9.49D-09 for atom     6.
 Variable       Old X    -DE/DX   Delta X   Delta X   Delta X     New X
                                 (Linear)    (Quad)   (Total)
    R1        2.30147  -0.00018  -0.00074   0.00028  -0.00046   2.30101
    R2        2.56502   0.00039   0.00061   0.00029   0.00091   2.56592
    R3        2.07861  -0.00008   0.00027  -0.00036  -0.00009   2.07852
    R4        1.89524  -0.00004   0.00050  -0.00062  -0.00012   1.89511
    R5        1.90051  -0.00010   0.00020  -0.00041  -0.00022   1.90029
    A1        2.17493   0.00019   0.00026   0.00056   0.00082   2.17574
    A2        2.14328  -0.00010   0.00037  -0.00048  -0.00011   2.14317
    A3        1.96498  -0.00009  -0.00062  -0.00008  -0.00070   1.96427
    A4        2.11425  -0.00011  -0.00072  -0.00033  -0.00105   2.11320
    A5        2.08064   0.00013   0.00057   0.00051   0.00108   2.08172
    A6        2.08830  -0.00001   0.00015  -0.00018  -0.00003   2.08826
    D1        3.14159   0.00000   0.00000   0.00000   0.00000   3.14159
    D2        0.00000   0.00000   0.00000  -0.00000  -0.00000   0.00000
    D3        0.00000  -0.00000   0.00000  -0.00000  -0.00000   0.00000
    D4        3.14159  -0.00000   0.00000  -0.00000   0.00000   3.14159
         Item               Value     Threshold  Converged?
 Maximum Force            0.000394     0.000450     YES
 RMS     Force            0.000139     0.000300     YES
 Maximum Displacement     0.001913     0.001800     NO 
 RMS     Displacement     0.000912     0.001200     YES
 Predicted change in Energy=-4.793800D-07
 GradGradGradGradGradGradGradGradGradGradGradGradGradGradGradGradGradGrad

                          Input orientation:                          
 ---------------------------------------------------------------------
 Center     Atomic      Atomic             Coordinates (Angstroms)
 Number     Number       Type             X           Y           Z
 ---------------------------------------------------------------------
      1          6           0       -1.141690    0.079547    0.001086
      2          8           0       -2.317529   -0.236605    0.011143
      3          7           0       -0.106033   -0.798503   -0.010930
      4          1           0       -0.806435    1.127114    0.000833
      5          1           0        0.844223   -0.478098   -0.018881
      6          1           0       -0.298208   -1.785559   -0.011841
 ---------------------------------------------------------------------
                    Distance matrix (angstroms):
                    1          2          3          4          5
     1  C    0.000000
     2  O    1.217642   0.000000
     3  N    1.357829   2.281870   0.000000
     4  H    1.099907   2.035496   2.049073   0.000000
     5  H    2.062818   3.171104   1.002851   2.302557   0.000000
     6  H    2.047009   2.545083   1.005590   2.956708   1.736275
                    6
     6  H    0.000000
 Stoichiometry    CH3NO
 Framework group  CS[SG(CH3NO)]
 Deg. of freedom     9
 Full point group                 CS      NOp   2
 Largest Abelian subgroup         CS      NOp   2
 Largest concise Abelian subgroup C1      NOp   1
                         Standard orientation:                         
 ---------------------------------------------------------------------
 Center     Atomic      Atomic             Coordinates (Angstroms)
 Number     Number       Type             X           Y           Z
 ---------------------------------------------------------------------
      1          6           0       -0.000000    0.420882    0.000000
      2          8           0       -1.201558    0.223629    0.000000
      3          7           0        0.942949   -0.556126   -0.000000
      4          1           0        0.438090    1.429779    0.000000
      5          1           0        1.920465   -0.332133   -0.000000
      6          1           0        0.653268   -1.519089   -0.000000
 ---------------------------------------------------------------------
 Rotational constants (GHZ):          73.3538047          11.3448615           9.8252876
 Standard basis: Aug-CC-pVTZ (5D, 7F)
 There are   165 symmetry adapted cartesian basis functions of A'  symmetry.
 There are    75 symmetry adapted cartesian basis functions of A"  symmetry.
 There are   138 symmetry adapted basis functions of A'  symmetry.
 There are    69 symmetry adapted basis functions of A"  symmetry.
   207 basis functions,   297 primitive gaussians,   240 cartesian basis functions
    12 alpha electrons       12 beta electrons
       nuclear repulsion energy        71.1692527366 Hartrees.
 NAtoms=    6 NActive=    6 NUniq=    6 SFac= 1.00D+00 NAtFMM=   60 NAOKFM=F Big=F
 Integral buffers will be    131072 words long.
 Raffenetti 1 integral format.
 Two-electron integral symmetry is turned on.
 One-electron integrals computed using PRISM.
 NBasis=   207 RedAO= T EigKep=  5.60D-05  NBF=   138    69
 NBsUse=   207 1.00D-06 EigRej= -1.00D+00 NBFU=   138    69
 Initial guess from the checkpoint file:  "/scr/Gau-64527.chk"
 B after Tr=     0.000000   -0.000000    0.000000
         Rot=    1.000000   -0.000000    0.000000    0.000402 Ang=   0.05 deg.
 Initial guess orbital symmetries:
       Occupied  (A') (A') (A') (A') (A') (A') (A') (A') (A') (A")
                 (A') (A")
       Virtual   (A') (A') (A') (A") (A') (A') (A') (A") (A') (A')
                 (A") (A') (A') (A") (A') (A") (A') (A') (A') (A")
                 (A') (A') (A") (A') (A') (A') (A") (A') (A') (A')
                 (A") (A') (A') (A") (A') (A') (A') (A") (A') (A")
                 (A') (A') (A') (A') (A") (A') (A") (A') (A') (A")
                 (A") (A') (A') (A") (A') (A') (A") (A') (A') (A')
                 (A") (A") (A') (A") (A') (A') (A") (A') (A') (A')
                 (A") (A') (A') (A") (A') (A") (A') (A") (A') (A')
                 (A") (A') (A') (A") (A') (A') (A") (A') (A") (A')
                 (A') (A") (A') (A") (A') (A') (A') (A") (A') (A')
                 (A") (A') (A") (A") (A') (A') (A') (A") (A') (A')
                 (A") (A') (A') (A') (A") (A') (A") (A') (A') (A")
                 (A') (A') (A") (A') (A") (A') (A') (A") (A") (A')
                 (A') (A') (A') (A") (A') (A') (A") (A") (A') (A")
                 (A') (A") (A") (A') (A") (A') (A') (A") (A') (A')
                 (A') (A') (A") (A") (A') (A') (A') (A") (A") (A')
                 (A') (A') (A') (A") (A') (A') (A") (A') (A") (A')
                 (A") (A") (A') (A') (A') (A') (A") (A') (A') (A")
                 (A') (A') (A") (A') (A") (A') (A') (A") (A') (A')
                 (A') (A') (A') (A') (A')
 Keep R1 ints in memory in symmetry-blocked form, NReq=349202805.
 Requested convergence on RMS density matrix=1.00D-08 within 128 cycles.
 Requested convergence on MAX density matrix=1.00D-06.
 Requested convergence on             energy=1.00D-06.
 No special actions if energy rises.
 SCF Done:  E(RHF) =  -169.004554859     A.U. after    7 cycles
            NFock=  7  Conv=0.66D-08     -V/T= 2.0019
 ExpMin= 2.53D-02 ExpMax= 1.53D+04 ExpMxC= 5.22D+02 IAcc=3 IRadAn=         5 AccDes= 0.00D+00
 HarFok:  IExCor=  205 AccDes= 0.00D+00 IRadAn=         5 IDoV=-2 UseB2=F ITyADJ=14
 ICtDFT= 12500011 ScaDFX=  1.000000  1.000000  1.000000  1.000000
 Range of M.O.s used for correlation:     4   207
 NBasis=   207 NAE=    12 NBE=    12 NFC=     3 NFV=     0
 NROrb=    204 NOA=     9 NOB=     9 NVA=   195 NVB=   195

 **** Warning!!: The largest alpha MO coefficient is  0.30075577D+02

 Fully direct method using O(ONN) memory.
 JobTyp=1 Pass  1:  I=   4 to  12 NPSUse= 40 ParTrn=T ParDer=T DoDerP=T.
 Spin components of T(2) and E(2):
     alpha-alpha T2 =       0.2208038308D-01 E2=     -0.7675296043D-01
     alpha-beta  T2 =       0.1243767034D+00 E2=     -0.4627090101D+00
     beta-beta   T2 =       0.2208038308D-01 E2=     -0.7675296043D-01
 ANorm=    0.1080989116D+01
 E2 =    -0.6162149309D+00 EUMP2 =    -0.16962076978980D+03
          IDoAtm=111111
          Differentiating once with respect to electric field.
                with respect to dipole field.
          Differentiating once with respect to nuclear coordinates.
 Keep R1 ints in memory in symmetry-blocked form, NReq=349204137.
          There are     1 degrees of freedom in the 1st order CPHF.  IDoFFX=0 NUNeed=     1.
 LinEq1:  Iter=  0 NonCon=     1 RMS=4.51D-03 Max=9.99D-02 NDo=     1
 AX will form     1 AO Fock derivatives at one time.
 LinEq1:  Iter=  1 NonCon=     1 RMS=1.32D-03 Max=1.82D-02 NDo=     1
 LinEq1:  Iter=  2 NonCon=     1 RMS=4.79D-04 Max=5.51D-03 NDo=     1
 LinEq1:  Iter=  3 NonCon=     1 RMS=2.17D-04 Max=3.02D-03 NDo=     1
 LinEq1:  Iter=  4 NonCon=     1 RMS=4.92D-05 Max=5.59D-04 NDo=     1
 LinEq1:  Iter=  5 NonCon=     1 RMS=8.52D-06 Max=1.02D-04 NDo=     1
 LinEq1:  Iter=  6 NonCon=     1 RMS=1.89D-06 Max=1.81D-05 NDo=     1
 LinEq1:  Iter=  7 NonCon=     1 RMS=5.50D-07 Max=6.39D-06 NDo=     1
 LinEq1:  Iter=  8 NonCon=     1 RMS=1.96D-07 Max=2.99D-06 NDo=     1
 LinEq1:  Iter=  9 NonCon=     1 RMS=4.81D-08 Max=7.94D-07 NDo=     1
 LinEq1:  Iter= 10 NonCon=     1 RMS=1.09D-08 Max=1.71D-07 NDo=     1
 LinEq1:  Iter= 11 NonCon=     1 RMS=1.69D-09 Max=1.82D-08 NDo=     1
 LinEq1:  Iter= 12 NonCon=     1 RMS=2.37D-10 Max=1.92D-09 NDo=     1
 LinEq1:  Iter= 13 NonCon=     0 RMS=2.92D-11 Max=2.25D-10 NDo=     1
 Linear equations converged to 1.000D-10 1.000D-09 after    13 iterations.
 End of Minotr F.D. properties file   721 does not exist.
 End of Minotr F.D. properties file   722 does not exist.
 End of Minotr F.D. properties file   788 does not exist.
 Calling FoFJK, ICntrl=  10002127 FMM=F ISym2X=1 I1Cent= 0 IOpClX= 0 NMat=1 NMatS=1 NMatT=0.
 ***** Axes restored to original set *****
 -------------------------------------------------------------------
 Center     Atomic                   Forces (Hartrees/Bohr)
 Number     Number              X              Y              Z
 -------------------------------------------------------------------
      1        6           0.000082383    0.000044971   -0.000000642
      2        8          -0.000072472   -0.000001129    0.000000670
      3        7          -0.000041969   -0.000045049    0.000000267
      4        1          -0.000012260   -0.000029397    0.000000034
      5        1           0.000021288    0.000018772   -0.000000146
      6        1           0.000023031    0.000011833   -0.000000182
 -------------------------------------------------------------------
 Cartesian Forces:  Max     0.000082383 RMS     0.000033620

 GradGradGradGradGradGradGradGradGradGradGradGradGradGradGradGradGradGrad
[...]
 588,0.00803958,0.00004366,0.00183564,-0.00139162,-0.00002077,0.0048723
 6,0.00097081,-0.00006388,-0.00287325,-0.00549164,-0.00005607,0.0000181
 1,-0.00299820,-0.00000155,-0.00001679,-0.00003052,0.00011494,-0.000002
 22,0.00778879,0.00000176,0.00001429,-0.00095083,-0.00037509,0.00155221
 ,0.00003819,-0.00151882,-0.00000954,-0.00001821,0.25862739,0.10662828,
 -0.00302628,-0.00077833,0.00015647,0.00001990,-0.25937787,-0.00521431,
 -0.00172674,0.00003475,-0.00146111,0.00105323,0.00002594,0.09721771,0.
 02546070,-0.00056421,-0.00041102,0.00006828,0.00000040,-0.10743757,-0.
 02665117,0.00001971,-0.00002808,0.00327993,-0.00002217,0.00001246,-0.0
 0347674,-0.00305198,-0.00065160,-0.09854705,0.00001835,-0.00000487,0.0
 0131810,0.00306989,0.00064445,0.10272876,-0.00373176,-0.01352093,0.000
 00940,-0.00259633,0.00219203,0.00006914,-0.01219620,0.12886730,-0.0012
 6679,0.00263111,-0.00253534,-0.00007898,0.00342271,0.01730630,-0.00003
 379,0.01247046,0.00665278,-0.01256970,-0.00009954,-0.00202011,-0.00008
 451,0.00000705,0.12621888,0.55409775,0.00085002,0.00234766,-0.00219542
 ,-0.00001380,-0.00088985,0.00179571,0.00002764,-0.13230937,-0.54104383
 ,0.00006448,0.00008782,0.00125577,0.00005764,-0.00003207,0.00420335,-0
 .00127402,0.00082541,-0.18647189,-0.00006565,0.00003156,-0.00512733,-0
 .00008347,-0.00014134,-0.00530300,0.00130102,-0.00077138,0.19144310,-0
 .09481692,-0.19497474,-0.56114613,0.00094895,0.00010187,0.06467797,0.0
 6509071,0.04529511,-0.00032128,-0.06476884,0.01043869,0.02962610,-0.00
 006295,-0.01842519,-0.01119329,-0.00041646,-0.00038668,0.01718201,0.00
 059056,0.00012899,0.00423125,0.00719312,-0.01553501,0.00007880,0.00464
 187,0.00264890,-0.00010974,-0.01261280,0.01909386,0.03618617,-0.000133
 80,-0.01016080,-0.00404956,0.00010502,0.00527545,-0.03864635,0.0001733
 5,0.00018782,0.02024371,-0.00014472,-0.00001394,-0.00795157,0.00015418
 ,-0.00016118,0.00243572,0.02757121,0.16700595,-0.00078140,-0.00702007,
 0.00428122,-0.00004328,-0.00125173,-0.01400818,-0.00012262,-0.02095822
 ,0.16136927,0.49515391,0.00014193,-0.01581760,-0.01462704,0.00014229,0
 .01024613,-0.01265592,-0.00010150,-0.15619614,-0.46595836,-0.00079679,
 0.00008957,-0.10565965,-0.00009816,-0.00004437,-0.01293845,-0.00005639
 ,0.00012376,-0.01033507,0.00100101,-0.00018419,0.13273827,-0.00019600,
 0.00125930,-0.00001136,0.00034590,-0.00003421,-0.00000336,0.00044468,-
 0.00227375,-0.00002090,-0.00011463,-0.00032805,0.00000908,-0.00065335,
 0.00112920,-0.00102441,-0.00000839,-0.00035434,-0.00034737,0.00000236,
 -0.00184758,0.00259618,0.00002735,-0.00021444,0.00051865,0.00000079,0.
 00102800,-0.00118413,-0.00001172,-0.00000961,-0.00178957,-0.00000424,-
 0.00000061,-0.00000621,-0.00001973,0.00003131,-0.00113654,0.00000939,0
 .00000184,0.00095935,0.00002034,-0.00001615,0.00123404,-0.00484208,-0.
 00305062,0.00008630,0.00171043,0.00109058,-0.00001771,0.00158484,0.002
 07342,-0.00003930,0.00177343,0.00072640,-0.00005874,0.00017340,0.00025
 916,0.00000596,-0.00040003,0.00294371,0.00120436,-0.00003866,-0.000537
 18,0.00059115,0.00000802,-0.00078790,0.01656947,0.00006146,-0.00086840
 ,-0.00243124,0.00001444,0.00034871,-0.00055893,-0.00000678,-0.00109893
 ,-0.01537478,0.00010266,0.00001702,0.00534553,-0.00002216,-0.00000710,
 -0.00051703,-0.00004712,0.00003488,-0.00325624,-0.00006310,-0.00000038
 ,-0.00476445,0.00000620,-0.00000595,0.00073893,0.00002350,-0.00003847,
 0.00245326,0.02595180,-0.05437202,0.01527529,-0.00063161,0.00061787,-0
 .02606325,-0.01644506,-0.00425279,0.00018003,0.03080682,-0.00584642,0.
 00063858,0.00004460,0.00344790,-0.00317339,0.00017568,0.00002980,0.004
 18884,-0.00034518,-0.00002055,-0.00737079,0.00230350,0.06542413,0.0003
 2849,-0.00852247,-0.00260841,0.00010427,-0.22081289,0.06314159,-0.0175
 8175,-0.00068477,0.00473613,-0.00161971,-0.00005789,-0.26894555,-0.191
 87686,0.00032225,-0.00070597,0.01843199,0.00012433,0.00001032,0.003470
 99,0.00172930,0.00185243,0.04445132,0.00731619,0.00514132,-0.00005768,
 -0.00285289,0.00159456,0.00002995,-0.00920695,-0.00289932,0.00005983,0
 .00307381,0.00820250,0.02238859,-0.00001393,-0.00017445,-0.00110868,-0
 .00000114,0.00508309,0.00037099,-0.00004097,-0.01126083,-0.01861953,-0
 .00004932,0.00001449,-0.00040442,0.00002512,-0.00001757,-0.00009729,0.
 00008162,0.00003316,-0.00191331,-0.00004615,0.00004988,0.00141426,-0.0
 1737448,-0.00026590,0.00018714,-0.00203421,0.00202500,0.00002188,0.277
 11099,0.12898847,-0.00255713,-0.00084964,-0.00038830,0.00001744,-0.254
 46941,-0.01236813,-0.01414454,0.00006845,-0.00352888,0.00467790,0.0000
 4629,0.13112098,-0.01461933,-0.00115897,0.00667496,-0.00298862,-0.0000
 7327,-0.13278286,0.02639593,0.00015410,-0.00004395,0.00285223,0.000006
 71,-0.00000529,-0.00027386,-0.00255130,-0.00113916,-0.03612890,0.00003
 672,-0.00000767,0.00114167,0.00228766,0.00122092,0.03087469,-0.0017519
 3,-0.01167474,-0.00000637,-0.00095221,0.00138735,0.00001340,-0.0408722
 1,0.07497867,0.00032142,0.00251946,-0.00146200,-0.00002870,-0.00238325
 ,0.01088393,0.00006611,0.04344014,0.00124247,-0.00657616,-0.00003221,-
 0.00022792,0.00058528,0.00000349,0.06992575,0.22532664,0.00004317,0.00
 074933,-0.00004275,-0.00000669,0.00242360,0.00067866,-0.00002485,-0.07
 411322,-0.21997166,0.00002890,0.00008776,0.00099461,0.00000899,-0.0000
 1151,0.00008211,0.00030762,-0.00000377,-0.02831210,-0.00002266,0.00001
 385,-0.00014091,0.00004301,-0.00010342,0.00153418,-0.00036585,0.000017
 09,0.02584212,0.12185209,-0.18009670,0.02815049,-0.00211188,0.00189312
 ,-0.05256657,0.06710036,0.02087369,-0.00058580,-0.06306323,0.02592242,
 0.00080773,-0.00023278,-0.02636685,0.00104419,-0.00057203,-0.00018588,
 -0.00211028,0.00055923,0.00023433,0.00489977,-0.20273545,0.16342561,0.
 00278136,0.00238323,0.00076641,-0.00003371,0.19767509,0.14429788,-0.00
 877694,-0.00149709,0.00668934,-0.00389977,-0.00006876,-0.22261588,-0.1
 6377900,0.00272919,-0.00167472,0.04867216,-0.00001758,-0.00001374,-0.0
 0147063,-0.00267868,0.00168949,-0.02526677,0.00664669,0.00124188,-0.00
 006426,-0.00293885,0.00096729,0.00002194,0.00037403,0.00192680,0.00003
 117,-0.00392541,0.00592079,0.00912268,-0.00002834,-0.00053229,-0.00086
 654,0.00000493,0.00092587,-0.00971269,-0.00004375,-0.00561005,0.002424
 62,-0.00005149,0.00001510,-0.00063844,0.00001785,-0.00000899,-0.000861
 07,0.00002846,-0.00005306,0.00316453,-0.00000263,0.00006571,-0.0025577
 9,-0.00013654,0.00330317,0.00002960,0.00012226,-0.00115861,-0.00000552
 ,0.01951991,0.01048653,-0.00020615,-0.00024231,-0.00030222,-0.00000543
 ,-0.01928353,0.00019729,-0.00561526,-0.00002282,-0.00105802,0.00184768
 ,0.00001523,0.00794823,0.00873015,-0.00003421,0.00058906,0.00046483,-0
 .00000219,-0.01210224,-0.00130657,0.00002111,-0.00005169,0.00207996,-0
 .00000524,0.00001616,-0.00013094,-0.00021311,-0.00005778,-0.00576999,-
 0.00000299,0.00000609,-0.00073812,0.00017255,0.00010101,0.00285888,0.0
 0727288,-0.00874766,-0.00004903,-0.00360378,-0.00013067,0.00003008,-0.
 01721682,0.05921531,0.00014204,0.00008584,-0.00040210,0.00001325,0.000
 02021,0.00442567,0.00002768,0.01344167,0.00375830,-0.02368868,-0.00011
 208,0.00039411,0.00106670,0.00000015,0.04954976,0.17743826,0.00007694,
 0.00088503,-0.00143290,-0.00001657,-0.00022664,-0.00412083,-0.00001380
 ,-0.05436056,-0.14926254,-0.00001491,0.00000408,0.00456317,0.00003154,
 0.00000502,-0.00032684,0.00011569,-0.00001281,-0.01932931,0.00001676,-
 0.00000464,0.00163090,0.00001496,-0.00005701,0.00170022,-0.00016403,0.
 00006536,0.01176186,0.04312984,-0.18673116,-0.50450069,-0.00104387,0.0
 0039583,-0.01435692,-0.04709260,0.01251673,0.00074556,0.05586837,-0.03
 579090,0.04002082,0.00036112,0.02535912,-0.00581736,0.00061364,-0.0000
 8753,0.02949887,-0.00073155,-0.00016851,-0.03035041,0.00195393,-0.0077
 3527,0.00006629,0.00179525,0.00534158,-0.00001968,-0.02426947,0.027996
 66,0.01902177,-0.00023909,-0.00137789,0.00307503,0.00002637,-0.0058111
 2,-0.00424856,0.00016382,0.00009277,0.01136173,-0.00003801,-0.00003604
 ,-0.00189377,0.00014929,0.00006006,-0.00649392,0.00461331,0.18437887,0
 .00018651,-0.01123912,0.00467769,0.00014707,-0.00027904,-0.02973870,-0
 .00008014,0.00358541,0.19054947,0.44864823,-0.00046400,-0.03485591,-0.
 03842496,0.00020999,0.00449090,-0.02331739,-0.00010493,-0.15987468,-0.
 38239481,0.00020336,-0.00040669,-0.02951780,0.00003912,-0.00015717,0.0
 0322035,0.00001332,0.00021296,-0.00016468,-0.00022262,0.00036793,0.026
 62343,0.00015573,-0.00110492,-0.00002612,-0.00017495,0.00079456,0.0000
 1015,0.02055434,0.00760327,-0.00018234,-0.00071026,0.00030025,0.000019
 04,-0.01962938,0.00135424,-0.00097329,-0.00000888,-0.00225290,-0.00097
 597,0.00001639,0.00492379,-0.00122683,-0.00004556,0.00263215,-0.000590
 56,-0.00002947,-0.00743827,0.00385431,-0.00001938,0.00001396,-0.002329
 09,0.00000180,-0.00001191,0.00068360,-0.00018964,-0.00007040,-0.001302
 95,0.00002540,-0.00000782,0.00125067,0.00017438,0.00007602,0.00132131,
 -0.00276018,-0.00132426,0.00007163,0.00084302,-0.00038206,-0.00001963,
 0.00024496,0.00132776,-0.00001260,0.00402969,-0.00061001,-0.00005221,-
 0.00019548,0.00078099,0.00000743,-0.00216201,0.00262168,-0.00221683,-0
 .00004497,0.00061085,0.00212242,0.00000328,-0.00120989,0.00669597,0.00
 003370,-0.00207532,-0.00392054,0.00001243,-0.00015490,-0.00008766,0.00
 000015,0.00020758,-0.00259335,0.00008243,-0.00000834,0.00534323,-0.000
 01692,0.00001251,-0.00115864,-0.00001958,0.00001010,-0.00150642,-0.000
 05621,-0.00000118,-0.00141198,0.00000489,-0.00000850,0.00037646,0.0000
 0539,-0.00000459,-0.00164265,0.04999545,-0.01185133,-0.02879293,-0.000
 80064,0.00012092,-0.03271917,-0.04182855,-0.01194489,0.00045845,0.0512
 9360,-0.00484433,0.01210184,0.00004796,0.00623288,-0.01059521,0.000477
 93,0.00011387,0.01103025,-0.00055940,-0.00005746,-0.01075329,0.0029717
 3,0.03435897,0.00012839,-0.00129787,-0.00011301,0.00003499,-0.55690057
 ,0.04078502,0.04207346,-0.00028199,0.01023976,-0.00542452,-0.00011675,
 -0.30671891,-0.50786105,0.00014571,-0.00022246,0.00669062,0.00006330,-
 0.00002061,0.00250547,0.00491676,0.00129045,0.06263861,0.00357926,-0.0
 0081821,-0.00001982,-0.00144669,-0.00052124,0.00001218,-0.00492695,-0.
 00072346,0.00003285,0.00076083,-0.00443847,0.00439057,0.00004829,0.000
 82758,-0.00119666,-0.00001100,0.00811137,-0.00004877,-0.00007223,-0.00
 091712,-0.00068517,-0.00002969,0.00001477,0.00168976,0.00001591,0.0000
 0148,0.00002371,0.00005693,0.00000977,-0.00117794,-0.00002262,0.000010
 75,-0.00141125,-0.01802276,0.00402350,0.00023572,-0.00176634,0.0013054
 2,0.00001286,0.56693345,0.20851315,-0.00508144,-0.00021679,-0.00056857
 ,0.00000292,-0.51192696,-0.02333889,-0.01317935,0.00016390,-0.00379473
 ,0.00481918,0.00005047,0.16775684,0.01036915,-0.00141630,0.00177901,-0
 .00227256,-0.00002345,-0.18112906,0.03033490,0.00016101,-0.00009019,0.
 00617156,-0.00000103,0.00000313,-0.00076501,-0.00519274,-0.00179480,-0
 .04147794,0.00000934,-0.00000169,0.00026655,0.00453983,0.00168264,0.03
 012481,0.00330491,-0.01376804,-0.00000208,-0.00495416,-0.00205973,0.00
 002144,-0.00677981,0.04790444,-0.00007718,0.00225031,-0.00301479,-0.00
 002346,-0.03500060,0.03872684,0.00048358,0.04117934,0.00368799,-0.0165
 9357,-0.00009906,-0.00156061,0.00029537,0.00002087,0.09660476,0.460891
 74,0.00044114,0.00120103,-0.00018743,-0.00001333,-0.03214445,-0.030071
 31,0.00020091,-0.06778873,-0.41433478,0.00004567,0.00006309,0.00713699
 ,0.00002277,0.00002551,-0.00204113,0.00005568,0.00089333,-0.02917881,-
 0.00001194,0.00002588,0.00060917,0.00029012,-0.00045727,0.00568003,-0.
 00040230,-0.00055053,0.01779376,0.99286828,0.24307713,-0.07057221,-0.0
 1040759,-0.00190623,-0.19913191,-0.98584793,-0.35136610,0.00978221,0.9
 9667957,-0.35299709,0.06674076,0.00299440,0.34847164,-0.06455568,0.009
 77776,0.00297925,0.17066309,-0.00989300,-0.00294573,-0.17090833,-0.001
 95772,0.07355695,0.00048955,-0.00614047,0.00197563,0.00005562,-0.00271
 792,0.08534014,-0.07683789,-0.00108190,0.00199078,0.00148634,-0.000012
 43,-0.09838321,0.02030686,0.00052170,-0.00097251,0.02911927,0.00005565
 ,-0.00001229,-0.00073314,-0.00049163,0.00104212,-0.02672006,0.00067498
 ,0.03623348,0.00006094,-0.00267495,0.00216766,0.00003526,0.00137093,-0
 .00286647,-0.00001881,-0.00125741,0.02474052,0.07996326,-0.00000210,-0
 .00266771,-0.00377369,0.00001315,0.01198972,-0.00278075,-0.00011945,-0
 .03378747,-0.07102046,0.00002956,-0.00010884,-0.00341788,0.00002205,-0
 .00003176,0.00048407,0.00002176,0.00001851,0.00018875,-0.00004990,0.00
 011084,0.00330508,-0.00213629,0.00066098,0.00003851,-0.00182612,0.0007
 2733,0.00002107,0.00891511,-0.00082388,-0.00008361,0.00044797,0.000854
 74,0.00000289,-0.00425106,-0.00176910,0.00196544,0.00001683,0.00125385
 ,-0.00078444,-0.00001441,0.00212677,0.00659428,-0.00000215,-0.00141882
 ,-0.00110327,0.00000878,-0.00107586,-0.00422122,0.00003189,-0.00000573
 ,0.00181644,0.00002252,-0.00000952,0.00022900,-0.00007557,0.00002525,0
 .00015175,-0.00000332,-0.00001234,0.00050715,0.00000631,0.00000733,-0.
 00325064,-0.00360129,-0.00216243,0.00003637,-0.00019012,-0.00034516,0.
 00000329,0.00053005,0.01474263,0.00001671,0.00143845,-0.00112981,-0.00
 002636,-0.00114961,0.00088315,0.00001816,0.00297252,0.00160837,-0.0012
 5936,-0.00002099,0.00231754,0.00088667,-0.00001983,0.00873414,0.051231
 17,0.00006427,-0.00032835,-0.00128510,0.00000246,-0.00034332,-0.002450
 80,-0.00000499,-0.01198838,-0.04712258,0.00004668,0.00001405,0.0009510
 0,0.00001055,0.00000490,0.00026529,0.00000027,0.00000845,-0.00200656,-
 0.00002416,0.00000990,-0.00106717,0.00001483,-0.00001638,0.00054630,-0
 .00004817,-0.00002092,0.00131113,-0.22845738,1.11276127,2.69736391,-0.
 00036166,-0.00134557,-0.59456882,-0.00489832,-0.01714861,-0.00013781,-
 0.00324783,0.03150906,-0.00269793,-0.00025987,-0.02304915,-0.01122829,
 -0.00000493,0.00019203,-0.01469365,0.00003631,0.00016309,0.00743874,0.
 01312964,-0.00257646,-0.00021914,-0.00217335,-0.00065925,0.00001681,-0
 .00559505,-0.04240123,0.00437275,0.00043228,0.00085326,-0.00768610,-0.
 00002845,0.00736343,-0.01735838,-0.00032792,0.00006237,-0.00970745,0.0
 0002094,-0.00001441,-0.00017011,0.00008190,-0.00011874,0.00106298,0.22
 297157,-1.10122842,0.00069333,0.00915757,-0.00762275,-0.00004457,-0.00
 870338,0.03810388,0.00025829,-0.21970767,-1.10438488,-2.69754838,0.001
 19397,0.03976244,0.02163942,-0.00032822,-0.00100338,0.01845888,0.00003
 814,1.07105224,2.65461666,0.00068473,0.00116467,0.62140048,0.00008482,
 0.00011187,0.00659957,0.00015150,-0.00032506,0.00790227,-0.00095129,-0
 .00095893,-0.63703625,-0.00179112,0.00451107,0.00004475,0.00089747,-0.
 00133155,-0.00001139,0.00070506,-0.00102431,-0.00002470,-0.00052469,-0
 .00180718,-0.00001229,0.00059081,0.00211101,-0.00146168,-0.00002826,0.
 00033329,0.00055907,-0.00000174,-0.00023229,0.00200631,0.00001219,-0.0
 0227414,0.00157515,0.00002902,-0.00009727,-0.00221349,0.00003821,-0.00
 005052,0.00170108,-0.00000682,0.00001372,0.00006336,-0.00002256,0.0000
 1952,-0.00165897,-0.00001357,0.00002468,-0.00131626,0.00000023,-0.0000
 0693,0.00065040,-0.00095438,0.00368114,-0.00001946,0.00026445,0.001153
 63,0.00000777,0.00263705,-0.00289505,-0.00000851,-0.00319342,-0.003619
 23,0.00004253,0.00012250,0.00015940,0.00000450,0.00112379,0.00040476,-
 0.00002867,0.00000745,-0.00075124,-0.00058617,0.00000329,-0.00289203,0
 .00020656,0.00002045,0.00196919,0.00125825,-0.00002156,-0.00025078,-0.
 00046536,-0.00000046,0.00152010,-0.00038462,-0.00002842,-0.00002297,-0
 .00413161,0.00000256,-0.00001439,0.00076209,-0.00000851,0.00002046,0.0
 0257128,0.00005781,0.00003036,0.00245018,0.00000341,-0.00000427,0.0005
 6040,-0.00002684,-0.00000918,-0.00221234,-0.01882246,-0.00255228,-0.01
 814660,0.00009295,-0.00000391,-0.00805280,0.00836982,-0.00318007,-0.00
 008000,-0.00552294,0.00359727,0.00585277,-0.00001921,-0.00019255,-0.00
 395705,-0.00006144,0.00004370,0.00067713,0.00005122,-0.00000921,0.0000
 5896,0.01238702,-0.01813974,-0.00018310,-0.00708587,-0.00065981,0.0000
 7472,1.24538271,-0.01246307,0.00356971,0.00013093,0.00323874,-0.001189
 39,-0.00003649,1.55023314,2.83673602,-0.00016764,0.00018368,-0.0019956
 0,0.00008540,-0.00000027,0.00115722,-0.01743266,-0.00368200,-1.0873094
 9,0.00356235,0.00064596,-0.00000574,-0.00042562,-0.00012996,-0.0000007
 4,-0.00071971,0.00064349,-0.00000798,-0.00248603,-0.00312248,0.0001063
 8,0.00002173,0.00067951,0.00004559,-0.00000492,0.00068070,-0.00163069,
 -0.00000592,0.00167108,-0.00050049,-0.00001609,-0.00001319,0.00275476,
 0.00000151,0.00000255,-0.00046117,-0.00000789,-0.00000563,-0.00176708,
 0.00002056,-0.00001477,-0.00077170,-0.00018976,-0.00083036,0.00001836,
 0.00114369,0.00053904,-0.00000528,-1.68434268,-0.78657701,0.01743144,0
 .00095926,-0.00085139,-0.00001745,1.67221553,0.01634749,0.00197925,-0.
 00015196,0.00065898,-0.00166505,-0.00001182,-0.75007538,0.08672569,0.0
 0604561,-0.00227137,0.00086278,0.00002530,0.77147318,-0.10233136,0.000
 06528,0.00000755,0.00203248,-0.00000496,-0.00001069,0.00041775,0.01753
 111,0.00638468,0.42369334,-0.00002133,0.00001209,-0.00066928,-0.017469
 24,-0.00625487,-0.43545279,-0.00530694,0.02405650,0.00015756,0.0035209
 2,-0.00315399,-0.00005849,0.43437853,-0.75507531,0.00009144,-0.0008902
 8,0.00094259,0.00001933,0.01021397,-0.03613289,-0.00010086,-0.44191619
 ,-0.00180695,0.00663848,0.00002243,-0.00120462,0.00091312,0.00001874,-
 0.78203891,-2.92421134,-0.00254109,-0.00055918,0.00111641,0.00000573,0
 .01624654,0.01442868,-0.00013875,0.76936311,2.90111465,0.00008695,-0.0
 0021782,0.00458402,-0.00005318,0.00003684,-0.00184990,0.00001782,-0.00
 279149,0.66622161,0.00001523,-0.00000821,0.00091446,0.00004217,0.00034
 774,0.00997851,-0.00010899,0.00263294,-0.67984871,-0.02592964,0.014580
 75,-0.01850165,0.00032612,-0.00019934,0.00489318,0.00478751,-0.0058082
 9,-0.00005212,-0.00376069,0.00295398,0.00418263,-0.00001842,0.00139794
 ,-0.00312675,-0.00002821,0.00006295,0.00088559,0.00003206,-0.00001955,
 -0.00072259,0.01592646,-0.02495627,-0.00027288,-0.00370169,-0.00118089
 ,0.00001340,2.56640826,-0.03202952,-0.00163351,0.00030972,0.00262828,0
 .00257132,-0.00001216,1.63120945,1.72066960,-0.00029218,0.00024402,-0.
 00611392,0.00002379,0.00002321,-0.00191277,-0.03083061,-0.00708467,-1.
 23256797,0.00035299,0.00183413,0.00000223,0.00022231,-0.00045861,-0.00
 000088,0.00130687,0.00162048,-0.00000426,-0.00138642,-0.00232888,0.000
 35562,0.00002248,0.00011765,0.00012303,-0.00000147,0.00203558,-0.00162
 388,-0.00002436,0.00058589,0.00028100,-0.00000914,-0.00001619,0.000052
 14,0.00000068,0.00000388,0.00026174,-0.00000311,-0.00002050,0.00037193
 ,0.00001061,-0.00000356,-0.00041288,0.00846129,0.00441821,-0.00007430,
 0.00057954,-0.00238562,0.00000923,-2.96378014,-1.16789835,0.03135542,-
 0.00015461,-0.00105440,-0.00001067,2.95334581,0.01629057,0.00361297,-0
 .00013914,0.00185476,-0.00162625,-0.00002788,-1.17868615,0.33797563,0.
 00980607,-0.00224206,0.00069440,0.00002543,1.15814404,-0.33669466,-0.0
 0004189,-0.00002887,-0.00083925,0.00002082,0.00001150,0.00227502,0.031
 32594,0.00970584,0.75548704,-0.00001391,0.00001440,-0.00099344,-0.0312
 3314,-0.00962707,-0.74988646,-0.00359860,0.00993148,0.00007097,0.00187
 301,-0.00032681,-0.00002560,0.38384022,-0.43553035,-0.00025217,-0.0003
 4116,0.00064417,0.00001162,0.00154811,0.00463885,-0.00005783,-0.383321
 58,0.00053310,0.01198397,0.00002470,-0.00019034,-0.00212399,-0.0000018
 8,-0.42842171,-2.05795916,-0.00296426,-0.00133983,0.00016978,0.0000109
 4,0.00877612,-0.00396209,-0.00007581,0.42064267,2.05189148,0.00004529,
 -0.00006257,0.00112228,-0.00002523,-0.00000062,-0.00078699,-0.00023274
 ,-0.00289824,0.48473569,0.00000621,-0.00000749,0.00072051,-0.00004654,
 -0.00003740,-0.00604291,0.00025301,0.00300632,-0.47974857\\@
 The archive entry for this job was punched.


 MODELS ARE TO BE USED, NOT BELIEVED.

    -- PARAPHRASED BY H. THIEL IN "PRINCIPLES OF ECONOMETRICS"
 Job cpu time:       3 days  3 hours  9 minutes  2.5 seconds.
 Elapsed time:       0 days  1 hours 54 minutes 36.1 seconds.
 File lengths (MBytes):  RWF=   5476 Int=      0 D2E=      0 Chk=     45 Scr=      1
 Normal termination of Gaussian 16 at Sun Mar 30 02:38:18 2025.
