blah                                                                    
SP        RHF                                                         Aug-CC-pVDZ         
Number of atoms                            I                5
Info1-9                                    I   N=           9
          17          14           0           0           0         110
           1           1           2
Full Title                                 C   N=           1
blah        
Route                                      C   N=           2
# HF/aug-cc-pVDZ pop=nbo
Charge                                     I                0
Multiplicity                               I                1
Number of electrons                        I               24
Number of alpha electrons                  I               12
Number of beta electrons                   I               12
Number of basis functions                  I               87
Number of independent functions            I               87
Number of point charges in /Mol/           I                0
Number of translation vectors              I                0
Atomic numbers                             I   N=           5
           6           8           8           1           1
Nuclear charges                            R   N=           5
  6.00000000E+00  8.00000000E+00  8.00000000E+00  1.00000000E+00  1.00000000E+00
Current cartesian coordinates              R   N=          15
 -2.52240643E-01  7.63831079E-01 -1.51178090E-05 -2.17040148E+00 -4.99547211E-01
  3.77945225E-06  2.13618232E+00 -1.77577564E-01  3.77945225E-06  1.96944800E+00
 -2.01284367E+00 -7.55890450E-06 -1.82245187E-01  2.84685540E+00  2.64561657E-05
Number of symbols in /Mol/                 I                0
Int Atom Types                             I   N=           5
           0           0           0           0           0
Force Field                                I                0
Atom Types                                 C   N=           5
                                                            
MM charges                                 R   N=           5
  0.00000000E+00  0.00000000E+00  0.00000000E+00  0.00000000E+00  0.00000000E+00
Integer atomic weights                     I   N=           5
          12          16          16           1           1
Real atomic weights                        R   N=           5
  1.20000000E+01  1.59949146E+01  1.59949146E+01  1.00782504E+00  1.00782504E+00
Atom fragment info                         I   N=           5
           0           0           0           0           0
Atom residue num                           I   N=           5
           0           0           0           0           0
Nuclear spins                              I   N=           5
           0           0           0           1           1
Nuclear ZEff                               R   N=           5
 -3.60000000E+00 -5.60000000E+00 -5.60000000E+00 -1.00000000E+00 -1.00000000E+00
Nuclear ZNuc                               R   N=           5
  6.00000000E+00  8.00000000E+00  8.00000000E+00  1.00000000E+00  1.00000000E+00
Nuclear QMom                               R   N=           5
  0.00000000E+00  0.00000000E+00  0.00000000E+00  0.00000000E+00  0.00000000E+00
Nuclear GFac                               R   N=           5
  0.00000000E+00  0.00000000E+00  0.00000000E+00  2.79284600E+00  2.79284600E+00
MicOpt                                     I   N=           5
          -1          -1          -1          -1          -1
Number of residues                         I                0
Number of secondary structures             I                0
SymInf integers                            I   N=          26
           1           1           1           1           1           0
           0           0           0           0           0           0
           0           0           0           0           0           0
           0           0           0           0           0           0
           0           0
RotTr to input orientation                 R   N=          12
  1.00000000E+00  1.24316440E-07  0.00000000E+00 -1.24316440E-07  1.00000000E+00
  0.00000000E+00  0.00000000E+00  0.00000000E+00  1.00000000E+00  2.36215766E-07
 -1.85037171E-17 -4.72431531E-07
Number of contracted shells                I               37
Number of primitive shells                 I               83
Pure/Cartesian d shells                    I                0
Pure/Cartesian f shells                    I                0
Highest angular momentum                   I                2
Largest degree of contraction              I                7
Shell types                                I   N=          37
           0           0           0           0           1           1
           1          -2          -2           0           0           0
           0           1           1           1          -2          -2
           0           0           0           0           1           1
           1          -2          -2           0           0           0
           1           1           0           0           0           1
           1
Number of primitives per shell             I   N=          37
           7           7           1           1           3           1
           1           1           1           7           7           1
           1           3           1           1           1           1
           7           7           1           1           3           1
           1           1           1           3           1           1
           1           1           3           1           1           1
           1
Shell to atom map                          I   N=          37
           1           1           1           1           1           1
           1           1           1           2           2           2
           2           2           2           2           2           2
           3           3           3           3           3           3
           3           3           3           4           4           4
           4           4           5           5           5           5
           5
Primitive exponents                        R   N=          83
  6.66500000E+03  1.00000000E+03  2.28000000E+02  6.47100000E+01  2.10600000E+01
  7.49500000E+00  2.79700000E+00  6.66500000E+03  2.28000000E+02  6.47100000E+01
  2.10600000E+01  7.49500000E+00  2.79700000E+00  5.21500000E-01  1.59600000E-01
  4.69000000E-02  9.43900000E+00  2.00200000E+00  5.45600000E-01  1.51700000E-01
  4.04100000E-02  5.50000000E-01  1.51000000E-01  1.17200000E+04  1.75900000E+03
  4.00800000E+02  1.13700000E+02  3.70300000E+01  1.32700000E+01  5.02500000E+00
  1.17200000E+04  4.00800000E+02  1.13700000E+02  3.70300000E+01  1.32700000E+01
  5.02500000E+00  1.01300000E+00  3.02300000E-01  7.89600000E-02  1.77000000E+01
  3.85400000E+00  1.04600000E+00  2.75300000E-01  6.85600000E-02  1.18500000E+00
  3.32000000E-01  1.17200000E+04  1.75900000E+03  4.00800000E+02  1.13700000E+02
  3.70300000E+01  1.32700000E+01  5.02500000E+00  1.17200000E+04  4.00800000E+02
  1.13700000E+02  3.70300000E+01  1.32700000E+01  5.02500000E+00  1.01300000E+00
  3.02300000E-01  7.89600000E-02  1.77000000E+01  3.85400000E+00  1.04600000E+00
  2.75300000E-01  6.85600000E-02  1.18500000E+00  3.32000000E-01  1.30100000E+01
  1.96200000E+00  4.44600000E-01  1.22000000E-01  2.97400000E-02  7.27000000E-01
  1.41000000E-01  1.30100000E+01  1.96200000E+00  4.44600000E-01  1.22000000E-01
  2.97400000E-02  7.27000000E-01  1.41000000E-01
Contraction coefficients                   R   N=          83
  6.93516317E-04  5.34150243E-03  2.71366714E-02  1.01992385E-01  2.75508636E-01
  4.51086433E-01  2.87565745E-01  7.73354740E-06  2.78072137E-04 -2.57875654E-03
 -8.95087684E-03 -1.06058855E-01 -1.31517686E-01  1.09948660E+00  1.00000000E+00
  1.00000000E+00  5.69792516E-02  3.13207212E-01  7.60376742E-01  1.00000000E+00
  1.00000000E+00  1.00000000E+00  1.00000000E+00  7.11864434E-04  5.48520199E-03
  2.79099296E-02  1.05133208E-01  2.84002490E-01  4.51673946E-01  2.73208126E-01
  7.69030046E-06  3.13484579E-04 -2.96614853E-03 -1.08753543E-02 -1.20753817E-01
 -1.06275264E-01  1.09597548E+00  1.00000000E+00  1.00000000E+00  6.26791663E-02
  3.33536566E-01  7.41239642E-01  1.00000000E+00  1.00000000E+00  1.00000000E+00
  1.00000000E+00  7.11864434E-04  5.48520199E-03  2.79099296E-02  1.05133208E-01
  2.84002490E-01  4.51673946E-01  2.73208126E-01  7.69030046E-06  3.13484579E-04
 -2.96614853E-03 -1.08753543E-02 -1.20753817E-01 -1.06275264E-01  1.09597548E+00
  1.00000000E+00  1.00000000E+00  6.26791663E-02  3.33536566E-01  7.41239642E-01
  1.00000000E+00  1.00000000E+00  1.00000000E+00  1.00000000E+00  3.34987264E-02
  2.34800801E-01  8.13682958E-01  1.00000000E+00  1.00000000E+00  1.00000000E+00
  1.00000000E+00  3.34987264E-02  2.34800801E-01  8.13682958E-01  1.00000000E+00
  1.00000000E+00  1.00000000E+00  1.00000000E+00
Coordinates of each shell                  R   N=         111
 -2.52240784E-01  7.63831110E-01 -1.46453775E-05 -2.52240784E-01  7.63831110E-01
 -1.46453775E-05 -2.52240784E-01  7.63831110E-01 -1.46453775E-05 -2.52240784E-01
  7.63831110E-01 -1.46453775E-05 -2.52240784E-01  7.63831110E-01 -1.46453775E-05
 -2.52240784E-01  7.63831110E-01 -1.46453775E-05 -2.52240784E-01  7.63831110E-01
 -1.46453775E-05 -2.52240784E-01  7.63831110E-01 -1.46453775E-05 -2.52240784E-01
  7.63831110E-01 -1.46453775E-05 -2.17040177E+00 -4.99546941E-01  4.25188378E-06
 -2.17040177E+00 -4.99546941E-01  4.25188378E-06 -2.17040177E+00 -4.99546941E-01
  4.25188378E-06 -2.17040177E+00 -4.99546941E-01  4.25188378E-06 -2.17040177E+00
 -4.99546941E-01  4.25188378E-06 -2.17040177E+00 -4.99546941E-01  4.25188378E-06
 -2.17040177E+00 -4.99546941E-01  4.25188378E-06 -2.17040177E+00 -4.99546941E-01
  4.25188378E-06 -2.17040177E+00 -4.99546941E-01  4.25188378E-06  2.13618206E+00
 -1.77577829E-01  4.25188378E-06  2.13618206E+00 -1.77577829E-01  4.25188378E-06
  2.13618206E+00 -1.77577829E-01  4.25188378E-06  2.13618206E+00 -1.77577829E-01
  4.25188378E-06  2.13618206E+00 -1.77577829E-01  4.25188378E-06  2.13618206E+00
 -1.77577829E-01  4.25188378E-06  2.13618206E+00 -1.77577829E-01  4.25188378E-06
  2.13618206E+00 -1.77577829E-01  4.25188378E-06  2.13618206E+00 -1.77577829E-01
  4.25188378E-06  1.96944751E+00 -2.01284392E+00 -7.08647297E-06  1.96944751E+00
 -2.01284392E+00 -7.08647297E-06  1.96944751E+00 -2.01284392E+00 -7.08647297E-06
  1.96944751E+00 -2.01284392E+00 -7.08647297E-06  1.96944751E+00 -2.01284392E+00
 -7.08647297E-06 -1.82245070E-01  2.84685542E+00  2.69285973E-05 -1.82245070E-01
  2.84685542E+00  2.69285973E-05 -1.82245070E-01  2.84685542E+00  2.69285973E-05
 -1.82245070E-01  2.84685542E+00  2.69285973E-05 -1.82245070E-01  2.84685542E+00
  2.69285973E-05
Num ILSW                                   I              100
ILSW                                       I   N=         100
           0           0           0           0           2           0
           0           0           0           0           0          -1
           5           0           0           0           0           0
           0           0           1           0           0           0
           1           0           0           0           0           0
           0           0      100000           0          -1           0
           0           0           0           0           0           0
           0           0           0           1           0           0
           0 -2000000000           1           0           0           0
           0           0           4          52           0           0
           0           0           0           0           0           0
           0           0           0           0           0           1
           0           0           0           0           0           0
           0           0           0           0           0           0
           0           0           0           0           0           0
           0           0           0           0           0           0
           0           0           0           0
Num RLSW                                   I               52
RLSW                                       R   N=          52
  1.00000000E+00  1.00000000E+00  1.00000000E+00  1.00000000E+00  1.00000000E+00
  0.00000000E+00  0.00000000E+00  1.00000000E+00  0.00000000E+00  0.00000000E+00
  0.00000000E+00  0.00000000E+00  1.00000000E+00  0.00000000E+00  0.00000000E+00
  0.00000000E+00  0.00000000E+00  1.00000000E+00  0.00000000E+00  0.00000000E+00
  0.00000000E+00  0.00000000E+00  1.00000000E+00  0.00000000E+00  0.00000000E+00
  0.00000000E+00  0.00000000E+00  1.00000000E+00  0.00000000E+00  0.00000000E+00
  0.00000000E+00  0.00000000E+00  1.00000000E+00  0.00000000E+00  0.00000000E+00
  0.00000000E+00  0.00000000E+00  0.00000000E+00  1.00000000E+00  1.00000000E+00
  0.00000000E+00  1.00000000E+00  0.00000000E+00  0.00000000E+00  0.00000000E+00
  0.00000000E+00  0.00000000E+00  0.00000000E+00  0.00000000E+00  0.00000000E+00
  0.00000000E+00  0.00000000E+00
MxBond                                     I                3
NBond                                      I   N=           5
           3           1           2           1           1
IBond                                      I   N=          15
           2           3           5           1           0           0
           1           4           0           3           0           0
           1           0           0
RBond                                      R   N=          15
  2.00000000E+00  1.50000000E+00  1.00000000E+00  2.00000000E+00  0.00000000E+00
  0.00000000E+00  1.50000000E+00  1.00000000E+00  0.00000000E+00  1.00000000E+00
  0.00000000E+00  0.00000000E+00  1.00000000E+00  0.00000000E+00  0.00000000E+00
Virial Ratio                               R      2.002321503648259E+00
SCF Energy                                 R     -1.887947582881104E+02
Total Energy                               R     -1.887947582881104E+02
RMS Density                                R      1.905761496174989E-09
Job Status                                 I                1
Nuclear derivative order                   I                0
External E-field                           R   N=          35
  0.00000000E+00  0.00000000E+00  0.00000000E+00  0.00000000E+00  0.00000000E+00
  0.00000000E+00  0.00000000E+00  0.00000000E+00  0.00000000E+00  0.00000000E+00
  0.00000000E+00  0.00000000E+00  0.00000000E+00  0.00000000E+00  0.00000000E+00
  0.00000000E+00  0.00000000E+00  0.00000000E+00  0.00000000E+00  0.00000000E+00
  0.00000000E+00  0.00000000E+00  0.00000000E+00  0.00000000E+00  0.00000000E+00
  0.00000000E+00  0.00000000E+00  0.00000000E+00  0.00000000E+00  0.00000000E+00
  0.00000000E+00  0.00000000E+00  0.00000000E+00  0.00000000E+00  0.00000000E+00
IOpCl                                      I                0
IROHF                                      I                0
Alpha Orbital Energies                     R   N=          87
 -2.06402201E+01 -2.05819507E+01 -1.14140722E+01 -1.47503515E+00 -1.37786055E+00
 -8.96505671E-01 -7.22015010E-01 -7.14893467E-01 -6.33950275E-01 -6.06712261E-01
 -4.96385768E-01 -4.75100665E-01  3.65801450E-02  4.40135749E-02  8.60615209E-02
  9.44273762E-02  1.22707359E-01  1.52548731E-01  1.60069541E-01  1.91442921E-01
  2.07340096E-01  2.23441444E-01  2.33091472E-01  2.77313567E-01  2.79071354E-01
  2.97531762E-01  3.28449815E-01  3.52592174E-01  3.87707366E-01  3.90209325E-01
  4.27834066E-01  4.30295716E-01  4.89480067E-01  5.40849070E-01  5.70715230E-01
  5.73871364E-01  6.19614220E-01  6.32127307E-01  6.61561339E-01  6.79827540E-01
  7.06309394E-01  8.12754369E-01  8.50273951E-01  8.69780522E-01  9.27935101E-01
  9.67874435E-01  1.03905806E+00  1.13339480E+00  1.14855267E+00  1.18122665E+00
  1.20000667E+00  1.25426639E+00  1.26340172E+00  1.31913137E+00  1.44277831E+00
  1.49470438E+00  1.51079241E+00  1.56859601E+00  1.62245779E+00  1.67052903E+00
  1.75956208E+00  1.77595442E+00  1.89452434E+00  1.96324458E+00  2.01656028E+00
  2.03970167E+00  2.06589161E+00  2.17154479E+00  2.21619907E+00  2.27159839E+00
  2.39357672E+00  2.47900079E+00  2.74968903E+00  2.77524337E+00  2.87402993E+00
  3.07055467E+00  3.27857929E+00  3.64232764E+00  3.66569522E+00  3.70262261E+00
  3.70436905E+00  3.73956613E+00  3.75748559E+00  3.80790596E+00  3.98849229E+00
  4.08678589E+00  4.24505253E+00
Alpha MO coefficients                      R   N=        7569
  2.11428798E-05  4.28641115E-04  6.47993675E-03  3.29758716E-03  4.72610875E-04
 -2.78057877E-04  1.19445204E-08  4.43658952E-03 -2.92637573E-03  2.53813622E-08
  4.09019545E-04 -4.95400238E-04  6.60896063E-09 -3.02193661E-04  8.81322522E-10
  4.62915814E-09 -1.85078078E-04  7.79712313E-05 -8.53269840E-04  1.54035255E-08
 -2.68909645E-08  9.68009742E-04 -1.65608233E-03 -2.80281290E-04  9.27575437E-05
 -4.67818165E-04 -2.94448264E-04 -5.16115938E-05  1.92348516E-05  1.00049615E-09
 -8.55219108E-04 -2.29293661E-04  3.77112513E-10  2.80123931E-04 -8.12151520E-05
 -2.49669520E-09  7.71647616E-06  1.58269454E-09 -1.34735384E-09 -8.07591347E-05
 -1.78575128E-05  2.42645872E-04  1.27173231E-09  5.81490083E-09 -2.00172117E-04
 -9.04140699E-06  9.97254747E-01  1.69090841E-02 -1.04473468E-02 -6.46149657E-03
 -1.43786015E-03 -7.28095982E-04 -2.30240434E-08  3.67571298E-03 -1.27821732E-04
  3.81138350E-08  1.31802604E-03  3.81186735E-05  4.21239424E-09 -5.81901069E-05
 -1.09816821E-09  1.17632393E-09 -3.38712231E-05  2.51844465E-05  4.72696360E-04
 -1.17838473E-08  1.39254655E-09 -4.26203095E-04  3.28186010E-04  3.10077501E-04
  1.80983961E-03 -3.17984131E-04 -1.10349474E-04 -3.27355161E-04 -3.49105184E-09
  3.60547463E-04  7.34188415E-04  8.94811861E-09 -3.94558005E-04  1.31233633E-03
 -2.79870603E-04 -7.99410924E-05  3.05316410E-04  8.61038600E-09  3.38813405E-04
 -2.96560334E-04  4.56025022E-09  1.32157487E-04  6.68573673E-04  7.16008681E-03
  3.62359510E-03 -3.14883844E-04 -2.42285300E-04  1.16139269E-08 -4.61522890E-03
 -4.56993925E-03  1.53545476E-08  1.71363356E-04 -2.58162454E-04 -2.15239139E-10
 -3.46788483E-05  7.57084892E-09  1.12843928E-08 -3.11147060E-04 -4.82639745E-04
 -9.28195332E-04 -8.46314776E-09 -4.45216956E-08  7.14651587E-04  2.55271064E-03
  9.97295167E-01  1.69554273E-02 -1.16322104E-02 -6.00998131E-03  1.59281251E-03
  9.52878374E-04 -2.18773986E-08 -3.53680910E-03 -1.90510771E-03  4.70121584E-08
 -1.40075564E-03 -6.02901418E-04  8.62765375E-09 -2.13104828E-04 -1.30054531E-09
 -7.12497089E-10  4.48804227E-05  1.20692504E-04  3.10931088E-04  1.30125139E-08
  9.73065225E-09 -3.35398002E-04 -5.52632703E-04  3.19923038E-04  9.56672804E-05
 -1.89676719E-04 -3.87849952E-04  3.83967262E-05  8.75284656E-06  3.33755295E-10
  6.26005098E-04 -1.02756644E-04 -3.21387077E-09 -2.20885203E-04 -4.18579385E-04
  8.96990741E-09 -5.54327610E-06 -8.08875089E-10 -9.17520305E-10 -8.65894251E-05
 -8.89332100E-06  2.30790181E-04  1.48310522E-09  1.68880376E-09 -2.13411494E-04
 -9.24246564E-05  4.96577094E-05  1.42389179E-04 -3.74320357E-04 -2.86836326E-05
 -4.28024018E-05  1.24200094E-09 -8.86492975E-05  1.69379924E-04 -1.16127657E-08
 -3.21004034E-04  2.31841479E-03 -4.75047989E-04  1.86394630E-04  3.06896798E-04
  4.74518374E-09 -8.81467048E-04 -6.98398936E-04  1.04194501E-08  9.97737042E-01
  2.01512578E-02 -1.08130568E-02 -3.24625809E-03  7.18809362E-04 -1.17208992E-03
  6.40026314E-09  1.18073250E-03 -6.46060803E-03 -8.28503452E-08  2.00124235E-04
 -1.71441322E-03 -2.29892816E-08 -1.12542192E-03  5.63220405E-09  6.24264766E-09
  3.63623019E-04  1.01522984E-04  9.84473757E-04 -2.71220684E-09 -1.92046498E-08
  1.42454646E-04 -1.38669872E-03 -3.54151650E-04  5.86216134E-04 -7.52782359E-04
  3.17186033E-04  4.77190571E-04  2.92754854E-04 -1.32555392E-09 -1.93251621E-03
 -8.05424035E-04  2.52589439E-08 -8.37041661E-05  3.87776948E-04 -1.72873857E-09
 -1.61923093E-04 -4.96695673E-09 -1.22720317E-09  1.74723377E-04  3.47617635E-04
  7.00921458E-04  3.42239188E-08  1.24150675E-08 -6.05106759E-04 -9.24190032E-04
 -7.50599190E-05  8.23019070E-04 -2.02886649E-03 -2.60140422E-04 -4.09391113E-04
  1.74723111E-04 -2.87480170E-09  2.97925815E-03 -9.97218257E-04  2.73199204E-08
  6.25381656E-04 -4.97965046E-04 -1.09321516E-08  5.58420859E-05  2.41845402E-09
  5.50230756E-10  1.09738341E-04  3.51803527E-05  6.20383848E-04 -3.42220524E-08
  2.24022942E-09 -1.30689287E-03  6.17619980E-04 -2.76407501E-04 -2.21946586E-03
 -7.34526614E-04 -2.16482597E-04  1.34072873E-04 -6.23338795E-09  1.58076338E-05
 -8.36358672E-04  8.75419819E-09  3.30605651E-04  1.23003175E-02  1.86579854E-03
 -2.99244861E-05  2.66602298E-04  9.75168688E-09  5.72533699E-04 -3.85154436E-03
 -1.03201446E-07 -1.07469861E-01  2.15551418E-01  4.23285803E-03 -2.99946812E-02
  7.82251478E-03 -9.24084294E-02  1.16312355E-06 -3.67275518E-02  4.32015965E-02
 -4.72437978E-07 -4.61802923E-03  1.02144964E-02  8.97816228E-08 -1.65504743E-02
 -1.64118058E-08 -3.83236593E-07  2.39532280E-02  5.30443784E-04  1.56974205E-02
 -1.95031603E-07  5.20664465E-07 -8.12620187E-03  7.76693579E-03 -1.04332131E-01
  2.13321796E-01  2.21297623E-01  1.41930392E-02  7.60260733E-02  3.76172119E-02
 -4.34071545E-07  4.05286211E-02  7.95875448E-03 -1.26736761E-07 -3.69974527E-03
 -3.59240931E-03  5.62334748E-08 -5.43327366E-03 -1.23699797E-07 -5.28583293E-08
  6.03228035E-03  8.12419214E-03 -9.75315549E-04 -3.29131658E-08  5.15582216E-08
  6.10823933E-03 -3.50668125E-03 -1.62563238E-01  3.36182626E-01  3.57783734E-01
  5.30191874E-02 -7.93480206E-02 -1.85686881E-02 -6.75519676E-07 -6.65907725E-02
  3.67978322E-02 -3.35294004E-07 -7.50326588E-03 -1.52063264E-03 -3.55920376E-08
 -7.53243211E-03  1.30970707E-07  3.18614271E-08  3.38597036E-03 -2.42331022E-03
  4.25861585E-03  1.35667092E-07 -1.49356968E-07  2.32412239E-02 -5.00002037E-03
  1.44959065E-01  1.03874870E-02  5.19605433E-03  1.35894708E-03  3.03939589E-02
  2.05163902E-07 -1.81301137E-03  5.21807637E-03  4.72626094E-08  4.36383213E-02
 -2.79359139E-02 -2.94700766E-05 -2.31540612E-04 -1.29255531E-02 -2.42343366E-07
  2.91143691E-03  7.80359279E-03 -9.88067527E-08 -4.66122086E-02  1.04141962E-01
  9.05078202E-02  8.88590061E-03 -2.17741998E-01 -6.43087562E-02  7.96096811E-07
  3.39225035E-02  2.00662567E-02  6.36824421E-07 -4.72451032E-03  8.81608971E-03
  2.50324063E-07 -6.26235020E-03 -5.16375164E-07 -2.34089549E-07  1.44910884E-03
  4.46772111E-02  6.95685705E-04  2.56215906E-07  3.20459535E-07  2.37210733E-03
 -3.66125872E-02 -1.67900423E-01  3.47247503E-01  3.63965116E-01  3.47966180E-02
  8.25071459E-02  6.41840089E-02 -7.48470541E-07  1.76524538E-02  1.35150841E-02
 -3.11876988E-07  8.27843679E-03 -4.97801841E-03 -4.72891210E-08 -7.22433880E-03
 -1.56143726E-07 -1.30882124E-07  3.34038361E-03  1.13981098E-02  6.03085848E-03
  3.59144623E-08  5.66200640E-08 -5.96910380E-03 -7.41480818E-03  1.26467244E-01
 -2.67444212E-01 -2.82862118E-01 -3.21913329E-02  2.55326125E-02  1.94247299E-02
  5.72482320E-07  1.81043765E-02 -2.70189801E-02  2.24424265E-07  8.50594383E-03
  7.85715692E-03 -1.91981118E-07  4.09661033E-03 -7.76460853E-08 -1.80353490E-08
  2.44674731E-03  1.63110379E-03 -8.78160097E-03  2.34114719E-09  1.94627159E-07
 -6.91755244E-03  8.05944405E-03 -1.18631518E-01 -6.17523955E-03  5.03987480E-03
 -1.74852709E-04 -2.40236998E-02 -1.19132378E-07  2.36607400E-03 -7.39191202E-03
  1.56910212E-07  8.62278633E-03 -4.76632454E-02 -9.22759430E-03 -6.22070659E-03
 -2.38792168E-03 -9.72332814E-09  1.33798563E-02  1.69256089E-02  1.00045514E-07
 -1.29145092E-01  2.92069681E-01  1.53307999E-01  9.91812882E-03  1.29131825E-01
  1.42567552E-01  2.46511514E-06  3.91545142E-03  4.80243292E-02 -2.07477856E-07
 -2.58728949E-03 -1.24208382E-04  8.51470607E-08 -8.41073040E-03  2.40251093E-07
  1.30908882E-07  1.29221972E-02 -6.03048042E-03  1.65513215E-02 -1.01752865E-07
 -6.37729843E-07  1.98984857E-02  1.86416964E-02  5.68794233E-02 -1.27422826E-01
 -1.62582928E-01 -3.06094365E-02  5.53863897E-02  7.44224366E-02  4.93383122E-07
  4.20083507E-02  3.68442733E-02  1.13835837E-07 -1.01660853E-03 -7.93064099E-03
 -3.96596534E-08 -8.05819891E-04  8.91140968E-08  9.85320199E-09  1.52012777E-04
  3.66812803E-03 -4.81208142E-03 -1.97965809E-07  1.46240217E-07  5.26478591E-03
  7.11650188E-03  3.54152556E-02 -8.44095471E-02 -6.69167217E-02 -7.44053435E-02
 -1.76906724E-01  2.82438221E-01  1.88193329E-07 -1.12258000E-01  1.18679654E-01
 -1.80313469E-07  1.30381079E-02  1.92413194E-02  4.42990843E-07 -3.81942750E-04
  9.19409884E-08 -2.19999014E-07  1.55978073E-02 -1.23329655E-02 -1.30202269E-02
  2.58828686E-07  2.25413700E-07 -4.70997792E-03 -2.19059333E-03 -2.43510325E-01
  6.07607550E-02  4.15488467E-03 -7.55873397E-03 -3.51647430E-02 -1.87967617E-07
 -9.10315018E-03  2.50197851E-02 -1.91100929E-07  2.39579374E-01  5.63747470E-02
 -2.15671138E-03  4.33433807E-04 -2.62202759E-02 -6.80958604E-07 -1.00565585E-02
 -1.55820419E-03 -1.15657624E-07  1.49058329E-02 -4.13658657E-02 -1.05519879E-01
 -1.94266150E-02 -1.36582648E-01  3.43855757E-01  2.52345196E-06 -1.84985752E-02
  7.71671284E-03 -5.90381452E-07  5.21933628E-03 -7.16421081E-03 -3.68650231E-08
  1.17007816E-02 -2.48385340E-07  4.19370503E-07 -7.15037793E-03  1.31642886E-02
  6.88348334E-04  3.95329239E-08 -1.39658740E-06 -4.29387160E-03 -2.90192029E-03
 -2.46261877E-02  5.17203206E-02  9.29025432E-02  1.80830907E-02 -2.26366433E-01
  1.44231540E-01  2.63515465E-06 -1.32487651E-01  1.12118125E-01  1.34934945E-06
 -1.21508299E-02  5.98490052E-03 -1.31189209E-07  2.88846064E-03  2.58137771E-07
  3.25303885E-09 -1.51674258E-02  1.11080945E-03 -2.91736849E-03  9.77053973E-08
 -3.76983701E-08 -1.47920033E-02  1.05901293E-02 -4.22888500E-02  9.53107033E-02
  1.53789484E-01  3.13117603E-02  3.66744756E-01  1.78612018E-02  4.13715414E-06
  2.26442134E-01  2.65558474E-02  2.66187864E-06  1.72253444E-02 -7.42304279E-03
  1.42617240E-08  6.21746609E-03 -3.70571104E-07  1.96306026E-08 -1.58485603E-02
 -2.66592634E-03  3.69906438E-03 -3.57304384E-07 -5.71211981E-09 -1.06343100E-02
 -1.30323837E-02  1.89501327E-02 -1.63877317E-02 -7.79636180E-03  1.43938819E-02
 -9.08064264E-05  1.59942476E-07  2.88347846E-03 -4.32616615E-03 -1.26000326E-07
  2.17184254E-01  1.88659952E-01  1.15458956E-02 -2.40150262E-03 -1.62621834E-02
 -4.49296560E-07 -1.00879580E-03 -5.40317288E-02 -2.42918002E-07  6.51298135E-02
 -1.58055273E-01 -9.69853986E-02 -3.82879575E-02  2.57917176E-01 -1.20150138E-02
 -9.28610108E-07  4.63113864E-02  4.26291054E-03  5.35439557E-07 -4.82425936E-03
  3.56596539E-03 -1.74029204E-08  2.33913639E-03  4.44173866E-07 -5.99131620E-08
  2.20034400E-02 -1.50794340E-02 -2.31940917E-04 -4.93259316E-07  2.41973853E-07
  2.01587894E-03 -1.53137673E-02 -8.00777327E-02  1.78086896E-01  3.06243059E-01
  1.06813617E-01 -2.63044908E-01 -2.53015687E-01  2.31211107E-06 -1.23473343E-01
 -1.43138561E-01  9.01023271E-07  8.83775673E-03 -5.61747710E-04 -2.01535932E-07
  8.42934533E-03  2.10428435E-07  2.05092075E-07 -1.39965997E-03 -1.62908697E-02
  1.56023288E-03 -4.91292689E-09  7.48000801E-08  7.19388673E-03 -6.69551757E-03
 -3.13848375E-02  7.12156892E-02  1.30754075E-01  2.01510475E-02 -5.86396332E-03
  3.26753854E-01  3.24550218E-07  1.22875002E-02  1.65401315E-01  1.96526409E-07
  7.22521454E-03  2.16670382E-02  9.46173026E-09  3.93751368E-03  6.33475973E-08
 -2.11298887E-07  1.03355575E-02 -9.60788690E-03 -3.73233169E-03 -1.30787337E-07
  1.50482561E-08 -1.84025196E-02 -4.37034272E-03 -2.37391839E-01 -3.97016104E-02
  6.50615565E-03 -5.52630980E-03 -2.90266395E-02 -2.53582872E-07 -1.19167321E-03
  8.58636672E-04  1.74313936E-07 -1.07005875E-01 -6.28436843E-02 -8.17862118E-04
  4.35161428E-03  8.82327122E-03  1.42958259E-07  1.50223407E-02  1.50690248E-02
  1.02274872E-07  1.27391405E-06 -2.59390058E-06 -6.57460494E-06  8.98470810E-07
  7.02326015E-07 -1.54529296E-06  2.78581925E-01 -3.80105431E-07  6.76082772E-08
  9.98856956E-02 -7.65199549E-08  1.08997856E-06 -7.92635224E-04  6.03502920E-07
  6.35154795E-03 -2.17878397E-02 -7.11102907E-07 -2.34744141E-07  1.48136463E-07
 -2.90234874E-03  1.58456274E-02  5.77314088E-07  3.13588410E-07 -1.15181698E-07
  3.08193268E-07  1.03485901E-06 -1.00258762E-07  3.58110242E-06 -1.48954342E-06
  2.56339349E-01  2.88347375E-06 -1.01341678E-06  1.80830991E-01  2.24314333E-07
 -6.10473161E-07  1.59835981E-02 -2.52121861E-07  1.33149757E-02  8.67920898E-03
  1.56826818E-07  9.71840436E-08 -3.68606443E-07  1.89971504E-02  9.41459425E-03
  1.73561740E-07  1.47371301E-08 -5.64930024E-08  1.72845762E-07  5.82705557E-07
 -7.76971108E-07 -5.86274136E-06 -2.40197028E-06  4.65643387E-01 -4.42141319E-06
 -1.50817765E-06  3.34198856E-01 -2.61397915E-07 -3.93106558E-07  3.37587552E-02
 -3.20371673E-07 -1.49719684E-02 -2.22867438E-03  1.43119497E-07  7.74337571E-08
 -5.69122862E-07 -2.73846336E-02 -8.74342086E-04  1.98577082E-07  2.10253537E-08
  8.58563361E-08  1.23921222E-06  3.77970993E-07 -2.97590753E-07 -5.47627019E-08
  1.74555597E-02 -3.98351837E-07  4.67057061E-07  7.53493320E-03  6.04643716E-07
  7.03726571E-07 -1.04311086E-06  3.54008240E-08 -1.55064277E-07  8.44133254E-03
 -5.46024164E-08 -4.86429835E-07 -7.93696342E-03  7.76983756E-03 -4.49381395E-04
  7.62914359E-02  1.90118345E-02 -2.04320433E-01 -2.23834444E-01 -4.76495037E-07
 -2.39923874E-02 -5.59379879E-02  6.82166291E-07 -2.04657563E-02  5.34445577E-03
  1.85311497E-07 -6.20785785E-03  3.39510644E-08 -4.04044030E-07  3.15259700E-02
  4.08684962E-02 -6.74226560E-03 -2.50517773E-07  4.06404274E-07 -2.68429540E-03
 -4.39713990E-02  2.90551957E-02 -6.72547467E-02 -1.48408320E-01 -7.22074814E-02
  2.94450811E-01  1.67336151E-01 -4.05813453E-06  1.43601625E-01  7.25009149E-02
 -2.42074012E-06  1.11315398E-02  4.25584034E-04 -1.93216813E-07 -7.66332093E-03
 -2.97437148E-07 -1.69530407E-07  8.37049354E-03  1.21559440E-02  5.69655081E-03