 Entering Gaussian System, Link 0=g16
 Input=hcoohc_mp2_avtz_opt_anharm.gjf
 Output=hcoohc_mp2_avtz_opt_anharm.log
 Initial command:
 /sw/contrib/chem-src/g16/c01/g16/l1.exe "/scr/Gau-77510.inp" -scrdir="/scr/"
 Entering Link 1 = /sw/contrib/chem-src/g16/c01/g16/l1.exe PID=     77511.
  
 Copyright (c) 1988-2019, Gaussian, Inc.  All Rights Reserved.
  
 This is part of the Gaussian(R) 16 program.  It is based on
 the Gaussian(R) 09 system (copyright 2009, Gaussian, Inc.),
 the Gaussian(R) 03 system (copyright 2003, Gaussian, Inc.),
 the Gaussian(R) 98 system (copyright 1998, Gaussian, Inc.),
 the Gaussian(R) 94 system (copyright 1995, Gaussian, Inc.),
 the Gaussian 92(TM) system (copyright 1992, Gaussian, Inc.),
 the Gaussian 90(TM) system (copyright 1990, Gaussian, Inc.),
 the Gaussian 88(TM) system (copyright 1988, Gaussian, Inc.),
 the Gaussian 86(TM) system (copyright 1986, Carnegie Mellon
 University), and the Gaussian 82(TM) system (copyright 1983,
 Carnegie Mellon University). Gaussian is a federally registered
 trademark of Gaussian, Inc.
  
 This software contains proprietary and confidential information,
 including trade secrets, belonging to Gaussian, Inc.
  
 This software is provided under written license and may be
 used, copied, transmitted, or stored only in accord with that
 written license.
  
 The following legend is applicable only to US Government
 contracts under FAR:
  
                    RESTRICTED RIGHTS LEGEND
  
 Use, reproduction and disclosure by the US Government is
 subject to restrictions as set forth in subparagraphs (a)
 and (c) of the Commercial Computer Software - Restricted
 Rights clause in FAR 52.227-19.
  
 Gaussian, Inc.
 340 Quinnipiac St., Bldg. 40, Wallingford CT 06492
  
  
 ---------------------------------------------------------------
 Warning -- This program may not be used in any manner that
 competes with the business of Gaussian, Inc. or will provide
 assistance to any competitor of Gaussian, Inc.  The licensee
 of this program is prohibited from giving any competitor of
 Gaussian, Inc. access to this program.  By using this program,
 the user acknowledges that Gaussian, Inc. is engaged in the
 business of creating and licensing software in the field of
 computational chemistry and represents and warrants to the
 licensee that it is not a competitor of Gaussian, Inc. and that
 it will not use this program in any manner prohibited above.
 ---------------------------------------------------------------
  

 Cite this work as:
 Gaussian 16, Revision C.01,
 M. J. Frisch, G. W. Trucks, H. B. Schlegel, G. E. Scuseria, 
 M. A. Robb, J. R. Cheeseman, G. Scalmani, V. Barone, 
 G. A. Petersson, H. Nakatsuji, X. Li, M. Caricato, A. V. Marenich, 
 J. Bloino, B. G. Janesko, R. Gomperts, B. Mennucci, H. P. Hratchian, 
 J. V. Ortiz, A. F. Izmaylov, J. L. Sonnenberg, D. Williams-Young, 
 F. Ding, F. Lipparini, F. Egidi, J. Goings, B. Peng, A. Petrone, 
 T. Henderson, D. Ranasinghe, V. G. Zakrzewski, J. Gao, N. Rega, 
 G. Zheng, W. Liang, M. Hada, M. Ehara, K. Toyota, R. Fukuda, 
 J. Hasegawa, M. Ishida, T. Nakajima, Y. Honda, O. Kitao, H. Nakai, 
 T. Vreven, K. Throssell, J. A. Montgomery, Jr., J. E. Peralta, 
 F. Ogliaro, M. J. Bearpark, J. J. Heyd, E. N. Brothers, K. N. Kudin, 
 V. N. Staroverov, T. A. Keith, R. Kobayashi, J. Normand, 
 K. Raghavachari, A. P. Rendell, J. C. Burant, S. S. Iyengar, 
 J. Tomasi, M. Cossi, J. M. Millam, M. Klene, C. Adamo, R. Cammi, 
 J. W. Ochterski, R. L. Martin, K. Morokuma, O. Farkas, 
 J. B. Foresman, and D. J. Fox, Gaussian, Inc., Wallingford CT, 2019.
 
 ******************************************
 Gaussian 16:  EM64L-G16RevC.01  3-Jul-2019
                20-Mar-2025 
 ******************************************
 %nprocshared=40
 Will use up to   40 processors via shared memory.
 %mem=50gb
 ----------------------------------------------
 # MP2/aug-cc-pVTZ opt freq=(vibrot,anharmonic)
 ----------------------------------------------
 1/18=20,19=15,38=1,80=1/1,3;
 2/9=110,12=2,17=6,18=5,40=1/2;
 3/5=16,6=1,7=10,11=9,25=1,30=1,71=1/1,2,3;
 4//1;
 5/5=2,38=5/2;
 8/6=4,10=1/1;
 9/15=2,16=-3/6;
 10/5=1/2;
 6/7=2,8=2,9=2,10=2/1;
 7/12=2/1,2,3,16;
 1/18=20,19=15,80=1/3(2);
 2/9=110/2;
 99//99;
 2/9=110/2;
 3/5=16,6=1,7=10,11=9,25=1,30=1,71=1/1,2,3;
 4/5=5,16=3,69=1/1;
 5/5=2,38=5/2;
 8/6=4,10=1/1;
 9/15=2,16=-3/6;
 10/5=1/2;
 7/12=2/1,2,3,16;
 1/18=20,19=15,80=1/3(-8);
 2/9=110/2;
 6/7=2,8=2,9=2,10=2/1;
 99/9=10/99;
 ----
 blah
 ----
 Symbolic Z-matrix:
 Charge =  0 Multiplicity = 1
 C                     1.04384  -0.33218  -0.0002 
 O                     2.26404  -0.3069    0.00069 
 O                     0.33784   0.81656   0.00059 
 H                     0.78166   1.67641   0.00202 
 H                     0.52426  -1.28408  -0.00156 
 

 GradGradGradGradGradGradGradGradGradGradGradGradGradGradGradGradGradGrad
 Berny optimization.
 Initialization pass.
                           ----------------------------
                           !    Initial Parameters    !
                           ! (Angstroms and Degrees)  !
 --------------------------                            --------------------------
 ! Name  Definition              Value          Derivative Info.                !
 --------------------------------------------------------------------------------
 ! R1    R(1,2)                  1.2205         estimate D2E/DX2                !
 ! R2    R(1,3)                  1.3484         estimate D2E/DX2                !
 ! R3    R(1,5)                  1.0845         estimate D2E/DX2                !
 ! R4    R(3,4)                  0.9676         estimate D2E/DX2                !
 ! A1    A(2,1,3)              120.3871         estimate D2E/DX2                !
 ! A2    A(2,1,5)              119.8146         estimate D2E/DX2                !
 ! A3    A(3,1,5)              119.7984         estimate D2E/DX2                !
 ! A4    A(1,3,4)              121.1246         estimate D2E/DX2                !
 ! D1    D(2,1,3,4)             -0.0107         estimate D2E/DX2                !
 ! D2    D(2,1,3,5)           -179.9961         estimate D2E/DX2                !
 ! D3    D(5,1,3,4)            179.9854         estimate D2E/DX2                !
 --------------------------------------------------------------------------------
 Trust Radius=3.00D-01 FncErr=1.00D-07 GrdErr=1.00D-07 EigMax=2.50D+02 EigMin=1.00D-04
 Number of steps in this run=     21 maximum allowed number of steps=    100.
 GradGradGradGradGradGradGradGradGradGradGradGradGradGradGradGradGradGrad

                          Input orientation:                          
 ---------------------------------------------------------------------
 Center     Atomic      Atomic             Coordinates (Angstroms)
 Number     Number       Type             X           Y           Z
 ---------------------------------------------------------------------
      1          6           0        1.043841   -0.332183   -0.000196
      2          8           0        2.264037   -0.306897    0.000693
      3          8           0        0.337839    0.816565    0.000590
      4          1           0        0.781661    1.676412    0.002019
      5          1           0        0.524258   -1.284081   -0.001562
 ---------------------------------------------------------------------
                    Distance matrix (angstroms):
                    1          2          3          4          5
     1  C    0.000000
     2  O    1.220459   0.000000
     3  O    1.348355   2.229890   0.000000
     4  H    2.025634   2.476077   0.967635   0.000000
     5  H    1.084471   1.995426   2.108902   2.971664   0.000000
 Stoichiometry    CH2O2
 Framework group  C1[X(CH2O2)]
 Deg. of freedom     9
 Full point group                 C1      NOp   1
 Largest Abelian subgroup         C1      NOp   1
 Largest concise Abelian subgroup C1      NOp   1
                         Standard orientation:                         
 ---------------------------------------------------------------------
 Center     Atomic      Atomic             Coordinates (Angstroms)
 Number     Number       Type             X           Y           Z
 ---------------------------------------------------------------------
      1          6           0       -0.146117    0.432981   -0.000003
      2          8           0       -1.114105   -0.310335   -0.000004
      3          8           0        1.103240   -0.074136   -0.000019
      4          1           0        1.255150   -1.029772    0.000123
      5          1           0       -0.291534    1.507659    0.000075
 ---------------------------------------------------------------------
 Rotational constants (GHZ):          70.7101083          12.2318523          10.4279619
 Standard basis: Aug-CC-pVTZ (5D, 7F)
 There are   215 symmetry adapted cartesian basis functions of A   symmetry.
 There are   184 symmetry adapted basis functions of A   symmetry.
   184 basis functions,   270 primitive gaussians,   215 cartesian basis functions
    12 alpha electrons       12 beta electrons
       nuclear repulsion energy        69.7252839359 Hartrees.
 NAtoms=    5 NActive=    5 NUniq=    5 SFac= 1.00D+00 NAtFMM=   60 NAOKFM=F Big=F
 Integral buffers will be    131072 words long.
 Raffenetti 1 integral format.
 Two-electron integral symmetry is turned on.
 One-electron integrals computed using PRISM.
 NBasis=   184 RedAO= T EigKep=  6.65D-05  NBF=   184
 NBsUse=   184 1.00D-06 EigRej= -1.00D+00 NBFU=   184
 ExpMin= 2.53D-02 ExpMax= 1.53D+04 ExpMxC= 5.22D+02 IAcc=3 IRadAn=         5 AccDes= 0.00D+00
 Harris functional with IExCor=  205 and IRadAn=       5 diagonalized for initial guess.
 HarFok:  IExCor=  205 AccDes= 0.00D+00 IRadAn=         5 IDoV= 1 UseB2=F ITyADJ=14
 ICtDFT=  3500011 ScaDFX=  1.000000  1.000000  1.000000  1.000000
 FoFCou: FMM=F IPFlag=           0 FMFlag=      100000 FMFlg1=           0
         NFxFlg=           0 DoJE=T BraDBF=F KetDBF=T FulRan=T
         wScrn=  0.000000 ICntrl=       500 IOpCl=  0 I1Cent=   200000004 NGrid=           0
         NMat0=    1 NMatS0=      1 NMatT0=    0 NMatD0=    1 NMtDS0=    0 NMtDT0=    0
 Petite list used in FoFCou.
 Keep R1 ints in memory in canonical form, NReq=164568764.
 Requested convergence on RMS density matrix=1.00D-08 within 128 cycles.
 Requested convergence on MAX density matrix=1.00D-06.
 Requested convergence on             energy=1.00D-06.
 No special actions if energy rises.
 SCF Done:  E(RHF) =  -188.833214996     A.U. after   12 cycles
            NFock= 12  Conv=0.44D-08     -V/T= 2.0023
 ExpMin= 2.53D-02 ExpMax= 1.53D+04 ExpMxC= 5.22D+02 IAcc=3 IRadAn=         5 AccDes= 0.00D+00
 HarFok:  IExCor=  205 AccDes= 0.00D+00 IRadAn=         5 IDoV=-2 UseB2=F ITyADJ=14
 ICtDFT= 12500011 ScaDFX=  1.000000  1.000000  1.000000  1.000000
 Range of M.O.s used for correlation:     4   184
 NBasis=   184 NAE=    12 NBE=    12 NFC=     3 NFV=     0
 NROrb=    181 NOA=     9 NOB=     9 NVA=   172 NVB=   172

 **** Warning!!: The largest alpha MO coefficient is  0.34482398D+02

 Fully direct method using O(ONN) memory.
 JobTyp=1 Pass  1:  I=   4 to  12 NPSUse= 40 ParTrn=T ParDer=T DoDerP=T.
 Spin components of T(2) and E(2):
     alpha-alpha T2 =       0.2211925259D-01 E2=     -0.8199670800D-01
     alpha-beta  T2 =       0.1215586468D+00 E2=     -0.4790737306D+00
     beta-beta   T2 =       0.2211925259D-01 E2=     -0.8199670800D-01
 ANorm=    0.1079720868D+01
 E2 =    -0.6430671466D+00 EUMP2 =    -0.18947628214276D+03
          IDoAtm=11111
          Differentiating once with respect to electric field.
                with respect to dipole field.
          Differentiating once with respect to nuclear coordinates.
 Keep R1 ints in memory in canonical form, NReq=164572415.
          There are     1 degrees of freedom in the 1st order CPHF.  IDoFFX=0 NUNeed=     1.
 LinEq1:  Iter=  0 NonCon=     1 RMS=5.02D-03 Max=1.11D-01 NDo=     1
 AX will form     1 AO Fock derivatives at one time.
 LinEq1:  Iter=  1 NonCon=     1 RMS=1.32D-03 Max=1.66D-02 NDo=     1
 LinEq1:  Iter=  2 NonCon=     1 RMS=4.98D-04 Max=6.60D-03 NDo=     1
 LinEq1:  Iter=  3 NonCon=     1 RMS=2.26D-04 Max=3.14D-03 NDo=     1
 LinEq1:  Iter=  4 NonCon=     1 RMS=5.56D-05 Max=4.75D-04 NDo=     1
 LinEq1:  Iter=  5 NonCon=     1 RMS=2.14D-05 Max=2.40D-04 NDo=     1
 LinEq1:  Iter=  6 NonCon=     1 RMS=6.24D-06 Max=5.40D-05 NDo=     1
 LinEq1:  Iter=  7 NonCon=     1 RMS=1.11D-06 Max=1.09D-05 NDo=     1
 LinEq1:  Iter=  8 NonCon=     1 RMS=2.36D-07 Max=2.95D-06 NDo=     1
 LinEq1:  Iter=  9 NonCon=     1 RMS=5.26D-08 Max=7.55D-07 NDo=     1
 LinEq1:  Iter= 10 NonCon=     1 RMS=1.28D-08 Max=1.41D-07 NDo=     1
 LinEq1:  Iter= 11 NonCon=     1 RMS=2.20D-09 Max=1.91D-08 NDo=     1
 LinEq1:  Iter= 12 NonCon=     1 RMS=2.88D-10 Max=2.60D-09 NDo=     1
 LinEq1:  Iter= 13 NonCon=     0 RMS=4.20D-11 Max=4.43D-10 NDo=     1
 Linear equations converged to 1.000D-10 1.000D-09 after    13 iterations.
 End of Minotr F.D. properties file   721 does not exist.
 End of Minotr F.D. properties file   722 does not exist.
 End of Minotr F.D. properties file   788 does not exist.

 **********************************************************************

            Population analysis using the SCF Density.

 **********************************************************************

 Orbital symmetries:
       Occupied  (A) (A) (A) (A) (A) (A) (A) (A) (A) (A) (A) (A)
       Virtual   (A) (A) (A) (A) (A) (A) (A) (A) (A) (A) (A) (A)
                 (A) (A) (A) (A) (A) (A) (A) (A) (A) (A) (A) (A)
                 (A) (A) (A) (A) (A) (A) (A) (A) (A) (A) (A) (A)
                 (A) (A) (A) (A) (A) (A) (A) (A) (A) (A) (A) (A)
                 (A) (A) (A) (A) (A) (A) (A) (A) (A) (A) (A) (A)
                 (A) (A) (A) (A) (A) (A) (A) (A) (A) (A) (A) (A)
                 (A) (A) (A) (A) (A) (A) (A) (A) (A) (A) (A) (A)
                 (A) (A) (A) (A) (A) (A) (A) (A) (A) (A) (A) (A)
                 (A) (A) (A) (A) (A) (A) (A) (A) (A) (A) (A) (A)
                 (A) (A) (A) (A) (A) (A) (A) (A) (A) (A) (A) (A)
                 (A) (A) (A) (A) (A) (A) (A) (A) (A) (A) (A) (A)
                 (A) (A) (A) (A) (A) (A) (A) (A) (A) (A) (A) (A)
                 (A) (A) (A) (A) (A) (A) (A) (A) (A) (A) (A) (A)
                 (A) (A) (A) (A) (A) (A) (A) (A) (A) (A) (A) (A)
                 (A) (A) (A) (A)
 The electronic state is 1-A.
 Alpha  occ. eigenvalues --  -20.62128 -20.55892 -11.40065  -1.46415  -1.35978
 Alpha  occ. eigenvalues --   -0.90465  -0.74704  -0.69726  -0.62962  -0.58452
 Alpha  occ. eigenvalues --   -0.48509  -0.46824
 Alpha virt. eigenvalues --    0.02844   0.03603   0.07413   0.08085   0.10597
 Alpha virt. eigenvalues --    0.13447   0.13897   0.14636   0.16213   0.17485
 Alpha virt. eigenvalues --    0.18659   0.22465   0.22630   0.24615   0.26698
 Alpha virt. eigenvalues --    0.28107   0.29273   0.30620   0.31433   0.34033
 Alpha virt. eigenvalues --    0.36447   0.38552   0.39922   0.41028   0.44299
 Alpha virt. eigenvalues --    0.44922   0.48711   0.50817   0.54523   0.58192
 Alpha virt. eigenvalues --    0.59929   0.63006   0.69767   0.71374   0.72968
 Alpha virt. eigenvalues --    0.75391   0.76506   0.78837   0.82122   0.85053
 Alpha virt. eigenvalues --    0.85918   0.88210   0.88728   0.90708   0.91659
 Alpha virt. eigenvalues --    0.93712   0.94027   0.95998   0.98353   1.00141
 Alpha virt. eigenvalues --    1.02209   1.03225   1.04742   1.06275   1.07635
 Alpha virt. eigenvalues --    1.09546   1.14566   1.17740   1.23937   1.27031
 Alpha virt. eigenvalues --    1.29008   1.34050   1.37437   1.38467   1.43887
 Alpha virt. eigenvalues --    1.46359   1.49632   1.51822   1.57481   1.57677
 Alpha virt. eigenvalues --    1.58779   1.70425   1.70862   1.74363   1.76977
 Alpha virt. eigenvalues --    1.91235   1.95303   2.04359   2.07399   2.13572
 Alpha virt. eigenvalues --    2.21078   2.28249   2.30244   2.34322   2.35747
 Alpha virt. eigenvalues --    2.38211   2.40736   2.42551   2.46202   2.49911
 Alpha virt. eigenvalues --    2.51103   2.54832   2.59672   2.62469   2.65627
 Alpha virt. eigenvalues --    2.66550   2.73110   2.80631   2.84107   2.85379
 Alpha virt. eigenvalues --    2.88278   2.90031   2.90042   3.02794   3.13966
 Alpha virt. eigenvalues --    3.19098   3.21254   3.32079   3.35928   3.54908
 Alpha virt. eigenvalues --    3.55971   3.57705   3.80103   3.81652   3.88625
 Alpha virt. eigenvalues --    3.91211   3.95157   4.04392   4.10043   4.14156
 Alpha virt. eigenvalues --    4.17689   4.20526   4.24320   4.32410   4.35099
 Alpha virt. eigenvalues --    4.46433   4.50843   4.69905   4.69998   4.72988
 Alpha virt. eigenvalues --    4.75705   4.89713   5.07849   5.08943   5.20031
 Alpha virt. eigenvalues --    5.21429   5.26173   5.39543   5.45414   5.53111
 Alpha virt. eigenvalues --    5.71070   5.98435   6.14312   6.30504   6.53109
 Alpha virt. eigenvalues --    6.61231   6.64713   6.72004   6.79611   6.79827
 Alpha virt. eigenvalues --    6.91158   6.95939   7.13334   7.13802   7.16828
 Alpha virt. eigenvalues --    7.19068   7.23215   7.30468   7.33265   7.36446
 Alpha virt. eigenvalues --    7.47732   7.51630   7.57672   7.71521   7.81666
 Alpha virt. eigenvalues --    7.85352   7.97697   8.08515   8.54439  14.50006
 Alpha virt. eigenvalues --   15.51576  16.95849
          Condensed to atoms (all electrons):
               1          2          3          4          5
     1  C    4.941104   0.514747   0.307248   0.042468   0.188773
     2  O    0.514747   8.144753  -0.083648  -0.004583  -0.035208
     3  O    0.307248  -0.083648   7.886350   0.225433  -0.008324
     4  H    0.042468  -0.004583   0.225433   0.503394  -0.004374
     5  H    0.188773  -0.035208  -0.008324  -0.004374   0.239333
 Mulliken charges:
               1
     1  C    0.005660
     2  O   -0.536061
     3  O   -0.327060
     4  H    0.237662
     5  H    0.619800
 Sum of Mulliken charges =  -0.00000
 Mulliken charges with hydrogens summed into heavy atoms:
               1
     1  C    0.625459
     2  O   -0.536061
     3  O   -0.089398
 Electronic spatial extent (au):  <R**2>=            133.4991
 Charge=             -0.0000 electrons
 Dipole moment (field-independent basis, Debye):
    X=              1.9156    Y=              0.6964    Z=              0.0003  Tot=              2.0383
 Quadrupole moment (field-independent basis, Debye-Ang):
   XX=            -20.9418   YY=            -13.1384   ZZ=            -17.0998
   XY=             -4.0340   XZ=              0.0004   YZ=             -0.0003
 Traceless Quadrupole moment (field-independent basis, Debye-Ang):
   XX=             -3.8818   YY=              3.9216   ZZ=             -0.0398
   XY=             -4.0340   XZ=              0.0004   YZ=             -0.0003
 Octapole moment (field-independent basis, Debye-Ang**2):
  XXX=              5.2964  YYY=             -0.6001  ZZZ=              0.0001  XYY=              3.3637
  XXY=             -3.5008  XXZ=              0.0005  XZZ=              0.2737  YZZ=             -0.2450
  YYZ=              0.0006  XYZ=             -0.0005
 Hexadecapole moment (field-independent basis, Debye-Ang**3):
 XXXX=           -109.3757 YYYY=            -27.0843 ZZZZ=            -14.6017 XXXY=             -7.2031
 XXXZ=              0.0008 YYYX=             -6.7037 YYYZ=             -0.0002 ZZZX=              0.0002
 ZZZY=             -0.0002 XXYY=            -18.7635 XXZZ=            -20.5371 YYZZ=             -8.2598
 XXYZ=             -0.0006 YYXZ=              0.0004 ZZXY=             -0.4102
 N-N= 6.972528393589D+01 E-N=-5.856742943264D+02  KE= 1.883997311330D+02
 Calling FoFJK, ICntrl=  10002127 FMM=F ISym2X=0 I1Cent= 0 IOpClX= 0 NMat=1 NMatS=1 NMatT=0.
 ***** Axes restored to original set *****
 -------------------------------------------------------------------
 Center     Atomic                   Forces (Hartrees/Bohr)
 Number     Number              X              Y              Z
 -------------------------------------------------------------------
      1        6           0.056107266    0.036487016    0.000089246
      2        8          -0.011473944   -0.010072035   -0.000020682
      3        8          -0.044315801   -0.019403040   -0.000053124
      4        1           0.017601561   -0.014911511   -0.000007146
      5        1          -0.017919082    0.007899570   -0.000008294
 -------------------------------------------------------------------
 Cartesian Forces:  Max     0.056107266 RMS     0.023048455

 GradGradGradGradGradGradGradGradGradGradGradGradGradGradGradGradGradGrad
 Berny optimization.
 FormGI is forming the generalized inverse of G from B-inverse, IUseBI=4.
 Internal  Forces:  Max     0.041106707 RMS     0.019310058
 Search for a local minimum.
 Step number   1 out of a maximum of   21
 All quantities printed in internal units (Hartrees-Bohrs-Radians)
 Mixed Optimization -- RFO/linear search
 Second derivative matrix not updated -- first step.
 The second derivative matrix:
                          R1        R2        R3        R4        A1
           R1           0.95180
           R2           0.00000   0.55373
           R3           0.00000   0.00000   0.35459
           R4           0.00000   0.00000   0.00000   0.53863
           A1           0.00000   0.00000   0.00000   0.00000   0.25000
           A2           0.00000   0.00000   0.00000   0.00000   0.00000
           A3           0.00000   0.00000   0.00000   0.00000   0.00000
           A4           0.00000   0.00000   0.00000   0.00000   0.00000
           D1           0.00000   0.00000   0.00000   0.00000   0.00000
           D2           0.00000   0.00000   0.00000   0.00000   0.00000
           D3           0.00000   0.00000   0.00000   0.00000   0.00000
                          A2        A3        A4        D1        D2
           A2           0.16000
           A3           0.00000   0.16000
           A4           0.00000   0.00000   0.16000
           D1           0.00000   0.00000   0.00000   0.02375
           D2           0.00000   0.00000   0.00000   0.00000   0.02375
           D3           0.00000   0.00000   0.00000   0.00000   0.00000
                          D3
           D3           0.02375
 ITU=  0
     Eigenvalues ---    0.02375   0.02375   0.16000   0.16000   0.22000
     Eigenvalues ---    0.35459   0.53863   0.55373   0.95180
 RFO step:  Lambda=-1.95345353D-02 EMin= 2.37494589D-02
 Linear search not attempted -- first point.
 Maximum step size (   0.300) exceeded in Quadratic search.
    -- Step size scaled by   0.952
 Iteration  1 RMS(Cart)=  0.08894079 RMS(Int)=  0.00720448
 Iteration  2 RMS(Cart)=  0.01154881 RMS(Int)=  0.00007357
 Iteration  3 RMS(Cart)=  0.00005939 RMS(Int)=  0.00000000
 Iteration  4 RMS(Cart)=  0.00000000 RMS(Int)=  0.00000000
 Variable       Old X    -DE/DX   Delta X   Delta X   Delta X     New X
                                 (Linear)    (Quad)   (Total)
    R1        2.30633  -0.01168   0.00000  -0.01145  -0.01145   2.29489
    R2        2.54802  -0.01525   0.00000  -0.02532  -0.02532   2.52271
    R3        2.04935   0.00165   0.00000   0.00420   0.00420   2.05356
    R4        1.82856  -0.00518   0.00000  -0.00883  -0.00883   1.81974
    A1        2.10115   0.02845   0.00000   0.11304   0.11304   2.21419
    A2        2.09116   0.00577   0.00000   0.04948   0.04948   2.14064
    A3        2.09088  -0.03422   0.00000  -0.16252  -0.16252   1.92835
    A4        2.11402  -0.04111   0.00000  -0.21793  -0.21793   1.89609
    D1       -0.00019   0.00000   0.00000   0.00003   0.00003  -0.00015
    D2       -3.14153  -0.00000   0.00000  -0.00008  -0.00008   3.14158
    D3        3.14134   0.00001   0.00000   0.00011   0.00011   3.14145
         Item               Value     Threshold  Converged?
 Maximum Force            0.041107     0.000450     NO 
 RMS     Force            0.019310     0.000300     NO 
 Maximum Displacement     0.196235     0.001800     NO 
 RMS     Displacement     0.097247     0.001200     NO 
 Predicted change in Energy=-1.062364D-02
 GradGradGradGradGradGradGradGradGradGradGradGradGradGradGradGradGradGrad

                          Input orientation:                          
 ---------------------------------------------------------------------
 Center     Atomic      Atomic             Coordinates (Angstroms)
 Number     Number       Type             X           Y           Z
 ---------------------------------------------------------------------
      1          6           0        1.076245   -0.288927   -0.000100
      2          8           0        2.290647   -0.288083    0.000733
      3          8           0        0.274644    0.778570    0.000521
      4          1           0        0.819494    1.572569    0.001905
      5          1           0        0.490606   -1.204312   -0.001516
 ---------------------------------------------------------------------
                    Distance matrix (angstroms):
                    1          2          3          4          5
     1  C    0.000000
     2  O    1.214402   0.000000
     3  O    1.334959   2.280793   0.000000
     4  H    1.879120   2.371986   0.962963   0.000000
     5  H    1.086695   2.019808   1.994609   2.796292   0.000000
 Stoichiometry    CH2O2
 Framework group  C1[X(CH2O2)]
 Deg. of freedom     9
 Full point group                 C1      NOp   1
 Largest Abelian subgroup         C1      NOp   1
 Largest concise Abelian subgroup C1      NOp   1
                         Standard orientation:                         
 ---------------------------------------------------------------------
 Center     Atomic      Atomic             Coordinates (Angstroms)
 Number     Number       Type             X           Y           Z
 ---------------------------------------------------------------------
      1          6           0       -0.124015    0.389326    0.000009
      2          8           0       -1.151219   -0.258458   -0.000006
      3          8           0        1.123113   -0.086897   -0.000016
      4          1           0        1.085115   -1.049110    0.000091
      5          1           0       -0.116179    1.475992    0.000034
 ---------------------------------------------------------------------
 Rotational constants (GHZ):          80.6861684          11.8122823          10.3038245
 Standard basis: Aug-CC-pVTZ (5D, 7F)
 There are   215 symmetry adapted cartesian basis functions of A   symmetry.
 There are   184 symmetry adapted basis functions of A   symmetry.
   184 basis functions,   270 primitive gaussians,   215 cartesian basis functions
    12 alpha electrons       12 beta electrons
       nuclear repulsion energy        69.9922171662 Hartrees.
 NAtoms=    5 NActive=    5 NUniq=    5 SFac= 1.00D+00 NAtFMM=   60 NAOKFM=F Big=F
 Integral buffers will be    131072 words long.
 Raffenetti 1 integral format.
 Two-electron integral symmetry is turned on.
 One-electron integrals computed using PRISM.
 NBasis=   184 RedAO= T EigKep=  6.68D-05  NBF=   184
 NBsUse=   184 1.00D-06 EigRej= -1.00D+00 NBFU=   184
 Initial guess from the checkpoint file:  "/scr/Gau-77511.chk"
 B after Tr=     0.000000   -0.000000    0.000000
         Rot=    0.999777   -0.000001    0.000000    0.021138 Ang=  -2.42 deg.
 ExpMin= 2.53D-02 ExpMax= 1.53D+04 ExpMxC= 5.22D+02 IAcc=3 IRadAn=         5 AccDes= 0.00D+00
 Harris functional with IExCor=  205 and IRadAn=       5 diagonalized for initial guess.
 HarFok:  IExCor=  205 AccDes= 0.00D+00 IRadAn=         5 IDoV= 1 UseB2=F ITyADJ=14
 ICtDFT=  3500011 ScaDFX=  1.000000  1.000000  1.000000  1.000000
 FoFCou: FMM=F IPFlag=           0 FMFlag=      100000 FMFlg1=           0
         NFxFlg=           0 DoJE=T BraDBF=F KetDBF=T FulRan=T
         wScrn=  0.000000 ICntrl=       500 IOpCl=  0 I1Cent=   200000004 NGrid=           0
         NMat0=    1 NMatS0=      1 NMatT0=    0 NMatD0=    1 NMtDS0=    0 NMtDT0=    0
 Petite list used in FoFCou.
 Keep R1 ints in memory in canonical form, NReq=164568882.
 Requested convergence on RMS density matrix=1.00D-08 within 128 cycles.
 Requested convergence on MAX density matrix=1.00D-06.
 Requested convergence on             energy=1.00D-06.
 No special actions if energy rises.
 SCF Done:  E(RHF) =  -188.843146864     A.U. after   11 cycles
            NFock= 11  Conv=0.41D-08     -V/T= 2.0019
 ExpMin= 2.53D-02 ExpMax= 1.53D+04 ExpMxC= 5.22D+02 IAcc=3 IRadAn=         5 AccDes= 0.00D+00
 HarFok:  IExCor=  205 AccDes= 0.00D+00 IRadAn=         5 IDoV=-2 UseB2=F ITyADJ=14
 ICtDFT= 12500011 ScaDFX=  1.000000  1.000000  1.000000  1.000000
 Range of M.O.s used for correlation:     4   184
 NBasis=   184 NAE=    12 NBE=    12 NFC=     3 NFV=     0
 NROrb=    181 NOA=     9 NOB=     9 NVA=   172 NVB=   172

 **** Warning!!: The largest alpha MO coefficient is  0.32771521D+02

 Fully direct method using O(ONN) memory.
 JobTyp=1 Pass  1:  I=   4 to  12 NPSUse= 40 ParTrn=T ParDer=T DoDerP=T.
 Spin components of T(2) and E(2):
     alpha-alpha T2 =       0.2207745411D-01 E2=     -0.8205734920D-01
     alpha-beta  T2 =       0.1208917723D+00 E2=     -0.4789108220D+00
     beta-beta   T2 =       0.2207745411D-01 E2=     -0.8205734920D-01
 ANorm=    0.1079373281D+01
 E2 =    -0.6430255204D+00 EUMP2 =    -0.18948617238486D+03
          IDoAtm=11111
          Differentiating once with respect to electric field.
                with respect to dipole field.
          Differentiating once with respect to nuclear coordinates.
 Keep R1 ints in memory in canonical form, NReq=164572651.
          There are     1 degrees of freedom in the 1st order CPHF.  IDoFFX=0 NUNeed=     1.
 LinEq1:  Iter=  0 NonCon=     1 RMS=5.02D-03 Max=1.13D-01 NDo=     1
 AX will form     1 AO Fock derivatives at one time.
 LinEq1:  Iter=  1 NonCon=     1 RMS=1.31D-03 Max=1.64D-02 NDo=     1
 LinEq1:  Iter=  2 NonCon=     1 RMS=4.90D-04 Max=6.31D-03 NDo=     1
 LinEq1:  Iter=  3 NonCon=     1 RMS=2.24D-04 Max=3.06D-03 NDo=     1
 LinEq1:  Iter=  4 NonCon=     1 RMS=5.41D-05 Max=5.57D-04 NDo=     1
 LinEq1:  Iter=  5 NonCon=     1 RMS=2.15D-05 Max=2.57D-04 NDo=     1
 LinEq1:  Iter=  6 NonCon=     1 RMS=6.07D-06 Max=7.33D-05 NDo=     1
 LinEq1:  Iter=  7 NonCon=     1 RMS=1.14D-06 Max=1.36D-05 NDo=     1
 LinEq1:  Iter=  8 NonCon=     1 RMS=2.51D-07 Max=3.27D-06 NDo=     1
 LinEq1:  Iter=  9 NonCon=     1 RMS=4.75D-08 Max=4.93D-07 NDo=     1
 LinEq1:  Iter= 10 NonCon=     1 RMS=9.70D-09 Max=8.12D-08 NDo=     1
 LinEq1:  Iter= 11 NonCon=     1 RMS=1.92D-09 Max=1.71D-08 NDo=     1
 LinEq1:  Iter= 12 NonCon=     1 RMS=2.64D-10 Max=2.73D-09 NDo=     1
 LinEq1:  Iter= 13 NonCon=     0 RMS=3.82D-11 Max=3.88D-10 NDo=     1
 Linear equations converged to 1.000D-10 1.000D-09 after    13 iterations.
 End of Minotr F.D. properties file   721 does not exist.
 End of Minotr F.D. properties file   722 does not exist.
 End of Minotr F.D. properties file   788 does not exist.
 Calling FoFJK, ICntrl=  10002127 FMM=F ISym2X=0 I1Cent= 0 IOpClX= 0 NMat=1 NMatS=1 NMatT=0.
 ***** Axes restored to original set *****
 -------------------------------------------------------------------
 Center     Atomic                   Forces (Hartrees/Bohr)
 Number     Number              X              Y              Z
 -------------------------------------------------------------------
      1        6           0.018931030   -0.009336978    0.000000282
      2        8          -0.012279548    0.006338824    0.000000742
      3        8          -0.007793641   -0.000091622   -0.000001612
      4        1           0.006063730    0.004563405    0.000006737
      5        1          -0.004921571   -0.001473630   -0.000006149
 -------------------------------------------------------------------
 Cartesian Forces:  Max     0.018931030 RMS     0.007216958

 GradGradGradGradGradGradGradGradGradGradGradGradGradGradGradGradGradGrad
 Berny optimization.
 Using GEDIIS/GDIIS optimizer.
 FormGI is forming the generalized inverse of G from B-inverse, IUseBI=4.
 Internal  Forces:  Max     0.012275137 RMS     0.005755927
 Search for a local minimum.
 Step number   2 out of a maximum of   21
 All quantities printed in internal units (Hartrees-Bohrs-Radians)
 Mixed Optimization -- RFO/linear search
 Update second derivatives using D2CorX and points    1    2
 DE= -9.89D-03 DEPred=-1.06D-02 R= 9.31D-01
 TightC=F SS=  1.41D+00  RLast= 3.00D-01 DXNew= 5.0454D-01 9.0000D-01
 Trust test= 9.31D-01 RLast= 3.00D-01 DXMaxT set to 5.05D-01
 The second derivative matrix:
                          R1        R2        R3        R4        A1
           R1           0.94438
           R2          -0.01023   0.56309
           R3           0.00094   0.00376   0.35473
           R4          -0.00365   0.00933   0.00197   0.54563
           A1           0.02049  -0.01432  -0.00706  -0.01597   0.27062
           A2           0.00537   0.00847  -0.00057   0.00330  -0.01676
           A3          -0.01890   0.01479   0.00668   0.01570  -0.02191
           A4          -0.02503   0.00942   0.00778   0.01457  -0.01057
           D1           0.00000   0.00000   0.00000   0.00000  -0.00001
           D2          -0.00000   0.00000   0.00000   0.00000  -0.00001
           D3           0.00000  -0.00000  -0.00000  -0.00000  -0.00000
                          A2        A3        A4        D1        D2
           A2           0.15617
           A3           0.01553   0.18297
           A4           0.02010   0.01272   0.15781
           D1          -0.00000   0.00000   0.00001   0.02375
           D2           0.00000   0.00001   0.00000   0.00000   0.02375
           D3          -0.00000  -0.00000   0.00000  -0.00000  -0.00000
                          D3
           D3           0.02375
 ITU=  1  0
 Use linear search instead of GDIIS.
     Eigenvalues ---    0.02375   0.02375   0.14478   0.16050   0.26722
     Eigenvalues ---    0.35586   0.54230   0.57018   0.94674
 RFO step:  Lambda=-9.99008101D-04 EMin= 2.37494582D-02
 Quartic linear search produced a step of  0.01975.
 Iteration  1 RMS(Cart)=  0.02788947 RMS(Int)=  0.00049452
 Iteration  2 RMS(Cart)=  0.00043656 RMS(Int)=  0.00000005
 Iteration  3 RMS(Cart)=  0.00000005 RMS(Int)=  0.00000000
 Variable       Old X    -DE/DX   Delta X   Delta X   Delta X     New X
                                 (Linear)    (Quad)   (Total)
    R1        2.29489  -0.01228  -0.00023  -0.01347  -0.01370   2.28119
    R2        2.52271   0.00461  -0.00050   0.00775   0.00725   2.52996
    R3        2.05356   0.00389   0.00008   0.01128   0.01136   2.06492
    R4        1.81974   0.00719  -0.00017   0.01333   0.01316   1.83290
    A1        2.21419  -0.00742   0.00223  -0.03125  -0.02902   2.18517
    A2        2.14064   0.00715   0.00098   0.04002   0.04099   2.18164
    A3        1.92835   0.00027  -0.00321  -0.00877  -0.01198   1.91638
    A4        1.89609  -0.00440  -0.00430  -0.03321  -0.03751   1.85858
    D1       -0.00015   0.00000   0.00000   0.00014   0.00014  -0.00001
    D2        3.14158   0.00000  -0.00000   0.00003   0.00002  -3.14158
    D3        3.14145   0.00000   0.00000   0.00011   0.00012   3.14157
         Item               Value     Threshold  Converged?
 Maximum Force            0.012275     0.000450     NO 
 RMS     Force            0.005756     0.000300     NO 
 Maximum Displacement     0.063076     0.001800     NO 
 RMS     Displacement     0.027952     0.001200     NO 
 Predicted change in Energy=-5.098980D-04
 GradGradGradGradGradGradGradGradGradGradGradGradGradGradGradGradGradGrad

                          Input orientation:                          
 ---------------------------------------------------------------------
 Center     Atomic      Atomic             Coordinates (Angstroms)
 Number     Number       Type             X           Y           Z
 ---------------------------------------------------------------------
      1          6           0        1.076097   -0.294230   -0.000104
      2          8           0        2.282603   -0.254705    0.000778
      3          8           0        0.268946    0.773890    0.000558
      4          1           0        0.844977    1.554240    0.001863
      5          1           0        0.479012   -1.209379   -0.001552
 ---------------------------------------------------------------------
                    Distance matrix (angstroms):
                    1          2          3          4          5
     1  C    0.000000
     2  O    1.207154   0.000000
     3  O    1.338796   2.261155   0.000000
     4  H    1.862864   2.310638   0.969927   0.000000
     5  H    1.092707   2.040673   1.994364   2.787746   0.000000
 Stoichiometry    CH2O2
 Framework group  C1[X(CH2O2)]
 Deg. of freedom     9
 Full point group                 C1      NOp   1
 Largest Abelian subgroup         C1      NOp   1
 Largest concise Abelian subgroup C1      NOp   1
                         Standard orientation:                         
 ---------------------------------------------------------------------
 Center     Atomic      Atomic             Coordinates (Angstroms)
 Number     Number       Type             X           Y           Z
 ---------------------------------------------------------------------
      1          6           0       -0.127710    0.399954   -0.000001
      2          8           0       -1.138167   -0.260498   -0.000000
      3          8           0        1.116815   -0.093535   -0.000002
      4          1           0        1.029907   -1.059561    0.000012
      5          1           0       -0.092828    1.492104    0.000010
 ---------------------------------------------------------------------
 Rotational constants (GHZ):          78.0527354          12.0425126          10.4328593
 Standard basis: Aug-CC-pVTZ (5D, 7F)
 There are   215 symmetry adapted cartesian basis functions of A   symmetry.
 There are   184 symmetry adapted basis functions of A   symmetry.
   184 basis functions,   270 primitive gaussians,   215 cartesian basis functions
    12 alpha electrons       12 beta electrons
       nuclear repulsion energy        70.1861280683 Hartrees.
 NAtoms=    5 NActive=    5 NUniq=    5 SFac= 1.00D+00 NAtFMM=   60 NAOKFM=F Big=F
 Integral buffers will be    131072 words long.
 Raffenetti 1 integral format.
 Two-electron integral symmetry is turned on.
 One-electron integrals computed using PRISM.
 NBasis=   184 RedAO= T EigKep=  6.81D-05  NBF=   184
 NBsUse=   184 1.00D-06 EigRej= -1.00D+00 NBFU=   184
 Initial guess from the checkpoint file:  "/scr/Gau-77511.chk"
 B after Tr=     0.000000    0.000000   -0.000000
         Rot=    0.999997    0.000000    0.000000    0.002315 Ang=   0.27 deg.
 ExpMin= 2.53D-02 ExpMax= 1.53D+04 ExpMxC= 5.22D+02 IAcc=3 IRadAn=         5 AccDes= 0.00D+00
 Harris functional with IExCor=  205 and IRadAn=       5 diagonalized for initial guess.
 HarFok:  IExCor=  205 AccDes= 0.00D+00 IRadAn=         5 IDoV= 1 UseB2=F ITyADJ=14
 ICtDFT=  3500011 ScaDFX=  1.000000  1.000000  1.000000  1.000000
 FoFCou: FMM=F IPFlag=           0 FMFlag=      100000 FMFlg1=           0
         NFxFlg=           0 DoJE=T BraDBF=F KetDBF=T FulRan=T
         wScrn=  0.000000 ICntrl=       500 IOpCl=  0 I1Cent=   200000004 NGrid=           0
         NMat0=    1 NMatS0=      1 NMatT0=    0 NMatD0=    1 NMtDS0=    0 NMtDT0=    0
 Petite list used in FoFCou.
 Keep R1 ints in memory in canonical form, NReq=164569000.
 Requested convergence on RMS density matrix=1.00D-08 within 128 cycles.
 Requested convergence on MAX density matrix=1.00D-06.
 Requested convergence on             energy=1.00D-06.
 No special actions if energy rises.
 SCF Done:  E(RHF) =  -188.843729085     A.U. after   10 cycles
            NFock= 10  Conv=0.80D-08     -V/T= 2.0018
 ExpMin= 2.53D-02 ExpMax= 1.53D+04 ExpMxC= 5.22D+02 IAcc=3 IRadAn=         5 AccDes= 0.00D+00
 HarFok:  IExCor=  205 AccDes= 0.00D+00 IRadAn=         5 IDoV=-2 UseB2=F ITyADJ=14
 ICtDFT= 12500011 ScaDFX=  1.000000  1.000000  1.000000  1.000000
 Range of M.O.s used for correlation:     4   184
 NBasis=   184 NAE=    12 NBE=    12 NFC=     3 NFV=     0
 NROrb=    181 NOA=     9 NOB=     9 NVA=   172 NVB=   172

 **** Warning!!: The largest alpha MO coefficient is  0.32473051D+02

 Fully direct method using O(ONN) memory.
 JobTyp=1 Pass  1:  I=   4 to  12 NPSUse= 40 ParTrn=T ParDer=T DoDerP=T.
 Spin components of T(2) and E(2):
     alpha-alpha T2 =       0.2204987658D-01 E2=     -0.8206211454D-01
     alpha-beta  T2 =       0.1207793991D+00 E2=     -0.4788625306D+00
     beta-beta   T2 =       0.2204987658D-01 E2=     -0.8206211454D-01
 ANorm=    0.1079295674D+01
 E2 =    -0.6429867596D+00 EUMP2 =    -0.18948671584472D+03
          IDoAtm=11111
          Differentiating once with respect to electric field.
                with respect to dipole field.
          Differentiating once with respect to nuclear coordinates.
 Keep R1 ints in memory in canonical form, NReq=164572592.
          There are     1 degrees of freedom in the 1st order CPHF.  IDoFFX=0 NUNeed=     1.
 LinEq1:  Iter=  0 NonCon=     1 RMS=4.99D-03 Max=1.13D-01 NDo=     1
 AX will form     1 AO Fock derivatives at one time.
 LinEq1:  Iter=  1 NonCon=     1 RMS=1.30D-03 Max=1.64D-02 NDo=     1
 LinEq1:  Iter=  2 NonCon=     1 RMS=4.81D-04 Max=6.34D-03 NDo=     1
 LinEq1:  Iter=  3 NonCon=     1 RMS=2.21D-04 Max=2.95D-03 NDo=     1
 LinEq1:  Iter=  4 NonCon=     1 RMS=5.43D-05 Max=5.92D-04 NDo=     1
 LinEq1:  Iter=  5 NonCon=     1 RMS=2.19D-05 Max=3.04D-04 NDo=     1
 LinEq1:  Iter=  6 NonCon=     1 RMS=6.55D-06 Max=9.46D-05 NDo=     1
 LinEq1:  Iter=  7 NonCon=     1 RMS=1.32D-06 Max=1.65D-05 NDo=     1
 LinEq1:  Iter=  8 NonCon=     1 RMS=2.90D-07 Max=2.85D-06 NDo=     1
 LinEq1:  Iter=  9 NonCon=     1 RMS=5.17D-08 Max=4.44D-07 NDo=     1
 LinEq1:  Iter= 10 NonCon=     1 RMS=1.05D-08 Max=8.59D-08 NDo=     1
 LinEq1:  Iter= 11 NonCon=     1 RMS=1.97D-09 Max=1.82D-08 NDo=     1
 LinEq1:  Iter= 12 NonCon=     1 RMS=2.66D-10 Max=2.67D-09 NDo=     1
 LinEq1:  Iter= 13 NonCon=     0 RMS=3.96D-11 Max=3.96D-10 NDo=     1
 Linear equations converged to 1.000D-10 1.000D-09 after    13 iterations.
 End of Minotr F.D. properties file   721 does not exist.
 End of Minotr F.D. properties file   722 does not exist.
 End of Minotr F.D. properties file   788 does not exist.
 Calling FoFJK, ICntrl=  10002127 FMM=F ISym2X=0 I1Cent= 0 IOpClX= 0 NMat=1 NMatS=1 NMatT=0.
 ***** Axes restored to original set *****
 -------------------------------------------------------------------
 Center     Atomic                   Forces (Hartrees/Bohr)
 Number     Number              X              Y              Z
 -------------------------------------------------------------------
      1        6           0.004801207   -0.004895897   -0.000000937
      2        8          -0.001842871    0.000129493   -0.000001444
      3        8          -0.003501913    0.003717945    0.000002037
      4        1           0.000439597    0.001024183    0.000000993
      5        1           0.000103980    0.000024276   -0.000000649
 -------------------------------------------------------------------
 Cartesian Forces:  Max     0.004895897 RMS     0.002277052

 GradGradGradGradGradGradGradGradGradGradGradGradGradGradGradGradGradGrad
 Berny optimization.
 Using GEDIIS/GDIIS optimizer.
 FormGI is forming the generalized inverse of G from B-inverse, IUseBI=4.
 Internal  Forces:  Max     0.005629627 RMS     0.001825454
 Search for a local minimum.
 Step number   3 out of a maximum of   21
 All quantities printed in internal units (Hartrees-Bohrs-Radians)
 Mixed Optimization -- RFO/linear search
 Update second derivatives using D2CorX and points    1    2    3
 DE= -5.43D-04 DEPred=-5.10D-04 R= 1.07D+00
 TightC=F SS=  1.41D+00  RLast= 6.79D-02 DXNew= 8.4853D-01 2.0381D-01
 Trust test= 1.07D+00 RLast= 6.79D-02 DXMaxT set to 5.05D-01
 The second derivative matrix:
                          R1        R2        R3        R4        A1
           R1           0.91109
           R2           0.05501   0.55525
           R3           0.00417  -0.01798   0.35638
           R4           0.01540  -0.02589  -0.00020   0.53463
           A1          -0.00332   0.02188  -0.00327  -0.00215   0.25344
           A2           0.00020  -0.02777   0.00585   0.00534  -0.01613
           A3          -0.02972   0.02582   0.00888   0.02131  -0.02761
           A4          -0.02484   0.04425   0.00311   0.01474  -0.01251
           D1           0.00000  -0.00002   0.00000  -0.00000  -0.00000
           D2          -0.00001  -0.00000   0.00000   0.00001  -0.00001
           D3           0.00001  -0.00001  -0.00000  -0.00001   0.00001
                          A2        A3        A4        D1        D2
           A2           0.17321
           A3           0.01749   0.17909
           A4           0.00628   0.00874   0.16722
           D1           0.00000   0.00001   0.00000   0.02375
           D2           0.00001   0.00000  -0.00000   0.00000   0.02375
           D3          -0.00000   0.00000   0.00000  -0.00000   0.00000
                          D3
           D3           0.02375
 ITU=  1  1  0
 Use linear search instead of GDIIS.
     Eigenvalues ---    0.02375   0.02375   0.14900   0.16115   0.26379
     Eigenvalues ---    0.35578   0.52023   0.57527   0.92068
 RFO step:  Lambda=-6.38073497D-05 EMin= 2.37494532D-02
 Quartic linear search produced a step of  0.07647.
 Iteration  1 RMS(Cart)=  0.00305201 RMS(Int)=  0.00000119
 Iteration  2 RMS(Cart)=  0.00000122 RMS(Int)=  0.00000000
 Iteration  3 RMS(Cart)=  0.00000000 RMS(Int)=  0.00000000
 Variable       Old X    -DE/DX   Delta X   Delta X   Delta X     New X
                                 (Linear)    (Quad)   (Total)
    R1        2.28119  -0.00184  -0.00105  -0.00173  -0.00278   2.27841
    R2        2.52996   0.00563   0.00055   0.01031   0.01086   2.54082
    R3        2.06492  -0.00008   0.00087  -0.00054   0.00033   2.06525
    R4        1.83290   0.00109   0.00101   0.00165   0.00266   1.83555
    A1        2.18517  -0.00034  -0.00222   0.00040  -0.00182   2.18335
    A2        2.18164   0.00009   0.00313  -0.00043   0.00271   2.18434
    A3        1.91638   0.00025  -0.00092   0.00003  -0.00089   1.91549
    A4        1.85858   0.00047  -0.00287   0.00198  -0.00089   1.85770
    D1       -0.00001   0.00000   0.00001  -0.00000   0.00001  -0.00000
    D2       -3.14158  -0.00000   0.00000  -0.00003  -0.00003   3.14157
    D3        3.14157   0.00000   0.00001   0.00003   0.00004  -3.14158
         Item               Value     Threshold  Converged?
 Maximum Force            0.005630     0.000450     NO 
 RMS     Force            0.001825     0.000300     NO 
 Maximum Displacement     0.005253     0.001800     NO 
 RMS     Displacement     0.003052     0.001200     NO 
 Predicted change in Energy=-3.471668D-05
 GradGradGradGradGradGradGradGradGradGradGradGradGradGradGradGradGradGrad

                          Input orientation:                          
 ---------------------------------------------------------------------
 Center     Atomic      Atomic             Coordinates (Angstroms)
 Number     Number       Type             X           Y           Z
 ---------------------------------------------------------------------
      1          6           0        1.077562   -0.296717   -0.000095
      2          8           0        2.282537   -0.255359    0.000777
      3          8           0        0.267222    0.776199    0.000569
      4          1           0        0.844981    1.557020    0.001856
      5          1           0        0.479335   -1.211326   -0.001564
 ---------------------------------------------------------------------
                    Distance matrix (angstroms):
                    1          2          3          4          5
     1  C    0.000000
     2  O    1.205685   0.000000
     3  O    1.344544   2.263980   0.000000
     4  H    1.868271   2.313285   0.971333   0.000000
     5  H    1.092881   2.040935   1.998813   2.792391   0.000000
 Stoichiometry    CH2O2
 Framework group  C1[X(CH2O2)]
 Deg. of freedom     9
 Full point group                 C1      NOp   1
 Largest Abelian subgroup         C1      NOp   1
 Largest concise Abelian subgroup C1      NOp   1
                         Standard orientation:                         
 ---------------------------------------------------------------------
 Center     Atomic      Atomic             Coordinates (Angstroms)
 Number     Number       Type             X           Y           Z
 ---------------------------------------------------------------------
      1          6           0       -0.131136    0.400941    0.000004
      2          8           0       -1.138152   -0.262078   -0.000001
      3          8           0        1.119488   -0.092758   -0.000000
      4          1           0        1.033075   -1.060240   -0.000003
      5          1           0       -0.096947    1.493287   -0.000009
 ---------------------------------------------------------------------
 Rotational constants (GHZ):          77.7550709          12.0099762          10.4031200
 Standard basis: Aug-CC-pVTZ (5D, 7F)
 There are   215 symmetry adapted cartesian basis functions of A   symmetry.
 There are   184 symmetry adapted basis functions of A   symmetry.
   184 basis functions,   270 primitive gaussians,   215 cartesian basis functions
    12 alpha electrons       12 beta electrons
       nuclear repulsion energy        70.0928480466 Hartrees.
 NAtoms=    5 NActive=    5 NUniq=    5 SFac= 1.00D+00 NAtFMM=   60 NAOKFM=F Big=F
 Integral buffers will be    131072 words long.
 Raffenetti 1 integral format.
 Two-electron integral symmetry is turned on.
 One-electron integrals computed using PRISM.
 NBasis=   184 RedAO= T EigKep=  6.84D-05  NBF=   184
 NBsUse=   184 1.00D-06 EigRej= -1.00D+00 NBFU=   184
 Initial guess from the checkpoint file:  "/scr/Gau-77511.chk"
 B after Tr=     0.000000    0.000000    0.000000
         Rot=    1.000000    0.000000    0.000000   -0.000747 Ang=  -0.09 deg.
 Keep R1 ints in memory in canonical form, NReq=164569000.
 Requested convergence on RMS density matrix=1.00D-08 within 128 cycles.
 Requested convergence on MAX density matrix=1.00D-06.
 Requested convergence on             energy=1.00D-06.
 No special actions if energy rises.
 SCF Done:  E(RHF) =  -188.843566404     A.U. after    9 cycles
            NFock=  9  Conv=0.69D-08     -V/T= 2.0019
 ExpMin= 2.53D-02 ExpMax= 1.53D+04 ExpMxC= 5.22D+02 IAcc=3 IRadAn=         5 AccDes= 0.00D+00
 HarFok:  IExCor=  205 AccDes= 0.00D+00 IRadAn=         5 IDoV=-2 UseB2=F ITyADJ=14
 ICtDFT= 12500011 ScaDFX=  1.000000  1.000000  1.000000  1.000000
 Range of M.O.s used for correlation:     4   184
 NBasis=   184 NAE=    12 NBE=    12 NFC=     3 NFV=     0
 NROrb=    181 NOA=     9 NOB=     9 NVA=   172 NVB=   172

 **** Warning!!: The largest alpha MO coefficient is  0.32497727D+02

 Fully direct method using O(ONN) memory.
 JobTyp=1 Pass  1:  I=   4 to  12 NPSUse= 40 ParTrn=T ParDer=T DoDerP=T.
 Spin components of T(2) and E(2):
     alpha-alpha T2 =       0.2207558644D-01 E2=     -0.8207672535D-01
     alpha-beta  T2 =       0.1209475485D+00 E2=     -0.4790380406D+00
     beta-beta   T2 =       0.2207558644D-01 E2=     -0.8207672535D-01
 ANorm=    0.1079397388D+01
 E2 =    -0.6431914913D+00 EUMP2 =    -0.18948675789558D+03
          IDoAtm=11111
          Differentiating once with respect to electric field.
                with respect to dipole field.
          Differentiating once with respect to nuclear coordinates.
 Keep R1 ints in memory in canonical form, NReq=164572592.
          There are     1 degrees of freedom in the 1st order CPHF.  IDoFFX=0 NUNeed=     1.
 LinEq1:  Iter=  0 NonCon=     1 RMS=4.99D-03 Max=1.14D-01 NDo=     1
 AX will form     1 AO Fock derivatives at one time.
 LinEq1:  Iter=  1 NonCon=     1 RMS=1.30D-03 Max=1.68D-02 NDo=     1
 LinEq1:  Iter=  2 NonCon=     1 RMS=4.82D-04 Max=6.38D-03 NDo=     1
 LinEq1:  Iter=  3 NonCon=     1 RMS=2.22D-04 Max=2.98D-03 NDo=     1
 LinEq1:  Iter=  4 NonCon=     1 RMS=5.50D-05 Max=5.97D-04 NDo=     1
 LinEq1:  Iter=  5 NonCon=     1 RMS=2.23D-05 Max=3.23D-04 NDo=     1
 LinEq1:  Iter=  6 NonCon=     1 RMS=6.83D-06 Max=1.01D-04 NDo=     1
 LinEq1:  Iter=  7 NonCon=     1 RMS=1.39D-06 Max=1.67D-05 NDo=     1
 LinEq1:  Iter=  8 NonCon=     1 RMS=3.02D-07 Max=3.05D-06 NDo=     1
 LinEq1:  Iter=  9 NonCon=     1 RMS=5.30D-08 Max=4.55D-07 NDo=     1
 LinEq1:  Iter= 10 NonCon=     1 RMS=1.07D-08 Max=8.67D-08 NDo=     1
 LinEq1:  Iter= 11 NonCon=     1 RMS=1.99D-09 Max=1.87D-08 NDo=     1
 LinEq1:  Iter= 12 NonCon=     1 RMS=2.68D-10 Max=2.71D-09 NDo=     1
 LinEq1:  Iter= 13 NonCon=     0 RMS=4.00D-11 Max=4.07D-10 NDo=     1
 Linear equations converged to 1.000D-10 1.000D-09 after    13 iterations.
 End of Minotr F.D. properties file   721 does not exist.
 End of Minotr F.D. properties file   722 does not exist.
 End of Minotr F.D. properties file   788 does not exist.
 Calling FoFJK, ICntrl=  10002127 FMM=F ISym2X=0 I1Cent= 0 IOpClX= 0 NMat=1 NMatS=1 NMatT=0.
 ***** Axes restored to original set *****
 -------------------------------------------------------------------
 Center     Atomic                   Forces (Hartrees/Bohr)
 Number     Number              X              Y              Z
 -------------------------------------------------------------------
      1        6           0.001163794   -0.001310901   -0.000003189
      2        8          -0.000366949   -0.000051285    0.000000556
      3        8          -0.000617067    0.001349603    0.000001660
      4        1          -0.000269254   -0.000260505   -0.000000352
      5        1           0.000089476    0.000273087    0.000001325
 -------------------------------------------------------------------
 Cartesian Forces:  Max     0.001349603 RMS     0.000612934

 GradGradGradGradGradGradGradGradGradGradGradGradGradGradGradGradGradGrad
 Berny optimization.
 Using GEDIIS/GDIIS optimizer.
 FormGI is forming the generalized inverse of G from B-inverse, IUseBI=4.
 Internal  Forces:  Max     0.001403252 RMS     0.000463317
 Search for a local minimum.
 Step number   4 out of a maximum of   21
 All quantities printed in internal units (Hartrees-Bohrs-Radians)
 Mixed Optimization -- En-DIIS/RFO-DIIS
 Update second derivatives using D2CorX and points    1    2    3    4
 DE= -4.21D-05 DEPred=-3.47D-05 R= 1.21D+00
 TightC=F SS=  1.41D+00  RLast= 1.20D-02 DXNew= 8.4853D-01 3.6135D-02
 Trust test= 1.21D+00 RLast= 1.20D-02 DXMaxT set to 5.05D-01
 The second derivative matrix:
                          R1        R2        R3        R4        A1
           R1           0.90270
           R2           0.09164   0.43004
           R3          -0.00586   0.00130   0.35929
           R4          -0.00094  -0.00601   0.01039   0.56304
           A1           0.00802   0.01070  -0.00909  -0.01695   0.26071
           A2           0.00396  -0.03896   0.00828   0.00911  -0.02279
           A3          -0.03290   0.02418   0.01204   0.02772  -0.03365
           A4          -0.02353   0.03284   0.00427   0.01421  -0.01161
           D1           0.00002  -0.00005  -0.00000  -0.00001   0.00000
           D2           0.00003  -0.00008  -0.00001  -0.00004   0.00001
           D3          -0.00002   0.00003   0.00001   0.00003  -0.00001
                          A2        A3        A4        D1        D2
           A2           0.17232
           A3           0.02217   0.18593
           A4           0.01024   0.01100   0.16545
           D1           0.00000   0.00001   0.00000   0.02375
           D2          -0.00000  -0.00000   0.00000   0.00000   0.02375
           D3           0.00000   0.00001   0.00000  -0.00000  -0.00000
                          D3
           D3           0.02375
 ITU=  1  1  1  0
 Use linear search instead of GDIIS.
     Eigenvalues ---    0.02375   0.02375   0.14186   0.16156   0.27513
     Eigenvalues ---    0.36107   0.42715   0.56778   0.92145
 RFO step:  Lambda=-1.85312382D-06 EMin= 2.37494491D-02
 Quartic linear search produced a step of  0.28415.
 Iteration  1 RMS(Cart)=  0.00107105 RMS(Int)=  0.00000051
 Iteration  2 RMS(Cart)=  0.00000048 RMS(Int)=  0.00000000
 Variable       Old X    -DE/DX   Delta X   Delta X   Delta X     New X
                                 (Linear)    (Quad)   (Total)
    R1        2.27841  -0.00037  -0.00079  -0.00007  -0.00086   2.27756
    R2        2.54082   0.00140   0.00309   0.00061   0.00370   2.54452
    R3        2.06525  -0.00028   0.00009  -0.00085  -0.00076   2.06448
    R4        1.83555  -0.00037   0.00075  -0.00129  -0.00054   1.83501
    A1        2.18335   0.00011  -0.00052   0.00064   0.00012   2.18348
    A2        2.18434   0.00002   0.00077   0.00048   0.00125   2.18560
    A3        1.91549  -0.00013  -0.00025  -0.00112  -0.00138   1.91411
    A4        1.85770   0.00011  -0.00025   0.00015  -0.00010   1.85760
    D1       -0.00000   0.00000   0.00000   0.00003   0.00003   0.00002
    D2        3.14157   0.00000  -0.00001   0.00007   0.00006  -3.14155
    D3       -3.14158  -0.00000   0.00001  -0.00004  -0.00003   3.14158
         Item               Value     Threshold  Converged?
 Maximum Force            0.001403     0.000450     NO 
 RMS     Force            0.000463     0.000300     NO 
 Maximum Displacement     0.001603     0.001800     YES
 RMS     Displacement     0.001071     0.001200     YES
 Predicted change in Energy=-3.007560D-06
 GradGradGradGradGradGradGradGradGradGradGradGradGradGradGradGradGradGrad

                          Input orientation:                          
 ---------------------------------------------------------------------
 Center     Atomic      Atomic             Coordinates (Angstroms)
 Number     Number       Type             X           Y           Z
 ---------------------------------------------------------------------
      1          6           0        1.078410   -0.297470   -0.000112
      2          8           0        2.282931   -0.256100    0.000781
      3          8           0        0.266732    0.776887    0.000569
      4          1           0        0.844282    1.557507    0.001860
      5          1           0        0.479280   -1.211008   -0.001555
 ---------------------------------------------------------------------
                    Distance matrix (angstroms):
                    1          2          3          4          5
     1  C    0.000000
     2  O    1.205232   0.000000
     3  O    1.346501   2.265418   0.000000
     4  H    1.869695   2.314926   0.971048   0.000000
     5  H    1.092478   2.040836   1.999226   2.792474   0.000000
 Stoichiometry    CH2O2
 Framework group  C1[X(CH2O2)]
 Deg. of freedom     9
 Full point group                 C1      NOp   1
 Largest Abelian subgroup         C1      NOp   1
 Largest concise Abelian subgroup C1      NOp   1
                         Standard orientation:                         
 ---------------------------------------------------------------------
 Center     Atomic      Atomic             Coordinates (Angstroms)
 Number     Number       Type             X           Y           Z
 ---------------------------------------------------------------------
      1          6           0       -0.132261    0.400999   -0.000008
      2          8           0       -1.138510   -0.262362    0.000002
      3          8           0        1.120533   -0.092529    0.000002
      4          1           0        1.034738   -1.059779   -0.000004
      5          1           0       -0.097358    1.492919    0.000014
 ---------------------------------------------------------------------
 Rotational constants (GHZ):          77.7538067          11.9935576          10.3907760
 Standard basis: Aug-CC-pVTZ (5D, 7F)
 There are   215 symmetry adapted cartesian basis functions of A   symmetry.
 There are   184 symmetry adapted basis functions of A   symmetry.
   184 basis functions,   270 primitive gaussians,   215 cartesian basis functions
    12 alpha electrons       12 beta electrons
       nuclear repulsion energy        70.0632368388 Hartrees.
 NAtoms=    5 NActive=    5 NUniq=    5 SFac= 1.00D+00 NAtFMM=   60 NAOKFM=F Big=F
 Integral buffers will be    131072 words long.
 Raffenetti 1 integral format.
 Two-electron integral symmetry is turned on.
 One-electron integrals computed using PRISM.
 NBasis=   184 RedAO= T EigKep=  6.84D-05  NBF=   184
 NBsUse=   184 1.00D-06 EigRej= -1.00D+00 NBFU=   184
 Initial guess from the checkpoint file:  "/scr/Gau-77511.chk"
 B after Tr=    -0.000000   -0.000000   -0.000000
         Rot=    1.000000   -0.000000   -0.000000   -0.000193 Ang=  -0.02 deg.
 Keep R1 ints in memory in canonical form, NReq=164569000.
 Requested convergence on RMS density matrix=1.00D-08 within 128 cycles.
 Requested convergence on MAX density matrix=1.00D-06.
 Requested convergence on             energy=1.00D-06.
 No special actions if energy rises.
 SCF Done:  E(RHF) =  -188.843527538     A.U. after    8 cycles
            NFock=  8  Conv=0.74D-08     -V/T= 2.0019
 ExpMin= 2.53D-02 ExpMax= 1.53D+04 ExpMxC= 5.22D+02 IAcc=3 IRadAn=         5 AccDes= 0.00D+00
 HarFok:  IExCor=  205 AccDes= 0.00D+00 IRadAn=         5 IDoV=-2 UseB2=F ITyADJ=14
 ICtDFT= 12500011 ScaDFX=  1.000000  1.000000  1.000000  1.000000
 Range of M.O.s used for correlation:     4   184
 NBasis=   184 NAE=    12 NBE=    12 NFC=     3 NFV=     0
 NROrb=    181 NOA=     9 NOB=     9 NVA=   172 NVB=   172

 **** Warning!!: The largest alpha MO coefficient is  0.32534124D+02

 Fully direct method using O(ONN) memory.
 JobTyp=1 Pass  1:  I=   4 to  12 NPSUse= 40 ParTrn=T ParDer=T DoDerP=T.
 Spin components of T(2) and E(2):
     alpha-alpha T2 =       0.2208149535D-01 E2=     -0.8207813418D-01
     alpha-beta  T2 =       0.1209839758D+00 E2=     -0.4790773104D+00
     beta-beta   T2 =       0.2208149535D-01 E2=     -0.8207813418D-01
 ANorm=    0.1079419736D+01
 E2 =    -0.6432335787D+00 EUMP2 =    -0.18948676111702D+03
          IDoAtm=11111
          Differentiating once with respect to electric field.
                with respect to dipole field.
          Differentiating once with respect to nuclear coordinates.
 Keep R1 ints in memory in canonical form, NReq=164572592.
          There are     1 degrees of freedom in the 1st order CPHF.  IDoFFX=0 NUNeed=     1.
 LinEq1:  Iter=  0 NonCon=     1 RMS=4.99D-03 Max=1.14D-01 NDo=     1
 AX will form     1 AO Fock derivatives at one time.
 LinEq1:  Iter=  1 NonCon=     1 RMS=1.30D-03 Max=1.69D-02 NDo=     1
 LinEq1:  Iter=  2 NonCon=     1 RMS=4.83D-04 Max=6.39D-03 NDo=     1
 LinEq1:  Iter=  3 NonCon=     1 RMS=2.22D-04 Max=2.99D-03 NDo=     1
 LinEq1:  Iter=  4 NonCon=     1 RMS=5.52D-05 Max=6.03D-04 NDo=     1
 LinEq1:  Iter=  5 NonCon=     1 RMS=2.24D-05 Max=3.29D-04 NDo=     1
 LinEq1:  Iter=  6 NonCon=     1 RMS=6.92D-06 Max=1.03D-04 NDo=     1
 LinEq1:  Iter=  7 NonCon=     1 RMS=1.41D-06 Max=1.67D-05 NDo=     1
 LinEq1:  Iter=  8 NonCon=     1 RMS=3.05D-07 Max=3.10D-06 NDo=     1
 LinEq1:  Iter=  9 NonCon=     1 RMS=5.33D-08 Max=4.64D-07 NDo=     1
 LinEq1:  Iter= 10 NonCon=     1 RMS=1.07D-08 Max=8.69D-08 NDo=     1
 LinEq1:  Iter= 11 NonCon=     1 RMS=2.00D-09 Max=1.89D-08 NDo=     1
 LinEq1:  Iter= 12 NonCon=     1 RMS=2.69D-10 Max=2.72D-09 NDo=     1
 LinEq1:  Iter= 13 NonCon=     0 RMS=4.01D-11 Max=4.10D-10 NDo=     1
 Linear equations converged to 1.000D-10 1.000D-09 after    13 iterations.
 End of Minotr F.D. properties file   721 does not exist.
 End of Minotr F.D. properties file   722 does not exist.
 End of Minotr F.D. properties file   788 does not exist.
 Calling FoFJK, ICntrl=  10002127 FMM=F ISym2X=0 I1Cent= 0 IOpClX= 0 NMat=1 NMatS=1 NMatT=0.
 ***** Axes restored to original set *****
 -------------------------------------------------------------------
 Center     Atomic                   Forces (Hartrees/Bohr)
 Number     Number              X              Y              Z
 -------------------------------------------------------------------
      1        6           0.000029859   -0.000045853    0.000004948
      2        8          -0.000007327   -0.000015930   -0.000001884
      3        8           0.000074021    0.000116823   -0.000001366
      4        1          -0.000100691   -0.000083053   -0.000000050
      5        1           0.000004139    0.000028013   -0.000001647
 -------------------------------------------------------------------
 Cartesian Forces:  Max     0.000116823 RMS     0.000051833

 GradGradGradGradGradGradGradGradGradGradGradGradGradGradGradGradGradGrad
 Berny optimization.
 Using GEDIIS/GDIIS optimizer.
 FormGI is forming the generalized inverse of G from B-inverse, IUseBI=4.
 Internal  Forces:  Max     0.000126655 RMS     0.000046524
 Search for a local minimum.
 Step number   5 out of a maximum of   21
 All quantities printed in internal units (Hartrees-Bohrs-Radians)
 Mixed Optimization -- En-DIIS/RFO-DIIS
 Swapping is turned off.
 Update second derivatives using D2CorX and points    1    2    3    4    5
 DE= -3.22D-06 DEPred=-3.01D-06 R= 1.07D+00
 TightC=F SS=  1.41D+00  RLast= 4.33D-03 DXNew= 8.4853D-01 1.2995D-02
 Trust test= 1.07D+00 RLast= 4.33D-03 DXMaxT set to 5.05D-01
 The second derivative matrix:
                          R1        R2        R3        R4        A1
           R1           0.89773
           R2           0.09476   0.42006
           R3          -0.00267   0.00638   0.35526
           R4           0.00100   0.02249   0.00059   0.54729
           A1           0.00337   0.00690  -0.00335  -0.00490   0.25283
           A2           0.00399  -0.03973   0.00630   0.00444  -0.02172
           A3          -0.03514   0.03187   0.01015   0.02378  -0.03257
           A4          -0.02144   0.02009   0.00759   0.01952  -0.01393
           D1          -0.00008   0.00024  -0.00004  -0.00002  -0.00000
           D2          -0.00016   0.00047  -0.00007  -0.00004  -0.00000
           D3           0.00008  -0.00023   0.00004   0.00002   0.00000
                          A2        A3        A4        D1        D2
           A2           0.17446
           A3           0.02298   0.18506
           A4           0.01038   0.01209   0.16356
           D1           0.00002  -0.00000   0.00000   0.02375
           D2           0.00004  -0.00002  -0.00000   0.00000   0.02375
           D3          -0.00002   0.00002   0.00000  -0.00000  -0.00000
                          D3
           D3           0.02375
 ITU=  1  1  1  1  0
     Eigenvalues ---    0.02375   0.02375   0.14144   0.15913   0.27333
     Eigenvalues ---    0.35582   0.41202   0.55408   0.91718
 En-DIIS/RFO-DIIS/Sim-DIIS IScMMF=       -3 using points:     5    4
 RFO step:  Lambda=-6.22555287D-08.
 DidBck=F Rises=F RFO-DIIS coefs:    1.04417   -0.04417
 Iteration  1 RMS(Cart)=  0.00024228 RMS(Int)=  0.00000004
 Iteration  2 RMS(Cart)=  0.00000004 RMS(Int)=  0.00000000
 Variable       Old X    -DE/DX   Delta X   Delta X   Delta X     New X
                                 (Linear)    (Quad)   (Total)
    R1        2.27756  -0.00001  -0.00004   0.00002  -0.00002   2.27754
    R2        2.54452   0.00004   0.00016  -0.00005   0.00011   2.54463
    R3        2.06448  -0.00003  -0.00003  -0.00004  -0.00008   2.06441
    R4        1.83501  -0.00013  -0.00002  -0.00022  -0.00024   1.83477
    A1        2.18348   0.00003   0.00001   0.00012   0.00012   2.18360
    A2        2.18560  -0.00000   0.00006  -0.00003   0.00003   2.18562
    A3        1.91411  -0.00003  -0.00006  -0.00009  -0.00015   1.91397
    A4        1.85760   0.00006  -0.00000   0.00039   0.00039   1.85799
    D1        0.00002  -0.00000   0.00000  -0.00005  -0.00005  -0.00003
    D2       -3.14155  -0.00000   0.00000  -0.00010  -0.00010   3.14153
    D3        3.14158   0.00000  -0.00000   0.00005   0.00004  -3.14156
         Item               Value     Threshold  Converged?
 Maximum Force            0.000127     0.000450     YES
 RMS     Force            0.000047     0.000300     YES
 Maximum Displacement     0.000510     0.001800     YES
 RMS     Displacement     0.000242     0.001200     YES
 Predicted change in Energy=-3.432453D-08
 Optimization completed.
    -- Stationary point found.
                           ----------------------------
                           !   Optimized Parameters   !
                           ! (Angstroms and Degrees)  !
 --------------------------                            --------------------------
 ! Name  Definition              Value          Derivative Info.                !
 --------------------------------------------------------------------------------
 ! R1    R(1,2)                  1.2052         -DE/DX =    0.0                 !
 ! R2    R(1,3)                  1.3465         -DE/DX =    0.0                 !
 ! R3    R(1,5)                  1.0925         -DE/DX =    0.0                 !
 ! R4    R(3,4)                  0.971          -DE/DX =   -0.0001              !
 ! A1    A(2,1,3)              125.1039         -DE/DX =    0.0                 !
 ! A2    A(2,1,5)              125.2254         -DE/DX =    0.0                 !
 ! A3    A(3,1,5)              109.6707         -DE/DX =    0.0                 !
 ! A4    A(1,3,4)              106.4327         -DE/DX =    0.0001              !
 ! D1    D(2,1,3,4)              0.0014         -DE/DX =    0.0                 !
 ! D2    D(2,1,3,5)            180.0022         -DE/DX =    0.0                 !
 ! D3    D(5,1,3,4)           -180.0008         -DE/DX =    0.0                 !
 --------------------------------------------------------------------------------
 GradGradGradGradGradGradGradGradGradGradGradGradGradGradGradGradGradGrad

                          Input orientation:                          
 ---------------------------------------------------------------------
 Center     Atomic      Atomic             Coordinates (Angstroms)
 Number     Number       Type             X           Y           Z
 ---------------------------------------------------------------------
      1          6           0        1.078410   -0.297470   -0.000112
      2          8           0        2.282931   -0.256100    0.000781
      3          8           0        0.266732    0.776887    0.000569
      4          1           0        0.844282    1.557507    0.001860
      5          1           0        0.479280   -1.211008   -0.001555
 ---------------------------------------------------------------------
                    Distance matrix (angstroms):
                    1          2          3          4          5
     1  C    0.000000
     2  O    1.205232   0.000000
     3  O    1.346501   2.265418   0.000000
     4  H    1.869695   2.314926   0.971048   0.000000
     5  H    1.092478   2.040836   1.999226   2.792474   0.000000
 Stoichiometry    CH2O2
 Framework group  C1[X(CH2O2)]
 Deg. of freedom     9
 Full point group                 C1      NOp   1
 Largest Abelian subgroup         C1      NOp   1
 Largest concise Abelian subgroup C1      NOp   1
                         Standard orientation:                         
 ---------------------------------------------------------------------
 Center     Atomic      Atomic             Coordinates (Angstroms)
 Number     Number       Type             X           Y           Z
 ---------------------------------------------------------------------
      1          6           0       -0.132261    0.400999   -0.000008
      2          8           0       -1.138510   -0.262362    0.000002
      3          8           0        1.120533   -0.092529    0.000002
      4          1           0        1.034738   -1.059779   -0.000004
      5          1           0       -0.097358    1.492919    0.000014
 ---------------------------------------------------------------------
 Rotational constants (GHZ):          77.7538067          11.9935576          10.3907760

 **********************************************************************

            Population analysis using the SCF Density.

 **********************************************************************

 Orbital symmetries:
       Occupied  (A) (A) (A) (A) (A) (A) (A) (A) (A) (A) (A) (A)
       Virtual   (A) (A) (A) (A) (A) (A) (A) (A) (A) (A) (A) (A)
                 (A) (A) (A) (A) (A) (A) (A) (A) (A) (A) (A) (A)
                 (A) (A) (A) (A) (A) (A) (A) (A) (A) (A) (A) (A)
                 (A) (A) (A) (A) (A) (A) (A) (A) (A) (A) (A) (A)
                 (A) (A) (A) (A) (A) (A) (A) (A) (A) (A) (A) (A)
                 (A) (A) (A) (A) (A) (A) (A) (A) (A) (A) (A) (A)
                 (A) (A) (A) (A) (A) (A) (A) (A) (A) (A) (A) (A)
                 (A) (A) (A) (A) (A) (A) (A) (A) (A) (A) (A) (A)
                 (A) (A) (A) (A) (A) (A) (A) (A) (A) (A) (A) (A)
                 (A) (A) (A) (A) (A) (A) (A) (A) (A) (A) (A) (A)
                 (A) (A) (A) (A) (A) (A) (A) (A) (A) (A) (A) (A)
                 (A) (A) (A) (A) (A) (A) (A) (A) (A) (A) (A) (A)
                 (A) (A) (A) (A) (A) (A) (A) (A) (A) (A) (A) (A)
                 (A) (A) (A) (A) (A) (A) (A) (A) (A) (A) (A) (A)
                 (A) (A) (A) (A)
 The electronic state is 1-A.
 Alpha  occ. eigenvalues --  -20.63040 -20.56904 -11.39886  -1.47724  -1.37748
 Alpha  occ. eigenvalues --   -0.89776  -0.72536  -0.71445  -0.63816  -0.60688
 Alpha  occ. eigenvalues --   -0.49784  -0.47561
 Alpha virt. eigenvalues --    0.02940   0.03737   0.07414   0.08045   0.10723
 Alpha virt. eigenvalues --    0.13408   0.14299   0.15110   0.16077   0.17466
 Alpha virt. eigenvalues --    0.18322   0.22453   0.22766   0.23999   0.26952
 Alpha virt. eigenvalues --    0.28383   0.28475   0.31247   0.31860   0.33333
 Alpha virt. eigenvalues --    0.36558   0.39230   0.39957   0.40431   0.44266
 Alpha virt. eigenvalues --    0.45640   0.49929   0.51938   0.53990   0.56107
 Alpha virt. eigenvalues --    0.60279   0.63087   0.68686   0.71279   0.72155
 Alpha virt. eigenvalues --    0.76009   0.76995   0.79334   0.82233   0.84171
 Alpha virt. eigenvalues --    0.85223   0.88712   0.89387   0.91344   0.92324
 Alpha virt. eigenvalues --    0.92809   0.93117   0.95723   0.97620   1.01111
 Alpha virt. eigenvalues --    1.02179   1.02221   1.04261   1.06410   1.09365
 Alpha virt. eigenvalues --    1.12661   1.15633   1.17800   1.24506   1.26267
 Alpha virt. eigenvalues --    1.30633   1.35887   1.39679   1.41238   1.41495
 Alpha virt. eigenvalues --    1.46461   1.47889   1.49663   1.55807   1.60081
 Alpha virt. eigenvalues --    1.63062   1.66691   1.66818   1.76544   1.81674
 Alpha virt. eigenvalues --    1.94109   1.94387   2.01184   2.05965   2.10161
 Alpha virt. eigenvalues --    2.22018   2.28771   2.32966   2.36581   2.37101
 Alpha virt. eigenvalues --    2.37804   2.42350   2.43232   2.44961   2.51391
 Alpha virt. eigenvalues --    2.53868   2.54260   2.59786   2.61776   2.62124
 Alpha virt. eigenvalues --    2.68849   2.71496   2.82121   2.82187   2.88123
 Alpha virt. eigenvalues --    2.88792   2.89341   2.92436   2.95757   3.13211
 Alpha virt. eigenvalues --    3.18433   3.26601   3.35073   3.35616   3.53523
 Alpha virt. eigenvalues --    3.57242   3.61756   3.75996   3.77759   3.84195
 Alpha virt. eigenvalues --    3.90215   4.01002   4.06802   4.09686   4.10034
 Alpha virt. eigenvalues --    4.18598   4.20684   4.30044   4.32009   4.36769
 Alpha virt. eigenvalues --    4.39848   4.56314   4.65720   4.67390   4.71873
 Alpha virt. eigenvalues --    4.77543   4.89861   5.01743   5.15076   5.17709
 Alpha virt. eigenvalues --    5.19918   5.26195   5.34488   5.36776   5.52457
 Alpha virt. eigenvalues --    5.69399   5.94535   6.22050   6.28279   6.50832
 Alpha virt. eigenvalues --    6.60239   6.64439   6.76393   6.78574   6.82439
 Alpha virt. eigenvalues --    6.94509   6.99117   7.14415   7.15719   7.19012
 Alpha virt. eigenvalues --    7.21006   7.25754   7.31401   7.31478   7.39813
 Alpha virt. eigenvalues --    7.49727   7.51627   7.57788   7.69802   7.78319
 Alpha virt. eigenvalues --    7.79994   7.97353   8.14747   8.47902  14.68767
 Alpha virt. eigenvalues --   15.94368  17.13594
          Condensed to atoms (all electrons):
               1          2          3          4          5
     1  C    4.919182   0.532190   0.287798   0.043346   0.206508
     2  O    0.532190   8.145802  -0.075128  -0.006645  -0.055513
     3  O    0.287798  -0.075128   7.941316   0.196746  -0.020714
     4  H    0.043346  -0.006645   0.196746   0.514274   0.000214
     5  H    0.206508  -0.055513  -0.020714   0.000214   0.261823
 Mulliken charges:
               1
     1  C    0.010976
     2  O   -0.540705
     3  O   -0.330019
     4  H    0.252066
     5  H    0.607682
 Sum of Mulliken charges =  -0.00000
 Mulliken charges with hydrogens summed into heavy atoms:
               1
     1  C    0.618658
     2  O   -0.540705
     3  O   -0.077953
 Electronic spatial extent (au):  <R**2>=            133.5921
 Charge=             -0.0000 electrons
 Dipole moment (field-independent basis, Debye):
    X=              1.6694    Y=              0.4702    Z=             -0.0000  Tot=              1.7343
 Quadrupole moment (field-independent basis, Debye-Ang):
   XX=            -21.8974   YY=            -13.3126   ZZ=            -17.0209
   XY=             -2.8402   XZ=             -0.0000   YZ=              0.0000
 Traceless Quadrupole moment (field-independent basis, Debye-Ang):
   XX=             -4.4871   YY=              4.0977   ZZ=              0.3894
   XY=             -2.8402   XZ=             -0.0000   YZ=              0.0000
 Octapole moment (field-independent basis, Debye-Ang**2):
  XXX=              3.2462  YYY=             -1.2364  ZZZ=              0.0000  XYY=              3.3453
  XXY=             -2.1818  XXZ=              0.0000  XZZ=              0.1727  YZZ=             -0.2585
  YYZ=              0.0000  XYZ=              0.0000
 Hexadecapole moment (field-independent basis, Debye-Ang**3):
 XXXX=           -112.4224 YYYY=            -26.2728 ZZZZ=            -14.3854 XXXY=             -3.8400
 XXXZ=             -0.0000 YYYX=             -4.6527 YYYZ=              0.0001 ZZZX=             -0.0000
 ZZZY=              0.0000 XXYY=            -20.3855 XXZZ=            -20.5637 YYZZ=             -8.0621
 XXYZ=              0.0000 YYXZ=             -0.0000 ZZXY=             -0.2664
 N-N= 7.006323683884D+01 E-N=-5.862772203980D+02  KE= 1.884818445148D+02
 Unable to Open any file for archive entry.
 1\1\GINC-N3260\FOpt\RMP2-FC\Aug-CC-pVTZ\C1H2O2\GDS001\20-Mar-2025\0\\#
  MP2/aug-cc-pVTZ opt freq=(vibrot,anharmonic)\\blah\\0,1\C,1.078409829
 9,-0.2974703367,-0.0001116592\O,2.2829311395,-0.2560998443,0.000781031
 7\O,0.2667323301,0.7768868577,0.0005691043\H,0.8442822811,1.557506948,
 0.0018598798\H,0.4792802565,-1.2110075901,-0.0015551556\\Version=EM64L
 -G16RevC.01\State=1-A\HF=-188.8435275\MP2=-189.4867611\RMSD=7.393e-09\
 RMSF=5.183e-05\Dipole=-0.5218339,0.2136873,-0.0001225\PG=C01 [X(C1H2O2
 )]\\@
 The archive entry for this job was punched.


 THOUGH I SPEAK WITH THE TONGUES OF MEN AND OF ANGELS, 
 AND HAVE NOT LOVE,
 I AM BECOME AS SOUNDING BRASS, A TINKLING CYMBAL.
 AND THOUGH I HAVE THE GIFT OF PROPHECY,
 AND UNDERSTAND ALL MYSTERIES, AND ALL KNOWLEDGE.
 AND THOUGH I HAVE ALL FAITH, SO THAT I COULD REMOVE MOUNTAINS,
 AND HAVE NOT LOVE, I AM NOTHING.
 AND THOUGH I BESTOW ALL MY GOODS TO FEED THE POOR,
 AND THOUGH I GIVE MY BODY TO BE BURNED,
 AND HAVE NOT LOVE IT PROFITETH ME NOTHING.
 LOVE SUFFERETH LONG, AND IS KIND,
 LOVE ENVIETH NOT,
 LOVE VAUNTETH NOT ITSELF, IS NOT PUFFED UP,
 DOTH NOT BEHAVE ITSELF UNSEEMLY, SEEKETH NOT HER OWN,
 IS NOT EASILY PROVOKED, THINKETH NO EVIL,
 REJOICETH NOT IN INIQUITY, BUT REJOICETH IN THE TRUTH,
 BEARETH ALL THINGS, BELIEVETH ALL THINGS,
 HOPETH ALL THINGS, ENDURETH ALL THINGS.
 LOVE NEVER FAILETH, BUT WHETHER THERE BE PROPHECIES, THEY SHALL FAIL, 
 WHETHER THERE BE TONGUES, THEY SHALL CEASE,
 WHETHER THERE BE KNOWLEDGE, IT SHALL VANISH AWAY.
[...]
 31,0.00008983,-0.00008378,0.00265955,0.00000403,0.00000146,-0.00105973
 ,-0.00003161,-0.00015883,0.01855506,0.00503135,-0.00664214,-0.00001855
 ,-0.00427819,0.00289928,0.00000346,-0.11304887,-0.00334331,-0.00006287
 ,0.11248932,-0.00525131,-0.05881235,-0.00009546,-0.00032285,0.00338411
 ,0.00000890,-0.00342521,0.19168511,0.00024815,0.00846831,-0.13536464,-
 0.00001708,-0.00009648,0.02122179,0.,0.00001105,-0.00458237,-0.0000630
 8,0.00024825,-0.02568515,0.00008021,-0.00016005,0.00831097,0.03735651,
 0.02054614,0.00005671,-0.01729410,-0.00991389,-0.00002690,0.00241430,0
 .00248326,0.00000062,-0.00019361,0.00053105,-0.00000005,-0.02228309,0.
 02008732,-0.03610050,-0.00001522,-0.00450447,-0.00386402,-0.00001320,-
 0.00055416,-0.00046815,-0.00000699,-0.00138213,-0.00089222,-0.00000277
 ,-0.01364655,0.04132488,0.00005602,-0.00001448,-0.01021790,-0.00002066
 ,-0.00001694,0.00507764,-0.00000274,-0.00000522,0.00553028,-0.00000224
 ,-0.00000154,0.00073477,-0.00003037,0.00003818,-0.00112479,0.10503290,
 -0.03566210,0.10171512,0.00005017,0.00011932,-0.02407744,-0.18161242,-
 0.02645291,-0.00017446,0.21335825,-0.01083418,0.01478541,-0.00001870,0
 .02920074,-0.00619429,-0.00015621,-0.00002944,0.02411061,0.00020827,0.
 00005521,-0.03657934,-0.02131791,0.00322096,-0.00001634,-0.00533090,0.
 00915189,0.00000637,-0.02156448,0.01051955,-0.01366236,-0.00001767,0.0
 0815550,-0.00258363,0.00000210,-0.01531969,0.05649866,-0.00000809,-0.0
 0002292,0.00830902,0.00000536,0.00000282,0.00050473,-0.00002170,0.0000
 7187,-0.01502171,-0.00042197,0.00718015,0.00001436,0.00143622,-0.00083
 255,-0.00000085,0.04918776,-0.00255331,0.00001979,-0.04688684,0.008170
 98,0.01386363,0.00003248,-0.00066614,0.00048853,-0.00000141,-0.0001422
 7,-0.08067921,-0.00011093,-0.00376819,0.05956661,0.00001577,0.00003167
 ,-0.00950353,-0.00000073,-0.00000146,0.00131755,0.00002250,-0.00011266
 ,0.01564421,-0.00003214,0.00007276,-0.00583836,0.09831940,0.05171390,0
 .00012628,-0.02785115,-0.02668590,-0.00005758,-0.00097448,-0.00080204,
 0.00000464,-0.00331518,-0.00359438,-0.00000541,-0.06617860,0.02780574,
 -0.11670181,-0.00011542,-0.01023718,-0.00649602,-0.00002646,0.00308912
 ,0.04042655,0.00005916,-0.00002610,0.00676044,0.00000969,-0.02063158,0
 .07601084,0.00009836,-0.00009863,0.00116135,-0.00003844,-0.00003787,0.
 01064645,0.00000917,0.00005636,-0.00943625,-0.00000116,0.00000711,-0.0
 0161988,-0.00006793,0.00007304,-0.00075168,0.98785935,0.18560010,-0.25
 196333,0.00096239,-0.00007312,-0.07673208,-1.03853007,-0.06606555,-0.0
 0087534,1.06927062,-0.04782232,0.07772121,-0.00005894,0.04594752,-0.08
 730107,-0.00085407,-0.00007192,0.10003824,0.00088078,0.00005955,-0.111
 19771,0.07992328,-0.10749377,-0.00005509,-0.01799684,0.00956770,-0.000
 00345,-0.03161724,-0.11654506,0.14888945,0.00011470,0.02282521,0.00278
 010,0.00001596,0.09759665,-0.17575992,-0.00006588,0.00012129,-0.020506
 39,0.00001218,0.00000663,0.00280149,0.00007937,-0.00015507,0.01688193,
 0.00068216,-0.00187424,-0.00000615,-0.00307547,0.00154380,-0.00000036,
 -0.02863275,-0.00270898,-0.00001892,0.03036963,-0.00501401,-0.00785285
 ,-0.00002022,0.00338564,0.00281138,0.00000565,-0.00280015,0.04156700,0
 .00005222,0.00236898,-0.03315881,-0.00000985,-0.00001786,0.00671615,0.
 00000177,0.00000436,-0.00006503,-0.00001900,0.00005223,-0.00551054,0.0
 0002361,-0.00003632,-0.00020488,-0.02993472,-0.01016653,-0.00002582,-0
 .00966823,-0.00923670,-0.00002289,-0.00167645,-0.00116782,-0.00000676,
 0.00065643,0.00205953,0.00000347,0.04062297,-0.01621871,0.03320552,0.0
 0003757,-0.00609281,0.00398838,-0.00000924,0.00312957,-0.01747663,-0.0
 0002507,0.00067044,-0.00336672,-0.00000240,0.01851152,-0.01635054,-0.0
 0003259,0.00004162,-0.00951591,-0.00001939,-0.00001160,0.00842301,-0.0
 0000183,-0.00002782,0.00633351,0.00000182,-0.00000134,-0.00093569,0.00
 005200,-0.00000086,-0.00430491,0.10795154,0.64886046,0.79150202,0.0008
 5660,0.00142401,-0.07486155,0.12328597,-0.06375361,0.00003262,-0.11347
 466,-0.01610620,-0.03943204,-0.00002723,0.02827641,0.01617244,0.000086
 17,-0.00006099,-0.02504472,-0.00005576,0.00002539,0.01115150,0.0193195
 3,-0.02041517,-0.00000281,-0.00271322,0.00126401,-0.00000156,-0.010371
 08,-0.06401670,-0.01722647,-0.00005061,0.01250661,0.00617159,0.0000142
 0,0.03920676,0.05158830,-0.00005274,-0.00002126,-0.01072226,0.00001143
 ,0.00000626,0.00142205,0.00004036,0.00008982,-0.00345640,0.00383898,0.
 00169822,0.00000798,0.00029885,-0.00236795,-0.00000246,-0.01092707,-0.
 02242266,-0.00003611,0.00941706,-0.00426305,0.00567600,0.00000948,0.00
 009733,-0.00054170,-0.00000049,-0.02113451,-0.02783066,-0.00005133,0.0
 2217825,0.02380966,0.00000104,0.00001344,-0.00504421,0.00000043,-0.000
 00217,-0.00006199,-0.00003461,-0.00005222,0.00419985,0.00003398,0.0000
 4601,-0.00298077,-0.25439601,-0.56638990,-0.00089438,-0.00739694,-0.01
 106628,-0.00002640,0.00469185,0.03472599,0.00003707,-0.00262781,0.0031
 2197,-0.00000084,0.25972892,-0.56447452,-0.74051950,-0.00135566,0.0228
 7325,0.01762971,0.00002189,0.00107891,-0.01270275,-0.00002348,0.000914
 13,-0.00111329,-0.00000505,0.53960822,0.73670583,-0.00089107,-0.001355
 19,0.11567273,0.00001129,-0.00000226,0.01253316,-0.00000138,-0.0000011
 9,0.00855676,-0.00000339,-0.00000367,0.00388712,0.00088454,0.00136230,
 -0.14064978,0.00713665,0.00312317,-0.03854183,0.00001312,-0.00003419,-
 0.00713330,0.00861971,0.00049496,0.00000593,-0.00022727,0.00434705,0.0
 0545784,0.00000845,-0.00558644,-0.00301323,0.00001047,0.00000581,0.000
 71125,-0.00000581,-0.00000607,-0.00110441,-0.01356704,0.05269462,0.000
 04586,-0.00483013,-0.00078216,-0.00000428,-0.50486284,0.00150372,0.020
 23674,0.00001498,-0.00092464,0.00383710,0.00000365,-1.03869842,-1.1473
 5576,-0.00001313,0.00005000,0.00792939,-0.00000435,0.00000379,0.000077
 51,-0.00170976,-0.00231675,0.25246379,-0.00305337,-0.04659671,-0.00004
 958,-0.00252067,0.00257046,-0.00000010,0.52568697,1.04216740,0.0017331
 0,-0.52179127,0.00557973,0.02707268,0.00004498,0.00473850,-0.00512699,
 -0.00000472,0.98406654,1.12363894,0.00226091,-0.99533153,-1.14736836,0
 .00001043,0.00000946,-0.00873276,0.00000233,-0.00000627,0.00187600,0.0
 0166635,0.00230049,-0.25990706,-0.00168199,-0.00230496,0.26777126,0.00
 086405,-0.00971604,-0.00001532,-0.00104164,-0.00054891,-0.00000029,-0.
 00242696,-0.00404806,-0.00000587,0.00167834,0.00094675,0.00000288,0.00
 092621,-0.01455367,-0.01422543,-0.00003422,0.00127762,-0.00115472,0.00
 000133,0.00271942,-0.00035702,0.00000206,-0.00280963,0.00178373,0.0000
 0128,0.01336626,0.01395343,-0.00002090,-0.00003108,0.00722542,0.000001
 90,0.00000011,-0.00156034,0.00000184,-0.00000236,-0.00056363,-0.000001
 43,0.00000378,-0.00100744,0.00001859,0.00002955,-0.00409400,-0.0911820
 5,0.01240384,0.00251607,-0.00004755,-0.00000308,0.00095744,0.07401736,
 -0.00035558,0.00005302,-0.05727872,0.00218102,-0.00958700,-0.00000341,
 -0.01214400,0.01398782,0.00005835,-0.00000060,-0.00387746,-0.00005604,
 0.00000191,0.00168869,0.01188341,-0.00018169,0.00000504,-0.01061096,0.
 00583828,-0.00000620,-0.03609746,-0.01093490,0.00517553,0.00000165,0.0
 0969724,-0.00194993,0.00000032,-0.10462937,-0.08553188,-0.00001354,0.0
 0000796,0.00221029,0.00000410,-0.00000235,0.00323576,-0.00014596,-0.00
 019135,0.01313069,0.00393938,-0.01116516,-0.00001070,-0.00670510,0.002
 15381,-0.00000217,0.03550726,0.10620212,0.00015501,-0.03251138,-0.0020
 6294,0.00196132,0.00000205,0.00162046,-0.00222164,-0.00000182,0.097040
 83,0.08143984,0.00018176,-0.09691691,-0.08166094,0.00000109,-0.0000055
 5,-0.00041210,-0.00000290,-0.00000049,-0.00047149,0.00014445,0.0001888
 8,-0.01781918,-0.00014258,-0.00018277,0.01827502,0.00134190,-0.0007014
 0,0.00000019,0.00057742,0.00197090,0.00000606,-0.00068226,-0.00033508,
 0.00000040,-0.00023017,0.00031855,-0.00000006,-0.00100690,-0.00158702,
 -0.00006594,0.00000280,0.00118189,-0.00022923,0.00000019,0.00193196,0.
 00086645,0.00000398,-0.00027388,0.00048142,-0.00000006,-0.00125296,-0.
 00105268,0.00000164,0.00000128,0.00112182,0.00000183,0.00000433,-0.000
 57551,0.00000267,0.00000051,-0.00075756,0.00000045,0.00000079,0.000427
 75,-0.00000659,-0.00000691,-0.00021651,-0.05132987,-0.01742194,-0.0415
 6637,-0.00006138,-0.00008618,0.01171083,0.03240854,-0.00208576,0.00001
 953,-0.03231274,0.00055755,0.00669595,0.00001033,-0.00262020,0.0032202
 0,0.00002487,0.00001325,-0.00072669,-0.00002700,-0.00000270,0.00109441
 ,0.02244991,0.04672979,0.00006916,0.00327994,-0.00346624,0.00000255,-0
 .37734139,-0.00021154,0.02835204,0.00003995,0.00275981,-0.00315589,0.0
 0001036,-0.62907202,-0.72893205,0.00000886,0.00007113,-0.00234529,0.00
 001592,0.00000665,-0.01119632,-0.00122426,-0.00168248,0.36177832,-0.00
 912742,-0.03189673,-0.00003943,-0.00346237,0.00520170,-0.00000312,0.35
 601557,0.62948923,0.00121372,-0.34703127,0.01814474,0.00052914,0.00002
 083,0.00128008,-0.00527398,-0.00001708,0.57716190,0.70322954,0.0016120
 9,-0.59743689,-0.69710791,0.00001938,-0.00001489,-0.00538801,-0.000007
 98,-0.00001370,0.00946376,0.00115371,0.00164909,-0.36096205,-0.0011739
 5,-0.00162453,0.36486530,0.00559885,0.00467465,0.00001211,0.00008665,0
 .00032720,0.00000270,-0.00440400,-0.00296547,-0.00001424,0.00360548,0.
 00085015,0.00000884,-0.00488698,-0.00106882,0.00598921,0.00001507,0.00
 066606,-0.00148628,-0.00000383,0.00864658,0.00050640,-0.00000738,-0.00
 535731,-0.00137680,0.00000404,-0.00288652,-0.00363251,0.00000826,0.000
 01669,-0.00325085,-0.00000047,-0.00000057,0.00136485,-0.00000115,-0.00
 001692,0.01272536,0.00000278,0.00000869,-0.00797900,-0.00000941,-0.000
 00789,-0.00286036,-0.25082540,-0.30274045,-0.44696322,-0.00055793,-0.0
 0080244,0.06873079,0.08861388,0.03260841,0.00008259,-0.07872650,0.0000
 2941,0.01936630,-0.00000136,-0.00472648,-0.00677398,0.00004984,0.00002
 647,0.02152973,-0.00006416,-0.00001761,0.00276296,0.01508472,-0.009375
 28,-0.00001563,-0.00045384,0.00059760,0.00000252,-0.01627355,0.0224778
 0,0.03210123,0.00003513,-0.00858102,-0.00176533,0.00000092,-0.00048115
 ,-0.03053267,0.00001383,0.00001393,0.01948669,-0.00000157,0.00000748,-
 0.00821135,-0.00000502,-0.00003786,-0.00116288,-0.00557696,-0.00151956
 ,-0.00000995,0.00238740,0.00105207,0.00000293,0.00388050,0.00458142,0.
 00000799,-0.00244232,0.00539350,0.00190997,0.00000076,-0.00013444,0.00
 026931,-0.00000046,0.00100070,0.00975992,0.00001108,-0.00396600,-0.010
 32523,-0.00000059,-0.00000534,0.00548650,0.00000135,0.00000119,-0.0003
 3629,0.00000375,0.00001472,-0.00100703,-0.00000652,-0.00001440,0.00090
 889,0.15270376,0.28102689,0.00050092,-0.01182093,0.00304741,0.00000887
 ,-0.00223782,-0.01799703,-0.00001523,0.00175138,-0.00229377,0.00000201
 ,-0.14039641,0.27483975,0.39358571,0.00076791,-0.01916647,-0.01109630,
 -0.00000933,0.00825815,-0.00956314,0.00000537,-0.00014795,-0.00161397,
 0.00000384,-0.26378350,-0.37131231,0.00049485,0.00076739,-0.11523372,-
 0.00001821,0.00001030,-0.01574507,0.00001439,-0.00001291,-0.00910541,0
 .00000555,0.00000302,-0.00505207,-0.00049657,-0.00076779,0.14513627,0.
 06243463,-0.21987248,0.16206156,-0.00017307,0.00008128,-0.05042751,0.0
 1161868,0.01993327,0.00002962,-0.00426344,0.01932557,0.00080693,0.0000
 1584,-0.02306226,0.00118289,0.00003110,0.00002107,0.00006688,-0.000028
 45,-0.00001571,-0.00226376,-0.07703562,0.20957923,0.00015176,-0.003086
 55,0.00046500,-0.00000645,-0.03332869,0.18359948,-0.17902869,-0.000134
 55,0.00139854,0.00160600,-0.00000062,-0.48612605,-0.04357181,0.0001159
 0,-0.00011753,0.05132290,0.00000018,-0.00000078,0.00243246,-0.00057110
 ,-0.00037521,-0.00797652,-0.00916135,-0.02221276,-0.00003208,-0.003265
 10,0.00303936,0.00000090,0.11812738,0.30421552,0.00046211,-0.10917544,
 0.00880710,0.00089472,0.00000869,0.00191920,-0.00184306,-0.00000189,0.
 27015127,0.23393351,0.00050557,-0.28112714,-0.23434829,0.00000487,-0.0
 0001415,-0.00022633,-0.00000046,-0.00000039,0.00006843,0.00042280,0.00
 052999,-0.04752364,-0.00042966,-0.00051419,0.04737108,0.01214368,0.012
 57275,0.00002378,-0.00100359,0.00023233,0.00000290,-0.00467651,-0.0030
 8747,-0.00000710,0.00347451,0.00024957,0.00000246,-0.00993810,0.008140
 33,0.01526545,0.00002874,-0.00018876,-0.00175275,-0.00000285,0.0059305
 7,-0.01293899,-0.00001205,-0.00391498,0.00136312,-0.00000126,-0.009967
 18,-0.00193681,0.00002120,0.00002934,-0.00073595,-0.00000089,0.0000010
 3,-0.00030403,0.00000300,-0.00001961,0.00174483,-0.00000126,0.00000181
 ,0.00031045,-0.00002204,-0.00001258,-0.00101530,-0.04764394,-0.0871059
 7,-0.00222711,-0.00010099,-0.00002395,-0.04360225,0.06461988,-0.023620
 08,0.00001375,-0.05854082,-0.00902623,-0.00194697,-0.00001228,0.010862
 42,0.00666810,0.00003302,-0.00001770,0.00440815,-0.00002890,0.00001246
 ,-0.00064044,-0.04609386,0.15127318,0.00011470,0.01162150,-0.00581469,
 0.00000095,-0.16120676,0.06447669,-0.02333226,-0.00002149,0.00665616,0
 .00496865,0.00001423,-0.44568027,-0.21025120,0.00000892,0.00003691,0.0
 3793948,0.00002097,0.00000606,-0.00389300,-0.00062284,-0.00055683,0.00
 806178,0.01349630,-0.06875945,-0.00007377,-0.01300682,0.00279795,-0.00
 000621,0.19990919,0.37400967,0.00059420,-0.20087934,0.00359062,-0.0191
 9506,-0.00002471,0.00874041,-0.00589361,-0.00000175,0.29697507,0.23306
 211,0.00051555,-0.30838991,-0.20820060,0.00001053,-0.00007548,0.005600
 88,0.00000068,-0.00000524,0.00004728,0.00050552,0.00056928,-0.04170334
 ,-0.00051537,-0.00048819,0.03516650,0.01562162,0.02821233,0.00004633,-
 0.00469375,0.00118057,0.00000113,-0.00423010,0.00053776,-0.00000125,0.
 00048066,-0.00091619,-0.00000136,-0.00717845,0.02806488,0.04670138,0.0
 0008244,-0.00263890,-0.00379617,-0.00000723,0.00324672,-0.00444732,-0.
 00000168,0.00034175,0.00022716,-0.00000037,-0.02901446,-0.03868504,0.0
 0004852,0.00008023,-0.00434626,-0.00000649,-0.00000099,0.00007802,0.00
 000167,-0.00000518,-0.00040492,0.00000115,-0.00000090,0.00088868,-0.00
 004485,-0.00007316,0.00378448,-0.11547557,-0.29087268,-0.37798108,-0.0
 0039484,-0.00062341,-0.01466473,-0.03168480,0.01949348,-0.00002054,0.0
 4232097,-0.02136259,0.03311247,-0.00000620,0.01374302,-0.00834101,-0.0
 0006415,0.00002723,0.02656689,0.00006183,0.00002420,-0.02410784,0.0256
 5428,-0.01181350,-0.00000737,0.00112256,0.00626611,0.00000628,-0.06100
 596,0.02684448,0.01161806,0.00002010,-0.00362059,0.00554790,0.00000578
 ,-0.04836063,-0.03992037,0.00003069,-0.00000652,0.01416038,0.00000074,
 0.00001292,-0.00216343,-0.00008516,-0.00006982,-0.01023311,-0.00517492
 ,-0.00580316,-0.00001436,-0.00005964,-0.00094003,-0.00000061,0.0374182
 6,0.06386865,0.00010200,-0.03566181,0.00649285,-0.00476228,-0.00000618
 ,0.00203068,0.00153780,0.00000346,0.04781856,0.04771048,0.00009171,-0.
 05164858,-0.04129240,0.00000094,-0.00001605,0.00551514,0.00000269,0.00
 000221,-0.00114408,0.00008360,0.00010393,-0.00552690,-0.00008566,-0.00
 008505,0.00326799,0.12668101,0.28899585,0.00043710,-0.01169907,0.00229
 349,-0.00000335,-0.00318915,-0.03873191,-0.00004827,0.00347811,-0.0046
 9351,-0.00000157,-0.11527091,0.27889793,0.33801280,0.00061569,-0.03164
 659,-0.03185715,-0.00006067,0.00608946,-0.02495607,-0.00002829,-0.0054
 7689,-0.00319361,-0.00000505,-0.24786391,-0.27800594,0.00042736,0.0006
 1874,-0.03157767,-0.00004472,-0.00003313,0.00084846,0.00000265,-0.0000
 5999,0.00376306,-0.00000137,-0.00000394,-0.00211215,-0.00038391,-0.000
 52168,0.02907830,1.24161487,-0.00052501,-0.18266282,0.00103148,0.00003
 562,-0.22373124,-1.26862460,-0.06370951,-0.00110801,1.27486353,-0.0675
 9605,0.19867138,-0.00005042,0.06602210,-0.19541640,-0.00111013,-0.0000
 4297,0.20265408,0.00111394,0.00005276,-0.20415847,0.02940931,0.0313168
 8,0.00003949,-0.00421722,0.00005616,-0.00000525,-0.04602305,0.04049249
 ,-0.06679675,-0.00007015,-0.00231699,-0.00118505,-0.00000231,-0.050757
 09,0.05588919,0.00004381,-0.00007731,0.02264225,-0.00000214,-0.0000002
 4,-0.00117892,-0.00006959,0.00005336,-0.02284447,-0.00767961,-0.002513
 11,-0.00000891,0.00181221,0.00190007,0.00000278,0.01774863,0.01874719,
 0.00003231,-0.01274873,0.00627052,-0.00125035,0.00000374,0.00178073,-0
 .00006639,-0.00000050,0.00895050,0.01937498,0.00002505,-0.01678845,-0.
 01842023,0.00000245,-0.00000384,0.00035339,0.00000254,0.00000037,0.000
 54524,0.00002101,0.00003293,0.00112668,-0.00002716,-0.00003045,-0.0008
 3175,0.00528005,0.03543076,0.00004594,-0.00383391,-0.00038227,-0.00000
 135,0.00308231,-0.00616560,-0.00000440,0.00086750,-0.00021330,0.000001
 16,-0.00539597,0.02135804,0.05203852,0.00008121,-0.00177632,-0.0020035
 2,-0.00000698,0.01043357,-0.00728238,-0.00000087,-0.00134571,0.0003619
 8,0.00000099,-0.02866959,-0.04311459,0.00003238,0.00008850,-0.00191849
 ,-0.00000633,-0.00000247,0.00213806,0.00001433,-0.00001383,0.00025446,
 0.00000098,0.00000215,-0.00119356,-0.00004135,-0.00007435,0.00071952,0
 .54214249,1.77413978,1.99529972,0.00281482,0.00417416,-0.63667010,-0.0
 0315460,-0.01248794,-0.00000927,-0.00638388,0.03167636,-0.00143075,0.0
 0003498,-0.02423490,-0.00415441,0.00004189,0.00000817,-0.01078025,-0.0
 0003439,-0.00002845,0.00268772,0.00831527,-0.00084184,0.00000737,-0.00
 267164,-0.00119781,-0.00000597,-0.00504248,-0.04518142,0.01804134,0.00
 000321,0.00103680,-0.00788578,-0.00000814,0.00580854,-0.01619133,-0.00
 004944,0.00003198,-0.00635074,0.00000236,-0.00000941,-0.00068431,0.000
 01028,-0.00001414,-0.00297304,-0.00132577,0.00345814,0.00000577,0.0001
 4064,0.00091273,0.00000023,0.00180317,-0.00487373,-0.00000770,0.001951
 50,0.00065738,0.00064180,0.00000801,0.00007267,-0.00083710,-0.00000302
 ,-0.00540673,-0.00056440,-0.00001094,0.00194675,-0.00068187,0.00000381
 ,0.00000813,-0.00476629,-0.00000085,-0.00000167,0.00094731,-0.00000840
 ,-0.00000943,0.00399996,0.00000590,0.00000524,-0.00301139,-0.54597738,
 -1.76426813,-0.00281870,0.01206948,-0.00715637,-0.00000176,-0.00240432
 ,0.04320981,0.00004450,-0.00256955,0.00272992,-0.00000046,0.53888177,-
 1.76129211,-2.01255213,-0.00422035,0.03561338,0.01430804,0.00003143,0.
 00163784,0.00660019,0.00000250,-0.00144389,0.00144157,-0.00000227,1.72
 548477,1.99020236,-0.00281108,-0.00422244,0.65856738,0.00004215,0.0000
 0454,0.00782952,-0.00000329,0.00002850,0.00600813,-0.00000420,0.000000
 71,0.00283042,0.00277641,0.00418869,-0.67523544,-0.02845110,0.00708114
 ,-0.02819590,-0.00000829,-0.00003929,-0.00124004,0.00900806,0.00130523
 ,0.00000686,-0.00614807,0.00296043,0.00538309,0.00001016,0.00131348,-0
 .00727768,0.00001098,0.00001362,-0.00032004,-0.00000467,-0.00001295,0.
 00173829,0.00978337,-0.06927064,-0.00006356,-0.00794025,0.00601273,-0.
 00000469,1.53241501,-0.01301638,0.04032231,0.00006061,0.00376664,-0.00
 751218,-0.00001138,3.74695458,3.56263821,-0.00000494,0.00002188,-0.015
 84284,-0.00000168,-0.00000958,0.00421284,0.00625252,0.00815805,-1.3161
 2749,0.00511718,0.05907065,0.00006215,0.00602850,-0.00994044,-0.000004
 44,-1.53623735,-3.73418913,-0.00624556,1.52750222,0.00709069,-0.016833
 39,-0.00002799,-0.00615541,0.00945327,0.00001057,-3.68134520,-3.594938
 64,-0.00817139,3.68094972,3.60056793,0.00000356,0.00000569,0.01285274,
 -0.00000012,0.00000878,-0.00441833,-0.00618495,-0.00820614,1.33007066,
 0.00618476,0.00818838,-1.33999524,0.00454250,0.00181363,0.00000284,-0.
 00094822,-0.00034621,0.00000283,0.00197922,-0.00351570,-0.00000033,-0.
 00241056,-0.00053980,-0.00000324,-0.00316296,-0.00411589,-0.00067612,-
 0.00000349,-0.00022994,-0.00004648,0.00000013,-0.00235147,-0.00050970,
 0.00000105,0.00410920,0.00175085,0.00000329,0.00258808,-0.00051854,-0.
 00000131,-0.00000190,0.00455018,-0.00000038,0.00000359,-0.00121275,0.0
 0000069,-0.00000114,-0.00231318,0.00000310,0.00000042,0.00149017,-0.00
 000210,-0.00000097,-0.00251442\\@
 The archive entry for this job was punched.


 TOWERING GENIUS DISDAINS A BEATEN PATH.  IT SEEKS 
 REGIONS HITHERTO UNEXPLORED.

                                -- ABRAHAM LINCOLN
 Job cpu time:       1 days 12 hours 40 minutes 42.4 seconds.
 Elapsed time:       0 days  0 hours 56 minutes  0.8 seconds.
 File lengths (MBytes):  RWF=   4013 Int=      0 D2E=      0 Chk=     44 Scr=      1
 Normal termination of Gaussian 16 at Fri Mar 21 00:09:34 2025.
