 Entering Gaussian System, Link 0=g16
 Input=hcoohc_mp2_avdz_opt_anharm.gjf
 Output=hcoohc_mp2_avdz_opt_anharm.log
 Initial command:
 /sw/contrib/chem-src/g16/c01/g16/l1.exe "/scr/Gau-13668.inp" -scrdir="/scr/"
 Entering Link 1 = /sw/contrib/chem-src/g16/c01/g16/l1.exe PID=     13669.
  
 Copyright (c) 1988-2019, Gaussian, Inc.  All Rights Reserved.
  
 This is part of the Gaussian(R) 16 program.  It is based on
 the Gaussian(R) 09 system (copyright 2009, Gaussian, Inc.),
 the Gaussian(R) 03 system (copyright 2003, Gaussian, Inc.),
 the Gaussian(R) 98 system (copyright 1998, Gaussian, Inc.),
 the Gaussian(R) 94 system (copyright 1995, Gaussian, Inc.),
 the Gaussian 92(TM) system (copyright 1992, Gaussian, Inc.),
 the Gaussian 90(TM) system (copyright 1990, Gaussian, Inc.),
 the Gaussian 88(TM) system (copyright 1988, Gaussian, Inc.),
 the Gaussian 86(TM) system (copyright 1986, Carnegie Mellon
 University), and the Gaussian 82(TM) system (copyright 1983,
 Carnegie Mellon University). Gaussian is a federally registered
 trademark of Gaussian, Inc.
  
 This software contains proprietary and confidential information,
 including trade secrets, belonging to Gaussian, Inc.
  
 This software is provided under written license and may be
 used, copied, transmitted, or stored only in accord with that
 written license.
  
 The following legend is applicable only to US Government
 contracts under FAR:
  
                    RESTRICTED RIGHTS LEGEND
  
 Use, reproduction and disclosure by the US Government is
 subject to restrictions as set forth in subparagraphs (a)
 and (c) of the Commercial Computer Software - Restricted
 Rights clause in FAR 52.227-19.
  
 Gaussian, Inc.
 340 Quinnipiac St., Bldg. 40, Wallingford CT 06492
  
  
 ---------------------------------------------------------------
 Warning -- This program may not be used in any manner that
 competes with the business of Gaussian, Inc. or will provide
 assistance to any competitor of Gaussian, Inc.  The licensee
 of this program is prohibited from giving any competitor of
 Gaussian, Inc. access to this program.  By using this program,
 the user acknowledges that Gaussian, Inc. is engaged in the
 business of creating and licensing software in the field of
 computational chemistry and represents and warrants to the
 licensee that it is not a competitor of Gaussian, Inc. and that
 it will not use this program in any manner prohibited above.
 ---------------------------------------------------------------
  

 Cite this work as:
 Gaussian 16, Revision C.01,
 M. J. Frisch, G. W. Trucks, H. B. Schlegel, G. E. Scuseria, 
 M. A. Robb, J. R. Cheeseman, G. Scalmani, V. Barone, 
 G. A. Petersson, H. Nakatsuji, X. Li, M. Caricato, A. V. Marenich, 
 J. Bloino, B. G. Janesko, R. Gomperts, B. Mennucci, H. P. Hratchian, 
 J. V. Ortiz, A. F. Izmaylov, J. L. Sonnenberg, D. Williams-Young, 
 F. Ding, F. Lipparini, F. Egidi, J. Goings, B. Peng, A. Petrone, 
 T. Henderson, D. Ranasinghe, V. G. Zakrzewski, J. Gao, N. Rega, 
 G. Zheng, W. Liang, M. Hada, M. Ehara, K. Toyota, R. Fukuda, 
 J. Hasegawa, M. Ishida, T. Nakajima, Y. Honda, O. Kitao, H. Nakai, 
 T. Vreven, K. Throssell, J. A. Montgomery, Jr., J. E. Peralta, 
 F. Ogliaro, M. J. Bearpark, J. J. Heyd, E. N. Brothers, K. N. Kudin, 
 V. N. Staroverov, T. A. Keith, R. Kobayashi, J. Normand, 
 K. Raghavachari, A. P. Rendell, J. C. Burant, S. S. Iyengar, 
 J. Tomasi, M. Cossi, J. M. Millam, M. Klene, C. Adamo, R. Cammi, 
 J. W. Ochterski, R. L. Martin, K. Morokuma, O. Farkas, 
 J. B. Foresman, and D. J. Fox, Gaussian, Inc., Wallingford CT, 2019.
 
 ******************************************
 Gaussian 16:  EM64L-G16RevC.01  3-Jul-2019
                21-Mar-2025 
 ******************************************
 %nprocshared=40
 Will use up to   40 processors via shared memory.
 %mem=50gb
 ----------------------------------------------
 # MP2/aug-cc-pVDZ opt freq=(vibrot,anharmonic)
 ----------------------------------------------
 1/18=20,19=15,38=1,80=1/1,3;
 2/9=110,12=2,17=6,18=5,40=1/2;
 3/5=16,7=10,11=9,25=1,30=1,71=1/1,2,3;
 4//1;
 5/5=2,38=5/2;
 8/6=4,10=1/1;
 9/15=2,16=-3/6;
 10/5=1/2;
 6/7=2,8=2,9=2,10=2/1;
 7/12=2/1,2,3,16;
 1/18=20,19=15,80=1/3(2);
 2/9=110/2;
 99//99;
 2/9=110/2;
 3/5=16,7=10,11=9,25=1,30=1,71=1/1,2,3;
 4/5=5,16=3,69=1/1;
 5/5=2,38=5/2;
 8/6=4,10=1/1;
 9/15=2,16=-3/6;
 10/5=1/2;
 7/12=2/1,2,3,16;
 1/18=20,19=15,80=1/3(-8);
 2/9=110/2;
 6/7=2,8=2,9=2,10=2/1;
 99/9=10/99;
 ----
 blah
 ----
 Symbolic Z-matrix:
 Charge =  0 Multiplicity = 1
 C                     1.04384  -0.33218  -0.0002 
 O                     2.26404  -0.3069    0.00069 
 O                     0.33784   0.81656   0.00059 
 H                     0.78166   1.67641   0.00202 
 H                     0.52426  -1.28408  -0.00156 
 

 GradGradGradGradGradGradGradGradGradGradGradGradGradGradGradGradGradGrad
 Berny optimization.
 Initialization pass.
                           ----------------------------
                           !    Initial Parameters    !
                           ! (Angstroms and Degrees)  !
 --------------------------                            --------------------------
 ! Name  Definition              Value          Derivative Info.                !
 --------------------------------------------------------------------------------
 ! R1    R(1,2)                  1.2205         estimate D2E/DX2                !
 ! R2    R(1,3)                  1.3484         estimate D2E/DX2                !
 ! R3    R(1,5)                  1.0845         estimate D2E/DX2                !
 ! R4    R(3,4)                  0.9676         estimate D2E/DX2                !
 ! A1    A(2,1,3)              120.3871         estimate D2E/DX2                !
 ! A2    A(2,1,5)              119.8146         estimate D2E/DX2                !
 ! A3    A(3,1,5)              119.7984         estimate D2E/DX2                !
 ! A4    A(1,3,4)              121.1246         estimate D2E/DX2                !
 ! D1    D(2,1,3,4)             -0.0107         estimate D2E/DX2                !
 ! D2    D(2,1,3,5)           -179.9961         estimate D2E/DX2                !
 ! D3    D(5,1,3,4)            179.9854         estimate D2E/DX2                !
 --------------------------------------------------------------------------------
 Trust Radius=3.00D-01 FncErr=1.00D-07 GrdErr=1.00D-07 EigMax=2.50D+02 EigMin=1.00D-04
 Number of steps in this run=     21 maximum allowed number of steps=    100.
 GradGradGradGradGradGradGradGradGradGradGradGradGradGradGradGradGradGrad

                          Input orientation:                          
 ---------------------------------------------------------------------
 Center     Atomic      Atomic             Coordinates (Angstroms)
 Number     Number       Type             X           Y           Z
 ---------------------------------------------------------------------
      1          6           0        1.043841   -0.332183   -0.000196
      2          8           0        2.264037   -0.306897    0.000693
      3          8           0        0.337839    0.816565    0.000590
      4          1           0        0.781661    1.676412    0.002019
      5          1           0        0.524258   -1.284081   -0.001562
 ---------------------------------------------------------------------
                    Distance matrix (angstroms):
                    1          2          3          4          5
     1  C    0.000000
     2  O    1.220459   0.000000
     3  O    1.348355   2.229890   0.000000
     4  H    2.025634   2.476077   0.967635   0.000000
     5  H    1.084471   1.995426   2.108902   2.971664   0.000000
 Stoichiometry    CH2O2
 Framework group  C1[X(CH2O2)]
 Deg. of freedom     9
 Full point group                 C1      NOp   1
 Largest Abelian subgroup         C1      NOp   1
 Largest concise Abelian subgroup C1      NOp   1
                         Standard orientation:                         
 ---------------------------------------------------------------------
 Center     Atomic      Atomic             Coordinates (Angstroms)
 Number     Number       Type             X           Y           Z
 ---------------------------------------------------------------------
      1          6           0       -0.146117    0.432981   -0.000003
      2          8           0       -1.114105   -0.310335   -0.000004
      3          8           0        1.103240   -0.074136   -0.000019
      4          1           0        1.255150   -1.029772    0.000123
      5          1           0       -0.291534    1.507659    0.000075
 ---------------------------------------------------------------------
 Rotational constants (GHZ):          70.7101083          12.2318523          10.4279619
 Standard basis: Aug-CC-pVDZ (5D, 7F)
 There are    93 symmetry adapted cartesian basis functions of A   symmetry.
 There are    87 symmetry adapted basis functions of A   symmetry.
    87 basis functions,   151 primitive gaussians,    93 cartesian basis functions
    12 alpha electrons       12 beta electrons
       nuclear repulsion energy        69.7252839359 Hartrees.
 NAtoms=    5 NActive=    5 NUniq=    5 SFac= 1.00D+00 NAtFMM=   60 NAOKFM=F Big=F
 Integral buffers will be    131072 words long.
 Raffenetti 1 integral format.
 Two-electron integral symmetry is turned on.
 One-electron integrals computed using PRISM.
 NBasis=    87 RedAO= T EigKep=  7.55D-04  NBF=    87
 NBsUse=    87 1.00D-06 EigRej= -1.00D+00 NBFU=    87
 ExpMin= 2.97D-02 ExpMax= 1.17D+04 ExpMxC= 4.01D+02 IAcc=3 IRadAn=         5 AccDes= 0.00D+00
 Harris functional with IExCor=  205 and IRadAn=       5 diagonalized for initial guess.
 HarFok:  IExCor=  205 AccDes= 0.00D+00 IRadAn=         5 IDoV= 1 UseB2=F ITyADJ=14
 ICtDFT=  3500011 ScaDFX=  1.000000  1.000000  1.000000  1.000000
 FoFCou: FMM=F IPFlag=           0 FMFlag=      100000 FMFlg1=           0
         NFxFlg=           0 DoJE=T BraDBF=F KetDBF=T FulRan=T
         wScrn=  0.000000 ICntrl=       500 IOpCl=  0 I1Cent=   200000004 NGrid=           0
         NMat0=    1 NMatS0=      1 NMatT0=    0 NMatD0=    1 NMtDS0=    0 NMtDT0=    0
 Petite list used in FoFCou.
 Keep R1 ints in memory in canonical form, NReq=15722802.
 Requested convergence on RMS density matrix=1.00D-08 within 128 cycles.
 Requested convergence on MAX density matrix=1.00D-06.
 Requested convergence on             energy=1.00D-06.
 No special actions if energy rises.
 SCF Done:  E(RHF) =  -188.786495268     A.U. after   13 cycles
            NFock= 13  Conv=0.17D-08     -V/T= 2.0021
 ExpMin= 2.97D-02 ExpMax= 1.17D+04 ExpMxC= 4.01D+02 IAcc=3 IRadAn=         5 AccDes= 0.00D+00
 HarFok:  IExCor=  205 AccDes= 0.00D+00 IRadAn=         5 IDoV=-2 UseB2=F ITyADJ=14
 ICtDFT= 12500011 ScaDFX=  1.000000  1.000000  1.000000  1.000000
 Range of M.O.s used for correlation:     4    87
 NBasis=    87 NAE=    12 NBE=    12 NFC=     3 NFV=     0
 NROrb=     84 NOA=     9 NOB=     9 NVA=    75 NVB=    75

 **** Warning!!: The largest alpha MO coefficient is  0.11179807D+02

 Fully direct method using O(ONN) memory.
 JobTyp=1 Pass  1:  I=   4 to  12 NPSUse= 40 ParTrn=T ParDer=T DoDerP=T.
 Spin components of T(2) and E(2):
     alpha-alpha T2 =       0.2102603723D-01 E2=     -0.7073799737D-01
     alpha-beta  T2 =       0.1128357796D+00 E2=     -0.3881395872D+00
     beta-beta   T2 =       0.2102603723D-01 E2=     -0.7073799737D-01
 ANorm=    0.1074657087D+01
 E2 =    -0.5296155819D+00 EUMP2 =    -0.18931611084946D+03
          IDoAtm=11111
          Differentiating once with respect to electric field.
                with respect to dipole field.
          Differentiating once with respect to nuclear coordinates.
 Keep R1 ints in memory in canonical form, NReq=15725218.
          There are     1 degrees of freedom in the 1st order CPHF.  IDoFFX=0 NUNeed=     1.
 LinEq1:  Iter=  0 NonCon=     1 RMS=7.87D-03 Max=1.16D-01 NDo=     1
 AX will form     1 AO Fock derivatives at one time.
 LinEq1:  Iter=  1 NonCon=     1 RMS=2.26D-03 Max=1.91D-02 NDo=     1
 LinEq1:  Iter=  2 NonCon=     1 RMS=7.80D-04 Max=7.77D-03 NDo=     1
 LinEq1:  Iter=  3 NonCon=     1 RMS=3.03D-04 Max=3.07D-03 NDo=     1
 LinEq1:  Iter=  4 NonCon=     1 RMS=9.54D-05 Max=5.25D-04 NDo=     1
 LinEq1:  Iter=  5 NonCon=     1 RMS=3.19D-05 Max=2.94D-04 NDo=     1
 LinEq1:  Iter=  6 NonCon=     1 RMS=7.55D-06 Max=6.30D-05 NDo=     1
 LinEq1:  Iter=  7 NonCon=     1 RMS=1.54D-06 Max=1.32D-05 NDo=     1
 LinEq1:  Iter=  8 NonCon=     1 RMS=3.32D-07 Max=2.50D-06 NDo=     1
 LinEq1:  Iter=  9 NonCon=     1 RMS=6.94D-08 Max=4.96D-07 NDo=     1
 LinEq1:  Iter= 10 NonCon=     1 RMS=1.48D-08 Max=9.68D-08 NDo=     1
 LinEq1:  Iter= 11 NonCon=     1 RMS=2.17D-09 Max=1.43D-08 NDo=     1
 LinEq1:  Iter= 12 NonCon=     1 RMS=2.48D-10 Max=1.75D-09 NDo=     1
 LinEq1:  Iter= 13 NonCon=     0 RMS=2.97D-11 Max=2.01D-10 NDo=     1
 Linear equations converged to 1.000D-10 1.000D-09 after    13 iterations.
 End of Minotr F.D. properties file   721 does not exist.
 End of Minotr F.D. properties file   722 does not exist.
 End of Minotr F.D. properties file   788 does not exist.

 **********************************************************************

            Population analysis using the SCF Density.

 **********************************************************************

 Orbital symmetries:
       Occupied  (A) (A) (A) (A) (A) (A) (A) (A) (A) (A) (A) (A)
       Virtual   (A) (A) (A) (A) (A) (A) (A) (A) (A) (A) (A) (A)
                 (A) (A) (A) (A) (A) (A) (A) (A) (A) (A) (A) (A)
                 (A) (A) (A) (A) (A) (A) (A) (A) (A) (A) (A) (A)
                 (A) (A) (A) (A) (A) (A) (A) (A) (A) (A) (A) (A)
                 (A) (A) (A) (A) (A) (A) (A) (A) (A) (A) (A) (A)
                 (A) (A) (A) (A) (A) (A) (A) (A) (A) (A) (A) (A)
                 (A) (A) (A)
 The electronic state is 1-A.
 Alpha  occ. eigenvalues --  -20.62968 -20.56936 -11.41080  -1.46866  -1.36435
 Alpha  occ. eigenvalues --   -0.90681  -0.74815  -0.69934  -0.62955  -0.58498
 Alpha  occ. eigenvalues --   -0.48467  -0.46753
 Alpha virt. eigenvalues --    0.03536   0.04250   0.08626   0.09499   0.12143
 Alpha virt. eigenvalues --    0.15227   0.16042   0.18619   0.21065   0.22296
 Alpha virt. eigenvalues --    0.23508   0.27752   0.27907   0.30103   0.33250
 Alpha virt. eigenvalues --    0.35788   0.38040   0.40436   0.42179   0.43311
 Alpha virt. eigenvalues --    0.48029   0.54660   0.56663   0.58449   0.61259
 Alpha virt. eigenvalues --    0.64211   0.64678   0.68644   0.71238   0.81531
 Alpha virt. eigenvalues --    0.86204   0.88299   0.90536   0.97209   1.03568
 Alpha virt. eigenvalues --    1.14292   1.14671   1.16147   1.20065   1.26615
 Alpha virt. eigenvalues --    1.27828   1.32281   1.42998   1.49025   1.53041
 Alpha virt. eigenvalues --    1.62600   1.65421   1.66125   1.76220   1.80253
 Alpha virt. eigenvalues --    1.90063   1.95721   1.98982   2.05500   2.08955
 Alpha virt. eigenvalues --    2.13060   2.26368   2.28953   2.40544   2.51289
 Alpha virt. eigenvalues --    2.68036   2.84093   2.89008   3.11604   3.28623
 Alpha virt. eigenvalues --    3.64736   3.67113   3.70323   3.71454   3.72751
 Alpha virt. eigenvalues --    3.75943   3.88037   4.00063   4.06778   4.24772
          Condensed to atoms (all electrons):
               1          2          3          4          5
     1  C    4.015148   0.435101   0.172413  -0.024937   0.304654
     2  O    0.435101   8.292218  -0.073399  -0.005480  -0.046531
     3  O    0.172413  -0.073399   8.189025   0.343539  -0.082280
     4  H   -0.024937  -0.005480   0.343539   0.516952   0.013951
     5  H    0.304654  -0.046531  -0.082280   0.013951   0.912594
 Mulliken charges:
               1
     1  C    1.097621
     2  O   -0.601909
     3  O   -0.549299
     4  H    0.155974
     5  H   -0.102388
 Sum of Mulliken charges =  -0.00000
 Mulliken charges with hydrogens summed into heavy atoms:
               1
     1  C    0.995233
     2  O   -0.601909
     3  O   -0.393325
 Electronic spatial extent (au):  <R**2>=            133.6703
 Charge=             -0.0000 electrons
 Dipole moment (field-independent basis, Debye):
    X=              1.9089    Y=              0.6944    Z=              0.0003  Tot=              2.0313
 Quadrupole moment (field-independent basis, Debye-Ang):
   XX=            -21.0345   YY=            -13.2167   ZZ=            -17.1591
   XY=             -4.0671   XZ=              0.0004   YZ=             -0.0003
 Traceless Quadrupole moment (field-independent basis, Debye-Ang):
   XX=             -3.8977   YY=              3.9201   ZZ=             -0.0223
   XY=             -4.0671   XZ=              0.0004   YZ=             -0.0003
 Octapole moment (field-independent basis, Debye-Ang**2):
  XXX=              5.3161  YYY=             -0.5616  ZZZ=              0.0001  XYY=              3.3576
  XXY=             -3.5604  XXZ=              0.0005  XZZ=              0.2294  YZZ=             -0.2365
  YYZ=              0.0006  XYZ=             -0.0005
 Hexadecapole moment (field-independent basis, Debye-Ang**3):
 XXXX=           -110.0402 YYYY=            -27.3314 ZZZZ=            -14.6911 XXXY=             -7.3800
 XXXZ=              0.0008 YYYX=             -6.7793 YYYZ=             -0.0002 ZZZX=              0.0002
 ZZZY=             -0.0002 XXYY=            -18.8857 XXZZ=            -20.7502 YYZZ=             -8.2884
 XXYZ=             -0.0006 YYXZ=              0.0004 ZZXY=             -0.4592
 N-N= 6.972528393589D+01 E-N=-5.854787895768D+02  KE= 1.883829740608D+02
 Calling FoFJK, ICntrl=  10002127 FMM=F ISym2X=0 I1Cent= 0 IOpClX= 0 NMat=1 NMatS=1 NMatT=0.
 ***** Axes restored to original set *****
 -------------------------------------------------------------------
 Center     Atomic                   Forces (Hartrees/Bohr)
 Number     Number              X              Y              Z
 -------------------------------------------------------------------
      1        6           0.048694828    0.034279186    0.000081270
      2        8           0.006504377   -0.010113381   -0.000008054
      3        8          -0.053086529   -0.013949252   -0.000053784
      4        1           0.019829435   -0.011339625   -0.000001047
      5        1          -0.021942111    0.001123071   -0.000018384
 -------------------------------------------------------------------
 Cartesian Forces:  Max     0.053086529 RMS     0.022668802

 GradGradGradGradGradGradGradGradGradGradGradGradGradGradGradGradGradGrad
 Berny optimization.
 FormGI is forming the generalized inverse of G from B-inverse, IUseBI=4.
 Internal  Forces:  Max     0.041730973 RMS     0.019066291
 Search for a local minimum.
 Step number   1 out of a maximum of   21
 All quantities printed in internal units (Hartrees-Bohrs-Radians)
 Mixed Optimization -- RFO/linear search
 Second derivative matrix not updated -- first step.
 The second derivative matrix:
                          R1        R2        R3        R4        A1
           R1           0.95180
           R2           0.00000   0.55373
           R3           0.00000   0.00000   0.35459
           R4           0.00000   0.00000   0.00000   0.53863
           A1           0.00000   0.00000   0.00000   0.00000   0.25000
           A2           0.00000   0.00000   0.00000   0.00000   0.00000
           A3           0.00000   0.00000   0.00000   0.00000   0.00000
           A4           0.00000   0.00000   0.00000   0.00000   0.00000
           D1           0.00000   0.00000   0.00000   0.00000   0.00000
           D2           0.00000   0.00000   0.00000   0.00000   0.00000
           D3           0.00000   0.00000   0.00000   0.00000   0.00000
                          A2        A3        A4        D1        D2
           A2           0.16000
           A3           0.00000   0.16000
           A4           0.00000   0.00000   0.16000
           D1           0.00000   0.00000   0.00000   0.02375
           D2           0.00000   0.00000   0.00000   0.00000   0.02375
           D3           0.00000   0.00000   0.00000   0.00000   0.00000
                          D3
           D3           0.02375
 ITU=  0
     Eigenvalues ---    0.02375   0.02375   0.16000   0.16000   0.22000
     Eigenvalues ---    0.35459   0.53863   0.55373   0.95180
 RFO step:  Lambda=-1.99270126D-02 EMin= 2.37494589D-02
 Linear search not attempted -- first point.
 Maximum step size (   0.300) exceeded in Quadratic search.
    -- Step size scaled by   0.938
 Iteration  1 RMS(Cart)=  0.08486620 RMS(Int)=  0.00726745
 Iteration  2 RMS(Cart)=  0.01160739 RMS(Int)=  0.00007322
 Iteration  3 RMS(Cart)=  0.00005852 RMS(Int)=  0.00000000
 Iteration  4 RMS(Cart)=  0.00000000 RMS(Int)=  0.00000000
 Variable       Old X    -DE/DX   Delta X   Delta X   Delta X     New X
                                 (Linear)    (Quad)   (Total)
    R1        2.30633   0.00629   0.00000   0.00607   0.00607   2.31241
    R2        2.54802  -0.00413   0.00000  -0.00676  -0.00676   2.54127
    R3        2.04935   0.00953   0.00000   0.02386   0.02386   2.07321
    R4        1.82856  -0.00098   0.00000  -0.00165  -0.00165   1.82692
    A1        2.10115   0.02928   0.00000   0.11446   0.11446   2.21561
    A2        2.09116   0.00565   0.00000   0.04852   0.04852   2.13968
    A3        2.09088  -0.03493   0.00000  -0.16298  -0.16298   1.92789
    A4        2.11402  -0.04173   0.00000  -0.21755  -0.21755   1.89648
    D1       -0.00019   0.00000   0.00000   0.00003   0.00003  -0.00015
    D2       -3.14153  -0.00000   0.00000  -0.00008  -0.00008   3.14158
    D3        3.14134   0.00001   0.00000   0.00011   0.00011   3.14145
         Item               Value     Threshold  Converged?
 Maximum Force            0.041731     0.000450     NO 
 RMS     Force            0.019066     0.000300     NO 
 Maximum Displacement     0.178403     0.001800     NO 
 RMS     Displacement     0.092819     0.001200     NO 
 Predicted change in Energy=-1.082188D-02
 GradGradGradGradGradGradGradGradGradGradGradGradGradGradGradGradGradGrad

                          Input orientation:                          
 ---------------------------------------------------------------------
 Center     Atomic      Atomic             Coordinates (Angstroms)
 Number     Number       Type             X           Y           Z
 ---------------------------------------------------------------------
      1          6           0        1.077574   -0.290695   -0.000101
      2          8           0        2.301247   -0.291624    0.000736
      3          8           0        0.270110    0.784682    0.000525
      4          1           0        0.816831    1.582005    0.001913
      5          1           0        0.485873   -1.214551   -0.001530
 ---------------------------------------------------------------------
                    Distance matrix (angstroms):
                    1          2          3          4          5
     1  C    0.000000
     2  O    1.223673   0.000000
     3  O    1.344780   2.298684   0.000000
     4  H    1.890766   2.390393   0.966763   0.000000
     5  H    1.097097   2.036512   2.010843   2.816074   0.000000
 Stoichiometry    CH2O2
 Framework group  C1[X(CH2O2)]
 Deg. of freedom     9
 Full point group                 C1      NOp   1
 Largest Abelian subgroup         C1      NOp   1
 Largest concise Abelian subgroup C1      NOp   1
                         Standard orientation:                         
 ---------------------------------------------------------------------
 Center     Atomic      Atomic             Coordinates (Angstroms)
 Number     Number       Type             X           Y           Z
 ---------------------------------------------------------------------
      1          6           0       -0.124699    0.391481    0.000009
      2          8           0       -1.160450   -0.260128   -0.000006
      3          8           0        1.131767   -0.087819   -0.000016
      4          1           0        1.094316   -1.053856    0.000091
      5          1           0       -0.116654    1.488549    0.000034
 ---------------------------------------------------------------------
 Rotational constants (GHZ):          79.6232143          11.6285755          10.1467002
 Standard basis: Aug-CC-pVDZ (5D, 7F)
 There are    93 symmetry adapted cartesian basis functions of A   symmetry.
 There are    87 symmetry adapted basis functions of A   symmetry.
    87 basis functions,   151 primitive gaussians,    93 cartesian basis functions
    12 alpha electrons       12 beta electrons
       nuclear repulsion energy        69.4744204045 Hartrees.
 NAtoms=    5 NActive=    5 NUniq=    5 SFac= 1.00D+00 NAtFMM=   60 NAOKFM=F Big=F
 Integral buffers will be    131072 words long.
 Raffenetti 1 integral format.
 Two-electron integral symmetry is turned on.
 One-electron integrals computed using PRISM.
 NBasis=    87 RedAO= T EigKep=  7.53D-04  NBF=    87
 NBsUse=    87 1.00D-06 EigRej= -1.00D+00 NBFU=    87
 Initial guess from the checkpoint file:  "/scr/Gau-13669.chk"
 B after Tr=     0.000000    0.000000    0.000000
         Rot=    0.999776   -0.000001    0.000000    0.021173 Ang=  -2.43 deg.
 ExpMin= 2.97D-02 ExpMax= 1.17D+04 ExpMxC= 4.01D+02 IAcc=3 IRadAn=         5 AccDes= 0.00D+00
 Harris functional with IExCor=  205 and IRadAn=       5 diagonalized for initial guess.
 HarFok:  IExCor=  205 AccDes= 0.00D+00 IRadAn=         5 IDoV= 1 UseB2=F ITyADJ=14
 ICtDFT=  3500011 ScaDFX=  1.000000  1.000000  1.000000  1.000000
 FoFCou: FMM=F IPFlag=           0 FMFlag=      100000 FMFlg1=           0
         NFxFlg=           0 DoJE=T BraDBF=F KetDBF=T FulRan=T
         wScrn=  0.000000 ICntrl=       500 IOpCl=  0 I1Cent=   200000004 NGrid=           0
         NMat0=    1 NMatS0=      1 NMatT0=    0 NMatD0=    1 NMtDS0=    0 NMtDT0=    0
 Petite list used in FoFCou.
 Keep R1 ints in memory in canonical form, NReq=15722979.
 Requested convergence on RMS density matrix=1.00D-08 within 128 cycles.
 Requested convergence on MAX density matrix=1.00D-06.
 Requested convergence on             energy=1.00D-06.
 No special actions if energy rises.
 SCF Done:  E(RHF) =  -188.794606348     A.U. after   12 cycles
            NFock= 12  Conv=0.31D-08     -V/T= 2.0022
 ExpMin= 2.97D-02 ExpMax= 1.17D+04 ExpMxC= 4.01D+02 IAcc=3 IRadAn=         5 AccDes= 0.00D+00
 HarFok:  IExCor=  205 AccDes= 0.00D+00 IRadAn=         5 IDoV=-2 UseB2=F ITyADJ=14
 ICtDFT= 12500011 ScaDFX=  1.000000  1.000000  1.000000  1.000000
 Range of M.O.s used for correlation:     4    87
 NBasis=    87 NAE=    12 NBE=    12 NFC=     3 NFV=     0
 NROrb=     84 NOA=     9 NOB=     9 NVA=    75 NVB=    75

 **** Warning!!: The largest alpha MO coefficient is  0.11958263D+02

 Fully direct method using O(ONN) memory.
 JobTyp=1 Pass  1:  I=   4 to  12 NPSUse= 40 ParTrn=T ParDer=T DoDerP=T.
 Spin components of T(2) and E(2):
     alpha-alpha T2 =       0.2121401320D-01 E2=     -0.7102726445D-01
     alpha-beta  T2 =       0.1134960746D+00 E2=     -0.3893861241D+00
     beta-beta   T2 =       0.2121401320D-01 E2=     -0.7102726445D-01
 ANorm=    0.1075139108D+01
 E2 =    -0.5314406530D+00 EUMP2 =    -0.18932604700134D+03
          IDoAtm=11111
          Differentiating once with respect to electric field.
                with respect to dipole field.
          Differentiating once with respect to nuclear coordinates.
 Keep R1 ints in memory in canonical form, NReq=15725395.
          There are     1 degrees of freedom in the 1st order CPHF.  IDoFFX=0 NUNeed=     1.
 LinEq1:  Iter=  0 NonCon=     1 RMS=8.01D-03 Max=1.23D-01 NDo=     1
 AX will form     1 AO Fock derivatives at one time.
 LinEq1:  Iter=  1 NonCon=     1 RMS=2.31D-03 Max=1.97D-02 NDo=     1
 LinEq1:  Iter=  2 NonCon=     1 RMS=8.04D-04 Max=7.80D-03 NDo=     1
 LinEq1:  Iter=  3 NonCon=     1 RMS=3.11D-04 Max=3.28D-03 NDo=     1
 LinEq1:  Iter=  4 NonCon=     1 RMS=9.79D-05 Max=6.18D-04 NDo=     1
 LinEq1:  Iter=  5 NonCon=     1 RMS=3.32D-05 Max=2.98D-04 NDo=     1
 LinEq1:  Iter=  6 NonCon=     1 RMS=7.55D-06 Max=6.34D-05 NDo=     1
 LinEq1:  Iter=  7 NonCon=     1 RMS=1.51D-06 Max=1.26D-05 NDo=     1
 LinEq1:  Iter=  8 NonCon=     1 RMS=3.19D-07 Max=2.56D-06 NDo=     1
 LinEq1:  Iter=  9 NonCon=     1 RMS=6.26D-08 Max=4.86D-07 NDo=     1
 LinEq1:  Iter= 10 NonCon=     1 RMS=1.36D-08 Max=8.76D-08 NDo=     1
 LinEq1:  Iter= 11 NonCon=     1 RMS=2.20D-09 Max=1.53D-08 NDo=     1
 LinEq1:  Iter= 12 NonCon=     1 RMS=2.57D-10 Max=1.87D-09 NDo=     1
 LinEq1:  Iter= 13 NonCon=     0 RMS=3.22D-11 Max=2.40D-10 NDo=     1
 Linear equations converged to 1.000D-10 1.000D-09 after    13 iterations.
 End of Minotr F.D. properties file   721 does not exist.
 End of Minotr F.D. properties file   722 does not exist.
 End of Minotr F.D. properties file   788 does not exist.
 Calling FoFJK, ICntrl=  10002127 FMM=F ISym2X=0 I1Cent= 0 IOpClX= 0 NMat=1 NMatS=1 NMatT=0.
 ***** Axes restored to original set *****
 -------------------------------------------------------------------
 Center     Atomic                   Forces (Hartrees/Bohr)
 Number     Number              X              Y              Z
 -------------------------------------------------------------------
      1        6           0.018126923   -0.010381075   -0.000001332
      2        8          -0.010204499    0.006397065    0.000002208
      3        8          -0.009198327    0.000860575   -0.000001594
      4        1           0.006391688    0.004619585    0.000007048
      5        1          -0.005115786   -0.001496149   -0.000006330
 -------------------------------------------------------------------
 Cartesian Forces:  Max     0.018126923 RMS     0.007105679

 GradGradGradGradGradGradGradGradGradGradGradGradGradGradGradGradGradGrad
 Berny optimization.
 Using GEDIIS/GDIIS optimizer.
 FormGI is forming the generalized inverse of G from B-inverse, IUseBI=4.
 Internal  Forces:  Max     0.010209347 RMS     0.005600953
 Search for a local minimum.
 Step number   2 out of a maximum of   21
 All quantities printed in internal units (Hartrees-Bohrs-Radians)
 Mixed Optimization -- RFO/linear search
 Update second derivatives using D2CorX and points    1    2
 DE= -9.94D-03 DEPred=-1.08D-02 R= 9.18D-01
 TightC=F SS=  1.41D+00  RLast= 3.00D-01 DXNew= 5.0454D-01 9.0000D-01
 Trust test= 9.18D-01 RLast= 3.00D-01 DXMaxT set to 5.05D-01
 The second derivative matrix:
                          R1        R2        R3        R4        A1
           R1           0.96467
           R2          -0.00789   0.55857
           R3           0.00190  -0.00108   0.35172
           R4          -0.00731   0.00451  -0.00207   0.54247
           A1           0.02284  -0.01381  -0.00425  -0.01538   0.27217
           A2          -0.00439   0.00280  -0.00469   0.00122  -0.01755
           A3          -0.02223   0.01346   0.00340   0.01473  -0.02335
           A4          -0.02072   0.01243   0.00753   0.01510  -0.01124
           D1          -0.00000   0.00000  -0.00000   0.00000  -0.00001
           D2          -0.00000   0.00000  -0.00000   0.00000  -0.00001
           D3           0.00000  -0.00000  -0.00000  -0.00000   0.00000
                          A2        A3        A4        D1        D2
           A2           0.15633
           A3           0.01614   0.18428
           A4           0.02062   0.01341   0.15788
           D1          -0.00000   0.00000   0.00001   0.02375
           D2           0.00000   0.00001   0.00000   0.00000   0.02375
           D3          -0.00000  -0.00000   0.00000  -0.00000  -0.00000
                          D3
           D3           0.02375
 ITU=  1  0
 Use linear search instead of GDIIS.
     Eigenvalues ---    0.02375   0.02375   0.14469   0.16046   0.27122
     Eigenvalues ---    0.35238   0.54231   0.56217   0.96711
 RFO step:  Lambda=-1.03630985D-03 EMin= 2.37494582D-02
 Quartic linear search produced a step of  0.02620.
 Iteration  1 RMS(Cart)=  0.02861119 RMS(Int)=  0.00054086
 Iteration  2 RMS(Cart)=  0.00048494 RMS(Int)=  0.00000007
 Iteration  3 RMS(Cart)=  0.00000007 RMS(Int)=  0.00000000
 Variable       Old X    -DE/DX   Delta X   Delta X   Delta X     New X
                                 (Linear)    (Quad)   (Total)
    R1        2.31241  -0.01021   0.00016  -0.01085  -0.01069   2.30172
    R2        2.54127   0.00607  -0.00018   0.01107   0.01089   2.55216
    R3        2.07321   0.00402   0.00063   0.01210   0.01273   2.08594
    R4        1.82692   0.00742  -0.00004   0.01408   0.01403   1.84095
    A1        2.21561  -0.00743   0.00300  -0.03226  -0.02926   2.18635
    A2        2.13968   0.00734   0.00127   0.04109   0.04236   2.18205
    A3        1.92789   0.00009  -0.00427  -0.00883  -0.01310   1.91479
    A4        1.89648  -0.00486  -0.00570  -0.03473  -0.04043   1.85604
    D1       -0.00015   0.00000   0.00000   0.00014   0.00014  -0.00001
    D2        3.14158   0.00000  -0.00000   0.00003   0.00002  -3.14158
    D3        3.14145   0.00000   0.00000   0.00011   0.00012   3.14157
         Item               Value     Threshold  Converged?
 Maximum Force            0.010209     0.000450     NO 
 RMS     Force            0.005601     0.000300     NO 
 Maximum Displacement     0.064415     0.001800     NO 
 RMS     Displacement     0.028700     0.001200     NO 
 Predicted change in Energy=-5.325907D-04
 GradGradGradGradGradGradGradGradGradGradGradGradGradGradGradGradGradGrad

                          Input orientation:                          
 ---------------------------------------------------------------------
 Center     Atomic      Atomic             Coordinates (Angstroms)
 Number     Number       Type             X           Y           Z
 ---------------------------------------------------------------------
      1          6           0        1.077510   -0.296450   -0.000105
      2          8           0        2.294905   -0.257537    0.000783
      3          8           0        0.262867    0.780732    0.000562
      4          1           0        0.843119    1.563259    0.001871
      5          1           0        0.473234   -1.220189   -0.001569
 ---------------------------------------------------------------------
                    Distance matrix (angstroms):
                    1          2          3          4          5
     1  C    0.000000
     2  O    1.218017   0.000000
     3  O    1.350542   2.281925   0.000000
     4  H    1.874423   2.328730   0.974188   0.000000
     5  H    1.103833   2.060386   2.011951   2.807920   0.000000
 Stoichiometry    CH2O2
 Framework group  C1[X(CH2O2)]
 Deg. of freedom     9
 Full point group                 C1      NOp   1
 Largest Abelian subgroup         C1      NOp   1
 Largest concise Abelian subgroup C1      NOp   1
                         Standard orientation:                         
 ---------------------------------------------------------------------
 Center     Atomic      Atomic             Coordinates (Angstroms)
 Number     Number       Type             X           Y           Z
 ---------------------------------------------------------------------
      1          6           0       -0.128437    0.402879   -0.000001
      2          8           0       -1.148845   -0.262202   -0.000000
      3          8           0        1.126952   -0.095079   -0.000001
      4          1           0        1.037091   -1.065114    0.000011
      5          1           0       -0.091329    1.506088    0.000009
 ---------------------------------------------------------------------
 Rotational constants (GHZ):          76.8534957          11.8252579          10.2483670
 Standard basis: Aug-CC-pVDZ (5D, 7F)
 There are    93 symmetry adapted cartesian basis functions of A   symmetry.
 There are    87 symmetry adapted basis functions of A   symmetry.
    87 basis functions,   151 primitive gaussians,    93 cartesian basis functions
    12 alpha electrons       12 beta electrons
       nuclear repulsion energy        69.5842345498 Hartrees.
 NAtoms=    5 NActive=    5 NUniq=    5 SFac= 1.00D+00 NAtFMM=   60 NAOKFM=F Big=F
 Integral buffers will be    131072 words long.
 Raffenetti 1 integral format.
 Two-electron integral symmetry is turned on.
 One-electron integrals computed using PRISM.
 NBasis=    87 RedAO= T EigKep=  7.70D-04  NBF=    87
 NBsUse=    87 1.00D-06 EigRej= -1.00D+00 NBFU=    87
 Initial guess from the checkpoint file:  "/scr/Gau-13669.chk"
 B after Tr=     0.000000   -0.000000    0.000000
         Rot=    0.999997    0.000000    0.000000    0.002549 Ang=   0.29 deg.
 ExpMin= 2.97D-02 ExpMax= 1.17D+04 ExpMxC= 4.01D+02 IAcc=3 IRadAn=         5 AccDes= 0.00D+00
 Harris functional with IExCor=  205 and IRadAn=       5 diagonalized for initial guess.
 HarFok:  IExCor=  205 AccDes= 0.00D+00 IRadAn=         5 IDoV= 1 UseB2=F ITyADJ=14
 ICtDFT=  3500011 ScaDFX=  1.000000  1.000000  1.000000  1.000000
 FoFCou: FMM=F IPFlag=           0 FMFlag=      100000 FMFlg1=           0
         NFxFlg=           0 DoJE=T BraDBF=F KetDBF=T FulRan=T
         wScrn=  0.000000 ICntrl=       500 IOpCl=  0 I1Cent=   200000004 NGrid=           0
         NMat0=    1 NMatS0=      1 NMatT0=    0 NMatD0=    1 NMtDS0=    0 NMtDT0=    0
 Petite list used in FoFCou.
 Keep R1 ints in memory in canonical form, NReq=15722979.
 Requested convergence on RMS density matrix=1.00D-08 within 128 cycles.
 Requested convergence on MAX density matrix=1.00D-06.
 Requested convergence on             energy=1.00D-06.
 No special actions if energy rises.
 SCF Done:  E(RHF) =  -188.794915931     A.U. after   11 cycles
            NFock= 11  Conv=0.28D-08     -V/T= 2.0023
 ExpMin= 2.97D-02 ExpMax= 1.17D+04 ExpMxC= 4.01D+02 IAcc=3 IRadAn=         5 AccDes= 0.00D+00
 HarFok:  IExCor=  205 AccDes= 0.00D+00 IRadAn=         5 IDoV=-2 UseB2=F ITyADJ=14
 ICtDFT= 12500011 ScaDFX=  1.000000  1.000000  1.000000  1.000000
 Range of M.O.s used for correlation:     4    87
 NBasis=    87 NAE=    12 NBE=    12 NFC=     3 NFV=     0
 NROrb=     84 NOA=     9 NOB=     9 NVA=    75 NVB=    75

 **** Warning!!: The largest alpha MO coefficient is  0.11521569D+02

 Fully direct method using O(ONN) memory.
 JobTyp=1 Pass  1:  I=   4 to  12 NPSUse= 40 ParTrn=T ParDer=T DoDerP=T.
 Spin components of T(2) and E(2):
     alpha-alpha T2 =       0.2122471092D-01 E2=     -0.7106130598D-01
     alpha-beta  T2 =       0.1136012945D+00 E2=     -0.3895837085D+00
     beta-beta   T2 =       0.2122471092D-01 E2=     -0.7106130598D-01
 ANorm=    0.1075197989D+01
 E2 =    -0.5317063205D+00 EUMP2 =    -0.18932662225123D+03
          IDoAtm=11111
          Differentiating once with respect to electric field.
                with respect to dipole field.
          Differentiating once with respect to nuclear coordinates.
 Keep R1 ints in memory in canonical form, NReq=15725454.
          There are     1 degrees of freedom in the 1st order CPHF.  IDoFFX=0 NUNeed=     1.
 LinEq1:  Iter=  0 NonCon=     1 RMS=7.99D-03 Max=1.23D-01 NDo=     1
 AX will form     1 AO Fock derivatives at one time.
 LinEq1:  Iter=  1 NonCon=     1 RMS=2.30D-03 Max=1.99D-02 NDo=     1
 LinEq1:  Iter=  2 NonCon=     1 RMS=7.98D-04 Max=7.89D-03 NDo=     1
 LinEq1:  Iter=  3 NonCon=     1 RMS=3.07D-04 Max=3.07D-03 NDo=     1
 LinEq1:  Iter=  4 NonCon=     1 RMS=9.86D-05 Max=6.32D-04 NDo=     1
 LinEq1:  Iter=  5 NonCon=     1 RMS=3.43D-05 Max=3.33D-04 NDo=     1
 LinEq1:  Iter=  6 NonCon=     1 RMS=8.20D-06 Max=8.05D-05 NDo=     1
 LinEq1:  Iter=  7 NonCon=     1 RMS=1.74D-06 Max=1.49D-05 NDo=     1
 LinEq1:  Iter=  8 NonCon=     1 RMS=3.67D-07 Max=2.98D-06 NDo=     1
 LinEq1:  Iter=  9 NonCon=     1 RMS=6.85D-08 Max=4.15D-07 NDo=     1
 LinEq1:  Iter= 10 NonCon=     1 RMS=1.45D-08 Max=9.25D-08 NDo=     1
 LinEq1:  Iter= 11 NonCon=     1 RMS=2.24D-09 Max=1.58D-08 NDo=     1
 LinEq1:  Iter= 12 NonCon=     1 RMS=2.60D-10 Max=1.87D-09 NDo=     1
 LinEq1:  Iter= 13 NonCon=     0 RMS=3.22D-11 Max=2.42D-10 NDo=     1
 Linear equations converged to 1.000D-10 1.000D-09 after    13 iterations.
 End of Minotr F.D. properties file   721 does not exist.
 End of Minotr F.D. properties file   722 does not exist.
 End of Minotr F.D. properties file   788 does not exist.
 Calling FoFJK, ICntrl=  10002127 FMM=F ISym2X=0 I1Cent= 0 IOpClX= 0 NMat=1 NMatS=1 NMatT=0.
 ***** Axes restored to original set *****
 -------------------------------------------------------------------
 Center     Atomic                   Forces (Hartrees/Bohr)
 Number     Number              X              Y              Z
 -------------------------------------------------------------------
      1        6           0.005333580   -0.005417139   -0.000001231
      2        8          -0.002856002    0.000263771   -0.000001984
      3        8          -0.003130219    0.003788898    0.000002343
      4        1           0.000305827    0.000960930    0.000000872
      5        1           0.000346815    0.000403540   -0.000000000
 -------------------------------------------------------------------
 Cartesian Forces:  Max     0.005417139 RMS     0.002469452

 GradGradGradGradGradGradGradGradGradGradGradGradGradGradGradGradGradGrad
 Berny optimization.
 Using GEDIIS/GDIIS optimizer.
 FormGI is forming the generalized inverse of G from B-inverse, IUseBI=4.
 Internal  Forces:  Max     0.005492092 RMS     0.001915278
 Search for a local minimum.
 Step number   3 out of a maximum of   21
 All quantities printed in internal units (Hartrees-Bohrs-Radians)
 Mixed Optimization -- RFO/linear search
 Update second derivatives using D2CorX and points    1    2    3
 DE= -5.75D-04 DEPred=-5.33D-04 R= 1.08D+00
 TightC=F SS=  1.41D+00  RLast= 7.11D-02 DXNew= 8.4853D-01 2.1317D-01
 Trust test= 1.08D+00 RLast= 7.11D-02 DXMaxT set to 5.05D-01
 The second derivative matrix:
                          R1        R2        R3        R4        A1
           R1           0.92548
           R2           0.04021   0.53107
           R3           0.00734  -0.02317   0.35833
           R4           0.01412  -0.03157  -0.00032   0.53377
           A1          -0.00426   0.02156  -0.00182  -0.00130   0.25297
           A2           0.00217  -0.02873   0.00576   0.00488  -0.01478
           A3          -0.03163   0.02652   0.00445   0.01954  -0.02881
           A4          -0.02891   0.04562  -0.00204   0.01259  -0.01423
           D1           0.00000  -0.00002   0.00000   0.00000  -0.00000
           D2          -0.00001  -0.00000   0.00000   0.00001  -0.00001
           D3           0.00001  -0.00001  -0.00000  -0.00001   0.00001
                          A2        A3        A4        D1        D2
           A2           0.17262
           A3           0.01690   0.18059
           A4           0.00517   0.01073   0.17092
           D1           0.00001   0.00001   0.00000   0.02375
           D2           0.00001   0.00000  -0.00000   0.00000   0.02375
           D3          -0.00000   0.00000   0.00000  -0.00000   0.00000
                          D3
           D3           0.02375
 ITU=  1  1  0
 Use linear search instead of GDIIS.
     Eigenvalues ---    0.02375   0.02375   0.15050   0.16191   0.26531
     Eigenvalues ---    0.35534   0.50869   0.56840   0.93134
 RFO step:  Lambda=-6.69221413D-05 EMin= 2.37494541D-02
 Quartic linear search produced a step of  0.09805.
 Iteration  1 RMS(Cart)=  0.00306726 RMS(Int)=  0.00000245
 Iteration  2 RMS(Cart)=  0.00000262 RMS(Int)=  0.00000000
 Iteration  3 RMS(Cart)=  0.00000000 RMS(Int)=  0.00000000
 Variable       Old X    -DE/DX   Delta X   Delta X   Delta X     New X
                                 (Linear)    (Quad)   (Total)
    R1        2.30172  -0.00285  -0.00105  -0.00260  -0.00365   2.29807
    R2        2.55216   0.00549   0.00107   0.01005   0.01112   2.56328
    R3        2.08594  -0.00053   0.00125  -0.00199  -0.00074   2.08520
    R4        1.84095   0.00095   0.00138   0.00116   0.00254   1.84349
    A1        2.18635  -0.00059  -0.00287   0.00002  -0.00285   2.18350
    A2        2.18205   0.00022   0.00415  -0.00062   0.00353   2.18558
    A3        1.91479   0.00037  -0.00128   0.00060  -0.00069   1.91411
    A4        1.85604   0.00060  -0.00396   0.00342  -0.00054   1.85550
    D1       -0.00001   0.00000   0.00001  -0.00000   0.00001  -0.00000
    D2       -3.14158  -0.00000   0.00000  -0.00003  -0.00003   3.14157
    D3        3.14157   0.00000   0.00001   0.00003   0.00004  -3.14158
         Item               Value     Threshold  Converged?
 Maximum Force            0.005492     0.000450     NO 
 RMS     Force            0.001915     0.000300     NO 
 Maximum Displacement     0.005502     0.001800     NO 
 RMS     Displacement     0.003068     0.001200     NO 
 Predicted change in Energy=-3.811793D-05
 GradGradGradGradGradGradGradGradGradGradGradGradGradGradGradGradGradGrad

                          Input orientation:                          
 ---------------------------------------------------------------------
 Center     Atomic      Atomic             Coordinates (Angstroms)
 Number     Number       Type             X           Y           Z
 ---------------------------------------------------------------------
      1          6           0        1.078934   -0.299361   -0.000097
      2          8           0        2.294306   -0.257770    0.000782
      3          8           0        0.261382    0.782999    0.000573
      4          1           0        0.843322    1.565945    0.001864
      5          1           0        0.473691   -1.221997   -0.001580
 ---------------------------------------------------------------------
                    Distance matrix (angstroms):
                    1          2          3          4          5
     1  C    0.000000
     2  O    1.216084   0.000000
     3  O    1.356427   2.283853   0.000000
     4  H    1.880129   2.330514   0.975531   0.000000
     5  H    1.103439   2.060189   2.016206   2.812340   0.000000
 Stoichiometry    CH2O2
 Framework group  C1[X(CH2O2)]
 Deg. of freedom     9
 Full point group                 C1      NOp   1
 Largest Abelian subgroup         C1      NOp   1
 Largest concise Abelian subgroup C1      NOp   1
                         Standard orientation:                         
 ---------------------------------------------------------------------
 Center     Atomic      Atomic             Coordinates (Angstroms)
 Number     Number       Type             X           Y           Z
 ---------------------------------------------------------------------
      1          6           0       -0.132183    0.404209    0.000003
      2          8           0       -1.148219   -0.264022   -0.000001
      3          8           0        1.129318   -0.094298   -0.000000
      4          1           0        1.040056   -1.065737   -0.000004
      5          1           0       -0.095748    1.507046   -0.000009
 ---------------------------------------------------------------------
 Rotational constants (GHZ):          76.5112619          11.8026472          10.2252912
 Standard basis: Aug-CC-pVDZ (5D, 7F)
 There are    93 symmetry adapted cartesian basis functions of A   symmetry.
 There are    87 symmetry adapted basis functions of A   symmetry.
    87 basis functions,   151 primitive gaussians,    93 cartesian basis functions
    12 alpha electrons       12 beta electrons
       nuclear repulsion energy        69.5072214715 Hartrees.
 NAtoms=    5 NActive=    5 NUniq=    5 SFac= 1.00D+00 NAtFMM=   60 NAOKFM=F Big=F
 Integral buffers will be    131072 words long.
 Raffenetti 1 integral format.
 Two-electron integral symmetry is turned on.
 One-electron integrals computed using PRISM.
 NBasis=    87 RedAO= T EigKep=  7.71D-04  NBF=    87
 NBsUse=    87 1.00D-06 EigRej= -1.00D+00 NBFU=    87
 Initial guess from the checkpoint file:  "/scr/Gau-13669.chk"
 B after Tr=    -0.000000   -0.000000   -0.000000
         Rot=    1.000000    0.000000    0.000000   -0.000817 Ang=  -0.09 deg.
 Keep R1 ints in memory in canonical form, NReq=15722979.
 Requested convergence on RMS density matrix=1.00D-08 within 128 cycles.
 Requested convergence on MAX density matrix=1.00D-06.
 Requested convergence on             energy=1.00D-06.
 No special actions if energy rises.
 SCF Done:  E(RHF) =  -188.794785962     A.U. after   10 cycles
            NFock= 10  Conv=0.37D-08     -V/T= 2.0023
 ExpMin= 2.97D-02 ExpMax= 1.17D+04 ExpMxC= 4.01D+02 IAcc=3 IRadAn=         5 AccDes= 0.00D+00
 HarFok:  IExCor=  205 AccDes= 0.00D+00 IRadAn=         5 IDoV=-2 UseB2=F ITyADJ=14
 ICtDFT= 12500011 ScaDFX=  1.000000  1.000000  1.000000  1.000000
 Range of M.O.s used for correlation:     4    87
 NBasis=    87 NAE=    12 NBE=    12 NFC=     3 NFV=     0
 NROrb=     84 NOA=     9 NOB=     9 NVA=    75 NVB=    75

 **** Warning!!: The largest alpha MO coefficient is  0.11488191D+02

 Fully direct method using O(ONN) memory.
 JobTyp=1 Pass  1:  I=   4 to  12 NPSUse= 40 ParTrn=T ParDer=T DoDerP=T.
 Spin components of T(2) and E(2):
     alpha-alpha T2 =       0.2124302911D-01 E2=     -0.7107241841D-01
     alpha-beta  T2 =       0.1137288487D+00 E2=     -0.3897379687D+00
     beta-beta   T2 =       0.2124302911D-01 E2=     -0.7107241841D-01
 ANorm=    0.1075274340D+01
 E2 =    -0.5318828055D+00 EUMP2 =    -0.18932666876791D+03
          IDoAtm=11111
          Differentiating once with respect to electric field.
                with respect to dipole field.
          Differentiating once with respect to nuclear coordinates.
 Keep R1 ints in memory in canonical form, NReq=15725395.
          There are     1 degrees of freedom in the 1st order CPHF.  IDoFFX=0 NUNeed=     1.
 LinEq1:  Iter=  0 NonCon=     1 RMS=8.00D-03 Max=1.23D-01 NDo=     1
 AX will form     1 AO Fock derivatives at one time.
 LinEq1:  Iter=  1 NonCon=     1 RMS=2.31D-03 Max=2.02D-02 NDo=     1
 LinEq1:  Iter=  2 NonCon=     1 RMS=7.99D-04 Max=7.95D-03 NDo=     1
 LinEq1:  Iter=  3 NonCon=     1 RMS=3.07D-04 Max=2.99D-03 NDo=     1
 LinEq1:  Iter=  4 NonCon=     1 RMS=9.95D-05 Max=6.33D-04 NDo=     1
 LinEq1:  Iter=  5 NonCon=     1 RMS=3.52D-05 Max=3.58D-04 NDo=     1
 LinEq1:  Iter=  6 NonCon=     1 RMS=8.59D-06 Max=8.65D-05 NDo=     1
 LinEq1:  Iter=  7 NonCon=     1 RMS=1.85D-06 Max=1.50D-05 NDo=     1
 LinEq1:  Iter=  8 NonCon=     1 RMS=3.83D-07 Max=3.19D-06 NDo=     1
 LinEq1:  Iter=  9 NonCon=     1 RMS=7.00D-08 Max=4.39D-07 NDo=     1
 LinEq1:  Iter= 10 NonCon=     1 RMS=1.47D-08 Max=9.33D-08 NDo=     1
 LinEq1:  Iter= 11 NonCon=     1 RMS=2.25D-09 Max=1.56D-08 NDo=     1
 LinEq1:  Iter= 12 NonCon=     1 RMS=2.61D-10 Max=1.88D-09 NDo=     1
 LinEq1:  Iter= 13 NonCon=     0 RMS=3.23D-11 Max=2.45D-10 NDo=     1
 Linear equations converged to 1.000D-10 1.000D-09 after    13 iterations.
 End of Minotr F.D. properties file   721 does not exist.
 End of Minotr F.D. properties file   722 does not exist.
 End of Minotr F.D. properties file   788 does not exist.
 Calling FoFJK, ICntrl=  10002127 FMM=F ISym2X=0 I1Cent= 0 IOpClX= 0 NMat=1 NMatS=1 NMatT=0.
 ***** Axes restored to original set *****
 -------------------------------------------------------------------
 Center     Atomic                   Forces (Hartrees/Bohr)
 Number     Number              X              Y              Z
 -------------------------------------------------------------------
      1        6           0.001412993   -0.001367274   -0.000003004
      2        8          -0.000646885   -0.000087795    0.000000281
      3        8          -0.000571240    0.001431127    0.000001715
      4        1          -0.000336471   -0.000303674   -0.000000408
      5        1           0.000141603    0.000327616    0.000001416
 -------------------------------------------------------------------
 Cartesian Forces:  Max     0.001431127 RMS     0.000683102

 GradGradGradGradGradGradGradGradGradGradGradGradGradGradGradGradGradGrad
 Berny optimization.
 Using GEDIIS/GDIIS optimizer.
 FormGI is forming the generalized inverse of G from B-inverse, IUseBI=4.
 Internal  Forces:  Max     0.001446751 RMS     0.000513620
 Search for a local minimum.
 Step number   4 out of a maximum of   21
 All quantities printed in internal units (Hartrees-Bohrs-Radians)
 Mixed Optimization -- En-DIIS/RFO-DIIS
 Update second derivatives using D2CorX and points    1    2    3    4
 DE= -4.65D-05 DEPred=-3.81D-05 R= 1.22D+00
 TightC=F SS=  1.41D+00  RLast= 1.29D-02 DXNew= 8.4853D-01 3.8579D-02
 Trust test= 1.22D+00 RLast= 1.29D-02 DXMaxT set to 5.05D-01
 The second derivative matrix:
                          R1        R2        R3        R4        A1
           R1           0.90169
           R2           0.09662   0.41632
           R3          -0.00693   0.00019   0.35729
           R4          -0.00513  -0.00992   0.00658   0.56182
           A1           0.00790   0.01251  -0.00773  -0.01938   0.26376
           A2           0.00419  -0.03883   0.00840   0.01123  -0.02360
           A3          -0.03550   0.02372   0.00764   0.02728  -0.03613
           A4          -0.02365   0.03171   0.00068   0.01232  -0.01227
           D1           0.00002  -0.00004   0.00000  -0.00001   0.00000
           D2           0.00004  -0.00007  -0.00000  -0.00003   0.00001
           D3          -0.00002   0.00003   0.00000   0.00002  -0.00001
                          A2        A3        A4        D1        D2
           A2           0.17258
           A3           0.02268   0.18789
           A4           0.00911   0.01217   0.16768
           D1           0.00000   0.00001   0.00000   0.02375
           D2          -0.00000  -0.00000   0.00000   0.00000   0.02375
           D3           0.00001   0.00001   0.00000  -0.00000  -0.00000
                          D3
           D3           0.02375
 ITU=  1  1  1  0
 Use linear search instead of GDIIS.
     Eigenvalues ---    0.02375   0.02375   0.14297   0.16224   0.28045
     Eigenvalues ---    0.35868   0.41252   0.56657   0.92221
 RFO step:  Lambda=-2.35395174D-06 EMin= 2.37494514D-02
 Quartic linear search produced a step of  0.29699.
 Iteration  1 RMS(Cart)=  0.00123562 RMS(Int)=  0.00000059
 Iteration  2 RMS(Cart)=  0.00000056 RMS(Int)=  0.00000000
 Variable       Old X    -DE/DX   Delta X   Delta X   Delta X     New X
                                 (Linear)    (Quad)   (Total)
    R1        2.29807  -0.00065  -0.00108  -0.00014  -0.00123   2.29684
    R2        2.56328   0.00145   0.00330   0.00068   0.00398   2.56726
    R3        2.08520  -0.00035  -0.00022  -0.00078  -0.00100   2.08420
    R4        1.84349  -0.00044   0.00075  -0.00141  -0.00066   1.84283
    A1        2.18350   0.00014  -0.00085   0.00106   0.00021   2.18371
    A2        2.18558  -0.00001   0.00105   0.00018   0.00123   2.18681
    A3        1.91411  -0.00014  -0.00020  -0.00124  -0.00144   1.91266
    A4        1.85550   0.00016  -0.00016   0.00031   0.00015   1.85565
    D1       -0.00000   0.00000   0.00000   0.00002   0.00003   0.00002
    D2        3.14157   0.00000  -0.00001   0.00007   0.00006  -3.14155
    D3       -3.14158  -0.00000   0.00001  -0.00004  -0.00003   3.14158
         Item               Value     Threshold  Converged?
 Maximum Force            0.001447     0.000450     NO 
 RMS     Force            0.000514     0.000300     NO 
 Maximum Displacement     0.001822     0.001800     NO 
 RMS     Displacement     0.001236     0.001200     NO 
 Predicted change in Energy=-3.664531D-06
 GradGradGradGradGradGradGradGradGradGradGradGradGradGradGradGradGradGrad

                          Input orientation:                          
 ---------------------------------------------------------------------
 Center     Atomic      Atomic             Coordinates (Angstroms)
 Number     Number       Type             X           Y           Z
 ---------------------------------------------------------------------
      1          6           0        1.079898   -0.300191   -0.000114
      2          8           0        2.294624   -0.258718    0.000786
      3          8           0        0.260933    0.783744    0.000573
      4          1           0        0.842444    1.566572    0.001869
      5          1           0        0.473737   -1.221592   -0.001571
 ---------------------------------------------------------------------
                    Distance matrix (angstroms):
                    1          2          3          4          5
     1  C    0.000000
     2  O    1.215435   0.000000
     3  O    1.358535   2.285307   0.000000
     4  H    1.881806   2.332491   0.975181   0.000000
     5  H    1.102911   2.059797   2.016596   2.812440   0.000000
 Stoichiometry    CH2O2
 Framework group  C1[X(CH2O2)]
 Deg. of freedom     9
 Full point group                 C1      NOp   1
 Largest Abelian subgroup         C1      NOp   1
 Largest concise Abelian subgroup C1      NOp   1
                         Standard orientation:                         
 ---------------------------------------------------------------------
 Center     Atomic      Atomic             Coordinates (Angstroms)
 Number     Number       Type             X           Y           Z
 ---------------------------------------------------------------------
      1          6           0       -0.133480    0.404202   -0.000008
      2          8           0       -1.148527   -0.264349    0.000002
      3          8           0        1.130419   -0.093970    0.000002
      4          1           0        1.042187   -1.065151   -0.000004
      5          1           0       -0.096440    1.506491    0.000014
 ---------------------------------------------------------------------
 Rotational constants (GHZ):          76.5267534          11.7861573          10.2131880
 Standard basis: Aug-CC-pVDZ (5D, 7F)
 There are    93 symmetry adapted cartesian basis functions of A   symmetry.
 There are    87 symmetry adapted basis functions of A   symmetry.
    87 basis functions,   151 primitive gaussians,    93 cartesian basis functions
    12 alpha electrons       12 beta electrons
       nuclear repulsion energy        69.4797660240 Hartrees.
 NAtoms=    5 NActive=    5 NUniq=    5 SFac= 1.00D+00 NAtFMM=   60 NAOKFM=F Big=F
 Integral buffers will be    131072 words long.
 Raffenetti 1 integral format.
 Two-electron integral symmetry is turned on.
 One-electron integrals computed using PRISM.
 NBasis=    87 RedAO= T EigKep=  7.70D-04  NBF=    87
 NBsUse=    87 1.00D-06 EigRej= -1.00D+00 NBFU=    87
 Initial guess from the checkpoint file:  "/scr/Gau-13669.chk"
 B after Tr=    -0.000000   -0.000000   -0.000000
         Rot=    1.000000   -0.000000   -0.000000   -0.000246 Ang=  -0.03 deg.
 Keep R1 ints in memory in canonical form, NReq=15722979.
 Requested convergence on RMS density matrix=1.00D-08 within 128 cycles.
 Requested convergence on MAX density matrix=1.00D-06.
 Requested convergence on             energy=1.00D-06.
 No special actions if energy rises.
 SCF Done:  E(RHF) =  -188.794758210     A.U. after    9 cycles
            NFock=  9  Conv=0.81D-08     -V/T= 2.0023
 ExpMin= 2.97D-02 ExpMax= 1.17D+04 ExpMxC= 4.01D+02 IAcc=3 IRadAn=         5 AccDes= 0.00D+00
 HarFok:  IExCor=  205 AccDes= 0.00D+00 IRadAn=         5 IDoV=-2 UseB2=F ITyADJ=14
 ICtDFT= 12500011 ScaDFX=  1.000000  1.000000  1.000000  1.000000
 Range of M.O.s used for correlation:     4    87
 NBasis=    87 NAE=    12 NBE=    12 NFC=     3 NFV=     0
 NROrb=     84 NOA=     9 NOB=     9 NVA=    75 NVB=    75

 **** Warning!!: The largest alpha MO coefficient is  0.11485729D+02

 Fully direct method using O(ONN) memory.
 JobTyp=1 Pass  1:  I=   4 to  12 NPSUse= 40 ParTrn=T ParDer=T DoDerP=T.
 Spin components of T(2) and E(2):
     alpha-alpha T2 =       0.2124683675D-01 E2=     -0.7107267039D-01
     alpha-beta  T2 =       0.1137541624D+00 E2=     -0.3897691334D+00
     beta-beta   T2 =       0.2124683675D-01 E2=     -0.7107267039D-01
 ANorm=    0.1075289652D+01
 E2 =    -0.5319144742D+00 EUMP2 =    -0.18932667268433D+03
          IDoAtm=11111
          Differentiating once with respect to electric field.
                with respect to dipole field.
          Differentiating once with respect to nuclear coordinates.
 Keep R1 ints in memory in canonical form, NReq=15725454.
          There are     1 degrees of freedom in the 1st order CPHF.  IDoFFX=0 NUNeed=     1.
 LinEq1:  Iter=  0 NonCon=     1 RMS=8.00D-03 Max=1.24D-01 NDo=     1
 AX will form     1 AO Fock derivatives at one time.
 LinEq1:  Iter=  1 NonCon=     1 RMS=2.31D-03 Max=2.03D-02 NDo=     1
 LinEq1:  Iter=  2 NonCon=     1 RMS=8.00D-04 Max=7.95D-03 NDo=     1
 LinEq1:  Iter=  3 NonCon=     1 RMS=3.07D-04 Max=3.03D-03 NDo=     1
 LinEq1:  Iter=  4 NonCon=     1 RMS=9.98D-05 Max=6.34D-04 NDo=     1
 LinEq1:  Iter=  5 NonCon=     1 RMS=3.54D-05 Max=3.66D-04 NDo=     1
 LinEq1:  Iter=  6 NonCon=     1 RMS=8.72D-06 Max=8.82D-05 NDo=     1
 LinEq1:  Iter=  7 NonCon=     1 RMS=1.88D-06 Max=1.49D-05 NDo=     1
 LinEq1:  Iter=  8 NonCon=     1 RMS=3.88D-07 Max=3.25D-06 NDo=     1
 LinEq1:  Iter=  9 NonCon=     1 RMS=7.04D-08 Max=4.46D-07 NDo=     1
 LinEq1:  Iter= 10 NonCon=     1 RMS=1.48D-08 Max=9.36D-08 NDo=     1
 LinEq1:  Iter= 11 NonCon=     1 RMS=2.26D-09 Max=1.55D-08 NDo=     1
 LinEq1:  Iter= 12 NonCon=     1 RMS=2.61D-10 Max=1.88D-09 NDo=     1
 LinEq1:  Iter= 13 NonCon=     0 RMS=3.23D-11 Max=2.45D-10 NDo=     1
 Linear equations converged to 1.000D-10 1.000D-09 after    13 iterations.
 End of Minotr F.D. properties file   721 does not exist.
 End of Minotr F.D. properties file   722 does not exist.
 End of Minotr F.D. properties file   788 does not exist.
 Calling FoFJK, ICntrl=  10002127 FMM=F ISym2X=0 I1Cent= 0 IOpClX= 0 NMat=1 NMatS=1 NMatT=0.
 ***** Axes restored to original set *****
 -------------------------------------------------------------------
 Center     Atomic                   Forces (Hartrees/Bohr)
 Number     Number              X              Y              Z
 -------------------------------------------------------------------
      1        6           0.000058413   -0.000019966    0.000004900
      2        8          -0.000008484   -0.000030247   -0.000001863
      3        8           0.000074900    0.000133365   -0.000001303
      4        1          -0.000117222   -0.000096068   -0.000000090
      5        1          -0.000007607    0.000012917   -0.000001644
 -------------------------------------------------------------------
 Cartesian Forces:  Max     0.000133365 RMS     0.000058549

 GradGradGradGradGradGradGradGradGradGradGradGradGradGradGradGradGradGrad
 Berny optimization.
 Using GEDIIS/GDIIS optimizer.
 FormGI is forming the generalized inverse of G from B-inverse, IUseBI=4.
 Internal  Forces:  Max     0.000147019 RMS     0.000055903
 Search for a local minimum.
 Step number   5 out of a maximum of   21
 All quantities printed in internal units (Hartrees-Bohrs-Radians)
 Mixed Optimization -- En-DIIS/RFO-DIIS
 Swapping is turned off.
 Update second derivatives using D2CorX and points    1    2    3    4    5
 DE= -3.92D-06 DEPred=-3.66D-06 R= 1.07D+00
 TightC=F SS=  1.41D+00  RLast= 4.74D-03 DXNew= 8.4853D-01 1.4220D-02
 Trust test= 1.07D+00 RLast= 4.74D-03 DXMaxT set to 5.05D-01
 The second derivative matrix:
                          R1        R2        R3        R4        A1
           R1           0.89999
           R2           0.09910   0.40572
           R3          -0.00330   0.00036   0.35474
           R4          -0.00986   0.01792  -0.00472   0.54368
           A1           0.00706   0.00399  -0.00106  -0.00623   0.25444
           A2           0.00454  -0.03926   0.00617   0.00535  -0.02109
           A3          -0.03908   0.03184   0.00576   0.02398  -0.03488
           A4          -0.01939   0.01930   0.00497   0.02032  -0.01604
           D1          -0.00010   0.00020  -0.00004  -0.00002  -0.00000
           D2          -0.00021   0.00039  -0.00009  -0.00005  -0.00001
           D3           0.00011  -0.00020   0.00004   0.00003   0.00000
                          A2        A3        A4        D1        D2
           A2           0.17355
           A3           0.02305   0.18729
           A4           0.00973   0.01354   0.16479
           D1           0.00002  -0.00000   0.00001   0.02375
           D2           0.00003  -0.00001   0.00001   0.00000   0.02375
           D3          -0.00001   0.00001   0.00000  -0.00000  -0.00000
                          D3
           D3           0.02375
 ITU=  1  1  1  1  0
     Eigenvalues ---    0.02375   0.02375   0.14159   0.15914   0.27699
     Eigenvalues ---    0.35520   0.39760   0.54961   0.92090
 En-DIIS/RFO-DIIS/Sim-DIIS IScMMF=       -3 using points:     5    4
 RFO step:  Lambda=-9.26291391D-08.
 DidBck=F Rises=F RFO-DIIS coefs:    1.05517   -0.05517
 Iteration  1 RMS(Cart)=  0.00031559 RMS(Int)=  0.00000007
 Iteration  2 RMS(Cart)=  0.00000007 RMS(Int)=  0.00000000
 Variable       Old X    -DE/DX   Delta X   Delta X   Delta X     New X
                                 (Linear)    (Quad)   (Total)
    R1        2.29684  -0.00001  -0.00007   0.00004  -0.00003   2.29681
    R2        2.56726   0.00006   0.00022  -0.00007   0.00015   2.56741
    R3        2.08420  -0.00001  -0.00005   0.00003  -0.00003   2.08418
    R4        1.84283  -0.00015  -0.00004  -0.00025  -0.00028   1.84254
    A1        2.18371   0.00006   0.00001   0.00020   0.00021   2.18392
    A2        2.18681  -0.00001   0.00007  -0.00007  -0.00000   2.18681
    A3        1.91266  -0.00004  -0.00008  -0.00013  -0.00021   1.91246
    A4        1.85565   0.00007   0.00001   0.00046   0.00046   1.85612
    D1        0.00002  -0.00000   0.00000  -0.00005  -0.00005  -0.00003
    D2       -3.14155  -0.00000   0.00000  -0.00010  -0.00010   3.14153
    D3        3.14158   0.00000  -0.00000   0.00005   0.00004  -3.14156
         Item               Value     Threshold  Converged?
 Maximum Force            0.000147     0.000450     YES
 RMS     Force            0.000056     0.000300     YES
 Maximum Displacement     0.000655     0.001800     YES
 RMS     Displacement     0.000316     0.001200     YES
 Predicted change in Energy=-5.111836D-08
 Optimization completed.
    -- Stationary point found.
                           ----------------------------
                           !   Optimized Parameters   !
                           ! (Angstroms and Degrees)  !
 --------------------------                            --------------------------
 ! Name  Definition              Value          Derivative Info.                !
 --------------------------------------------------------------------------------
 ! R1    R(1,2)                  1.2154         -DE/DX =    0.0                 !
 ! R2    R(1,3)                  1.3585         -DE/DX =    0.0001              !
 ! R3    R(1,5)                  1.1029         -DE/DX =    0.0                 !
 ! R4    R(3,4)                  0.9752         -DE/DX =   -0.0001              !
 ! A1    A(2,1,3)              125.1174         -DE/DX =    0.0001              !
 ! A2    A(2,1,5)              125.2951         -DE/DX =    0.0                 !
 ! A3    A(3,1,5)              109.5875         -DE/DX =    0.0                 !
 ! A4    A(1,3,4)              106.321          -DE/DX =    0.0001              !
 ! D1    D(2,1,3,4)              0.0014         -DE/DX =    0.0                 !
 ! D2    D(2,1,3,5)            180.0022         -DE/DX =    0.0                 !
 ! D3    D(5,1,3,4)           -180.0008         -DE/DX =    0.0                 !
 --------------------------------------------------------------------------------
 GradGradGradGradGradGradGradGradGradGradGradGradGradGradGradGradGradGrad

                          Input orientation:                          
 ---------------------------------------------------------------------
 Center     Atomic      Atomic             Coordinates (Angstroms)
 Number     Number       Type             X           Y           Z
 ---------------------------------------------------------------------
      1          6           0        1.079898   -0.300191   -0.000114
      2          8           0        2.294624   -0.258718    0.000786
      3          8           0        0.260933    0.783744    0.000573
      4          1           0        0.842444    1.566572    0.001869
      5          1           0        0.473737   -1.221592   -0.001571
 ---------------------------------------------------------------------
                    Distance matrix (angstroms):
                    1          2          3          4          5
     1  C    0.000000
     2  O    1.215435   0.000000
     3  O    1.358535   2.285307   0.000000
     4  H    1.881806   2.332491   0.975181   0.000000
     5  H    1.102911   2.059797   2.016596   2.812440   0.000000
 Stoichiometry    CH2O2
 Framework group  C1[X(CH2O2)]
 Deg. of freedom     9
 Full point group                 C1      NOp   1
 Largest Abelian subgroup         C1      NOp   1
 Largest concise Abelian subgroup C1      NOp   1
                         Standard orientation:                         
 ---------------------------------------------------------------------
 Center     Atomic      Atomic             Coordinates (Angstroms)
 Number     Number       Type             X           Y           Z
 ---------------------------------------------------------------------
      1          6           0       -0.133480    0.404202   -0.000008
      2          8           0       -1.148527   -0.264349    0.000002
      3          8           0        1.130419   -0.093970    0.000002
      4          1           0        1.042187   -1.065151   -0.000004
      5          1           0       -0.096440    1.506491    0.000014
 ---------------------------------------------------------------------
 Rotational constants (GHZ):          76.5267534          11.7861573          10.2131880

 **********************************************************************

            Population analysis using the SCF Density.

 **********************************************************************

 Orbital symmetries:
       Occupied  (A) (A) (A) (A) (A) (A) (A) (A) (A) (A) (A) (A)
       Virtual   (A) (A) (A) (A) (A) (A) (A) (A) (A) (A) (A) (A)
                 (A) (A) (A) (A) (A) (A) (A) (A) (A) (A) (A) (A)
                 (A) (A) (A) (A) (A) (A) (A) (A) (A) (A) (A) (A)
                 (A) (A) (A) (A) (A) (A) (A) (A) (A) (A) (A) (A)
                 (A) (A) (A) (A) (A) (A) (A) (A) (A) (A) (A) (A)
                 (A) (A) (A) (A) (A) (A) (A) (A) (A) (A) (A) (A)
                 (A) (A) (A)
 The electronic state is 1-A.
 Alpha  occ. eigenvalues --  -20.64022 -20.58195 -11.41407  -1.47503  -1.37786
 Alpha  occ. eigenvalues --   -0.89651  -0.72201  -0.71489  -0.63395  -0.60671
 Alpha  occ. eigenvalues --   -0.49639  -0.47510
 Alpha virt. eigenvalues --    0.03658   0.04401   0.08606   0.09443   0.12271
 Alpha virt. eigenvalues --    0.15255   0.16007   0.19144   0.20734   0.22344
 Alpha virt. eigenvalues --    0.23309   0.27731   0.27907   0.29753   0.32845
 Alpha virt. eigenvalues --    0.35259   0.38771   0.39021   0.42783   0.43030
 Alpha virt. eigenvalues --    0.48948   0.54085   0.57072   0.57387   0.61961
 Alpha virt. eigenvalues --    0.63213   0.66156   0.67983   0.70631   0.81275
 Alpha virt. eigenvalues --    0.85027   0.86978   0.92794   0.96787   1.03906
 Alpha virt. eigenvalues --    1.13339   1.14855   1.18123   1.20001   1.25427
 Alpha virt. eigenvalues --    1.26340   1.31913   1.44278   1.49470   1.51079
 Alpha virt. eigenvalues --    1.56860   1.62246   1.67053   1.75956   1.77595
 Alpha virt. eigenvalues --    1.89452   1.96324   2.01656   2.03970   2.06589
 Alpha virt. eigenvalues --    2.17154   2.21620   2.27160   2.39358   2.47900
 Alpha virt. eigenvalues --    2.74969   2.77524   2.87403   3.07055   3.27858
 Alpha virt. eigenvalues --    3.64233   3.66570   3.70262   3.70437   3.73957
 Alpha virt. eigenvalues --    3.75749   3.80791   3.98849   4.08679   4.24505
          Condensed to atoms (all electrons):
               1          2          3          4          5
     1  C    4.059021   0.432743   0.184396  -0.025985   0.310700
     2  O    0.432743   8.259548  -0.047941   0.004178  -0.055535
     3  O    0.184396  -0.047941   8.160693   0.317782  -0.082023
     4  H   -0.025985   0.004178   0.317782   0.523567   0.025097
     5  H    0.310700  -0.055535  -0.082023   0.025097   0.870347
 Mulliken charges:
               1
     1  C    1.039124
     2  O   -0.592993
     3  O   -0.532907
     4  H    0.155361
     5  H   -0.068585
 Sum of Mulliken charges =  -0.00000
 Mulliken charges with hydrogens summed into heavy atoms:
               1
     1  C    0.970540
     2  O   -0.592993
     3  O   -0.377547
 Electronic spatial extent (au):  <R**2>=            135.4802
 Charge=             -0.0000 electrons
 Dipole moment (field-independent basis, Debye):
    X=              1.6635    Y=              0.5004    Z=             -0.0000  Tot=              1.7371
 Quadrupole moment (field-independent basis, Debye-Ang):
   XX=            -22.0948   YY=            -13.3396   ZZ=            -17.1425
   XY=             -2.8868   XZ=             -0.0000   YZ=              0.0000
 Traceless Quadrupole moment (field-independent basis, Debye-Ang):
   XX=             -4.5692   YY=              4.1861   ZZ=              0.3831
   XY=             -2.8868   XZ=             -0.0000   YZ=              0.0000
 Octapole moment (field-independent basis, Debye-Ang**2):
  XXX=              3.3014  YYY=             -1.1096  ZZZ=              0.0000  XYY=              3.3943
  XXY=             -2.2648  XXZ=              0.0000  XZZ=              0.1323  YZZ=             -0.2573
  YYZ=              0.0000  XYZ=              0.0000
 Hexadecapole moment (field-independent basis, Debye-Ang**3):
 XXXX=           -114.9926 YYYY=            -26.5491 ZZZZ=            -14.5708 XXXY=             -4.0024
 XXXZ=             -0.0000 YYYX=             -4.8000 YYYZ=              0.0001 ZZZX=             -0.0000
 ZZZY=              0.0000 XXYY=            -20.8084 XXZZ=            -21.1238 YYZZ=             -8.1684
 XXYZ=              0.0000 YYXZ=             -0.0000 ZZXY=             -0.2979
 N-N= 6.947976602400D+01 E-N=-5.848371286636D+02  KE= 1.883574826248D+02
 Unable to Open any file for archive entry.
 1\1\GINC-N3260\FOpt\RMP2-FC\Aug-CC-pVDZ\C1H2O2\GDS001\21-Mar-2025\0\\#
  MP2/aug-cc-pVDZ opt freq=(vibrot,anharmonic)\\blah\\0,1\C,1.079897863
 ,-0.3001905841,-0.000113806\O,2.2946243736,-0.2587176015,0.0007859133\
 O,0.2609328414,0.7837435535,0.0005729087\H,0.8424440432,1.5665724065,0
 .0018689385\H,0.4737367158,-1.22159174,-0.0015707534\\Version=EM64L-G1
 6RevC.01\State=1-A\HF=-188.7947582\MP2=-189.3266727\RMSD=8.099e-09\RMS
 F=5.855e-05\Dipole=-0.5179413,0.2064093,-0.0001279\PG=C01 [X(C1H2O2)]\
 \@
 The archive entry for this job was punched.


 THE DIFFICULTY IN SCIENCE IS OFTEN NOT SO MUCH HOW
 TO MAKE A DISCOVERY BUT RATHER TO KNOW ONE HAS MADE IT.

                                                   -- J. D. BERNAL
 Job cpu time:       0 days  0 hours  8 minutes  2.4 seconds.
 Elapsed time:       0 days  0 hours  0 minutes 14.9 seconds.
 File lengths (MBytes):  RWF=     10 Int=      0 D2E=      0 Chk=      2 Scr=      1
 Normal termination of Gaussian 16 at Fri Mar 21 00:11:08 2025.
 Link1:  Proceeding to internal job step number  2.
 ----------------------------------------------------------------------
 #N Geom=AllCheck Guess=TCheck SCRF=Check GenChk RMP2(FC)/Aug-CC-pVDZ F
 req
 ----------------------------------------------------------------------
 1/10=4,29=7,30=1,38=21,40=1,80=1/1,6,3;
 2/12=2,40=1/2;
 3/5=16,7=10,11=1,14=-4,25=1,30=1,70=2,71=2,116=1,140=1/1,2,3;
 4/5=101,69=2/1;
 5/5=2,38=6,98=1/2;
 8/6=3,8=1,10=1,19=11,30=-1/1;
 9/15=3,16=-3/6;
 11/6=1,8=1,15=11,17=12,24=-1,27=1,28=-2,29=300,32=6,42=3/1,2,10;
 10/6=2,21=1,60=-2/2;
 8/6=4,8=1,10=1,19=11,30=-1/11,4;
 10/5=1,20=4,60=-2/2;
 11/12=2,14=11,16=1,17=2,28=-2,42=3,76=2/2,10,12;
 6/7=2,8=2,9=2,10=2,22=-1/1;
 7/10=1,12=2,25=1,44=2,70=1,71=2/1,2,3,16;
 1/38=20,80=1/6(3);
 7/8=1,25=202,44=-1,70=1,71=1,92=10/16,17;
 1/10=4,30=1,38=20,80=1/3;
 99//99;
 3/5=16,7=10,11=1,14=-2,25=1,30=1,70=5,71=2,116=1,140=1/1,2,3;
 4/5=5,16=3,69=2/1;
 5/5=2,38=5,98=1/2;
 8/6=3,8=1,10=1,19=11,30=-1/1;
 9/15=3,16=-3/6;
 11/6=1,8=1,15=11,17=12,24=-1,27=1,28=-2,29=300,32=6,42=3/1,2,10;
 10/6=2,21=1,60=-2/2;
 8/6=4,8=1,10=1,19=11,30=-1/11,4;
 10/5=1,20=4,60=-2/2;
 11/12=2,14=11,16=1,17=2,28=-2,42=3,76=2/2,10,12;
 6/7=2,8=2,9=2,10=2,22=-1/1;
 7/7=1,10=1,12=2,25=1,44=2,70=1,71=1/1,2,3,16;
 1/38=20,80=1/6(-12);
 7/8=1,25=202,44=-1,70=1,71=1,92=10/16,17;
 1/10=4,30=1,38=20,80=1/3;
 99//99;
 Structure from the checkpoint file:  "/scr/Gau-13669.chk"
 ----
 blah
 ----
 Charge =  0 Multiplicity = 1
 Redundant internal coordinates found in file.  (old form).
 C,0,1.079897863,-0.3001905841,-0.000113806
 O,0,2.2946243736,-0.2587176015,0.0007859133
 O,0,0.2609328414,0.7837435535,0.0005729087
 H,0,0.8424440432,1.5665724065,0.0018689385
 H,0,0.4737367158,-1.22159174,-0.0015707534
 Recover connectivity data from disk.
 Numerical evaluation of third derivatives.
 Nuclear step= 0.010000 Angstroms, electric field step= 0.000333 atomic units, NStep=1.

 GradGradGradGradGradGradGradGradGradGradGradGradGradGradGradGradGradGrad
 Berny optimization.
 Initialization pass.
                           ----------------------------
                           !    Initial Parameters    !
                           ! (Angstroms and Degrees)  !
 --------------------------                            --------------------------
 ! Name  Definition              Value          Derivative Info.                !
 --------------------------------------------------------------------------------
 ! R1    R(1,2)                  1.2154         calculate D2E/DX2 analytically  !
 ! R2    R(1,3)                  1.3585         calculate D2E/DX2 analytically  !
 ! R3    R(1,5)                  1.1029         calculate D2E/DX2 analytically  !
 ! R4    R(3,4)                  0.9752         calculate D2E/DX2 analytically  !
 ! A1    A(2,1,3)              125.1174         calculate D2E/DX2 analytically  !
 ! A2    A(2,1,5)              125.2951         calculate D2E/DX2 analytically  !
 ! A3    A(3,1,5)              109.5875         calculate D2E/DX2 analytically  !
 ! A4    A(1,3,4)              106.321          calculate D2E/DX2 analytically  !
 ! D1    D(2,1,3,4)              0.0014         calculate D2E/DX2 analytically  !
 ! D2    D(2,1,3,5)           -179.9978         calculate D2E/DX2 analytically  !
 ! D3    D(5,1,3,4)            179.9992         calculate D2E/DX2 analytically  !
 --------------------------------------------------------------------------------
 Trust Radius=3.00D-01 FncErr=1.00D-07 GrdErr=1.00D-07 EigMax=2.50D+02 EigMin=1.00D-04
 Number of steps in this run=      2 maximum allowed number of steps=      2.
 GradGradGradGradGradGradGradGradGradGradGradGradGradGradGradGradGradGrad

                          Input orientation:                          
 ---------------------------------------------------------------------
 Center     Atomic      Atomic             Coordinates (Angstroms)
 Number     Number       Type             X           Y           Z
 ---------------------------------------------------------------------
      1          6           0        1.079898   -0.300191   -0.000114
      2          8           0        2.294624   -0.258718    0.000786
      3          8           0        0.260933    0.783744    0.000573
      4          1           0        0.842444    1.566572    0.001869
      5          1           0        0.473737   -1.221592   -0.001571
 ---------------------------------------------------------------------
                    Distance matrix (angstroms):
                    1          2          3          4          5
     1  C    0.000000
     2  O    1.215435   0.000000
     3  O    1.358535   2.285307   0.000000
[...]
 5,0.02092765,-0.00593363,0.00000905,0.16983152,0.11688134,-0.12820684,
 -0.00006723,-0.00939243,0.00273929,-0.00000157,-0.10254037,-0.07279635
 ,0.00008127,-0.00007043,-0.00007472,0.00000456,0.00000101,-0.00159267,
 -0.00001686,-0.00017865,0.02114091,0.00242035,-0.00406264,-0.00001687,
 -0.00409849,0.00312523,0.00000353,-0.11502550,-0.00668409,-0.00006915,
 0.11711673,-0.00459700,-0.05811572,-0.00009344,-0.00076165,0.00289533,
 0.00000753,-0.00410605,0.19357251,0.00024805,0.00913167,-0.13799178,-0
 .00001763,-0.00009314,0.02052858,-0.00000070,0.00001015,-0.00413720,-0
 .00006628,0.00024633,-0.02417813,0.00008475,-0.00016159,0.00748547,0.0
 4504909,0.02527313,0.00006670,-0.01816889,-0.01205386,-0.00003022,0.00
 221310,0.00173555,0.00000019,-0.00041308,0.00033303,-0.00000014,-0.028
 68022,0.02214986,-0.04786837,-0.00002831,-0.00500424,-0.00433345,-0.00
 001449,-0.00034761,0.00469138,0.00000001,-0.00151017,-0.00036034,-0.00
 000174,-0.01528784,0.04787078,0.00006296,-0.00002570,-0.00931673,-0.00
 002211,-0.00001939,0.00545272,-0.00000207,0.00000112,0.00470460,-0.000
 00226,-0.00000055,0.00030128,-0.00003653,0.00004452,-0.00114187,0.1081
 1429,-0.02779026,0.08940103,0.00005982,0.00010763,-0.02159896,-0.18482
 735,-0.02731447,-0.00017723,0.21621523,-0.01155992,0.01473891,-0.00001
 833,0.02946174,-0.00670106,-0.00015885,-0.00002924,0.02339748,0.000210
 23,0.00005421,-0.03609215,-0.01819067,-0.00184069,-0.00001990,-0.00670
 658,0.00939283,0.00000538,-0.03136577,0.00439808,-0.00786117,-0.000015
 05,0.00850605,-0.00242855,0.00000202,-0.01066772,0.06671666,-0.0000129
 0,-0.00001956,0.00817588,0.00000452,0.00000264,0.00094346,-0.00002148,
 0.00008945,-0.01729610,0.00024424,0.00699291,0.00001562,0.00166339,-0.
 00134060,-0.00000141,0.05728467,-0.00155568,0.00002522,-0.05609342,0.0
 0774223,0.01823499,0.00003895,-0.00040627,0.00042059,-0.00000154,0.000
 25643,-0.09565725,-0.00012996,-0.00427971,0.07007884,0.00001674,0.0000
 3829,-0.01099970,-0.00000042,-0.00000212,0.00151167,0.00002726,-0.0001
 3125,0.01741133,-0.00003865,0.00008510,-0.00632940,0.09465948,0.049952
 51,0.00012170,-0.02634470,-0.02595405,-0.00005535,-0.00102167,-0.00068
 073,0.00000464,-0.00309889,-0.00331268,-0.00000494,-0.06419423,0.02720
 987,-0.11451376,-0.00011319,-0.01024706,-0.00602989,-0.00002545,0.0028
 5915,0.03923031,0.00005742,0.00018309,0.00692283,0.00000998,-0.0200050
 4,0.07439051,0.00009519,-0.00009713,0.00102530,-0.00003710,-0.00003640
 ,0.01023954,0.00000874,0.00005483,-0.00923457,-0.00000078,0.00000746,-
 0.00159390,-0.00006604,0.00007124,-0.00043636,0.95301096,0.18006204,-0
 .24435240,0.00092887,-0.00007192,-0.07346557,-1.00148302,-0.06313810,-
 0.00084296,1.03072914,-0.04573310,0.07539209,-0.00005577,0.04360397,-0
 .08455756,-0.00082274,-0.00006815,0.09620950,0.00084785,0.00005624,-0.
 10700266,0.07932929,-0.10410303,-0.00005177,-0.01721002,0.00903847,-0.
 00000343,-0.03261998,-0.11329072,0.14380899,0.00011082,0.02218634,0.00
 275039,0.00001560,0.09450908,-0.17429664,-0.00006268,0.00011747,-0.020
 26168,0.00001204,0.00000636,0.00269047,0.00007485,-0.00015593,0.017266
 17,-0.00004080,-0.00188905,-0.00000684,-0.00310795,0.00159222,-0.00000
 031,-0.02806138,-0.00221267,-0.00001764,0.03059462,-0.00443273,-0.0089
 4505,-0.00002137,0.00324364,0.00268428,0.00000544,-0.00269742,0.045090
 57,0.00005687,0.00191998,-0.03545478,-0.00000984,-0.00001943,0.0069711
 5,0.00000159,0.00000427,-0.00008766,-0.00001818,0.00005714,-0.00595347
 ,0.00002312,-0.00003947,-0.00002887,-0.03081643,-0.01093185,-0.0000273
 0,-0.00892814,-0.00850157,-0.00002137,-0.00143791,-0.00119203,-0.00000
 658,0.00061552,0.00196652,0.00000331,0.04056696,-0.01660549,0.03409637
 ,0.00003825,-0.00589586,0.00373080,-0.00000912,0.00325289,-0.01735331,
 -0.00002477,0.00058953,-0.00337502,-0.00000250,0.01865893,-0.01709885,
 -0.00003361,0.00004203,-0.00945339,-0.00001853,-0.00001110,0.00819035,
 -0.00000147,-0.00002762,0.00625850,0.00000167,-0.00000146,-0.00090115,
 0.00005194,-0.00000185,-0.00409432,0.11608821,0.65399908,0.79751900,0.
 00086602,0.00143068,-0.07195263,0.11916970,-0.06344807,0.00003096,-0.1
 0843101,-0.01519939,-0.03852537,-0.00002405,0.02745407,0.01643215,0.00
 008514,-0.00005827,-0.02630624,-0.00005360,0.00002435,0.01178646,0.019
 15218,-0.01926966,-0.00000100,-0.00371535,0.00157935,-0.00000214,-0.00
 789182,-0.06273829,-0.01720688,-0.00004871,0.01261768,0.00544907,0.000
 01305,0.03871907,0.05250894,-0.00005082,-0.00001940,-0.01164032,0.0000
 1063,0.00000523,0.00177524,0.00004093,0.00008958,-0.00261482,0.0039563
 5,0.00180259,0.00000841,0.00029965,-0.00242871,-0.00000259,-0.01176144
 ,-0.02297169,-0.00003719,0.01013529,-0.00434858,0.00546684,0.00000960,
 -0.00004754,-0.00050023,-0.00000064,-0.02188963,-0.02804795,-0.0000518
 9,0.02294028,0.02442876,0.00000127,0.00001368,-0.00537448,0.00000019,-
 0.00000226,0.00001379,-0.00003591,-0.00005264,0.00401254,0.00003523,0.
 00004704,-0.00281519,-0.25836645,-0.57308394,-0.00090440,-0.00732299,-
 0.01140532,-0.00002681,0.00421643,0.03437323,0.00003646,-0.00262985,0.
 00334547,-0.00000078,0.26410285,-0.57171282,-0.74725359,-0.00136753,0.
 02342385,0.01714439,0.00002150,0.00086088,-0.01270317,-0.00002351,0.00
 065752,-0.00134742,-0.00000582,0.54677057,0.74415978,-0.00090160,-0.00
 136669,0.11527367,0.00001181,-0.00000327,0.01273075,-0.00000187,-0.000
 00129,0.00846736,-0.00000387,-0.00000412,0.00416333,0.00089553,0.00137
 537,-0.14063511,0.00730380,0.00174605,-0.03426857,0.00001223,-0.000029
 19,-0.00805446,0.00867495,0.00075982,0.00000626,-0.00111700,0.00440791
 ,0.00520392,0.00000817,-0.00534108,-0.00280386,0.00001059,0.00000569,0
 .00073453,-0.00000625,-0.00000583,-0.00095682,-0.01209875,0.05380417,0
 .00004804,-0.00387366,-0.00076298,-0.00000347,-0.52601659,0.00251822,0
 .01946638,0.00001463,-0.00148729,0.00348258,0.00000307,-1.05082309,-1.
 16085353,-0.00001098,0.00004974,0.00804891,-0.00000422,0.00000361,-0.0
 0011154,-0.00173603,-0.00233696,0.24933269,-0.00405620,-0.04643584,-0.
 00005049,-0.00259854,0.00235959,-0.00000042,0.54435202,1.05389686,0.00
 175730,-0.53949176,0.00600831,0.02425794,0.00004134,0.00486257,-0.0047
 8001,-0.00000428,0.99516035,1.13800173,0.00228155,-1.00702801,-1.15934
 563,0.00000978,0.00000560,-0.00810565,0.00000241,-0.00000605,0.0019037
 6,0.00168983,0.00232161,-0.25692628,-0.00170519,-0.00232275,0.26433103
 ,0.00017620,-0.00987421,-0.00001604,-0.00108574,-0.00066345,-0.0000004
 6,-0.00236302,-0.00410470,-0.00000607,0.00179448,0.00099677,0.00000317
 ,0.00147808,-0.01468049,-0.01465968,-0.00003495,0.00120597,-0.00110263
 ,0.00000135,0.00262154,-0.00009716,0.00000206,-0.00279260,0.00186598,0
 .00000159,0.01364558,0.01399349,-0.00002161,-0.00003185,0.00737666,0.0
 0000179,0.00000011,-0.00156993,0.00000163,-0.00000234,-0.00034378,-0.0
 0000120,0.00000413,-0.00120286,0.00001939,0.00002995,-0.00426009,-0.08
 808250,0.01142394,0.00349992,-0.00004713,0.00000367,0.00071136,0.07079
 806,-0.00098726,0.00005095,-0.05399591,0.00212138,-0.00851431,-0.00000
 178,-0.01114505,0.01263176,0.00005535,-0.00000337,-0.00362200,-0.00005
 239,0.00000313,0.00144387,0.01239512,-0.00049074,0.00000583,-0.0117184
 7,0.00636885,-0.00000456,-0.03358135,-0.01047986,0.00406207,-0.0000018
 5,0.00984454,-0.00229292,0.00000062,-0.09663182,-0.07838139,-0.0000080
 9,0.00000460,0.00230923,0.00000220,-0.00000236,0.00303797,-0.00013787,
 -0.00017399,0.01152371,0.00371502,-0.00938369,-0.00000810,-0.00561622,
 0.00100653,-0.00000270,0.03371301,0.09742202,0.00014367,-0.03160532,-0
 .00180654,0.00104652,0.00000040,0.00121965,-0.00154923,-0.00000088,0.0
 8894387,0.07581787,0.00016829,-0.08868963,-0.07587213,0.00000065,-0.00
 000514,-0.00039093,-0.00000235,-0.00000064,-0.00034614,0.00013400,0.00
 017437,-0.01618301,-0.00013232,-0.00016853,0.01650810,0.00117430,-0.00
 056225,-0.00000154,0.00053256,0.00164828,0.00000431,-0.00080831,-0.000
 15487,0.00000008,-0.00020650,0.00033266,0.00000001,-0.00069206,-0.0012
 5892,-0.00009420,-0.00000045,0.00106813,-0.00027527,0.00000050,0.00180
 984,0.00079438,0.00000346,-0.00035523,0.00055697,-0.00000006,-0.001263
 82,-0.00098188,-0.00000078,0.00000024,0.00099233,0.00000159,0.00000165
 ,-0.00051371,0.00000260,0.00000085,-0.00068790,-0.00000056,0.00000072,
 0.00041198,-0.00000286,-0.00000345,-0.00020270,-0.05066904,-0.01707285
 ,-0.03902234,-0.00005910,-0.00007311,0.00837811,0.03217612,-0.00230340
 ,0.00001943,-0.03260885,0.00093122,0.00642165,0.00000977,-0.00228287,0
 .00290779,0.00002400,0.00000817,0.00037415,-0.00002642,-0.00000063,0.0
 0064099,0.02406604,0.04648689,0.00007084,0.00426402,-0.00361210,0.0000
 0506,-0.38830446,-0.00052341,0.02739727,0.00003612,0.00284438,-0.00300
 238,0.00001169,-0.63022271,-0.72903595,0.00001426,0.00006792,-0.002044
 03,0.00001566,0.00000703,-0.01174828,-0.00123045,-0.00167442,0.3538772
 6,-0.01021462,-0.03151761,-0.00003971,-0.00388154,0.00486728,-0.000003
 73,0.36436268,0.63071964,0.00121547,-0.35407568,0.01747125,-0.00046310
 ,0.00001739,0.00130701,-0.00492600,-0.00001606,0.57835412,0.70409311,0
 .00160737,-0.59831917,-0.69709069,0.00001662,-0.00001647,-0.00472685,-
 0.00000799,-0.00001343,0.00954368,0.00115557,0.00164376,-0.35340023,-0
 .00117407,-0.00161791,0.35720117,0.00464150,0.00440698,0.00000854,0.00
 005027,0.00009646,0.00000109,-0.00438826,-0.00281790,-0.00001495,0.003
 80917,0.00118680,0.00000987,-0.00411268,-0.00080621,0.00566653,0.00000
 984,0.00043488,-0.00140104,-0.00000317,0.00899381,0.00054797,-0.000007
 91,-0.00575013,-0.00161332,0.00000405,-0.00287235,-0.00320013,0.000004
 22,0.00001348,-0.00198138,-0.00000069,-0.00000274,0.00118946,-0.000001
 02,-0.00001714,0.01331528,0.00000205,0.00000921,-0.00861778,-0.0000045
 6,-0.00000281,-0.00390559,-0.24283312,-0.30283990,-0.44467087,-0.00054
 850,-0.00078737,0.06269484,0.08314443,0.03245563,0.00007710,-0.0733438
 7,0.00101865,0.01792815,-0.00000346,-0.00443306,-0.00614131,0.00004520
 ,0.00002005,0.02288226,-0.00005843,-0.00001364,0.00172242,0.01447715,-
 0.00858016,-0.00001446,0.00005935,-0.00003674,0.00000388,-0.01821231,0
 .02080589,0.03105595,0.00003067,-0.00812624,-0.00129945,0.00000211,-0.
 00176516,-0.03217656,0.00001582,0.00001133,0.01977322,-0.00000182,0.00
 000754,-0.00829002,-0.00001038,-0.00003907,-0.00189551,-0.00561612,-0.
 00242543,-0.00001090,0.00216595,0.00130636,0.00000313,0.00528830,0.006
 28139,0.00001106,-0.00355159,0.00530793,0.00273034,-0.00000027,0.00014
 212,0.00013259,0.00000021,0.00169739,0.01108986,0.00001416,-0.00480650
 ,-0.01184411,-0.00000179,-0.00000573,0.00626956,0.00000186,0.00000131,
 -0.00028473,0.00000577,0.00001785,-0.00079823,-0.00000829,-0.00001740,
 0.00077874,0.15082766,0.28138987,0.00049676,-0.01202585,0.00214479,0.0
 0000620,-0.00161250,-0.01719588,-0.00001468,0.00171346,-0.00234094,0.0
 0000245,-0.13890277,0.27570742,0.39295642,0.00076043,-0.02003845,-0.01
 061997,-0.00000872,0.00868467,-0.00866982,0.00000605,-0.00035581,-0.00
 210869,0.00000397,-0.26399783,-0.37155794,0.00048926,0.00076172,-0.111
 61987,-0.00001872,0.00000826,-0.01602993,0.00001519,-0.00001156,-0.008
 78949,0.00000499,0.00000331,-0.00596533,-0.00049073,-0.00076172,0.1424
 0462,0.07255067,-0.23236743,0.17269175,-0.00018114,0.00009165,-0.05099
 023,0.01889585,0.02173981,0.00003846,-0.01352039,0.01978625,-0.0007827
 4,0.00001608,-0.02279687,0.00225444,0.00003687,0.00001821,-0.00077786,
 -0.00003544,-0.00001401,-0.00102322,-0.09571987,0.21668690,0.00014735,
 -0.00185467,0.00069284,-0.00000353,0.00537363,0.19681415,-0.18548144,-
 0.00013663,-0.00005497,0.00107524,-0.00000157,-0.44657346,-0.00072410,
 0.00012226,-0.00012317,0.05249772,-0.00000189,-0.00000125,0.00221477,-
 0.00049635,-0.00028768,-0.01706917,-0.00679401,-0.01764529,-0.00002463
 ,-0.00220623,0.00205453,0.00000067,0.09613007,0.25276685,0.00038283,-0
 .09045991,0.00748853,-0.00054335,0.00000525,0.00156129,-0.00082846,-0.
 00000023,0.22399794,0.19898718,0.00042594,-0.23346616,-0.19888629,0.00
 000429,-0.00001256,-0.00019592,0.00000025,0.00000031,-0.00003016,0.000
 34971,0.00044610,-0.03939348,-0.00035670,-0.00043234,0.03909678,0.0110
 6737,0.01158600,0.00001997,-0.00131455,0.00026325,0.00000143,-0.003929
 15,-0.00295257,-0.00000685,0.00333007,0.00041840,0.00000245,-0.0091537
 4,0.00827849,0.01411578,0.00002365,-0.00044926,-0.00171846,-0.00000239
 ,0.00519578,-0.01385688,-0.00001384,-0.00370993,0.00127092,-0.00000151
 ,-0.00931508,0.00018863,0.00001772,0.00002588,-0.00053370,-0.00000137,
 -0.00000113,-0.00038353,0.00000282,-0.00002021,0.00175017,-0.00000217,
 0.00000138,0.00052278,-0.00001699,-0.00000592,-0.00135572,-0.06161769,
 -0.08882751,-0.03653935,-0.00011525,-0.00006201,-0.04011504,0.05599186
 ,-0.02380992,0.00000724,-0.04909958,-0.01061179,0.00061654,-0.00001178
 ,0.01324754,0.00496788,0.00002351,-0.00002024,0.00616304,-0.00001807,0
 .00001619,-0.00262306,-0.02784131,0.13303158,0.00010998,0.01232697,-0.
 00540834,0.00000364,-0.19410363,0.04670704,-0.00976489,-0.00001545,0.0
 0699874,0.00498822,0.00001504,-0.45282361,-0.24987940,0.00000849,0.000
 04330,0.03371124,0.00002053,0.00000626,-0.00402047,-0.00066251,-0.0006
 1620,0.01651031,0.01138054,-0.06886290,-0.00007497,-0.01339898,0.00247
 312,-0.00000690,0.21537103,0.40086533,0.00063853,-0.21450248,0.0063973
 7,-0.02216921,-0.00002767,0.00819249,-0.00533771,-0.00000111,0.3210442
 6,0.25926279,0.00056766,-0.33456118,-0.23303470,0.00001140,-0.00007941
 ,0.00604709,-0.00000005,-0.00000497,0.00027370,0.00054675,0.00062270,-
 0.04535407,-0.00055742,-0.00053958,0.03873257,0.02208661,0.04846875,0.
 00007301,-0.00582025,0.00029946,-0.00000217,-0.00575305,-0.00174751,-0
 .00000503,0.00114989,-0.00107294,-0.00000067,-0.01166320,0.04633489,0.
 06785691,0.00011691,-0.00462886,-0.00523490,-0.00000988,0.00415610,-0.
 00460673,-0.00000102,0.00008562,0.00127883,0.00000126,-0.04594776,-0.0
 5929411,0.00007185,0.00011837,-0.00580633,-0.00000963,-0.00000570,0.00
 020679,0.00000214,-0.00000608,-0.00084702,0.00000077,0.00000070,0.0003
 0071,-0.00006513,-0.00010728,0.00614585,-0.09859683,-0.27370504,-0.351
 93966,-0.00036540,-0.00057693,-0.01366695,-0.03866459,0.01436335,-0.00
 002920,0.04917758,-0.01766965,0.02814329,-0.00000697,0.01507349,-0.005
 44610,-0.00006411,0.00001632,0.02506176,0.00006753,0.00002909,-0.02313
 578,0.02886090,-0.00640662,0.00000156,0.00191844,0.00518349,0.00000723
 ,-0.08238844,0.02109644,0.01258138,0.00001430,-0.00252933,0.00583171,0
 .00000725,-0.07545234,-0.06069358,0.00003070,-0.00000416,0.01477618,0.
 00000111,0.00001224,-0.00213933,-0.00013585,-0.00011406,-0.00779905,-0
 .00648378,-0.00999940,-0.00001870,-0.00112429,-0.00082361,-0.00000135,
 0.05495352,0.09238610,0.00014922,-0.05143450,0.00591971,-0.00541142,-0
 .00000696,0.00263646,0.00099257,0.00000353,0.07129848,0.06765717,0.000
 13542,-0.07594823,-0.05972311,-0.00000057,-0.00001832,0.00448219,0.000
 00278,0.00000143,-0.00083882,0.00012514,0.00015046,-0.00858916,-0.0001
 2682,-0.00012746,0.00658614,0.11488430,0.27574770,0.00041174,-0.011307
 14,-0.00176371,-0.00000930,-0.00334442,-0.03550087,-0.00004518,0.00408
 903,-0.00390641,-0.00000054,-0.10432178,0.26435853,0.31662641,0.000576
 56,-0.02954396,-0.02952145,-0.00005619,0.00537700,-0.02537668,-0.00002
 943,-0.00561485,-0.00351521,-0.00000611,-0.23457672,-0.25821307,0.0003
 9937,0.00058310,-0.03065318,-0.00004221,-0.00003579,0.00105218,0.00000
 192,-0.00005795,0.00375137,-0.00000236,-0.00000452,-0.00164035,-0.0003
 5672,-0.00048484,0.02748998,1.20206082,-0.00476237,-0.17561136,0.00098
 997,0.00003385,-0.21248958,-1.22863348,-0.05906907,-0.00106641,1.23535
 518,-0.06314916,0.18918826,-0.00004631,0.06180023,-0.18628803,-0.00107
 031,-0.00004280,0.19298277,0.00107446,0.00005118,-0.19472466,0.0285328
 1,0.03106363,0.00003990,-0.00429668,0.00019514,-0.00000355,-0.04585640
 ,0.03923327,-0.06394719,-0.00006936,-0.00233779,-0.00112733,-0.0000019
 6,-0.05251520,0.05125239,0.00004679,-0.00007519,0.02207157,-0.00000369
 ,-0.00000047,-0.00106797,-0.00007503,0.00004719,-0.02242017,-0.0073378
 6,-0.00319370,-0.00000865,0.00156364,0.00182737,0.00000262,0.01895298,
 0.02160518,0.00003686,-0.01419042,0.00592710,-0.00082398,0.00000348,0.
 00170572,-0.00002832,0.00000010,0.01121180,0.02107205,0.00002990,-0.01
 888000,-0.02040798,0.00000186,-0.00000331,0.00006345,0.00000257,0.0000
 0045,0.00055933,0.00002497,0.00003755,0.00108322,-0.00003091,-0.000035
 28,-0.00061515,0.00537771,0.03596150,0.00004519,-0.00398865,-0.0006735
 9,-0.00000323,0.00266729,-0.00598546,-0.00000493,0.00101166,0.00003538
 ,0.00000152,-0.00506801,0.02275117,0.05119428,0.00007835,-0.00209911,-
 0.00174458,-0.00000652,0.01004462,-0.00724991,-0.00000144,-0.00135885,
 0.00018823,0.00000060,-0.02933783,-0.04238801,0.00003168,0.00008746,-0
 .00262821,-0.00000693,-0.00000485,0.00225053,0.00001371,-0.00001342,0.
 00033334,0.00000008,0.00000180,-0.00109085,-0.00003855,-0.00007098,0.0
 0113519,0.51719332,1.73789613,1.91934555,0.00275342,0.00406477,-0.6330
 1874,-0.00771391,-0.01579467,-0.00001420,0.00243738,0.03165684,0.00289
 695,0.00004197,-0.01993006,-0.00279964,0.00003897,0.00000880,-0.012019
 24,-0.00002366,-0.00002272,0.00317411,0.01205685,-0.00037329,0.0000121
 8,-0.00234248,-0.00049513,-0.00000342,-0.00667907,-0.04304766,0.017671
 57,0.00000363,0.00092566,-0.00779321,-0.00000802,0.00471050,-0.0098834
 6,-0.00003903,0.00003179,-0.00779600,0.00000086,-0.00000941,-0.0004173
 8,0.00000496,-0.00000642,-0.00332312,-0.00138296,0.00469842,0.00000741
 ,0.00016042,0.00059862,0.00000008,0.00218137,-0.00489284,-0.00000747,0
 .00179602,-0.00007746,0.00068105,0.00000605,-0.00013364,-0.00100092,-0
 .00000255,-0.00649763,-0.00008397,-0.00001050,0.00268065,-0.00227418,0
 .00000197,0.00000855,-0.00416589,-0.00000065,-0.00000177,0.00078739,-0
 .00000928,-0.00000891,0.00457949,0.00000686,0.00000382,-0.00367606,-0.
 52015329,-1.72642660,-0.00275880,0.00745860,-0.01183026,-0.00001196,-0
 .00521666,0.04230434,0.00004068,-0.00275485,0.00402807,0.00000109,0.52
 066620,-1.72642785,-1.94059512,-0.00411642,0.03493271,0.00869684,0.000
 02449,0.00265554,0.00008908,-0.00000546,-0.00308485,0.00267802,-0.0000
 0169,1.69192445,1.92913118,-0.00275533,-0.00411391,0.65699988,0.000037
 64,-0.00000808,0.00847512,-0.00000443,0.00001972,0.00695702,-0.0000068
 8,0.00000318,0.00247508,0.00272900,0.00409909,-0.67490711,-0.02635187,
 0.00759794,-0.03234842,-0.00000663,-0.00003718,-0.00181587,0.00898501,
 0.00139519,0.00000782,-0.00589721,0.00280817,0.00515441,0.00001013,0.0
 0077982,-0.00706239,0.00001009,0.00000977,0.00004402,-0.00000493,-0.00
 001111,0.00150535,0.00570580,-0.06459966,-0.00006120,-0.00669633,0.006
 13145,-0.00000185,1.56997593,-0.01184121,0.04271536,0.00006007,0.00608
 980,-0.00721453,-0.00000872,3.78086020,3.60120470,-0.00000292,0.000024
 36,-0.01427053,0.00000061,-0.00000912,0.00396934,0.00631875,0.00823433
 ,-1.32300951,0.00702780,0.05380208,0.00005887,0.00442814,-0.00962069,-
 0.00000508,-1.57129201,-3.77161207,-0.00631647,1.56240422,0.00558523,-
 0.01596291,-0.00002741,-0.00805303,0.00904056,0.00000945,-3.71986098,-
 3.63390247,-0.00824843,3.72265609,3.63836435,0.00000341,0.00000470,0.0
 1161066,-0.00000306,0.00000868,-0.00446373,-0.00625705,-0.00828310,1.3
 3635318,0.00625982,0.00826524,-1.34502097,0.00463327,0.00180444,0.0000
 0115,-0.00081961,-0.00009874,0.00000178,0.00230662,-0.00349673,0.00000
 003,-0.00256815,-0.00032731,-0.00000312,-0.00355213,-0.00415013,0.0004
 4155,-0.00000560,-0.00021178,0.00008195,0.00000060,-0.00253102,-0.0028
 0306,-0.00000114,0.00477458,0.00246048,0.00000448,0.00211834,-0.000180
 93,-0.00000394,-0.00000165,0.00443172,-0.00000044,0.00000141,-0.001054
 99,0.00000136,-0.00000258,-0.00304247,0.00000285,0.00000115,0.00152086
 ,0.00000017,0.00000167,-0.00185512\\@
 The archive entry for this job was punched.


 LIFE IS SO UNCERTAIN - EAT DESSERT FIRST.
 Job cpu time:       0 days  3 hours 38 minutes 24.9 seconds.
 Elapsed time:       0 days  0 hours  5 minutes 40.5 seconds.
 File lengths (MBytes):  RWF=    411 Int=      0 D2E=      0 Chk=     40 Scr=      1
 Normal termination of Gaussian 16 at Fri Mar 21 00:16:51 2025.
