 Entering Gaussian System, Link 0=g16
 Input=hcooht_mp2_avdz_opt_anharm.gjf
 Output=hcooht_mp2_avdz_opt_anharm.log
 Initial command:
 /sw/contrib/chem-src/g16/c01/g16/l1.exe "/scr/Gau-1443.inp" -scrdir="/scr/"
 Entering Link 1 = /sw/contrib/chem-src/g16/c01/g16/l1.exe PID=      1446.
  
 Copyright (c) 1988-2019, Gaussian, Inc.  All Rights Reserved.
  
 This is part of the Gaussian(R) 16 program.  It is based on
 the Gaussian(R) 09 system (copyright 2009, Gaussian, Inc.),
 the Gaussian(R) 03 system (copyright 2003, Gaussian, Inc.),
 the Gaussian(R) 98 system (copyright 1998, Gaussian, Inc.),
 the Gaussian(R) 94 system (copyright 1995, Gaussian, Inc.),
 the Gaussian 92(TM) system (copyright 1992, Gaussian, Inc.),
 the Gaussian 90(TM) system (copyright 1990, Gaussian, Inc.),
 the Gaussian 88(TM) system (copyright 1988, Gaussian, Inc.),
 the Gaussian 86(TM) system (copyright 1986, Carnegie Mellon
 University), and the Gaussian 82(TM) system (copyright 1983,
 Carnegie Mellon University). Gaussian is a federally registered
 trademark of Gaussian, Inc.
  
 This software contains proprietary and confidential information,
 including trade secrets, belonging to Gaussian, Inc.
  
 This software is provided under written license and may be
 used, copied, transmitted, or stored only in accord with that
 written license.
  
 The following legend is applicable only to US Government
 contracts under FAR:
  
                    RESTRICTED RIGHTS LEGEND
  
 Use, reproduction and disclosure by the US Government is
 subject to restrictions as set forth in subparagraphs (a)
 and (c) of the Commercial Computer Software - Restricted
 Rights clause in FAR 52.227-19.
  
 Gaussian, Inc.
 340 Quinnipiac St., Bldg. 40, Wallingford CT 06492
  
  
 ---------------------------------------------------------------
 Warning -- This program may not be used in any manner that
 competes with the business of Gaussian, Inc. or will provide
 assistance to any competitor of Gaussian, Inc.  The licensee
 of this program is prohibited from giving any competitor of
 Gaussian, Inc. access to this program.  By using this program,
 the user acknowledges that Gaussian, Inc. is engaged in the
 business of creating and licensing software in the field of
 computational chemistry and represents and warrants to the
 licensee that it is not a competitor of Gaussian, Inc. and that
 it will not use this program in any manner prohibited above.
 ---------------------------------------------------------------
  

 Cite this work as:
 Gaussian 16, Revision C.01,
 M. J. Frisch, G. W. Trucks, H. B. Schlegel, G. E. Scuseria, 
 M. A. Robb, J. R. Cheeseman, G. Scalmani, V. Barone, 
 G. A. Petersson, H. Nakatsuji, X. Li, M. Caricato, A. V. Marenich, 
 J. Bloino, B. G. Janesko, R. Gomperts, B. Mennucci, H. P. Hratchian, 
 J. V. Ortiz, A. F. Izmaylov, J. L. Sonnenberg, D. Williams-Young, 
 F. Ding, F. Lipparini, F. Egidi, J. Goings, B. Peng, A. Petrone, 
 T. Henderson, D. Ranasinghe, V. G. Zakrzewski, J. Gao, N. Rega, 
 G. Zheng, W. Liang, M. Hada, M. Ehara, K. Toyota, R. Fukuda, 
 J. Hasegawa, M. Ishida, T. Nakajima, Y. Honda, O. Kitao, H. Nakai, 
 T. Vreven, K. Throssell, J. A. Montgomery, Jr., J. E. Peralta, 
 F. Ogliaro, M. J. Bearpark, J. J. Heyd, E. N. Brothers, K. N. Kudin, 
 V. N. Staroverov, T. A. Keith, R. Kobayashi, J. Normand, 
 K. Raghavachari, A. P. Rendell, J. C. Burant, S. S. Iyengar, 
 J. Tomasi, M. Cossi, J. M. Millam, M. Klene, C. Adamo, R. Cammi, 
 J. W. Ochterski, R. L. Martin, K. Morokuma, O. Farkas, 
 J. B. Foresman, and D. J. Fox, Gaussian, Inc., Wallingford CT, 2019.
 
 ******************************************
 Gaussian 16:  EM64L-G16RevC.01  3-Jul-2019
                20-Mar-2025 
 ******************************************
 %nprocshared=40
 Will use up to   40 processors via shared memory.
 %mem=50gb
 ----------------------------------------------
 # MP2/aug-cc-pVDZ opt freq=(vibrot,anharmonic)
 ----------------------------------------------
 1/18=20,19=15,38=1,80=1/1,3;
 2/9=110,12=2,17=6,18=5,40=1/2;
 3/5=16,7=10,11=9,25=1,30=1,71=1/1,2,3;
 4//1;
 5/5=2,38=5/2;
 8/6=4,10=1/1;
 9/15=2,16=-3/6;
 10/5=1/2;
 6/7=2,8=2,9=2,10=2/1;
 7/12=2/1,2,3,16;
 1/18=20,19=15,80=1/3(2);
 2/9=110/2;
 99//99;
 2/9=110/2;
 3/5=16,7=10,11=9,25=1,30=1,71=1/1,2,3;
 4/5=5,16=3,69=1/1;
 5/5=2,38=5/2;
 8/6=4,10=1/1;
 9/15=2,16=-3/6;
 10/5=1/2;
 7/12=2/1,2,3,16;
 1/18=20,19=15,80=1/3(-8);
 2/9=110/2;
 6/7=2,8=2,9=2,10=2/1;
 99/9=10/99;
 ----
 blah
 ----
 Symbolic Z-matrix:
 Charge =  0 Multiplicity = 1
 C                     1.03144  -0.29808  -0.00035 
 O                     2.23923  -0.17689   0.00071 
 O                     0.18357   0.75714  -0.00076 
 H                    -0.73731   0.41842  -0.00162 
 H                     0.51467  -1.28023  -0.00104 
 

 GradGradGradGradGradGradGradGradGradGradGradGradGradGradGradGradGradGrad
 Berny optimization.
 Initialization pass.
                           ----------------------------
                           !    Initial Parameters    !
                           ! (Angstroms and Degrees)  !
 --------------------------                            --------------------------
 ! Name  Definition              Value          Derivative Info.                !
 --------------------------------------------------------------------------------
 ! R1    R(1,2)                  1.2139         estimate D2E/DX2                !
 ! R2    R(1,3)                  1.3537         estimate D2E/DX2                !
 ! R3    R(1,5)                  1.1098         estimate D2E/DX2                !
 ! R4    R(3,4)                  0.9812         estimate D2E/DX2                !
 ! A1    A(2,1,3)              123.0521         estimate D2E/DX2                !
 ! A2    A(2,1,5)              123.4813         estimate D2E/DX2                !
 ! A3    A(3,1,5)              113.4666         estimate D2E/DX2                !
 ! A4    A(1,3,4)              108.5871         estimate D2E/DX2                !
 ! D1    D(2,1,3,4)           -179.999          estimate D2E/DX2                !
 ! D2    D(2,1,3,5)           -179.9985         estimate D2E/DX2                !
 ! D3    D(5,1,3,4)             -0.0006         estimate D2E/DX2                !
 --------------------------------------------------------------------------------
 Trust Radius=3.00D-01 FncErr=1.00D-07 GrdErr=1.00D-07 EigMax=2.50D+02 EigMin=1.00D-04
 Number of steps in this run=     21 maximum allowed number of steps=    100.
 GradGradGradGradGradGradGradGradGradGradGradGradGradGradGradGradGradGrad

                          Input orientation:                          
 ---------------------------------------------------------------------
 Center     Atomic      Atomic             Coordinates (Angstroms)
 Number     Number       Type             X           Y           Z
 ---------------------------------------------------------------------
      1          6           0        1.031435   -0.298081   -0.000346
      2          8           0        2.239233   -0.176894    0.000708
      3          8           0        0.183566    0.757141   -0.000758
      4          1           0       -0.737312    0.418420   -0.001617
      5          1           0        0.514666   -1.280233   -0.001037
 ---------------------------------------------------------------------
                    Distance matrix (angstroms):
                    1          2          3          4          5
     1  C    0.000000
     2  O    1.213863   0.000000
     3  O    1.353653   2.257917   0.000000
     4  H    1.908361   3.035494   0.981198   0.000000
     5  H    1.109808   2.047313   2.064103   2.110183   0.000000
 Stoichiometry    CH2O2
 Framework group  C1[X(CH2O2)]
 Deg. of freedom     9
 Full point group                 C1      NOp   1
 Largest Abelian subgroup         C1      NOp   1
 Largest concise Abelian subgroup C1      NOp   1
                         Standard orientation:                         
 ---------------------------------------------------------------------
 Center     Atomic      Atomic             Coordinates (Angstroms)
 Number     Number       Type             X           Y           Z
 ---------------------------------------------------------------------
      1          6           0       -0.124018    0.361171   -0.000006
      2          8           0       -1.191825   -0.216109    0.000002
      3          8           0        1.065017   -0.285801    0.000000
      4          1           0        1.784233    0.381639    0.000007
      5          1           0       -0.025658    1.466611    0.000009
 ---------------------------------------------------------------------
 Rotational constants (GHZ):          86.4270280          11.4331709          10.0974144
 Standard basis: Aug-CC-pVDZ (5D, 7F)
 There are    93 symmetry adapted cartesian basis functions of A   symmetry.
 There are    87 symmetry adapted basis functions of A   symmetry.
    87 basis functions,   151 primitive gaussians,    93 cartesian basis functions
    12 alpha electrons       12 beta electrons
       nuclear repulsion energy        69.2925346011 Hartrees.
 NAtoms=    5 NActive=    5 NUniq=    5 SFac= 1.00D+00 NAtFMM=   60 NAOKFM=F Big=F
 Integral buffers will be    131072 words long.
 Raffenetti 1 integral format.
 Two-electron integral symmetry is turned on.
 One-electron integrals computed using PRISM.
 NBasis=    87 RedAO= T EigKep=  6.34D-04  NBF=    87
 NBsUse=    87 1.00D-06 EigRej= -1.00D+00 NBFU=    87
 ExpMin= 2.97D-02 ExpMax= 1.17D+04 ExpMxC= 4.01D+02 IAcc=3 IRadAn=         5 AccDes= 0.00D+00
 Harris functional with IExCor=  205 and IRadAn=       5 diagonalized for initial guess.
 HarFok:  IExCor=  205 AccDes= 0.00D+00 IRadAn=         5 IDoV= 1 UseB2=F ITyADJ=14
 ICtDFT=  3500011 ScaDFX=  1.000000  1.000000  1.000000  1.000000
 FoFCou: FMM=F IPFlag=           0 FMFlag=      100000 FMFlg1=           0
         NFxFlg=           0 DoJE=T BraDBF=F KetDBF=T FulRan=T
         wScrn=  0.000000 ICntrl=       500 IOpCl=  0 I1Cent=   200000004 NGrid=           0
         NMat0=    1 NMatS0=      1 NMatT0=    0 NMatD0=    1 NMtDS0=    0 NMtDT0=    0
 Petite list used in FoFCou.
 Keep R1 ints in memory in canonical form, NReq=15722566.
 Requested convergence on RMS density matrix=1.00D-08 within 128 cycles.
 Requested convergence on MAX density matrix=1.00D-06.
 Requested convergence on             energy=1.00D-06.
 No special actions if energy rises.
 SCF Done:  E(RHF) =  -188.786313794     A.U. after   13 cycles
            NFock= 13  Conv=0.18D-08     -V/T= 2.0024
 ExpMin= 2.97D-02 ExpMax= 1.17D+04 ExpMxC= 4.01D+02 IAcc=3 IRadAn=         5 AccDes= 0.00D+00
 HarFok:  IExCor=  205 AccDes= 0.00D+00 IRadAn=         5 IDoV=-2 UseB2=F ITyADJ=14
 ICtDFT= 12500011 ScaDFX=  1.000000  1.000000  1.000000  1.000000
 Range of M.O.s used for correlation:     4    87
 NBasis=    87 NAE=    12 NBE=    12 NFC=     3 NFV=     0
 NROrb=     84 NOA=     9 NOB=     9 NVA=    75 NVB=    75

 **** Warning!!: The largest alpha MO coefficient is  0.12045819D+02

 Fully direct method using O(ONN) memory.
 JobTyp=1 Pass  1:  I=   4 to  12 NPSUse= 40 ParTrn=T ParDer=T DoDerP=T.
 Spin components of T(2) and E(2):
     alpha-alpha T2 =       0.2135395106D-01 E2=     -0.7120030529D-01
     alpha-beta  T2 =       0.1147092535D+00 E2=     -0.3908861352D+00
     beta-beta   T2 =       0.2135395106D-01 E2=     -0.7120030529D-01
 ANorm=    0.1075833238D+01
 E2 =    -0.5332867458D+00 EUMP2 =    -0.18931960053960D+03
          IDoAtm=11111
          Differentiating once with respect to electric field.
                with respect to dipole field.
          Differentiating once with respect to nuclear coordinates.
 Keep R1 ints in memory in canonical form, NReq=15725100.
          There are     1 degrees of freedom in the 1st order CPHF.  IDoFFX=0 NUNeed=     1.
 LinEq1:  Iter=  0 NonCon=     1 RMS=8.05D-03 Max=1.22D-01 NDo=     1
 AX will form     1 AO Fock derivatives at one time.
 LinEq1:  Iter=  1 NonCon=     1 RMS=2.44D-03 Max=2.47D-02 NDo=     1
 LinEq1:  Iter=  2 NonCon=     1 RMS=8.33D-04 Max=9.12D-03 NDo=     1
 LinEq1:  Iter=  3 NonCon=     1 RMS=3.02D-04 Max=3.20D-03 NDo=     1
 LinEq1:  Iter=  4 NonCon=     1 RMS=1.05D-04 Max=6.59D-04 NDo=     1
 LinEq1:  Iter=  5 NonCon=     1 RMS=3.89D-05 Max=4.77D-04 NDo=     1
 LinEq1:  Iter=  6 NonCon=     1 RMS=1.07D-05 Max=1.04D-04 NDo=     1
 LinEq1:  Iter=  7 NonCon=     1 RMS=2.58D-06 Max=1.67D-05 NDo=     1
 LinEq1:  Iter=  8 NonCon=     1 RMS=5.69D-07 Max=4.27D-06 NDo=     1
 LinEq1:  Iter=  9 NonCon=     1 RMS=1.08D-07 Max=5.84D-07 NDo=     1
 LinEq1:  Iter= 10 NonCon=     1 RMS=1.76D-08 Max=1.06D-07 NDo=     1
 LinEq1:  Iter= 11 NonCon=     1 RMS=2.40D-09 Max=1.26D-08 NDo=     1
 LinEq1:  Iter= 12 NonCon=     1 RMS=3.42D-10 Max=1.83D-09 NDo=     1
 LinEq1:  Iter= 13 NonCon=     0 RMS=5.68D-11 Max=3.30D-10 NDo=     1
 Linear equations converged to 1.000D-10 1.000D-09 after    13 iterations.
 End of Minotr F.D. properties file   721 does not exist.
 End of Minotr F.D. properties file   722 does not exist.
 End of Minotr F.D. properties file   788 does not exist.

 **********************************************************************

            Population analysis using the SCF Density.

 **********************************************************************

 Orbital symmetries:
       Occupied  (A) (A) (A) (A) (A) (A) (A) (A) (A) (A) (A) (A)
       Virtual   (A) (A) (A) (A) (A) (A) (A) (A) (A) (A) (A) (A)
                 (A) (A) (A) (A) (A) (A) (A) (A) (A) (A) (A) (A)
                 (A) (A) (A) (A) (A) (A) (A) (A) (A) (A) (A) (A)
                 (A) (A) (A) (A) (A) (A) (A) (A) (A) (A) (A) (A)
                 (A) (A) (A) (A) (A) (A) (A) (A) (A) (A) (A) (A)
                 (A) (A) (A) (A) (A) (A) (A) (A) (A) (A) (A) (A)
                 (A) (A) (A)
 The electronic state is 1-A.
 Alpha  occ. eigenvalues --  -20.64456 -20.57606 -11.41337  -1.47267  -1.37813
 Alpha  occ. eigenvalues --   -0.87180  -0.79204  -0.67085  -0.63427  -0.60170
 Alpha  occ. eigenvalues --   -0.49118  -0.46888
 Alpha virt. eigenvalues --    0.02154   0.04788   0.08178   0.09492   0.12191
 Alpha virt. eigenvalues --    0.14687   0.15573   0.19772   0.20210   0.22523
 Alpha virt. eigenvalues --    0.23093   0.27816   0.28432   0.30508   0.31928
 Alpha virt. eigenvalues --    0.35711   0.35804   0.40009   0.42162   0.44417
 Alpha virt. eigenvalues --    0.46739   0.50781   0.58090   0.58886   0.61036
 Alpha virt. eigenvalues --    0.64507   0.66607   0.69125   0.71212   0.79508
 Alpha virt. eigenvalues --    0.83741   0.87597   0.93545   0.94740   1.06929
 Alpha virt. eigenvalues --    1.10789   1.17490   1.17845   1.21308   1.26020
 Alpha virt. eigenvalues --    1.26732   1.30860   1.41948   1.44369   1.54771
 Alpha virt. eigenvalues --    1.57847   1.62996   1.68620   1.79007   1.84164
 Alpha virt. eigenvalues --    1.86770   1.91841   1.97430   2.04750   2.09579
 Alpha virt. eigenvalues --    2.18906   2.22417   2.31970   2.40653   2.46107
 Alpha virt. eigenvalues --    2.66174   2.78196   2.86217   3.14443   3.27877
 Alpha virt. eigenvalues --    3.64640   3.65594   3.70281   3.71413   3.71517
 Alpha virt. eigenvalues --    3.76818   3.86332   3.97422   4.08377   4.21991
          Condensed to atoms (all electrons):
               1          2          3          4          5
     1  C    4.058119   0.459368   0.169507  -0.020299   0.279224
     2  O    0.459368   8.270631  -0.057924   0.004518  -0.067356
     3  O    0.169507  -0.057924   8.157708   0.328954  -0.019500
     4  H   -0.020299   0.004518   0.328954   0.483398  -0.019864
     5  H    0.279224  -0.067356  -0.019500  -0.019864   0.916892
 Mulliken charges:
               1
     1  C    1.054082
     2  O   -0.609236
     3  O   -0.578744
     4  H    0.223293
     5  H   -0.089395
 Sum of Mulliken charges =  -0.00000
 Mulliken charges with hydrogens summed into heavy atoms:
               1
     1  C    0.964687
     2  O   -0.609236
     3  O   -0.355451
 Electronic spatial extent (au):  <R**2>=            137.1554
 Charge=             -0.0000 electrons
 Dipole moment (field-independent basis, Debye):
    X=              3.2479    Y=              3.1452    Z=              0.0000  Tot=              4.5212
 Quadrupole moment (field-independent basis, Debye-Ang):
   XX=            -17.4799   YY=            -16.2069   ZZ=            -17.1647
   XY=              1.6315   XZ=              0.0000   YZ=              0.0000
 Traceless Quadrupole moment (field-independent basis, Debye-Ang):
   XX=             -0.5294   YY=              0.7436   ZZ=             -0.2142
   XY=              1.6315   XZ=              0.0000   YZ=              0.0000
 Octapole moment (field-independent basis, Debye-Ang**2):
  XXX=             15.0137  YYY=              2.1721  ZZZ=              0.0000  XYY=              1.0265
  XXY=              3.7276  XXZ=              0.0001  XZZ=              0.2729  YZZ=              0.0155
  YYZ=              0.0000  XYZ=              0.0000
 Hexadecapole moment (field-independent basis, Debye-Ang**3):
 XXXX=            -96.3912 YYYY=            -29.6790 ZZZZ=            -14.6179 XXXY=              6.5502
 XXXZ=              0.0001 YYYX=              0.5247 YYYZ=              0.0001 ZZZX=              0.0000
 ZZZY=              0.0000 XXYY=            -23.4524 XXZZ=            -21.5972 YYZZ=             -8.0441
 XXYZ=              0.0000 YYXZ=              0.0000 ZZXY=              0.3718
 N-N= 6.929253460106D+01 E-N=-5.844600863539D+02  KE= 1.883334123863D+02
 Calling FoFJK, ICntrl=  10002127 FMM=F ISym2X=0 I1Cent= 0 IOpClX= 0 NMat=1 NMatS=1 NMatT=0.
 ***** Axes restored to original set *****
 -------------------------------------------------------------------
 Center     Atomic                   Forces (Hartrees/Bohr)
 Number     Number              X              Y              Z
 -------------------------------------------------------------------
      1        6           0.009393563   -0.008811323    0.000008873
      2        8          -0.006731362    0.001674092   -0.000006539
      3        8          -0.012957626    0.003437242   -0.000010554
      4        1           0.009969341    0.003883251    0.000009149
      5        1           0.000326084   -0.000183262   -0.000000929
 -------------------------------------------------------------------
 Cartesian Forces:  Max     0.012957626 RMS     0.005821309

 GradGradGradGradGradGradGradGradGradGradGradGradGradGradGradGradGradGrad
 Berny optimization.
 FormGI is forming the generalized inverse of G from B-inverse, IUseBI=4.
 Internal  Forces:  Max     0.010697021 RMS     0.004642024
 Search for a local minimum.
 Step number   1 out of a maximum of   21
 All quantities printed in internal units (Hartrees-Bohrs-Radians)
 Mixed Optimization -- RFO/linear search
 Second derivative matrix not updated -- first step.
 The second derivative matrix:
                          R1        R2        R3        R4        A1
           R1           0.98155
           R2           0.00000   0.54252
           R3           0.00000   0.00000   0.32620
           R4           0.00000   0.00000   0.00000   0.51153
           A1           0.00000   0.00000   0.00000   0.00000   0.25000
           A2           0.00000   0.00000   0.00000   0.00000   0.00000
           A3           0.00000   0.00000   0.00000   0.00000   0.00000
           A4           0.00000   0.00000   0.00000   0.00000   0.00000
           D1           0.00000   0.00000   0.00000   0.00000   0.00000
           D2           0.00000   0.00000   0.00000   0.00000   0.00000
           D3           0.00000   0.00000   0.00000   0.00000   0.00000
                          A2        A3        A4        D1        D2
           A2           0.16000
           A3           0.00000   0.16000
           A4           0.00000   0.00000   0.16000
           D1           0.00000   0.00000   0.00000   0.02305
           D2           0.00000   0.00000   0.00000   0.00000   0.02305
           D3           0.00000   0.00000   0.00000   0.00000   0.00000
                          D3
           D3           0.02305
 ITU=  0
     Eigenvalues ---    0.02305   0.02305   0.16000   0.16000   0.22000
     Eigenvalues ---    0.32620   0.51153   0.54252   0.98155
 RFO step:  Lambda=-4.75616173D-04 EMin= 2.30486706D-02
 Linear search not attempted -- first point.
 Iteration  1 RMS(Cart)=  0.01273994 RMS(Int)=  0.00007334
 Iteration  2 RMS(Cart)=  0.00008345 RMS(Int)=  0.00000000
 Iteration  3 RMS(Cart)=  0.00000000 RMS(Int)=  0.00000000
 Variable       Old X    -DE/DX   Delta X   Delta X   Delta X     New X
                                 (Linear)    (Quad)   (Total)
    R1        2.29387  -0.00653   0.00000  -0.00665  -0.00665   2.28722
    R2        2.55803   0.00758   0.00000   0.01396   0.01396   2.57199
    R3        2.09723   0.00001   0.00000   0.00003   0.00003   2.09726
    R4        1.85419  -0.01070   0.00000  -0.02089  -0.02089   1.83330
    A1        2.14766  -0.00384   0.00000  -0.01740  -0.01740   2.13026
    A2        2.15515   0.00153   0.00000   0.00626   0.00626   2.16141
    A3        1.98037   0.00231   0.00000   0.01114   0.01114   1.99151
    A4        1.89520   0.00038   0.00000   0.00235   0.00235   1.89755
    D1       -3.14158  -0.00000   0.00000  -0.00004  -0.00004   3.14157
    D2       -3.14157  -0.00000   0.00000  -0.00007  -0.00007   3.14155
    D3       -0.00001   0.00000   0.00000   0.00003   0.00003   0.00002
         Item               Value     Threshold  Converged?
 Maximum Force            0.010697     0.000450     NO 
 RMS     Force            0.004642     0.000300     NO 
 Maximum Displacement     0.022100     0.001800     NO 
 RMS     Displacement     0.012737     0.001200     NO 
 Predicted change in Energy=-2.380812D-04
 GradGradGradGradGradGradGradGradGradGradGradGradGradGradGradGradGradGrad

                          Input orientation:                          
 ---------------------------------------------------------------------
 Center     Atomic      Atomic             Coordinates (Angstroms)
 Number     Number       Type             X           Y           Z
 ---------------------------------------------------------------------
      1          6           0        1.029589   -0.306051   -0.000330
      2          8           0        2.232146   -0.168987    0.000694
      3          8           0        0.181255    0.758258   -0.000758
      4          1           0       -0.731326    0.429061   -0.001615
      5          1           0        0.519925   -1.291928   -0.001040
 ---------------------------------------------------------------------
                    Distance matrix (angstroms):
                    1          2          3          4          5
     1  C    0.000000
     2  O    1.210344   0.000000
     3  O    1.361038   2.250765   0.000000
     4  H    1.908196   3.023216   0.970142   0.000000
     5  H    1.109825   2.047609   2.077970   2.127776   0.000000
 Stoichiometry    CH2O2
 Framework group  C1[X(CH2O2)]
 Deg. of freedom     9
 Full point group                 C1      NOp   1
 Largest Abelian subgroup         C1      NOp   1
 Largest concise Abelian subgroup C1      NOp   1
                         Standard orientation:                         
 ---------------------------------------------------------------------
 Center     Atomic      Atomic             Coordinates (Angstroms)
 Number     Number       Type             X           Y           Z
 ---------------------------------------------------------------------
      1          6           0       -0.129133    0.368758    0.000008
      2          8           0       -1.185203   -0.222552   -0.000003
      3          8           0        1.064699   -0.284838   -0.000000
      4          1           0        1.779061    0.371563   -0.000011
      5          1           0       -0.040230    1.475016   -0.000014
 ---------------------------------------------------------------------
 Rotational constants (GHZ):          84.6652567          11.5020063          10.1263183
 Standard basis: Aug-CC-pVDZ (5D, 7F)
 There are    93 symmetry adapted cartesian basis functions of A   symmetry.
 There are    87 symmetry adapted basis functions of A   symmetry.
    87 basis functions,   151 primitive gaussians,    93 cartesian basis functions
    12 alpha electrons       12 beta electrons
       nuclear repulsion energy        69.3380914992 Hartrees.
 NAtoms=    5 NActive=    5 NUniq=    5 SFac= 1.00D+00 NAtFMM=   60 NAOKFM=F Big=F
 Integral buffers will be    131072 words long.
 Raffenetti 1 integral format.
 Two-electron integral symmetry is turned on.
 One-electron integrals computed using PRISM.
 NBasis=    87 RedAO= T EigKep=  6.42D-04  NBF=    87
 NBsUse=    87 1.00D-06 EigRej= -1.00D+00 NBFU=    87
 Initial guess from the checkpoint file:  "/scr/Gau-1446.chk"
 B after Tr=    -0.000000   -0.000000   -0.000000
         Rot=    0.999999    0.000000    0.000000   -0.001637 Ang=   0.19 deg.
 ExpMin= 2.97D-02 ExpMax= 1.17D+04 ExpMxC= 4.01D+02 IAcc=3 IRadAn=         5 AccDes= 0.00D+00
 Harris functional with IExCor=  205 and IRadAn=       5 diagonalized for initial guess.
 HarFok:  IExCor=  205 AccDes= 0.00D+00 IRadAn=         5 IDoV= 1 UseB2=F ITyADJ=14
 ICtDFT=  3500011 ScaDFX=  1.000000  1.000000  1.000000  1.000000
 FoFCou: FMM=F IPFlag=           0 FMFlag=      100000 FMFlg1=           0
         NFxFlg=           0 DoJE=T BraDBF=F KetDBF=T FulRan=T
         wScrn=  0.000000 ICntrl=       500 IOpCl=  0 I1Cent=   200000004 NGrid=           0
         NMat0=    1 NMatS0=      1 NMatT0=    0 NMatD0=    1 NMtDS0=    0 NMtDT0=    0
 Petite list used in FoFCou.
 Keep R1 ints in memory in canonical form, NReq=15722566.
 Requested convergence on RMS density matrix=1.00D-08 within 128 cycles.
 Requested convergence on MAX density matrix=1.00D-06.
 Requested convergence on             energy=1.00D-06.
 No special actions if energy rises.
 SCF Done:  E(RHF) =  -188.787135625     A.U. after   11 cycles
            NFock= 11  Conv=0.28D-08     -V/T= 2.0023
 ExpMin= 2.97D-02 ExpMax= 1.17D+04 ExpMxC= 4.01D+02 IAcc=3 IRadAn=         5 AccDes= 0.00D+00
 HarFok:  IExCor=  205 AccDes= 0.00D+00 IRadAn=         5 IDoV=-2 UseB2=F ITyADJ=14
 ICtDFT= 12500011 ScaDFX=  1.000000  1.000000  1.000000  1.000000
 Range of M.O.s used for correlation:     4    87
 NBasis=    87 NAE=    12 NBE=    12 NFC=     3 NFV=     0
 NROrb=     84 NOA=     9 NOB=     9 NVA=    75 NVB=    75

 **** Warning!!: The largest alpha MO coefficient is  0.12182074D+02

 Fully direct method using O(ONN) memory.
 JobTyp=1 Pass  1:  I=   4 to  12 NPSUse= 40 ParTrn=T ParDer=T DoDerP=T.
 Spin components of T(2) and E(2):
     alpha-alpha T2 =       0.2129513742D-01 E2=     -0.7110994745D-01
     alpha-beta  T2 =       0.1144280187D+00 E2=     -0.3904975856D+00
     beta-beta   T2 =       0.2129513742D-01 E2=     -0.7110994745D-01
 ANorm=    0.1075647848D+01
 E2 =    -0.5327174805D+00 EUMP2 =    -0.18931985310572D+03
          IDoAtm=11111
          Differentiating once with respect to electric field.
                with respect to dipole field.
          Differentiating once with respect to nuclear coordinates.
 Keep R1 ints in memory in canonical form, NReq=15725218.
          There are     1 degrees of freedom in the 1st order CPHF.  IDoFFX=0 NUNeed=     1.
 LinEq1:  Iter=  0 NonCon=     1 RMS=8.01D-03 Max=1.21D-01 NDo=     1
 AX will form     1 AO Fock derivatives at one time.
 LinEq1:  Iter=  1 NonCon=     1 RMS=2.43D-03 Max=2.49D-02 NDo=     1
 LinEq1:  Iter=  2 NonCon=     1 RMS=8.28D-04 Max=9.11D-03 NDo=     1
 LinEq1:  Iter=  3 NonCon=     1 RMS=3.00D-04 Max=3.26D-03 NDo=     1
 LinEq1:  Iter=  4 NonCon=     1 RMS=1.05D-04 Max=6.49D-04 NDo=     1
 LinEq1:  Iter=  5 NonCon=     1 RMS=3.94D-05 Max=4.86D-04 NDo=     1
 LinEq1:  Iter=  6 NonCon=     1 RMS=1.09D-05 Max=1.02D-04 NDo=     1
 LinEq1:  Iter=  7 NonCon=     1 RMS=2.60D-06 Max=1.73D-05 NDo=     1
 LinEq1:  Iter=  8 NonCon=     1 RMS=5.68D-07 Max=4.28D-06 NDo=     1
 LinEq1:  Iter=  9 NonCon=     1 RMS=1.07D-07 Max=5.73D-07 NDo=     1
 LinEq1:  Iter= 10 NonCon=     1 RMS=1.75D-08 Max=1.03D-07 NDo=     1
 LinEq1:  Iter= 11 NonCon=     1 RMS=2.36D-09 Max=1.17D-08 NDo=     1
 LinEq1:  Iter= 12 NonCon=     1 RMS=3.34D-10 Max=1.85D-09 NDo=     1
 LinEq1:  Iter= 13 NonCon=     0 RMS=5.53D-11 Max=2.99D-10 NDo=     1
 Linear equations converged to 1.000D-10 1.000D-09 after    13 iterations.
 End of Minotr F.D. properties file   721 does not exist.
 End of Minotr F.D. properties file   722 does not exist.
 End of Minotr F.D. properties file   788 does not exist.
 Calling FoFJK, ICntrl=  10002127 FMM=F ISym2X=0 I1Cent= 0 IOpClX= 0 NMat=1 NMatS=1 NMatT=0.
 ***** Axes restored to original set *****
 -------------------------------------------------------------------
 Center     Atomic                   Forces (Hartrees/Bohr)
 Number     Number              X              Y              Z
 -------------------------------------------------------------------
      1        6           0.004000065   -0.002110096   -0.000002345
      2        8          -0.001213490   -0.000272555    0.000000912
      3        8          -0.002359259    0.001442487   -0.000000496
      4        1          -0.000021177    0.000209250    0.000000361
      5        1          -0.000406140    0.000730913    0.000001569
 -------------------------------------------------------------------
 Cartesian Forces:  Max     0.004000065 RMS     0.001423380

 GradGradGradGradGradGradGradGradGradGradGradGradGradGradGradGradGradGrad
 Berny optimization.
 Using GEDIIS/GDIIS optimizer.
 FormGI is forming the generalized inverse of G from B-inverse, IUseBI=4.
 Internal  Forces:  Max     0.002775355 RMS     0.001016665
 Search for a local minimum.
 Step number   2 out of a maximum of   21
 All quantities printed in internal units (Hartrees-Bohrs-Radians)
 Mixed Optimization -- RFO/linear search
 Update second derivatives using D2CorX and points    1    2
 DE= -2.53D-04 DEPred=-2.38D-04 R= 1.06D+00
 TightC=F SS=  1.41D+00  RLast= 3.39D-02 DXNew= 5.0454D-01 1.0161D-01
 Trust test= 1.06D+00 RLast= 3.39D-02 DXMaxT set to 3.00D-01
 The second derivative matrix:
                          R1        R2        R3        R4        A1
           R1           0.95438
           R2           0.04732   0.47329
           R3          -0.00545   0.00490   0.32670
           R4          -0.02112   0.05628  -0.01100   0.52392
           A1          -0.00632   0.02084  -0.00468   0.00963   0.25587
           A2           0.00028  -0.00373   0.00118  -0.00457  -0.00235
           A3          -0.01548   0.00786   0.00353  -0.04029  -0.01786
           A4           0.00513  -0.00596  -0.00001   0.00839   0.00341
           D1           0.00002  -0.00001  -0.00000   0.00004   0.00002
           D2           0.00003  -0.00002  -0.00000   0.00006   0.00003
           D3          -0.00001   0.00001   0.00000  -0.00002  -0.00001
                          A2        A3        A4        D1        D2
           A2           0.16079
           A3           0.00486   0.17888
           A4          -0.00078  -0.00139   0.15970
           D1          -0.00000  -0.00001   0.00000   0.02305
           D2          -0.00001  -0.00002   0.00000   0.00000   0.02305
           D3           0.00000   0.00001  -0.00000  -0.00000  -0.00000
                          D3
           D3           0.02305
 ITU=  1  0
 Use linear search instead of GDIIS.
     Eigenvalues ---    0.02305   0.02305   0.15853   0.16104   0.24116
     Eigenvalues ---    0.32571   0.43500   0.56411   0.95973
 RFO step:  Lambda=-2.88748150D-05 EMin= 2.30486706D-02
 Quartic linear search produced a step of  0.05996.
 Iteration  1 RMS(Cart)=  0.00253718 RMS(Int)=  0.00000518
 Iteration  2 RMS(Cart)=  0.00000537 RMS(Int)=  0.00000000
 Iteration  3 RMS(Cart)=  0.00000000 RMS(Int)=  0.00000000
 Variable       Old X    -DE/DX   Delta X   Delta X   Delta X     New X
                                 (Linear)    (Quad)   (Total)
    R1        2.28722  -0.00124  -0.00040  -0.00134  -0.00174   2.28548
    R2        2.57199   0.00278   0.00084   0.00542   0.00626   2.57825
    R3        2.09726  -0.00046   0.00000  -0.00150  -0.00150   2.09576
    R4        1.83330  -0.00005  -0.00125  -0.00011  -0.00136   1.83194
    A1        2.13026   0.00069  -0.00104   0.00334   0.00230   2.13256
    A2        2.16141   0.00039   0.00038   0.00317   0.00355   2.16496
    A3        1.99151  -0.00108   0.00067  -0.00651  -0.00584   1.98567
    A4        1.89755   0.00037   0.00014   0.00247   0.00261   1.90016
    D1        3.14157   0.00000  -0.00000   0.00007   0.00007  -3.14155
    D2        3.14155   0.00000  -0.00000   0.00011   0.00011  -3.14153
    D3        0.00002  -0.00000   0.00000  -0.00004  -0.00004  -0.00002
         Item               Value     Threshold  Converged?
 Maximum Force            0.002775     0.000450     NO 
 RMS     Force            0.001017     0.000300     NO 
 Maximum Displacement     0.004723     0.001800     NO 
 RMS     Displacement     0.002539     0.001200     NO 
 Predicted change in Energy=-1.526182D-05
 GradGradGradGradGradGradGradGradGradGradGradGradGradGradGradGradGradGrad

                          Input orientation:                          
 ---------------------------------------------------------------------
 Center     Atomic      Atomic             Coordinates (Angstroms)
 Number     Number       Type             X           Y           Z
 ---------------------------------------------------------------------
      1          6           0        1.032088   -0.306893   -0.000359
      2          8           0        2.233732   -0.169931    0.000711
      3          8           0        0.179237    0.758048   -0.000762
      4          1           0       -0.732770    0.429381   -0.001607
      5          1           0        0.519300   -1.290252   -0.001033
 ---------------------------------------------------------------------
                    Distance matrix (angstroms):
                    1          2          3          4          5
     1  C    0.000000
     2  O    1.209425   0.000000
     3  O    1.364351   2.254351   0.000000
     4  H    1.912283   3.026436   0.969423   0.000000
     5  H    1.109030   2.048023   2.076337   2.127162   0.000000
 Stoichiometry    CH2O2
 Framework group  C1[X(CH2O2)]
 Deg. of freedom     9
 Full point group                 C1      NOp   1
 Largest Abelian subgroup         C1      NOp   1
 Largest concise Abelian subgroup C1      NOp   1
                         Standard orientation:                         
 ---------------------------------------------------------------------
 Center     Atomic      Atomic             Coordinates (Angstroms)
 Number     Number       Type             X           Y           Z
 ---------------------------------------------------------------------
      1          6           0       -0.131159    0.368264   -0.000014
      2          8           0       -1.186495   -0.222477    0.000005
      3          8           0        1.067008   -0.284308    0.000000
      4          1           0        1.781122    0.371300    0.000018
      5          1           0       -0.038274    1.473397    0.000023
 ---------------------------------------------------------------------
 Rotational constants (GHZ):          84.8738132          11.4652045          10.1007426
 Standard basis: Aug-CC-pVDZ (5D, 7F)
 There are    93 symmetry adapted cartesian basis functions of A   symmetry.
 There are    87 symmetry adapted basis functions of A   symmetry.
    87 basis functions,   151 primitive gaussians,    93 cartesian basis functions
    12 alpha electrons       12 beta electrons
       nuclear repulsion energy        69.2862872214 Hartrees.
 NAtoms=    5 NActive=    5 NUniq=    5 SFac= 1.00D+00 NAtFMM=   60 NAOKFM=F Big=F
 Integral buffers will be    131072 words long.
 Raffenetti 1 integral format.
 Two-electron integral symmetry is turned on.
 One-electron integrals computed using PRISM.
 NBasis=    87 RedAO= T EigKep=  6.42D-04  NBF=    87
 NBsUse=    87 1.00D-06 EigRej= -1.00D+00 NBFU=    87
 Initial guess from the checkpoint file:  "/scr/Gau-1446.chk"
 B after Tr=     0.000000    0.000000    0.000000
         Rot=    1.000000    0.000000   -0.000000   -0.000136 Ang=  -0.02 deg.
 Keep R1 ints in memory in canonical form, NReq=15722566.
 Requested convergence on RMS density matrix=1.00D-08 within 128 cycles.
 Requested convergence on MAX density matrix=1.00D-06.
 Requested convergence on             energy=1.00D-06.
 No special actions if energy rises.
 SCF Done:  E(RHF) =  -188.787120684     A.U. after   10 cycles
            NFock= 10  Conv=0.29D-08     -V/T= 2.0023
 ExpMin= 2.97D-02 ExpMax= 1.17D+04 ExpMxC= 4.01D+02 IAcc=3 IRadAn=         5 AccDes= 0.00D+00
 HarFok:  IExCor=  205 AccDes= 0.00D+00 IRadAn=         5 IDoV=-2 UseB2=F ITyADJ=14
 ICtDFT= 12500011 ScaDFX=  1.000000  1.000000  1.000000  1.000000
 Range of M.O.s used for correlation:     4    87
 NBasis=    87 NAE=    12 NBE=    12 NFC=     3 NFV=     0
 NROrb=     84 NOA=     9 NOB=     9 NVA=    75 NVB=    75

 **** Warning!!: The largest alpha MO coefficient is  0.12142428D+02

 Fully direct method using O(ONN) memory.
 JobTyp=1 Pass  1:  I=   4 to  12 NPSUse= 40 ParTrn=T ParDer=T DoDerP=T.
 Spin components of T(2) and E(2):
     alpha-alpha T2 =       0.2130076242D-01 E2=     -0.7110899962D-01
     alpha-beta  T2 =       0.1144567633D+00 E2=     -0.3905316393D+00
     beta-beta   T2 =       0.2130076242D-01 E2=     -0.7110899962D-01
 ANorm=    0.1075666439D+01
 E2 =    -0.5327496386D+00 EUMP2 =    -0.18931987032252D+03
          IDoAtm=11111
          Differentiating once with respect to electric field.
                with respect to dipole field.
          Differentiating once with respect to nuclear coordinates.
 Keep R1 ints in memory in canonical form, NReq=15725218.
          There are     1 degrees of freedom in the 1st order CPHF.  IDoFFX=0 NUNeed=     1.
 LinEq1:  Iter=  0 NonCon=     1 RMS=8.01D-03 Max=1.21D-01 NDo=     1
 AX will form     1 AO Fock derivatives at one time.
 LinEq1:  Iter=  1 NonCon=     1 RMS=2.44D-03 Max=2.51D-02 NDo=     1
 LinEq1:  Iter=  2 NonCon=     1 RMS=8.30D-04 Max=9.13D-03 NDo=     1
 LinEq1:  Iter=  3 NonCon=     1 RMS=3.00D-04 Max=3.30D-03 NDo=     1
 LinEq1:  Iter=  4 NonCon=     1 RMS=1.05D-04 Max=6.48D-04 NDo=     1
 LinEq1:  Iter=  5 NonCon=     1 RMS=3.97D-05 Max=4.91D-04 NDo=     1
 LinEq1:  Iter=  6 NonCon=     1 RMS=1.10D-05 Max=1.01D-04 NDo=     1
 LinEq1:  Iter=  7 NonCon=     1 RMS=2.61D-06 Max=1.75D-05 NDo=     1
 LinEq1:  Iter=  8 NonCon=     1 RMS=5.70D-07 Max=4.32D-06 NDo=     1
 LinEq1:  Iter=  9 NonCon=     1 RMS=1.08D-07 Max=5.74D-07 NDo=     1
 LinEq1:  Iter= 10 NonCon=     1 RMS=1.75D-08 Max=1.04D-07 NDo=     1
 LinEq1:  Iter= 11 NonCon=     1 RMS=2.36D-09 Max=1.15D-08 NDo=     1
 LinEq1:  Iter= 12 NonCon=     1 RMS=3.34D-10 Max=1.86D-09 NDo=     1
 LinEq1:  Iter= 13 NonCon=     0 RMS=5.54D-11 Max=3.00D-10 NDo=     1
 Linear equations converged to 1.000D-10 1.000D-09 after    13 iterations.
 End of Minotr F.D. properties file   721 does not exist.
 End of Minotr F.D. properties file   722 does not exist.
 End of Minotr F.D. properties file   788 does not exist.
 Calling FoFJK, ICntrl=  10002127 FMM=F ISym2X=0 I1Cent= 0 IOpClX= 0 NMat=1 NMatS=1 NMatT=0.
 ***** Axes restored to original set *****
 -------------------------------------------------------------------
 Center     Atomic                   Forces (Hartrees/Bohr)
 Number     Number              X              Y              Z
 -------------------------------------------------------------------
      1        6           0.001026688   -0.000658980    0.000008984
      2        8          -0.000599753    0.000119572   -0.000003703
      3        8           0.000238601    0.000892909   -0.000001331
      4        1          -0.000446188   -0.000395904   -0.000001003
      5        1          -0.000219347    0.000042402   -0.000002947
 -------------------------------------------------------------------
 Cartesian Forces:  Max     0.001026688 RMS     0.000456246

 GradGradGradGradGradGradGradGradGradGradGradGradGradGradGradGradGradGrad
 Berny optimization.
 Using GEDIIS/GDIIS optimizer.
 FormGI is forming the generalized inverse of G from B-inverse, IUseBI=4.
 Internal  Forces:  Max     0.000582357 RMS     0.000331705
 Search for a local minimum.
 Step number   3 out of a maximum of   21
 All quantities printed in internal units (Hartrees-Bohrs-Radians)
 Mixed Optimization -- En-DIIS/RFO-DIIS
 Update second derivatives using D2CorX and points    1    2    3
 DE= -1.72D-05 DEPred=-1.53D-05 R= 1.13D+00
 TightC=F SS=  1.41D+00  RLast= 1.03D-02 DXNew= 5.0454D-01 3.0766D-02
 Trust test= 1.13D+00 RLast= 1.03D-02 DXMaxT set to 3.00D-01
 The second derivative matrix:
                          R1        R2        R3        R4        A1
           R1           0.91433
           R2           0.10665   0.41251
           R3          -0.00962   0.00137   0.32975
           R4          -0.01162   0.00900   0.00189   0.56288
           A1           0.00220   0.01759  -0.00715  -0.00369   0.25735
           A2           0.02196  -0.04426   0.00646   0.00069  -0.00984
           A3          -0.02735   0.01426   0.00630  -0.02392  -0.01924
           A4          -0.00260   0.02851  -0.00906  -0.01810   0.01297
           D1          -0.00004   0.00019  -0.00005  -0.00010   0.00007
           D2          -0.00007   0.00031  -0.00008  -0.00016   0.00011
           D3           0.00003  -0.00012   0.00003   0.00006  -0.00004
                          A2        A3        A4        D1        D2
           A2           0.15170
           A3           0.01473   0.18000
           A4          -0.00378  -0.01314   0.17779
           D1          -0.00001  -0.00008   0.00009   0.02305
           D2          -0.00002  -0.00013   0.00015   0.00000   0.02305
           D3           0.00001   0.00005  -0.00006  -0.00000  -0.00000
                          D3
           D3           0.02305
 ITU=  1  1  0
 Use linear search instead of GDIIS.
     Eigenvalues ---    0.02305   0.02305   0.13476   0.17276   0.25128
     Eigenvalues ---    0.33189   0.40660   0.56480   0.93742
 RFO step:  Lambda=-3.57863836D-06 EMin= 2.30486706D-02
 Quartic linear search produced a step of  0.15132.
 Iteration  1 RMS(Cart)=  0.00140671 RMS(Int)=  0.00000200
 Iteration  2 RMS(Cart)=  0.00000180 RMS(Int)=  0.00000000
 Iteration  3 RMS(Cart)=  0.00000000 RMS(Int)=  0.00000000
 Variable       Old X    -DE/DX   Delta X   Delta X   Delta X     New X
                                 (Linear)    (Quad)   (Total)
    R1        2.28548  -0.00058  -0.00026  -0.00072  -0.00098   2.28450
    R2        2.57825   0.00052   0.00095   0.00108   0.00203   2.58028
    R3        2.09576   0.00006  -0.00023   0.00028   0.00005   2.09581
    R4        1.83194   0.00055  -0.00021   0.00097   0.00077   1.83271
    A1        2.13256  -0.00013   0.00035  -0.00105  -0.00070   2.13186
    A2        2.16496   0.00029   0.00054   0.00193   0.00247   2.16742
    A3        1.98567  -0.00016  -0.00088  -0.00088  -0.00177   1.98390
    A4        1.90016  -0.00041   0.00040  -0.00296  -0.00256   1.89760
    D1       -3.14155  -0.00000   0.00001  -0.00012  -0.00011   3.14152
    D2       -3.14153  -0.00000   0.00002  -0.00019  -0.00018   3.14148
    D3       -0.00002   0.00000  -0.00001   0.00007   0.00007   0.00004
         Item               Value     Threshold  Converged?
 Maximum Force            0.000582     0.000450     NO 
 RMS     Force            0.000332     0.000300     NO 
 Maximum Displacement     0.002845     0.001800     NO 
 RMS     Displacement     0.001407     0.001200     NO 
 Predicted change in Energy=-2.086553D-06
 GradGradGradGradGradGradGradGradGradGradGradGradGradGradGradGradGradGrad

                          Input orientation:                          
 ---------------------------------------------------------------------
 Center     Atomic      Atomic             Coordinates (Angstroms)
 Number     Number       Type             X           Y           Z
 ---------------------------------------------------------------------
      1          6           0        1.032694   -0.307151   -0.000306
      2          8           0        2.233757   -0.169674    0.000684
      3          8           0        0.179406    0.758815   -0.000758
      4          1           0       -0.732210    0.427875   -0.001623
      5          1           0        0.517940   -1.289513   -0.001046
 ---------------------------------------------------------------------
                    Distance matrix (angstroms):
                    1          2          3          4          5
     1  C    0.000000
     2  O    1.208905   0.000000
     3  O    1.365424   2.254429   0.000000
     4  H    1.911845   3.025562   0.969828   0.000000
     5  H    1.109057   2.048919   2.076115   2.124217   0.000000
 Stoichiometry    CH2O2
 Framework group  C1[X(CH2O2)]
 Deg. of freedom     9
 Full point group                 C1      NOp   1
 Largest Abelian subgroup         C1      NOp   1
 Largest concise Abelian subgroup C1      NOp   1
                         Standard orientation:                         
 ---------------------------------------------------------------------
 Center     Atomic      Atomic             Coordinates (Angstroms)
 Number     Number       Type             X           Y           Z
 ---------------------------------------------------------------------
      1          6           0       -0.131786    0.368549    0.000024
      2          8           0       -1.186318   -0.222562   -0.000008
      3          8           0        1.067255   -0.284663   -0.000001
      4          1           0        1.780054    0.372971   -0.000031
      5          1           0       -0.036828    1.473534   -0.000039
 ---------------------------------------------------------------------
 Rotational constants (GHZ):          84.7640554          11.4652286          10.0992051
 Standard basis: Aug-CC-pVDZ (5D, 7F)
 There are    93 symmetry adapted cartesian basis functions of A   symmetry.
 There are    87 symmetry adapted basis functions of A   symmetry.
    87 basis functions,   151 primitive gaussians,    93 cartesian basis functions
    12 alpha electrons       12 beta electrons
       nuclear repulsion energy        69.2787059284 Hartrees.
 NAtoms=    5 NActive=    5 NUniq=    5 SFac= 1.00D+00 NAtFMM=   60 NAOKFM=F Big=F
 Integral buffers will be    131072 words long.
 Raffenetti 1 integral format.
 Two-electron integral symmetry is turned on.
 One-electron integrals computed using PRISM.
 NBasis=    87 RedAO= T EigKep=  6.41D-04  NBF=    87
 NBsUse=    87 1.00D-06 EigRej= -1.00D+00 NBFU=    87
 Initial guess from the checkpoint file:  "/scr/Gau-1446.chk"
 B after Tr=     0.000000   -0.000000   -0.000000
         Rot=    1.000000   -0.000000    0.000000   -0.000019 Ang=  -0.00 deg.
 Keep R1 ints in memory in canonical form, NReq=15722566.
 Requested convergence on RMS density matrix=1.00D-08 within 128 cycles.
 Requested convergence on MAX density matrix=1.00D-06.
 Requested convergence on             energy=1.00D-06.
 No special actions if energy rises.
 SCF Done:  E(RHF) =  -188.787079446     A.U. after    9 cycles
            NFock=  9  Conv=0.39D-08     -V/T= 2.0023
 ExpMin= 2.97D-02 ExpMax= 1.17D+04 ExpMxC= 4.01D+02 IAcc=3 IRadAn=         5 AccDes= 0.00D+00
 HarFok:  IExCor=  205 AccDes= 0.00D+00 IRadAn=         5 IDoV=-2 UseB2=F ITyADJ=14
 ICtDFT= 12500011 ScaDFX=  1.000000  1.000000  1.000000  1.000000
 Range of M.O.s used for correlation:     4    87
 NBasis=    87 NAE=    12 NBE=    12 NFC=     3 NFV=     0
 NROrb=     84 NOA=     9 NOB=     9 NVA=    75 NVB=    75

 **** Warning!!: The largest alpha MO coefficient is  0.12132060D+02

 Fully direct method using O(ONN) memory.
 JobTyp=1 Pass  1:  I=   4 to  12 NPSUse= 40 ParTrn=T ParDer=T DoDerP=T.
 Spin components of T(2) and E(2):
     alpha-alpha T2 =       0.2130469778D-01 E2=     -0.7111331523D-01
     alpha-beta  T2 =       0.1144807104D+00 E2=     -0.3905664399D+00
     beta-beta   T2 =       0.2130469778D-01 E2=     -0.7111331523D-01
 ANorm=    0.1075681229D+01
 E2 =    -0.5327930704D+00 EUMP2 =    -0.18931987251663D+03
          IDoAtm=11111
          Differentiating once with respect to electric field.
                with respect to dipole field.
          Differentiating once with respect to nuclear coordinates.
 Keep R1 ints in memory in canonical form, NReq=15725218.
          There are     1 degrees of freedom in the 1st order CPHF.  IDoFFX=0 NUNeed=     1.
 LinEq1:  Iter=  0 NonCon=     1 RMS=8.01D-03 Max=1.21D-01 NDo=     1
 AX will form     1 AO Fock derivatives at one time.
 LinEq1:  Iter=  1 NonCon=     1 RMS=2.44D-03 Max=2.51D-02 NDo=     1
 LinEq1:  Iter=  2 NonCon=     1 RMS=8.30D-04 Max=9.14D-03 NDo=     1
 LinEq1:  Iter=  3 NonCon=     1 RMS=3.00D-04 Max=3.32D-03 NDo=     1
 LinEq1:  Iter=  4 NonCon=     1 RMS=1.05D-04 Max=6.52D-04 NDo=     1
 LinEq1:  Iter=  5 NonCon=     1 RMS=3.99D-05 Max=4.94D-04 NDo=     1
 LinEq1:  Iter=  6 NonCon=     1 RMS=1.10D-05 Max=1.01D-04 NDo=     1
 LinEq1:  Iter=  7 NonCon=     1 RMS=2.63D-06 Max=1.76D-05 NDo=     1
 LinEq1:  Iter=  8 NonCon=     1 RMS=5.72D-07 Max=4.33D-06 NDo=     1
 LinEq1:  Iter=  9 NonCon=     1 RMS=1.08D-07 Max=5.76D-07 NDo=     1
 LinEq1:  Iter= 10 NonCon=     1 RMS=1.76D-08 Max=1.04D-07 NDo=     1
 LinEq1:  Iter= 11 NonCon=     1 RMS=2.36D-09 Max=1.15D-08 NDo=     1
 LinEq1:  Iter= 12 NonCon=     1 RMS=3.34D-10 Max=1.87D-09 NDo=     1
 LinEq1:  Iter= 13 NonCon=     0 RMS=5.55D-11 Max=3.00D-10 NDo=     1
 Linear equations converged to 1.000D-10 1.000D-09 after    13 iterations.
 End of Minotr F.D. properties file   721 does not exist.
 End of Minotr F.D. properties file   722 does not exist.
 End of Minotr F.D. properties file   788 does not exist.
 Calling FoFJK, ICntrl=  10002127 FMM=F ISym2X=0 I1Cent= 0 IOpClX= 0 NMat=1 NMatS=1 NMatT=0.
 ***** Axes restored to original set *****
 -------------------------------------------------------------------
 Center     Atomic                   Forces (Hartrees/Bohr)
 Number     Number              X              Y              Z
 -------------------------------------------------------------------
      1        6           0.000035835    0.000051748   -0.000014402
      2        8           0.000032988   -0.000039956    0.000005623
      3        8           0.000131217    0.000117694    0.000003245
      4        1          -0.000186743   -0.000081570    0.000000726
      5        1          -0.000013297   -0.000047916    0.000004807
 -------------------------------------------------------------------
 Cartesian Forces:  Max     0.000186743 RMS     0.000073932

 GradGradGradGradGradGradGradGradGradGradGradGradGradGradGradGradGradGrad
 Berny optimization.
 Using GEDIIS/GDIIS optimizer.
 FormGI is forming the generalized inverse of G from B-inverse, IUseBI=4.
 Internal  Forces:  Max     0.000203368 RMS     0.000070417
 Search for a local minimum.
 Step number   4 out of a maximum of   21
 All quantities printed in internal units (Hartrees-Bohrs-Radians)
 Mixed Optimization -- En-DIIS/RFO-DIIS
 Swapping is turned off.
 Update second derivatives using D2CorX and points    1    2    3    4
 DE= -2.19D-06 DEPred=-2.09D-06 R= 1.05D+00
 TightC=F SS=  1.41D+00  RLast= 4.69D-03 DXNew= 5.0454D-01 1.4063D-02
 Trust test= 1.05D+00 RLast= 4.69D-03 DXMaxT set to 3.00D-01
 The second derivative matrix:
                          R1        R2        R3        R4        A1
           R1           0.92635
           R2           0.11251   0.38981
           R3          -0.00329  -0.00651   0.33076
           R4           0.00873  -0.00981  -0.00355   0.51244
           A1           0.00601   0.02143  -0.00762  -0.00587   0.25860
           A2           0.00329  -0.03249   0.00332  -0.01272  -0.01665
           A3          -0.03593   0.02276   0.01078  -0.01445  -0.02362
           A4           0.00127   0.03225  -0.00651   0.00443   0.01815
           D1           0.00068  -0.00048   0.00001  -0.00015   0.00023
           D2           0.00110  -0.00078   0.00002  -0.00024   0.00037
           D3          -0.00042   0.00030  -0.00001   0.00009  -0.00014
                          A2        A3        A4        D1        D2
           A2           0.16445
           A3           0.01668   0.18110
           A4          -0.00899  -0.02078   0.17586
           D1          -0.00040   0.00008   0.00037   0.02306
           D2          -0.00065   0.00012   0.00059   0.00001   0.02307
           D3           0.00025  -0.00005  -0.00023  -0.00001  -0.00001
                          D3
           D3           0.02305
 ITU=  1  1  1  0
     Eigenvalues ---    0.02305   0.02307   0.14054   0.16980   0.26388
     Eigenvalues ---    0.33192   0.38372   0.51344   0.95044
 En-DIIS/RFO-DIIS/Sim-DIIS IScMMF=       -3 using points:     4    3
 RFO step:  Lambda=-1.29153622D-07.
 DidBck=F Rises=F RFO-DIIS coefs:    1.03216   -0.03216
 Iteration  1 RMS(Cart)=  0.00019679 RMS(Int)=  0.00000003
 Iteration  2 RMS(Cart)=  0.00000004 RMS(Int)=  0.00000001
 Variable       Old X    -DE/DX   Delta X   Delta X   Delta X     New X
                                 (Linear)    (Quad)   (Total)
    R1        2.28450   0.00003  -0.00003   0.00003   0.00000   2.28450
    R2        2.58028   0.00006   0.00007   0.00011   0.00017   2.58045
    R3        2.09581   0.00005   0.00000   0.00016   0.00016   2.09597
    R4        1.83271   0.00020   0.00002   0.00038   0.00040   1.83311
    A1        2.13186   0.00006  -0.00002   0.00025   0.00023   2.13209
    A2        2.16742  -0.00004   0.00008  -0.00023  -0.00016   2.16727
    A3        1.98390  -0.00002  -0.00006  -0.00002  -0.00007   1.98382
    A4        1.89760  -0.00002  -0.00008  -0.00013  -0.00021   1.89739
    D1        3.14152   0.00000  -0.00000   0.00019   0.00018  -3.14148
    D2        3.14148   0.00001  -0.00001   0.00030   0.00030  -3.14141
    D3        0.00004  -0.00000   0.00000  -0.00012  -0.00011  -0.00007
         Item               Value     Threshold  Converged?
 Maximum Force            0.000203     0.000450     YES
 RMS     Force            0.000070     0.000300     YES
 Maximum Displacement     0.000283     0.001800     YES
 RMS     Displacement     0.000197     0.001200     YES
 Predicted change in Energy=-6.457689D-08
 Optimization completed.
    -- Stationary point found.
                           ----------------------------
                           !   Optimized Parameters   !
                           ! (Angstroms and Degrees)  !
 --------------------------                            --------------------------
 ! Name  Definition              Value          Derivative Info.                !
 --------------------------------------------------------------------------------
 ! R1    R(1,2)                  1.2089         -DE/DX =    0.0                 !
 ! R2    R(1,3)                  1.3654         -DE/DX =    0.0001              !
 ! R3    R(1,5)                  1.1091         -DE/DX =    0.0                 !
 ! R4    R(3,4)                  0.9698         -DE/DX =    0.0002              !
 ! A1    A(2,1,3)              122.1468         -DE/DX =    0.0001              !
 ! A2    A(2,1,5)              124.1842         -DE/DX =    0.0                 !
 ! A3    A(3,1,5)              113.669          -DE/DX =    0.0                 !
 ! A4    A(1,3,4)              108.7245         -DE/DX =    0.0                 !
 ! D1    D(2,1,3,4)           -180.004          -DE/DX =    0.0                 !
 ! D2    D(2,1,3,5)           -180.0065         -DE/DX =    0.0                 !
 ! D3    D(5,1,3,4)              0.0025         -DE/DX =    0.0                 !
 --------------------------------------------------------------------------------
 GradGradGradGradGradGradGradGradGradGradGradGradGradGradGradGradGradGrad

                          Input orientation:                          
 ---------------------------------------------------------------------
 Center     Atomic      Atomic             Coordinates (Angstroms)
 Number     Number       Type             X           Y           Z
 ---------------------------------------------------------------------
      1          6           0        1.032694   -0.307151   -0.000306
      2          8           0        2.233757   -0.169674    0.000684
      3          8           0        0.179406    0.758815   -0.000758
      4          1           0       -0.732210    0.427875   -0.001623
      5          1           0        0.517940   -1.289513   -0.001046
 ---------------------------------------------------------------------
                    Distance matrix (angstroms):
                    1          2          3          4          5
     1  C    0.000000
     2  O    1.208905   0.000000
     3  O    1.365424   2.254429   0.000000
     4  H    1.911845   3.025562   0.969828   0.000000
     5  H    1.109057   2.048919   2.076115   2.124217   0.000000
 Stoichiometry    CH2O2
 Framework group  C1[X(CH2O2)]
 Deg. of freedom     9
 Full point group                 C1      NOp   1
 Largest Abelian subgroup         C1      NOp   1
 Largest concise Abelian subgroup C1      NOp   1
                         Standard orientation:                         
 ---------------------------------------------------------------------
 Center     Atomic      Atomic             Coordinates (Angstroms)
 Number     Number       Type             X           Y           Z
 ---------------------------------------------------------------------
      1          6           0       -0.131786    0.368549    0.000024
      2          8           0       -1.186318   -0.222562   -0.000008
      3          8           0        1.067255   -0.284663   -0.000001
      4          1           0        1.780054    0.372971   -0.000031
      5          1           0       -0.036828    1.473534   -0.000039
 ---------------------------------------------------------------------
 Rotational constants (GHZ):          84.7640554          11.4652286          10.0992051

 **********************************************************************

            Population analysis using the SCF Density.

 **********************************************************************

 Orbital symmetries:
       Occupied  (A) (A) (A) (A) (A) (A) (A) (A) (A) (A) (A) (A)
       Virtual   (A) (A) (A) (A) (A) (A) (A) (A) (A) (A) (A) (A)
                 (A) (A) (A) (A) (A) (A) (A) (A) (A) (A) (A) (A)
                 (A) (A) (A) (A) (A) (A) (A) (A) (A) (A) (A) (A)
                 (A) (A) (A) (A) (A) (A) (A) (A) (A) (A) (A) (A)
                 (A) (A) (A) (A) (A) (A) (A) (A) (A) (A) (A) (A)
                 (A) (A) (A) (A) (A) (A) (A) (A) (A) (A) (A) (A)
                 (A) (A) (A)
 The electronic state is 1-A.
 Alpha  occ. eigenvalues --  -20.64090 -20.57785 -11.41377  -1.47054  -1.38033
 Alpha  occ. eigenvalues --   -0.87151  -0.79110  -0.67098  -0.63167  -0.60325
 Alpha  occ. eigenvalues --   -0.49295  -0.47041
 Alpha virt. eigenvalues --    0.02218   0.04782   0.08154   0.09478   0.12202
 Alpha virt. eigenvalues --    0.14733   0.15511   0.19835   0.20256   0.22570
 Alpha virt. eigenvalues --    0.23051   0.27740   0.28530   0.30650   0.31983
 Alpha virt. eigenvalues --    0.35677   0.35940   0.39981   0.42086   0.44428
 Alpha virt. eigenvalues --    0.46462   0.50742   0.57896   0.59108   0.60899
 Alpha virt. eigenvalues --    0.64490   0.66719   0.69370   0.70889   0.79450
 Alpha virt. eigenvalues --    0.83936   0.87862   0.93633   0.95147   1.06937
 Alpha virt. eigenvalues --    1.10956   1.17811   1.17909   1.21136   1.25850
 Alpha virt. eigenvalues --    1.26517   1.30760   1.42066   1.44124   1.54499
 Alpha virt. eigenvalues --    1.58157   1.63028   1.68906   1.79000   1.83996
 Alpha virt. eigenvalues --    1.86332   1.91800   1.97486   2.04628   2.09718
 Alpha virt. eigenvalues --    2.19508   2.22578   2.32547   2.40571   2.47709
 Alpha virt. eigenvalues --    2.66637   2.78574   2.86206   3.13789   3.27397
 Alpha virt. eigenvalues --    3.64771   3.65920   3.70096   3.71429   3.71448
 Alpha virt. eigenvalues --    3.76560   3.86502   3.97479   4.08519   4.24160
          Condensed to atoms (all electrons):
               1          2          3          4          5
     1  C    4.059801   0.461334   0.166027  -0.020484   0.278577
     2  O    0.461334   8.259292  -0.058543   0.004032  -0.066317
     3  O    0.166027  -0.058543   8.157479   0.334856  -0.021096
     4  H   -0.020484   0.004032   0.334856   0.493468  -0.019342
     5  H    0.278577  -0.066317  -0.021096  -0.019342   0.911871
 Mulliken charges:
               1
     1  C    1.054745
     2  O   -0.599798
     3  O   -0.578722
     4  H    0.207470
     5  H   -0.083694
 Sum of Mulliken charges =  -0.00000
 Mulliken charges with hydrogens summed into heavy atoms:
               1
     1  C    0.971050
     2  O   -0.599798
     3  O   -0.371252
 Electronic spatial extent (au):  <R**2>=            137.1065
 Charge=              0.0000 electrons
 Dipole moment (field-independent basis, Debye):
    X=              3.1180    Y=              3.1870    Z=             -0.0000  Tot=              4.4585
 Quadrupole moment (field-independent basis, Debye-Ang):
   XX=            -17.5064   YY=            -16.1504   ZZ=            -17.1544
   XY=              1.5787   XZ=             -0.0001   YZ=             -0.0001
 Traceless Quadrupole moment (field-independent basis, Debye-Ang):
   XX=             -0.5693   YY=              0.7867   ZZ=             -0.2173
   XY=              1.5787   XZ=             -0.0001   YZ=             -0.0001
 Octapole moment (field-independent basis, Debye-Ang**2):
  XXX=             14.6962  YYY=              2.2577  ZZZ=             -0.0001  XYY=              0.9377
  XXY=              3.6573  XXZ=             -0.0003  XZZ=              0.2178  YZZ=              0.0248
  YYZ=             -0.0002  XYZ=             -0.0001
 Hexadecapole moment (field-independent basis, Debye-Ang**3):
 XXXX=            -96.3521 YYYY=            -29.7282 ZZZZ=            -14.5971 XXXY=              6.3795
 XXXZ=             -0.0005 YYYX=              0.5212 YYYZ=             -0.0003 ZZZX=             -0.0000
 ZZZY=             -0.0000 XXYY=            -23.4523 XXZZ=            -21.5293 YYZZ=             -8.0675
 XXYZ=             -0.0001 YYXZ=             -0.0000 ZZXY=              0.3868
 N-N= 6.927870592842D+01 E-N=-5.844502564800D+02  KE= 1.883492299465D+02
 Unable to Open any file for archive entry.
 1\1\GINC-N3082\FOpt\RMP2-FC\Aug-CC-pVDZ\C1H2O2\GDS001\20-Mar-2025\0\\#
  MP2/aug-cc-pVDZ opt freq=(vibrot,anharmonic)\\blah\\0,1\C,1.032694061
 4,-0.3071510741,-0.0003064174\O,2.2337566456,-0.1696735872,0.000684085
 7\O,0.1794064839,0.7588151831,-0.0007580618\H,-0.7322095221,0.42787543
 93,-0.0016233186\H,0.5179403312,-1.289512961,-0.0010462879\\Version=EM
 64L-G16RevC.01\State=1-A\HF=-188.7870794\MP2=-189.3198725\RMSD=3.907e-
 09\RMSF=7.393e-05\Dipole=-1.4176247,-0.5786811,-0.001326\PG=C01 [X(C1H
 2O2)]\\@
 The archive entry for this job was punched.


 SOME PHYSICISTS WOULD PREFER TO COME BACK TO THE IDEA OF AN OBJECTIVE
 REAL WORLD WHOSE SMALLEST PARTS EXIST OBJECTIVELY IN THE SAME SENSE AS
 STONES OR TREES EXIST INDEPENDENTLY OF WHETHER WE OBSERVE THEM.
 THIS, HOWEVER, IS IMPOSSIBLE.  -- WERNER HEISENBERG
 Job cpu time:       0 days  0 hours  7 minutes  8.4 seconds.
 Elapsed time:       0 days  0 hours  0 minutes 13.2 seconds.
 File lengths (MBytes):  RWF=     10 Int=      0 D2E=      0 Chk=      2 Scr=      1
 Normal termination of Gaussian 16 at Thu Mar 20 22:06:57 2025.
 Link1:  Proceeding to internal job step number  2.
 ----------------------------------------------------------------------
 #N Geom=AllCheck Guess=TCheck SCRF=Check GenChk RMP2(FC)/Aug-CC-pVDZ F
 req
 ----------------------------------------------------------------------
 1/10=4,29=7,30=1,38=21,40=1,80=1/1,6,3;
 2/12=2,40=1/2;
 3/5=16,7=10,11=1,14=-4,25=1,30=1,70=2,71=2,116=1,140=1/1,2,3;
 4/5=101,69=2/1;
 5/5=2,38=6,98=1/2;
 8/6=3,8=1,10=1,19=11,30=-1/1;
 9/15=3,16=-3/6;
 11/6=1,8=1,15=11,17=12,24=-1,27=1,28=-2,29=300,32=6,42=3/1,2,10;
 10/6=2,21=1,60=-2/2;
 8/6=4,8=1,10=1,19=11,30=-1/11,4;
 10/5=1,20=4,60=-2/2;
 11/12=2,14=11,16=1,17=2,28=-2,42=3,76=2/2,10,12;
 6/7=2,8=2,9=2,10=2,22=-1/1;
 7/10=1,12=2,25=1,44=2,70=1,71=2/1,2,3,16;
 1/38=20,80=1/6(3);
 7/8=1,25=202,44=-1,70=1,71=1,92=10/16,17;
 1/10=4,30=1,38=20,80=1/3;
 99//99;
 3/5=16,7=10,11=1,14=-2,25=1,30=1,70=5,71=2,116=1,140=1/1,2,3;
 4/5=5,16=3,69=2/1;
 5/5=2,38=5,98=1/2;
 8/6=3,8=1,10=1,19=11,30=-1/1;
 9/15=3,16=-3/6;
 11/6=1,8=1,15=11,17=12,24=-1,27=1,28=-2,29=300,32=6,42=3/1,2,10;
 10/6=2,21=1,60=-2/2;
 8/6=4,8=1,10=1,19=11,30=-1/11,4;
 10/5=1,20=4,60=-2/2;
 11/12=2,14=11,16=1,17=2,28=-2,42=3,76=2/2,10,12;
 6/7=2,8=2,9=2,10=2,22=-1/1;
 7/7=1,10=1,12=2,25=1,44=2,70=1,71=1/1,2,3,16;
 1/38=20,80=1/6(-12);
 7/8=1,25=202,44=-1,70=1,71=1,92=10/16,17;
 1/10=4,30=1,38=20,80=1/3;
 99//99;
 Structure from the checkpoint file:  "/scr/Gau-1446.chk"
 ----
 blah
 ----
 Charge =  0 Multiplicity = 1
 Redundant internal coordinates found in file.  (old form).
 C,0,1.0326940614,-0.3071510741,-0.0003064174
 O,0,2.2337566456,-0.1696735872,0.0006840857
 O,0,0.1794064839,0.7588151831,-0.0007580618
 H,0,-0.7322095221,0.4278754393,-0.0016233186
 H,0,0.5179403312,-1.289512961,-0.0010462879
 Recover connectivity data from disk.
 Numerical evaluation of third derivatives.
 Nuclear step= 0.010000 Angstroms, electric field step= 0.000333 atomic units, NStep=1.

 GradGradGradGradGradGradGradGradGradGradGradGradGradGradGradGradGradGrad
 Berny optimization.
 Initialization pass.
                           ----------------------------
                           !    Initial Parameters    !
                           ! (Angstroms and Degrees)  !
 --------------------------                            --------------------------
 ! Name  Definition              Value          Derivative Info.                !
 --------------------------------------------------------------------------------
 ! R1    R(1,2)                  1.2089         calculate D2E/DX2 analytically  !
 ! R2    R(1,3)                  1.3654         calculate D2E/DX2 analytically  !
 ! R3    R(1,5)                  1.1091         calculate D2E/DX2 analytically  !
 ! R4    R(3,4)                  0.9698         calculate D2E/DX2 analytically  !
 ! A1    A(2,1,3)              122.1468         calculate D2E/DX2 analytically  !
 ! A2    A(2,1,5)              124.1842         calculate D2E/DX2 analytically  !
 ! A3    A(3,1,5)              113.669          calculate D2E/DX2 analytically  !
 ! A4    A(1,3,4)              108.7245         calculate D2E/DX2 analytically  !
 ! D1    D(2,1,3,4)            179.996          calculate D2E/DX2 analytically  !
 ! D2    D(2,1,3,5)            179.9935         calculate D2E/DX2 analytically  !
 ! D3    D(5,1,3,4)              0.0025         calculate D2E/DX2 analytically  !
 --------------------------------------------------------------------------------
 Trust Radius=3.00D-01 FncErr=1.00D-07 GrdErr=1.00D-07 EigMax=2.50D+02 EigMin=1.00D-04
 Number of steps in this run=      2 maximum allowed number of steps=      2.
 GradGradGradGradGradGradGradGradGradGradGradGradGradGradGradGradGradGrad

                          Input orientation:                          
 ---------------------------------------------------------------------
 Center     Atomic      Atomic             Coordinates (Angstroms)
 Number     Number       Type             X           Y           Z
 ---------------------------------------------------------------------
      1          6           0        1.032694   -0.307151   -0.000306
      2          8           0        2.233757   -0.169674    0.000684
      3          8           0        0.179406    0.758815   -0.000758
      4          1           0       -0.732210    0.427875   -0.001623
      5          1           0        0.517940   -1.289513   -0.001046
 ---------------------------------------------------------------------
                    Distance matrix (angstroms):
                    1          2          3          4          5
     1  C    0.000000
     2  O    1.208905   0.000000
     3  O    1.365424   2.254429   0.000000
     4  H    1.911845   3.025562   0.969828   0.000000
     5  H    1.109057   2.048919   2.076115   2.124217   0.000000
 Stoichiometry    CH2O2
 Framework group  C1[X(CH2O2)]
 Deg. of freedom     9
 Full point group                 C1      NOp   1
 Largest Abelian subgroup         C1      NOp   1
 Largest concise Abelian subgroup C1      NOp   1
                         Standard orientation:                         
 ---------------------------------------------------------------------
 Center     Atomic      Atomic             Coordinates (Angstroms)
 Number     Number       Type             X           Y           Z
 ---------------------------------------------------------------------
      1          6           0       -0.131786    0.368549    0.000024
      2          8           0       -1.186318   -0.222562   -0.000008
      3          8           0        1.067255   -0.284663   -0.000001
      4          1           0        1.780054    0.372971   -0.000031
      5          1           0       -0.036828    1.473534   -0.000039
 ---------------------------------------------------------------------
 Rotational constants (GHZ):          84.7640554          11.4652286          10.0992051
 Standard basis: Aug-CC-pVDZ (5D, 7F)
 There are    93 symmetry adapted cartesian basis functions of A   symmetry.
 There are    87 symmetry adapted basis functions of A   symmetry.
    87 basis functions,   151 primitive gaussians,    93 cartesian basis functions
    12 alpha electrons       12 beta electrons
       nuclear repulsion energy        69.2787059284 Hartrees.
 NAtoms=    5 NActive=    5 NUniq=    5 SFac= 1.00D+00 NAtFMM=   60 NAOKFM=F Big=F
 Integral buffers will be    131072 words long.
 Raffenetti 1 integral format.
 Two-electron integral symmetry is turned on.
 One-electron integrals computed using PRISM.
 NBasis=    87 RedAO= T EigKep=  6.41D-04  NBF=    87
 NBsUse=    87 1.00D-06 EigRej= -1.00D+00 NBFU=    87
 Initial guess from the checkpoint file:  "/scr/Gau-1446.chk"
 B after Tr=    -0.000000    0.000000    0.000000
         Rot=    1.000000    0.000000   -0.000000   -0.000000 Ang=   0.00 deg.
 Keep R1 ints in memory in canonical form, NReq=15722566.
 Requested convergence on RMS density matrix=1.00D-08 within 128 cycles.
 Requested convergence on MAX density matrix=1.00D-06.
 Requested convergence on             energy=1.00D-06.
 No special actions if energy rises.
 SCF Done:  E(RHF) =  -188.787079446     A.U. after    1 cycles
            NFock=  1  Conv=0.65D-09     -V/T= 2.0023
 ExpMin= 2.97D-02 ExpMax= 1.17D+04 ExpMxC= 4.01D+02 IAcc=3 IRadAn=         5 AccDes= 0.00D+00
 HarFok:  IExCor=  205 AccDes= 0.00D+00 IRadAn=         5 IDoV=-2 UseB2=F ITyADJ=14
 ICtDFT= 12500011 ScaDFX=  1.000000  1.000000  1.000000  1.000000
 Range of M.O.s used for correlation:     4    87
 NBasis=    87 NAE=    12 NBE=    12 NFC=     3 NFV=     0
 NROrb=     84 NOA=     9 NOB=     9 NVA=    75 NVB=    75

 **** Warning!!: The largest alpha MO coefficient is  0.12132060D+02

 Disk-based method using ON**2 memory for  9 occupieds at a time.
 Permanent disk used for amplitudes=      993150 words.
 Estimated scratch disk usage=    14213193 words.
 Actual    scratch disk usage=    13494345 words.
 JobTyp=1 Pass  1:  I=   4 to  12 NPSUse= 40 ParTrn=T ParDer=T DoDerP=T.
 (rs|ai) integrals will be sorted in core.
 Spin components of T(2) and E(2):
     alpha-alpha T2 =       0.2130469761D-01 E2=     -0.7111331489D-01
     alpha-beta  T2 =       0.1144807100D+00 E2=     -0.3905664389D+00
     beta-beta   T2 =       0.2130469761D-01 E2=     -0.7111331489D-01
 ANorm=    0.1075681228D+01
 E2 =    -0.5327930687D+00 EUMP2 =    -0.18931987251495D+03
 G2DrvN: will do     6 centers at a time, making    1 passes.
 Calling FoFCou, ICntrl=  3107 FMM=F I1Cent=   0 AccDes= 0.00D+00.
 End of G2Drv F.D. properties file   721 does not exist.
 End of G2Drv F.D. properties file   722 does not exist.
 End of G2Drv F.D. properties file   788 does not exist.
          IDoAtm=11111
          Differentiating once with respect to electric field.
                with respect to dipole field.
          Differentiating once with respect to nuclear coordinates.
 Keep R1 ints in memory in canonical form, NReq=15723448.
          There are    18 degrees of freedom in the 1st order CPHF.  IDoFFX=6 NUNeed=    18.
     15 vectors produced by pass  0 Test12= 5.00D-15 5.56D-09 XBig12= 6.66D+00 1.50D+00.
 AX will form    15 AO Fock derivatives at one time.
     15 vectors produced by pass  1 Test12= 5.00D-15 5.56D-09 XBig12= 6.37D-01 1.66D-01.
     15 vectors produced by pass  2 Test12= 5.00D-15 5.56D-09 XBig12= 2.95D-02 4.78D-02.
     15 vectors produced by pass  3 Test12= 5.00D-15 5.56D-09 XBig12= 6.42D-04 5.13D-03.
     15 vectors produced by pass  4 Test12= 5.00D-15 5.56D-09 XBig12= 5.83D-06 5.68D-04.
     15 vectors produced by pass  5 Test12= 5.00D-15 5.56D-09 XBig12= 5.20D-08 4.87D-05.
     15 vectors produced by pass  6 Test12= 5.00D-15 5.56D-09 XBig12= 3.35D-10 4.25D-06.
      5 vectors produced by pass  7 Test12= 5.00D-15 5.56D-09 XBig12= 2.35D-12 2.53D-07.
      3 vectors produced by pass  8 Test12= 5.00D-15 5.56D-09 XBig12= 1.32D-14 1.99D-08.
 InvSVY:  IOpt=1 It=  1 EMax= 6.66D-16
 Solved reduced A of dimension   113 with    15 vectors.
 End of Minotr F.D. properties file   721 does not exist.
 End of Minotr F.D. properties file   722 does not exist.
 End of Minotr F.D. properties file   788 does not exist.
 MDV=  6710886400.
 Form MO integral derivatives with frozen-active canonical formalism.
 Discarding MO integrals.
 Reordered first order wavefunction length =      1620000
 In DefCFB: NBatch=  1 ICI= 12 ICA= 75 LFMax= 75
            Large arrays: LIAPS=    29127600 LIARS=    14647500 words.
 Semi-Direct transformation.
 ModeAB=           2 MOrb=            12 LenV=    6710549617
 LASXX=      3552261 LTotXX=     3552261 LenRXX=     3552261
 LTotAB=     3673584 MaxLAS=     4563324 LenRXY=     4563324
 NonZer=     7104522 LenScr=    11412480 LnRSAI=           0
 LnScr1=           0 LExtra=           0 Total=     19528065
 MaxDsk=          -1 SrtSym=           F ITran=            4
 JobTyp=0 Pass  1:  I=   1 to  12.
 (rs|ai) integrals will be sorted in core.
 SymMOI:  orbitals are not symmetric.
 Spin components of T(2) and E(2):
     alpha-alpha T2 =       0.2130469761D-01 E2=     -0.7111331489D-01
     alpha-beta  T2 =       0.1144807100D+00 E2=     -0.3905664389D+00
     beta-beta   T2 =       0.2130469761D-01 E2=     -0.7111331489D-01
 ANorm=    0.1521242982D+01
 E2 =    -0.5327930687D+00 EUMP2 =    -0.18931987251495D+03
          IDoAtm=11111
          Differentiating once with respect to electric field.
                with respect to dipole field.
          Differentiating once with respect to nuclear coordinates.
          There are     1 degrees of freedom in the 1st order CPHF.  IDoFFX=0 NUNeed=     1.
 LinEq1:  Iter=  0 NonCon=     1 RMS=8.01D-03 Max=1.21D-01 NDo=     1
 LinEq1:  Iter=  1 NonCon=     1 RMS=2.44D-03 Max=2.51D-02 NDo=     1
 LinEq1:  Iter=  2 NonCon=     1 RMS=8.30D-04 Max=9.14D-03 NDo=     1
 LinEq1:  Iter=  3 NonCon=     1 RMS=3.00D-04 Max=3.32D-03 NDo=     1
 LinEq1:  Iter=  4 NonCon=     1 RMS=1.05D-04 Max=6.52D-04 NDo=     1
 LinEq1:  Iter=  5 NonCon=     1 RMS=3.99D-05 Max=4.94D-04 NDo=     1
 LinEq1:  Iter=  6 NonCon=     1 RMS=1.10D-05 Max=1.01D-04 NDo=     1
 LinEq1:  Iter=  7 NonCon=     1 RMS=2.63D-06 Max=1.76D-05 NDo=     1
 LinEq1:  Iter=  8 NonCon=     1 RMS=5.72D-07 Max=4.33D-06 NDo=     1
 LinEq1:  Iter=  9 NonCon=     1 RMS=1.08D-07 Max=5.76D-07 NDo=     1
 LinEq1:  Iter= 10 NonCon=     1 RMS=1.76D-08 Max=1.04D-07 NDo=     1
 LinEq1:  Iter= 11 NonCon=     1 RMS=2.36D-09 Max=1.15D-08 NDo=     1
 LinEq1:  Iter= 12 NonCon=     1 RMS=3.34D-10 Max=1.87D-09 NDo=     1
 LinEq1:  Iter= 13 NonCon=     0 RMS=5.55D-11 Max=3.00D-10 NDo=     1
 Linear equations converged to 1.000D-10 1.000D-09 after    13 iterations.
 End of Minotr F.D. properties file   721 does not exist.
 End of Minotr F.D. properties file   722 does not exist.
 End of Minotr F.D. properties file   788 does not exist.
 Symmetrizing basis deriv contribution to polar:
 IMax=3 JMax=2 DiffMx= 0.00D+00
 G2DrvN: will do     6 centers at a time, making    1 passes.
 Calling FoFCou, ICntrl=  3107 FMM=F I1Cent=   0 AccDes= 0.00D+00.
 End of G2Drv F.D. properties file   721 does not exist.
 End of G2Drv F.D. properties file   722 does not exist.
 End of G2Drv F.D. properties file   788 does not exist.
 R2 and R3 integrals will be kept in memory, NReq=    19930012.
 DD1Dir will call FoFMem   1 times, MxPair=       156
 NAB=    78 NAA=     0 NBB=     0.
 Discarding MO integrals.

 **********************************************************************

            Population analysis using the MP2 Density.

 **********************************************************************

 Orbital symmetries:
       Occupied  (A) (A) (A) (A) (A) (A) (A) (A) (A) (A) (A) (A)
       Virtual   (A) (A) (A) (A) (A) (A) (A) (A) (A) (A) (A) (A)
                 (A) (A) (A) (A) (A) (A) (A) (A) (A) (A) (A) (A)
                 (A) (A) (A) (A) (A) (A) (A) (A) (A) (A) (A) (A)
                 (A) (A) (A) (A) (A) (A) (A) (A) (A) (A) (A) (A)
                 (A) (A) (A) (A) (A) (A) (A) (A) (A) (A) (A) (A)
                 (A) (A) (A) (A) (A) (A) (A) (A) (A) (A) (A) (A)
                 (A) (A) (A)
 The electronic state is 1-A.
 Alpha  occ. eigenvalues --  -20.64090 -20.57785 -11.41377  -1.47054  -1.38033
 Alpha  occ. eigenvalues --   -0.87151  -0.79110  -0.67098  -0.63167  -0.60325
 Alpha  occ. eigenvalues --   -0.49295  -0.47041
 Alpha virt. eigenvalues --    0.02218   0.04782   0.08154   0.09478   0.12202
 Alpha virt. eigenvalues --    0.14733   0.15511   0.19835   0.20256   0.22570
 Alpha virt. eigenvalues --    0.23051   0.27740   0.28530   0.30650   0.31983
 Alpha virt. eigenvalues --    0.35677   0.35940   0.39981   0.42086   0.44428
 Alpha virt. eigenvalues --    0.46462   0.50742   0.57896   0.59108   0.60899
 Alpha virt. eigenvalues --    0.64490   0.66719   0.69370   0.70889   0.79450
 Alpha virt. eigenvalues --    0.83936   0.87862   0.93633   0.95147   1.06937
 Alpha virt. eigenvalues --    1.10956   1.17811   1.17909   1.21136   1.25850
 Alpha virt. eigenvalues --    1.26517   1.30760   1.42066   1.44124   1.54499
 Alpha virt. eigenvalues --    1.58157   1.63028   1.68906   1.79000   1.83996
 Alpha virt. eigenvalues --    1.86332   1.91800   1.97486   2.04628   2.09718
 Alpha virt. eigenvalues --    2.19508   2.22578   2.32547   2.40571   2.47709
 Alpha virt. eigenvalues --    2.66637   2.78574   2.86206   3.13789   3.27397
 Alpha virt. eigenvalues --    3.64771   3.65920   3.70096   3.71429   3.71448
 Alpha virt. eigenvalues --    3.76560   3.86502   3.97479   4.08519   4.24160
          Condensed to atoms (all electrons):
               1          2          3          4          5
     1  C    4.530185   0.403986   0.127024  -0.035297   0.143824
     2  O    0.403986   8.141396  -0.059364   0.002174  -0.053901
     3  O    0.127024  -0.059364   8.068321   0.307751  -0.016699
     4  H   -0.035297   0.002174   0.307751   0.580553  -0.024154
     5  H    0.143824  -0.053901  -0.016699  -0.024154   1.088857
 Mulliken charges:
               1
     1  C    0.830277
     2  O   -0.434291
     3  O   -0.427033
     4  H    0.168974
     5  H   -0.137927
 Sum of Mulliken charges =  -0.00000
[...]
 25028,-0.00192459,0.00000472,-0.26173896,0.02877821,-0.00008681,0.0000
 4493,0.03961013,0.00001010,0.00000668,-0.00889266,0.00021838,-0.000200
 07,-0.05758870,0.03843690,0.00353862,0.00005080,0.00730636,-0.00644211
 ,0.00000226,-0.18568232,0.13573333,-0.00014322,0.14278994,-0.00964165,
 0.00582007,-0.00000201,-0.00150042,0.00089428,-0.00000132,0.14752345,0
 .13005591,0.00015375,-0.13304119,-0.14025461,0.00004626,0.00000994,-0.
 01942631,0.00000469,-0.00000594,0.00209232,-0.00014032,0.00014332,0.02
 189007,0.00009274,-0.00014848,-0.00460541,0.01233278,0.00803758,0.0000
 1783,-0.00786107,-0.00397466,-0.00001060,0.00481408,0.00578264,0.00000
 155,-0.00285088,-0.00334018,-0.00000337,-0.00643491,0.00916847,-0.0130
 5267,0.00000420,-0.00264467,-0.00232504,-0.00000415,-0.00022977,-0.011
 11892,-0.00000528,0.00021135,0.00348435,0.00000116,-0.00650538,0.02301
 228,0.00001788,0.00000215,-0.00775367,-0.00000983,-0.00000501,0.003588
 65,-0.00000007,0.00000072,0.00498115,-0.00000258,-0.00000194,0.0000493
 2,-0.00000541,0.00000408,-0.00086545,0.09524808,-0.07908271,0.11854168
 ,0.00007463,-0.00002774,-0.02515695,-0.14689195,-0.02485439,-0.0001416
 9,0.17410165,-0.01274975,0.01076076,-0.00001194,0.03504687,-0.00063829
 ,-0.00013945,-0.00002228,0.02211947,0.00017655,0.00003723,-0.03420218,
 -0.03002299,0.02720087,-0.00001762,-0.00098431,0.00593707,-0.00000055,
 0.01066771,0.03636339,-0.02741341,0.00002279,0.00424897,0.00201658,0.0
 0000377,-0.01691448,-0.00356230,-0.00001654,0.00001666,-0.00111124,-0.
 00000078,0.00000462,0.00159728,-0.00000629,-0.00001839,0.01170558,-0.0
 1100630,0.00173924,-0.00001305,0.00009740,0.00055143,0.00000098,0.0236
 3349,-0.01304057,0.00001986,-0.01265340,0.00180513,0.00085269,0.000000
 60,0.00001694,-0.00088014,-0.00000001,-0.01280058,-0.01217305,-0.00001
 322,0.01169349,0.01085056,-0.00001253,0.00000043,0.00469976,0.00000066
 ,0.00000047,-0.00084055,0.00001980,-0.00001347,-0.00264729,-0.00000821
 ,0.00001262,-0.00035246,0.09267315,0.07499699,0.00009773,-0.02632280,-
 0.02878562,-0.00003753,-0.00329390,-0.01065731,0.00000375,-0.00007120,
 -0.00071499,0.00000027,-0.06298525,0.05366395,-0.10274173,0.00001629,-
 0.01445840,-0.01125891,-0.00001871,-0.00342288,0.04113219,0.00001033,-
 0.00094359,0.00134993,-0.00000004,-0.03483908,0.07151852,0.00009389,0.
 00003294,-0.00055104,-0.00003475,-0.00003039,0.01132598,0.00000466,0.0
 0000530,-0.00954433,0.00000042,0.00000002,-0.00085946,-0.00006421,-0.0
 0000786,-0.00037116,0.96027480,0.28007838,-0.20655252,0.00089077,0.000
 19546,-0.07799512,-1.03072662,-0.15774653,-0.00093859,1.06434451,-0.14
 076706,0.06596948,-0.00012137,0.14125264,-0.07466020,-0.00093510,-0.00
 013442,0.10051931,0.00097243,0.00012230,-0.11164517,0.07556186,-0.1007
 4146,0.00003999,-0.02535400,0.01005283,-0.00001820,-0.00399148,-0.1024
 3920,0.10195514,-0.00005919,0.02170831,0.00984136,0.00001993,0.0635062
 5,-0.10946073,0.00004130,-0.00005951,-0.00232826,-0.00001654,0.0000107
 6,0.00047147,0.00002317,0.00002995,-0.01246973,0.02202296,-0.00669649,
 0.00002613,-0.00038110,0.00052332,-0.00000172,-0.04667263,0.01344381,-
 0.00004596,0.02623539,-0.01308878,0.01026738,-0.00000568,0.00220944,-0
 .00282103,0.00000053,0.02033322,0.01681278,0.00001887,-0.00803358,-0.0
 2408849,0.00002439,-0.00000019,-0.01044226,-0.00000121,-0.00000082,0.0
 0172881,-0.00004426,0.00001292,0.01070698,0.00002341,-0.00001208,-0.00
 313892,-0.02713299,-0.01489390,-0.00001831,-0.00788279,-0.01106173,-0.
 00001740,0.00045625,0.00378084,-0.00000196,-0.00120462,-0.00142029,-0.
 00000233,0.03576415,-0.02378334,0.02836052,-0.00000921,-0.00742385,0.0
 0167039,-0.00000834,0.00684917,-0.01914855,-0.00000007,0.00076294,-0.0
 0017062,0.00000017,0.02359508,-0.01071173,-0.00002136,-0.00000134,-0.0
 0975368,-0.00001609,-0.00001087,0.00892558,-0.00000069,-0.00000360,0.0
 0361953,-0.00000186,-0.00000165,0.00114538,0.00004001,0.00001746,-0.00
 393682,-0.01503330,0.56605327,0.89631707,0.00023040,0.00077846,-0.0704
 6621,0.12828318,-0.05731216,0.00010111,-0.11311644,-0.00504344,-0.0432
 0013,-0.00001135,0.02002244,0.01996861,0.00011792,-0.00005141,-0.02370
 876,-0.00008996,0.00001959,0.00934068,0.03787234,-0.00915632,0.0000448
 0,-0.00612623,-0.00279688,-0.00000670,-0.04041662,-0.05794370,-0.02134
 741,-0.00005205,0.01267878,0.00562848,0.00001113,0.00746596,0.02453361
 ,0.00003236,-0.00000902,-0.01773092,-0.00000343,-0.00000122,0.00174243
 ,-0.00003895,0.00001186,0.00687108,-0.00161091,-0.00281994,-0.00000517
 ,-0.00030585,0.00157023,0.00000078,0.01342881,0.00389497,0.00001608,-0
 .01185855,-0.00418418,-0.00181523,-0.00000463,0.00265126,0.00039918,0.
 00000232,0.00450538,-0.00286861,0.00000416,-0.00506473,0.00263736,-0.0
 0000548,-0.00000382,0.00327575,0.00000102,0.00000166,-0.00060363,0.000
 01633,0.00000356,-0.00393330,-0.00001312,-0.00000413,0.00161581,-0.149
 51131,-0.49676486,-0.00037114,-0.00873465,-0.01375236,-0.00002205,-0.0
 0475830,0.03390399,-0.00000607,0.00034651,0.00209228,0.00000125,0.1626
 5774,-0.49888196,-0.82995430,-0.00071043,0.02195968,0.01720386,0.00001
 837,-0.00001814,-0.00594607,-0.00000578,0.00241947,0.00164730,0.000002
 73,0.47452095,0.81704921,-0.00037521,-0.00071422,0.10863014,-0.0000087
 4,-0.00000868,0.01322928,-0.00001549,0.00002550,0.01305071,0.00000143,
 0.00000227,-0.00035463,0.00039801,0.00069512,-0.13455550,0.02387625,0.
 01135569,-0.01424298,0.00001675,0.00000408,0.00934249,0.00881933,0.005
 47100,0.00001133,-0.00728571,-0.00278451,-0.00574372,-0.00000289,-0.00
 293158,0.00624158,0.00000935,0.00000394,-0.00404380,-0.00000908,-0.000
 00159,0.00335090,-0.01896151,-0.00775168,-0.00001076,0.00005704,0.0064
 0606,0.00000372,1.73545945,-0.04538881,0.02397359,-0.00003066,-0.00857
 637,0.00485888,-0.00000500,0.74324170,-0.00224674,-0.00002004,0.000002
 23,-0.00867393,-0.00000034,0.00000718,-0.00234189,0.00190247,0.0007026
 7,-0.26459294,-0.00914164,-0.00712151,-0.00001186,-0.00260011,-0.00048
 700,-0.00000483,-1.71537139,-0.69179841,-0.00188045,1.72263092,0.03941
 406,0.00603426,0.00003488,0.00486223,-0.00673579,0.00000131,-0.7431334
 2,-0.02625824,-0.00071256,0.70272432,0.02587645,-0.00000020,-0.0000052
 8,0.00235221,-0.00000326,-0.00000298,0.00311276,-0.00189371,-0.0006688
 8,0.27417317,0.00189258,0.00067909,-0.27765995,-0.00459244,-0.00195351
 ,-0.00000546,0.00100945,-0.00020297,0.00000085,-0.00118359,0.00252190,
 -0.00000164,0.00448223,-0.00386719,0.00000459,0.00028435,-0.00259644,-
 0.01002116,-0.00000541,0.00117473,0.00137905,0.00000134,0.00123734,-0.
 00032750,0.00000047,-0.00331740,0.00108332,-0.00000196,0.00350177,0.00
 788629,-0.00000585,-0.00000498,0.00102303,0.00000134,0.00000028,-0.000
 07797,-0.00000173,0.00000187,0.00143559,0.00000457,-0.00000273,-0.0019
 7818,0.00000166,0.00000555,-0.00040248,-0.04793775,-0.01720327,-0.0095
 1924,-0.00006478,0.00000176,0.01794398,0.01559966,-0.00193206,0.000011
 95,-0.01846705,0.00601503,0.00265000,-0.00000306,-0.00274224,-0.001027
 45,0.00001273,-0.00001058,-0.00013739,-0.00001227,0.00000490,-0.002519
 14,0.03244589,-0.00088371,0.00004788,0.00199717,-0.00398249,-0.0000057
 8,-1.16465326,0.04016484,0.00494772,0.00003096,0.00807340,-0.00589310,
 0.00000477,-0.48298006,-0.05591974,0.00006672,-0.00000147,-0.02342187,
 -0.00000909,-0.00000657,0.01327614,-0.00148985,-0.00052561,0.42558296,
 -0.00456125,0.01883222,-0.00000820,-0.00018773,0.00020573,0.00001138,1
 .12914567,0.43347865,0.00143062,-1.12037094,-0.02800479,-0.00733859,-0
 .00002864,-0.00473255,0.00549147,-0.00000026,0.48778636,0.05804536,0.0
 0053561,-0.45510367,-0.05592196,-0.00001926,0.00001147,0.01070939,0.00
 000613,0.00000480,-0.01148728,0.00144732,0.00048960,-0.41344549,-0.001
 42740,-0.00050684,0.41036306,0.00445346,0.00118682,0.00001316,0.001057
 94,0.00050397,-0.00000606,0.00106455,0.00126317,0.00000161,-0.00402575
 ,0.00005465,-0.00000680,-0.00255021,-0.00097182,0.00926011,-0.00000102
 ,0.00133345,-0.00122093,0.00000118,0.00005990,-0.00118023,-0.00000196,
 0.00258708,-0.00027629,0.00000098,-0.00300861,-0.00658266,0.00000459,-
 0.00000118,-0.00509410,0.00000328,-0.00000006,0.00086765,0.00000044,0.
 00000029,-0.00199172,-0.00000640,0.00000014,0.00386032,-0.00000191,0.0
 0000082,0.00235784,-0.10514509,0.00231524,0.01515588,-0.00009014,0.000
 02923,0.00081251,0.08318359,0.00333144,0.00007067,-0.06596698,0.006464
 96,-0.01174884,-0.00000440,-0.01277443,0.01414620,0.00007018,-0.000008
 43,-0.00468085,-0.00005539,-0.00000172,0.00233569,0.02105540,-0.004163
 29,0.00001426,-0.01605850,0.00308614,-0.00000914,-0.12203686,-0.003756
 92,-0.00275061,-0.00001552,0.00911608,-0.00405125,0.00000988,-0.059924
 57,0.02606044,0.00002460,-0.00001278,0.00300870,-0.00001633,0.00000351
 ,0.00223040,-0.00013095,-0.00004251,0.01017843,-0.00063304,-0.00023743
 ,0.00000075,-0.00084370,0.00128333,0.00000034,0.11802077,0.05511431,0.
 00012481,-0.11605093,-0.00412208,-0.00041985,-0.00000324,-0.00002856,0
 .00153672,-0.00000092,0.05991778,-0.02098690,0.00005276,-0.05678280,0.
 02068230,-0.00000152,-0.00000020,-0.00037334,-0.00000149,0.00000105,0.
 00033350,0.00012821,0.00004895,-0.01502149,-0.00012505,-0.00004998,0.0
 1479888,0.00153914,-0.00124596,0.00000446,-0.00031441,0.00193999,-0.00
 000600,-0.00098081,-0.00054889,-0.00000213,-0.00049310,0.00101565,-0.0
 0000016,0.00024918,-0.00090120,-0.00023656,-0.00000607,0.00035547,0.00
 011717,0.00000119,0.00108394,0.00172833,-0.00000098,0.00062259,-0.0008
 1227,0.00000019,-0.00116079,-0.00079666,-0.00000313,-0.00000781,0.0012
 3298,0.00000254,0.00000157,-0.00021876,-0.00000239,-0.00000079,-0.0003
 9604,-0.00000085,0.00000137,0.00026244,0.00000382,0.00000567,-0.000880
 62,-0.19613933,-0.26178442,-0.46530586,-0.00030799,-0.00036670,0.06379
 807,0.09233089,0.04061265,0.00007332,-0.08429293,0.00991118,0.01989029
 ,0.00000210,-0.01294614,-0.00729904,0.00005554,0.00002304,0.01901230,-
 0.00007101,-0.00000781,0.00459888,0.00577000,-0.01482364,-0.00001742,0
 .00278348,0.00151786,0.00001473,-0.00779507,0.01895480,0.03378334,0.00
 000826,-0.00686636,-0.00102548,-0.00000026,0.00677158,-0.02320095,0.00
 000296,-0.00002108,0.02370736,0.00000243,0.00000535,-0.00814859,-0.000
 00850,0.00000837,-0.00162231,0.00243787,0.00218003,0.00000388,-0.00070
 100,-0.00045937,0.00000056,-0.00125618,-0.00315456,-0.00000346,0.00001
 679,0.00033469,-0.00078654,0.00000049,-0.00056036,-0.00032290,-0.00000
 162,-0.00162783,0.00241710,0.00000063,0.00232957,-0.00176541,0.0000039
 0,0.00000180,-0.00132573,-0.00000159,-0.00000079,-0.00005459,-0.000001
 72,-0.00000017,-0.00049404,-0.00000009,-0.00000011,0.00173811,0.095600
 57,0.23381538,0.00024821,-0.01012044,0.00197648,0.00000018,0.00049777,
 -0.01570546,0.00000656,-0.00049748,-0.00047608,-0.00000050,-0.08548042
 ,0.23258376,0.41241879,0.00035585,-0.02023979,-0.01124285,-0.00001336,
 0.00816203,-0.01197400,0.00000673,-0.00089567,0.00045776,-0.00000073,-
 0.21961032,-0.38965970,0.00024559,0.00036293,-0.10519200,-0.00000315,0
 .00000115,-0.01540799,0.00001290,-0.00001621,-0.01344243,-0.00000089,0
 .00000061,0.00013626,-0.00025446,-0.00034849,0.13390615,0.08352442,-0.
 22180340,0.16044240,0.00004825,-0.00011227,-0.04547146,0.03510923,0.02
 895876,0.00003907,-0.03508946,0.02477622,-0.00544687,0.00001171,-0.025
 58772,0.00429751,0.00003677,0.00001322,-0.00465350,-0.00003562,-0.0000
 1422,0.00383847,-0.10816638,0.18559997,-0.00008426,0.00123150,-0.00064
 055,0.00000516,-0.04299608,0.20174408,-0.16581164,0.00010551,-0.002855
 00,-0.00013430,0.00000153,-0.27021688,0.18198757,-0.00007042,0.0000953
 8,0.04776921,-0.00000375,0.00000171,0.00064052,-0.00008334,-0.00016849
 ,-0.03079102,-0.01939796,0.00318801,-0.00001778,0.00166168,0.00048130,
 0.00000204,0.15112487,0.07294402,0.00016324,-0.13281092,-0.01238194,-0
 .00184526,-0.00001159,-0.00021859,0.00308825,-0.00000070,0.08248182,-0
 .00798679,0.00007499,-0.07613536,0.01326204,-0.00002320,0.00000132,0.0
 0353119,0.00000043,0.00000074,0.00042825,0.00016768,0.00006727,-0.0206
 8763,-0.00014602,-0.00006689,0.01621325,0.00893070,0.00405666,0.000014
 73,-0.00291293,0.00097075,-0.00000835,-0.00119390,-0.00161622,-0.00000
 573,-0.00057766,0.00625407,0.00000110,-0.00424621,0.00766504,0.0126613
 7,0.00000665,-0.00029745,-0.00180458,0.00000017,0.00277563,-0.00805484
 ,-0.00000359,-0.00047797,-0.00651824,-0.00000244,-0.00966525,0.0037162
 9,0.00000859,0.00000235,-0.00117544,-0.00000013,0.00000006,-0.00025374
 ,-0.00000524,-0.00000582,0.00306891,-0.00000147,0.00000420,0.00051493,
 -0.00000175,-0.00000080,-0.00215466,0.01324891,-0.06812766,-0.00681957
 ,0.00002865,-0.00002592,-0.04667521,0.02479674,-0.02859724,0.00000685,
 -0.01900854,-0.01590269,0.00503032,-0.00002155,0.01543996,0.00242399,0
 .00000763,-0.00003291,0.00739134,-0.00000371,0.00002095,-0.00659423,-0
 .02246535,0.06995875,-0.00003340,-0.00471051,-0.00112529,-0.00000039,-
 0.78178228,0.13720210,0.01995724,0.00010216,0.02528933,-0.01873838,0.0
 0001875,-0.57338266,0.00969171,-0.00000465,0.00004662,0.03725507,-0.00
 000307,-0.00000381,0.00181468,-0.00086105,-0.00049308,0.04888003,-0.01
 988306,0.02362758,-0.00001175,0.00069229,0.00059330,0.00000446,0.80944
 850,0.41245375,0.00087059,-0.78859636,-0.05444944,-0.03498523,-0.00005
 597,-0.01170120,0.01322341,-0.00000638,0.49758743,-0.01072008,0.000446
 85,-0.43814040,0.04047423,-0.00003307,0.00001104,0.00224286,-0.0000005
 8,0.00000446,-0.00311297,0.00089501,0.00037449,-0.08749720,-0.00086005
 ,-0.00038837,0.08624473,0.00430277,0.00313856,0.00000964,-0.00176996,0
 .00099473,-0.00000800,-0.00049034,-0.00156252,-0.00000182,-0.00166137,
 0.00670361,-0.00000132,-0.00038109,0.00127769,0.01681723,0.00000127,-0
 .00043084,-0.00193932,-0.00000042,0.00696177,-0.00019048,0.00000342,0.
 00146577,-0.00799234,-0.00000162,-0.00927439,-0.00669510,0.00000144,0.
 00000117,-0.00021406,0.00000050,-0.00000005,0.00050118,-0.00000018,-0.
 00000233,-0.00045258,-0.00000326,0.00000387,0.00212257,0.00000149,-0.0
 0000266,-0.00195711,-0.06626545,-0.28827530,-0.46720320,-0.00014032,-0
 .00036061,-0.01291214,-0.01656542,0.02497528,-0.00002462,0.02329073,-0
 .02174503,0.03290642,-0.00002221,0.01403391,-0.00240979,-0.00004202,0.
 00001270,0.02606497,0.00004217,0.00002255,-0.02333595,0.00666735,-0.00
 966732,-0.00001767,0.00429237,0.00363211,0.00001347,-0.02480665,0.0393
 9021,0.00523709,0.00001941,-0.00062624,0.00656801,0.00000606,-0.004654
 87,0.01310754,0.00000642,-0.00002110,0.02413472,0.00000339,0.00000809,
 -0.00478714,-0.00000920,0.00000960,-0.01864276,0.00426449,-0.00259637,
 0.00000642,-0.00048376,0.00202630,0.00000036,0.01061102,0.00367681,0.0
 0000704,-0.01153604,0.00051287,-0.00027609,0.00000114,-0.00214569,-0.0
 0054627,-0.00000319,0.00528164,0.00270646,0.00000657,-0.00578645,0.001
 54251,0.00000605,-0.00000176,-0.00273245,-0.00000224,0.00000116,0.0007
 3992,0.00000963,0.00000569,0.00066068,-0.00001016,-0.00000568,-0.00061
 748,0.07189903,0.27556371,0.00017619,-0.01053392,0.00205271,-0.0000139
 8,0.00323592,-0.03778590,-0.00000765,-0.00285570,0.00213763,-0.0000032
 9,-0.06174534,0.27011725,0.42933578,0.00036226,-0.03623726,-0.03651837
 ,-0.00003811,0.00540845,-0.02761909,-0.00000315,0.00267971,-0.00342661
 ,0.00000059,-0.24196815,-0.36177171,0.00016987,0.00037077,-0.03455509,
 -0.00001871,-0.00000959,0.00131820,0.00000377,-0.00004076,-0.00136550,
 -0.00000366,0.00000116,0.00194933,-0.00015127,-0.00032159,0.03265307,1
 .25044259,0.13118425,-0.18724232,0.00119644,0.00013188,-0.22337264,-1.
 26434267,-0.17849284,-0.00120945,1.27155307,-0.18591579,0.18137029,-0.
 00016169,0.18389015,-0.17724235,-0.00121276,-0.00015710,0.20367797,0.0
 0122022,0.00015942,-0.20515615,0.02227024,0.01504447,0.00000455,-0.002
 90938,0.00390076,0.00000475,-0.04179609,0.05464970,-0.04934880,0.00001
 711,-0.00766705,-0.00082792,-0.00000183,-0.05299333,0.04073748,0.00002
 548,-0.00001286,0.02070811,-0.00000711,0.00000599,-0.00137989,-0.00003
 717,-0.00002440,-0.01691050,-0.00386392,0.00530834,-0.00000251,-0.0020
 6725,-0.00017296,-0.00000112,0.01848128,0.00967075,0.00001604,-0.01278
 061,-0.01159488,0.00309861,-0.00000865,0.00366617,-0.00087188,0.000001
 34,0.02447880,0.01311879,0.00002578,-0.01557970,-0.01301532,-0.0000079
 8,0.00000513,0.00141357,-0.00000172,-0.00000079,0.00040168,0.00002208,
 0.00001344,-0.00034375,-0.00001181,-0.00001754,-0.00228513,-0.00450623
 ,0.02695579,0.00001097,-0.00223377,-0.00170215,-0.00001109,0.00395396,
 -0.00366007,0.00000277,0.00023049,-0.00097039,-0.00000057,0.00255555,0
 .01167672,0.05212222,0.00002136,-0.00139642,-0.00242813,-0.00000182,0.
 00956931,-0.00367953,0.00000548,0.00077358,-0.00233019,-0.00000024,-0.
 02062318,-0.04368437,-0.00000118,0.00003295,-0.00242701,-0.00000194,-0
 .00000293,0.00245638,0.00000580,-0.00000432,-0.00207395,-0.00000060,-0
 .00000093,0.00081364,-0.00000208,-0.00002478,0.00123095,0.20030144,1.5
 1711980,2.19824051,0.00114845,0.00218686,-0.60633197,-0.01260664,-0.02
 155695,-0.00000840,0.00807353,0.03288088,0.00173149,0.00002033,-0.0201
 2410,-0.00526769,0.00001019,-0.00002200,-0.01291615,-0.00000109,-0.000
 01210,0.00379069,0.00705193,0.00135257,0.00002031,-0.00337190,0.001724
 38,0.00000211,0.00770523,-0.04481704,0.01705936,-0.00004341,0.00310675
 ,-0.00871499,0.00000385,0.00420936,-0.01764283,0.00001800,0.00000175,-
 0.01492512,-0.00000645,0.00000181,0.00074979,0.00000181,0.00000531,0.0
 0321296,-0.00123219,0.00668282,-0.00000059,0.00009477,-0.00247073,0.00
 000064,-0.00100703,-0.00223743,-0.00000451,0.00350366,0.00376169,-0.00
 019014,0.00000298,0.00010761,0.00044795,-0.00000095,0.00004099,0.00047
 225,0.00000139,-0.00076057,-0.00392060,-0.00000234,0.00000510,0.002355
 87,-0.00000027,-0.00000233,-0.00025509,-0.00000186,-0.00000032,0.00075
 591,0.00000465,-0.00000296,-0.00093710,-0.19351454,-1.50359824,-0.0011
 5977,0.00781024,-0.01201043,-0.00001185,-0.01037822,0.03973837,-0.0000
 0885,-0.00135921,-0.00314972,-0.00000018,0.19744174,-1.50894533,-2.216
 84121,-0.00216676,0.03846668,0.01180323,0.00003120,-0.00732729,0.00882
 623,-0.00001026,-0.00121409,0.00319053,0.00000050,1.47902002,2.1930212
 2,-0.00117431,-0.00217172,0.63181738,0.00001621,-0.00000771,0.00863074
 ,-0.00002237,0.00003457,0.01020647,-0.00000019,-0.00000046,-0.00191959
 ,0.00118065,0.00214532,-0.64873500,-0.00879049,0.01113380,-0.01013118,
 -0.00001195,0.00003003,0.00265957,0.00075533,-0.00783593,-0.00000281,-
 0.00217944,0.00461312,0.00199211,-0.00000460,0.00234494,-0.00470881,-0
 .00000103,-0.00001579,0.00144650,0.00000115,0.00000720,-0.00063102,0.0
 1549132,-0.01350203,0.00001591,-0.00372306,-0.00628940,0.00000489,5.72
 944878,-0.06504769,0.00485936,-0.00006334,0.00228129,0.00931192,0.0000
 0928,2.67920101,-0.37775447,0.00001393,-0.00001615,-0.00782217,-0.0000
 0255,0.00000107,-0.00492922,0.00678305,0.00255983,-1.39324910,-0.00487
 638,0.01019808,-0.00000473,0.00496663,-0.00088173,0.00000139,-5.742302
 25,-2.62194832,-0.00679213,5.74042040,0.04904785,0.00638395,0.00004297
 ,0.00361681,-0.00728216,-0.00000124,-2.66034426,0.36536434,-0.00254158
 ,2.61672013,-0.36943499,0.00000345,0.00000884,0.00491261,0.00000168,-0
 .00000393,0.00388023,-0.00679995,-0.00250855,1.40260181,0.00679202,0.0
 0250461,-1.40745122,-0.00257979,0.00000608,0.00000358,0.00018055,0.000
 21307,-0.00000640,0.00108522,0.00551370,-0.00000229,0.00179159,-0.0090
 4053,0.00000280,-0.00047757,0.00025291,-0.00310424,-0.00000506,-0.0004
 0711,0.00068696,0.00000054,0.00093468,-0.00178113,-0.00000317,-0.00408
 816,0.00496886,-0.00000098,0.00330768,-0.00077044,-0.00000440,-0.00000
 693,-0.00119650,0.00000254,0.00000026,0.00023352,-0.00000390,0.0000027
 8,0.00339870,0.00000345,-0.00000477,-0.00394342,0.00000231,0.00000866,
 0.00150770\\@
 The archive entry for this job was punched.


 IF THERE IS ONE WAY BETTER THAN ANOTHER IT IS THE WAY OF NATURE.

                          -- ARISTOTLE
 Job cpu time:       0 days  3 hours 37 minutes 53.9 seconds.
 Elapsed time:       0 days  0 hours  5 minutes 39.6 seconds.
 File lengths (MBytes):  RWF=    411 Int=      0 D2E=      0 Chk=     40 Scr=      1
 Normal termination of Gaussian 16 at Thu Mar 20 22:12:42 2025.
