blah                                                                    
SP        RHF                                                         Aug-CC-pVDZ         
Number of atoms                            I                5
Info1-9                                    I   N=           9
          17          14           0           0           0         110
           1           1           2
Full Title                                 C   N=           1
blah        
Route                                      C   N=           2
# HF/aug-cc-pVDZ pop=nbo
Charge                                     I                0
Multiplicity                               I                1
Number of electrons                        I               24
Number of alpha electrons                  I               12
Number of beta electrons                   I               12
Number of basis functions                  I               87
Number of independent functions            I               87
Number of point charges in /Mol/           I                0
Number of translation vectors              I                0
Atomic numbers                             I   N=           5
           6           8           8           1           1
Nuclear charges                            R   N=           5
  6.00000000E+00  8.00000000E+00  8.00000000E+00  1.00000000E+00  1.00000000E+00
Current cartesian coordinates              R   N=          15
  2.49040134E-01  6.96456675E-01 -4.51959498E-05  2.24181646E+00 -4.20581839E-01
  1.52752862E-05 -2.01681935E+00 -5.37934407E-01  2.04720330E-06 -3.36381386E+00
  7.04814159E-01  5.87389870E-05  6.95961651E-02  2.78457575E+00  7.38567960E-05
Number of symbols in /Mol/                 I                0
Int Atom Types                             I   N=           5
           0           0           0           0           0
Force Field                                I                0
Atom Types                                 C   N=           5
                                                            
MM charges                                 R   N=           5
  0.00000000E+00  0.00000000E+00  0.00000000E+00  0.00000000E+00  0.00000000E+00
Integer atomic weights                     I   N=           5
          12          16          16           1           1
Real atomic weights                        R   N=           5
  1.20000000E+01  1.59949146E+01  1.59949146E+01  1.00782504E+00  1.00782504E+00
Atom fragment info                         I   N=           5
           0           0           0           0           0
Atom residue num                           I   N=           5
           0           0           0           0           0
Nuclear spins                              I   N=           5
           0           0           0           1           1
Nuclear ZEff                               R   N=           5
 -3.60000000E+00 -5.60000000E+00 -5.60000000E+00 -1.00000000E+00 -1.00000000E+00
Nuclear ZNuc                               R   N=           5
  6.00000000E+00  8.00000000E+00  8.00000000E+00  1.00000000E+00  1.00000000E+00
Nuclear QMom                               R   N=           5
  0.00000000E+00  0.00000000E+00  0.00000000E+00  0.00000000E+00  0.00000000E+00
Nuclear GFac                               R   N=           5
  0.00000000E+00  0.00000000E+00  0.00000000E+00  2.79284600E+00  2.79284600E+00
MicOpt                                     I   N=           5
          -1          -1          -1          -1          -1
Number of residues                         I                0
Number of secondary structures             I                0
SymInf integers                            I   N=          26
           1           1           1           1           1           0
           0           0           0           0           0           0
           0           0           0           0           0           0
           0           0           0           0           0           0
           0           0
RotTr to input orientation                 R   N=          12
 -1.00000000E+00  3.08472374E-07  0.00000000E+00  3.08472374E-07  1.00000000E+00
 -0.00000000E+00  0.00000000E+00  0.00000000E+00 -1.00000000E+00  4.72431531E-07
 -7.87385886E-08  1.57477177E-07
Number of contracted shells                I               37
Number of primitive shells                 I               83
Pure/Cartesian d shells                    I                0
Pure/Cartesian f shells                    I                0
Highest angular momentum                   I                2
Largest degree of contraction              I                7
Shell types                                I   N=          37
           0           0           0           0           1           1
           1          -2          -2           0           0           0
           0           1           1           1          -2          -2
           0           0           0           0           1           1
           1          -2          -2           0           0           0
           1           1           0           0           0           1
           1
Number of primitives per shell             I   N=          37
           7           7           1           1           3           1
           1           1           1           7           7           1
           1           3           1           1           1           1
           7           7           1           1           3           1
           1           1           1           3           1           1
           1           1           3           1           1           1
           1
Shell to atom map                          I   N=          37
           1           1           1           1           1           1
           1           1           1           2           2           2
           2           2           2           2           2           2
           3           3           3           3           3           3
           3           3           3           4           4           4
           4           4           5           5           5           5
           5
Primitive exponents                        R   N=          83
  6.66500000E+03  1.00000000E+03  2.28000000E+02  6.47100000E+01  2.10600000E+01
  7.49500000E+00  2.79700000E+00  6.66500000E+03  2.28000000E+02  6.47100000E+01
  2.10600000E+01  7.49500000E+00  2.79700000E+00  5.21500000E-01  1.59600000E-01
  4.69000000E-02  9.43900000E+00  2.00200000E+00  5.45600000E-01  1.51700000E-01
  4.04100000E-02  5.50000000E-01  1.51000000E-01  1.17200000E+04  1.75900000E+03
  4.00800000E+02  1.13700000E+02  3.70300000E+01  1.32700000E+01  5.02500000E+00
  1.17200000E+04  4.00800000E+02  1.13700000E+02  3.70300000E+01  1.32700000E+01
  5.02500000E+00  1.01300000E+00  3.02300000E-01  7.89600000E-02  1.77000000E+01
  3.85400000E+00  1.04600000E+00  2.75300000E-01  6.85600000E-02  1.18500000E+00
  3.32000000E-01  1.17200000E+04  1.75900000E+03  4.00800000E+02  1.13700000E+02
  3.70300000E+01  1.32700000E+01  5.02500000E+00  1.17200000E+04  4.00800000E+02
  1.13700000E+02  3.70300000E+01  1.32700000E+01  5.02500000E+00  1.01300000E+00
  3.02300000E-01  7.89600000E-02  1.77000000E+01  3.85400000E+00  1.04600000E+00
  2.75300000E-01  6.85600000E-02  1.18500000E+00  3.32000000E-01  1.30100000E+01
  1.96200000E+00  4.44600000E-01  1.22000000E-01  2.97400000E-02  7.27000000E-01
  1.41000000E-01  1.30100000E+01  1.96200000E+00  4.44600000E-01  1.22000000E-01
  2.97400000E-02  7.27000000E-01  1.41000000E-01
Contraction coefficients                   R   N=          83
  6.93516317E-04  5.34150243E-03  2.71366714E-02  1.01992385E-01  2.75508636E-01
  4.51086433E-01  2.87565745E-01  7.73354740E-06  2.78072137E-04 -2.57875654E-03
 -8.95087684E-03 -1.06058855E-01 -1.31517686E-01  1.09948660E+00  1.00000000E+00
  1.00000000E+00  5.69792516E-02  3.13207212E-01  7.60376742E-01  1.00000000E+00
  1.00000000E+00  1.00000000E+00  1.00000000E+00  7.11864434E-04  5.48520199E-03
  2.79099296E-02  1.05133208E-01  2.84002490E-01  4.51673946E-01  2.73208126E-01
  7.69030046E-06  3.13484579E-04 -2.96614853E-03 -1.08753543E-02 -1.20753817E-01
 -1.06275264E-01  1.09597548E+00  1.00000000E+00  1.00000000E+00  6.26791663E-02
  3.33536566E-01  7.41239642E-01  1.00000000E+00  1.00000000E+00  1.00000000E+00
  1.00000000E+00  7.11864434E-04  5.48520199E-03  2.79099296E-02  1.05133208E-01
  2.84002490E-01  4.51673946E-01  2.73208126E-01  7.69030046E-06  3.13484579E-04
 -2.96614853E-03 -1.08753543E-02 -1.20753817E-01 -1.06275264E-01  1.09597548E+00
  1.00000000E+00  1.00000000E+00  6.26791663E-02  3.33536566E-01  7.41239642E-01
  1.00000000E+00  1.00000000E+00  1.00000000E+00  1.00000000E+00  3.34987264E-02
  2.34800801E-01  8.13682958E-01  1.00000000E+00  1.00000000E+00  1.00000000E+00
  1.00000000E+00  3.34987264E-02  2.34800801E-01  8.13682958E-01  1.00000000E+00
  1.00000000E+00  1.00000000E+00  1.00000000E+00
Coordinates of each shell                  R   N=         111
  2.49040134E-01  6.96456675E-01 -4.51959498E-05  2.49040134E-01  6.96456675E-01
 -4.51959498E-05  2.49040134E-01  6.96456675E-01 -4.51959498E-05  2.49040134E-01
  6.96456675E-01 -4.51959498E-05  2.49040134E-01  6.96456675E-01 -4.51959498E-05
  2.49040134E-01  6.96456675E-01 -4.51959498E-05  2.49040134E-01  6.96456675E-01
 -4.51959498E-05  2.49040134E-01  6.96456675E-01 -4.51959498E-05  2.49040134E-01
  6.96456675E-01 -4.51959498E-05  2.24181646E+00 -4.20581839E-01  1.52752862E-05
  2.24181646E+00 -4.20581839E-01  1.52752862E-05  2.24181646E+00 -4.20581839E-01
  1.52752862E-05  2.24181646E+00 -4.20581839E-01  1.52752862E-05  2.24181646E+00
 -4.20581839E-01  1.52752862E-05  2.24181646E+00 -4.20581839E-01  1.52752862E-05
  2.24181646E+00 -4.20581839E-01  1.52752862E-05  2.24181646E+00 -4.20581839E-01
  1.52752862E-05  2.24181646E+00 -4.20581839E-01  1.52752862E-05 -2.01681935E+00
 -5.37934407E-01  2.04720330E-06 -2.01681935E+00 -5.37934407E-01  2.04720330E-06
 -2.01681935E+00 -5.37934407E-01  2.04720330E-06 -2.01681935E+00 -5.37934407E-01
  2.04720330E-06 -2.01681935E+00 -5.37934407E-01  2.04720330E-06 -2.01681935E+00
 -5.37934407E-01  2.04720330E-06 -2.01681935E+00 -5.37934407E-01  2.04720330E-06
 -2.01681935E+00 -5.37934407E-01  2.04720330E-06 -2.01681935E+00 -5.37934407E-01
  2.04720330E-06 -3.36381386E+00  7.04814159E-01  5.87389870E-05 -3.36381386E+00
  7.04814159E-01  5.87389870E-05 -3.36381386E+00  7.04814159E-01  5.87389870E-05
 -3.36381386E+00  7.04814159E-01  5.87389870E-05 -3.36381386E+00  7.04814159E-01
  5.87389870E-05  6.95961651E-02  2.78457575E+00  7.38567960E-05  6.95961651E-02
  2.78457575E+00  7.38567960E-05  6.95961651E-02  2.78457575E+00  7.38567960E-05
  6.95961651E-02  2.78457575E+00  7.38567960E-05  6.95961651E-02  2.78457575E+00
  7.38567960E-05
Num ILSW                                   I              100
ILSW                                       I   N=         100
           0           0           0           0           2           0
           0           0           0           0           0          -1
           5           0           0           0           0           0
           0           0           1           0           0           0
           1           0           0           0           0           0
           0           0      100000           0          -1           0
           0           0           0           0           0           0
           0           0           0           1           0           0
           0 -2000000000           1           0           0           0
           0           0           4          52           0           0
           0           0           0           0           0           0
           0           0           0           0           0           1
           0           0           0           0           0           0
           0           0           0           0           0           0
           0           0           0           0           0           0
           0           0           0           0           0           0
           0           0           0           0
Num RLSW                                   I               52
RLSW                                       R   N=          52
  1.00000000E+00  1.00000000E+00  1.00000000E+00  1.00000000E+00  1.00000000E+00
  0.00000000E+00  0.00000000E+00  1.00000000E+00  0.00000000E+00  0.00000000E+00
  0.00000000E+00  0.00000000E+00  1.00000000E+00  0.00000000E+00  0.00000000E+00
  0.00000000E+00  0.00000000E+00  1.00000000E+00  0.00000000E+00  0.00000000E+00
  0.00000000E+00  0.00000000E+00  1.00000000E+00  0.00000000E+00  0.00000000E+00
  0.00000000E+00  0.00000000E+00  1.00000000E+00  0.00000000E+00  0.00000000E+00
  0.00000000E+00  0.00000000E+00  1.00000000E+00  0.00000000E+00  0.00000000E+00
  0.00000000E+00  0.00000000E+00  0.00000000E+00  1.00000000E+00  1.00000000E+00
  0.00000000E+00  1.00000000E+00  0.00000000E+00  0.00000000E+00  0.00000000E+00
  0.00000000E+00  0.00000000E+00  0.00000000E+00  0.00000000E+00  0.00000000E+00
  0.00000000E+00  0.00000000E+00
MxBond                                     I                3
NBond                                      I   N=           5
           3           1           2           1           1
IBond                                      I   N=          15
           2           3           5           1           0           0
           1           4           0           3           0           0
           1           0           0
RBond                                      R   N=          15
  2.00000000E+00  1.50000000E+00  1.00000000E+00  2.00000000E+00  0.00000000E+00
  0.00000000E+00  1.50000000E+00  1.00000000E+00  0.00000000E+00  1.00000000E+00
  0.00000000E+00  0.00000000E+00  1.00000000E+00  0.00000000E+00  0.00000000E+00
Virial Ratio                               R      2.002324656231203E+00
SCF Energy                                 R     -1.887870795411441E+02
Total Energy                               R     -1.887870795411441E+02
RMS Density                                R      1.816003633659775E-09
Job Status                                 I                1
Nuclear derivative order                   I                0
External E-field                           R   N=          35
  0.00000000E+00  0.00000000E+00  0.00000000E+00  0.00000000E+00  0.00000000E+00
  0.00000000E+00  0.00000000E+00  0.00000000E+00  0.00000000E+00  0.00000000E+00
  0.00000000E+00  0.00000000E+00  0.00000000E+00  0.00000000E+00  0.00000000E+00
  0.00000000E+00  0.00000000E+00  0.00000000E+00  0.00000000E+00  0.00000000E+00
  0.00000000E+00  0.00000000E+00  0.00000000E+00  0.00000000E+00  0.00000000E+00
  0.00000000E+00  0.00000000E+00  0.00000000E+00  0.00000000E+00  0.00000000E+00
  0.00000000E+00  0.00000000E+00  0.00000000E+00  0.00000000E+00  0.00000000E+00
IOpCl                                      I                0
IROHF                                      I                0
Alpha Orbital Energies                     R   N=          87
 -2.06408971E+01 -2.05778511E+01 -1.14137703E+01 -1.47053776E+00 -1.38033298E+00
 -8.71512034E-01 -7.91101797E-01 -6.70985061E-01 -6.31669913E-01 -6.03254953E-01
 -4.92945736E-01 -4.70414089E-01  2.21792499E-02  4.78162325E-02  8.15355862E-02
  9.47832619E-02  1.22018374E-01  1.47334225E-01  1.55111029E-01  1.98351103E-01
  2.02559972E-01  2.25699483E-01  2.30509859E-01  2.77397644E-01  2.85300568E-01
  3.06503879E-01  3.19827166E-01  3.56772442E-01  3.59401989E-01  3.99805953E-01
  4.20864646E-01  4.44282735E-01  4.64615906E-01  5.07424374E-01  5.78957620E-01
  5.91082252E-01  6.08985413E-01  6.44897610E-01  6.67193549E-01  6.93701316E-01
  7.08894557E-01  7.94495847E-01  8.39364235E-01  8.78621305E-01  9.36331736E-01
  9.51465903E-01  1.06937363E+00  1.10956080E+00  1.17810707E+00  1.17909447E+00
  1.21136502E+00  1.25849601E+00  1.26516917E+00  1.30760168E+00  1.42065616E+00
  1.44124308E+00  1.54498678E+00  1.58157389E+00  1.63027894E+00  1.68905914E+00
  1.78999700E+00  1.83996051E+00  1.86332392E+00  1.91800194E+00  1.97486016E+00
  2.04627791E+00  2.09717642E+00  2.19507815E+00  2.22578205E+00  2.32546799E+00
  2.40571420E+00  2.47709164E+00  2.66636954E+00  2.78573500E+00  2.86205785E+00
  3.13789313E+00  3.27396658E+00  3.64770643E+00  3.65920117E+00  3.70096232E+00
  3.71429153E+00  3.71447981E+00  3.76560068E+00  3.86501823E+00  3.97479545E+00
  4.08519133E+00  4.24159901E+00
Alpha MO coefficients                      R   N=        7569
  1.24262917E-05  3.64329391E-04  6.95663594E-03  3.28013202E-03 -4.34057708E-04
 -3.10169529E-04  2.97681382E-08 -4.13852762E-03 -2.26574776E-03  9.05531396E-08
 -6.24494089E-04  5.69311372E-05  3.47349155E-08 -3.04398504E-04 -8.08122852E-09
  1.57689000E-08 -5.93706185E-05 -1.43503680E-04 -7.95747453E-04 -5.03457901E-08
 -3.37053465E-08  8.18654978E-04  1.63978897E-03 -2.12044590E-04  6.41441395E-05
 -3.97515366E-04  1.26113439E-04  6.84257801E-05  1.48978441E-05  1.38705329E-09
  6.94006477E-04 -2.84725134E-04  2.33584518E-08 -2.01549334E-04 -1.08300657E-04
 -9.26979475E-09 -3.89454086E-06 -4.93048095E-09 -2.87234481E-09 -6.32916070E-05
  1.99623218E-05  2.63577330E-04 -1.26903508E-08  1.86097283E-08 -1.81392416E-04
  2.11386694E-05  9.97254641E-01  1.68880112E-02 -1.03761899E-02 -6.53781148E-03
  2.84475614E-04  1.58987774E-03 -4.62079996E-09 -2.44592378E-03 -2.43346886E-03
  4.86268554E-08 -7.64513068E-04 -8.51496556E-04 -5.95775634E-09 -5.44059128E-05
  1.21143515E-10  6.05706960E-09 -1.34477245E-05 -4.82344502E-05  4.25806309E-04
  3.24920172E-08  1.72366792E-09 -2.78221776E-04 -4.51661147E-04  2.32437549E-04
  2.52274799E-03 -9.24115775E-05 -2.19913525E-04  3.32693737E-04  1.39322331E-08
  7.08710479E-04 -7.64741009E-04 -3.43711258E-08 -3.89167937E-04 -9.02577481E-05
 -5.65578487E-04  1.17355935E-04  3.10995128E-04  1.75437684E-08 -2.90711756E-04
  1.35413635E-04  1.22316878E-08  1.32693528E-04  6.56060432E-04  6.67574720E-03
  2.32754851E-03  2.80785506E-04 -2.05260662E-04  2.92122814E-08  4.89684015E-03
 -4.71444277E-03  5.26733178E-08  4.07489496E-04 -4.55657932E-05  1.34282086E-08
 -2.70525240E-06 -2.63542310E-08  3.39013265E-08 -4.15220227E-04  5.11573579E-04
 -1.22932692E-03  1.58787345E-08 -1.20233227E-07  1.72087306E-03 -2.63710454E-03
  9.97301579E-01  1.70396784E-02 -1.21402499E-02 -6.36158029E-03 -1.64853588E-03
  9.00576474E-04 -7.31790452E-08  3.51909253E-03 -1.77372989E-03  1.77325109E-07
  1.35551975E-03 -6.64712812E-04  3.57950717E-08 -2.31352930E-04  6.02122204E-09
 -4.35945749E-09  4.97725851E-05 -1.22122674E-04  2.79917002E-04 -4.36505682E-08
  3.30320753E-08 -3.08793192E-04  4.58941249E-04  2.43853656E-04  3.23902610E-05
 -7.62940002E-06  2.60981220E-03 -3.58749691E-05 -3.77074915E-06  4.96006716E-09
 -8.59289512E-04 -2.92467597E-05 -2.49870478E-08  6.62079758E-04  5.80785614E-04
 -4.04687912E-08  8.61609167E-06 -2.47783715E-10 -2.11319197E-09 -7.16170928E-05
 -1.65544223E-07  1.64221299E-04  6.15916984E-09  5.31755583E-09 -3.18904291E-04
 -1.74034072E-04 -1.47898355E-04 -2.34224358E-03  1.87319353E-04 -8.33096607E-05
 -2.85304936E-05  5.38450313E-09 -7.95815336E-04 -1.32086941E-04  7.63069637E-08
 -2.96816636E-04  3.41979258E-03 -6.38082720E-04 -1.72892629E-04  3.16337631E-04
  1.25727263E-08  9.44931484E-04 -9.70116486E-04 -7.71431210E-09  9.97724513E-01
  2.00410107E-02 -1.11326461E-02 -4.06970231E-03 -6.91241474E-04 -1.04052297E-03
  1.72099701E-08 -7.76667509E-04 -5.34074470E-03 -2.39612635E-07  5.23136601E-05
 -1.43220119E-03 -9.32713140E-08 -1.07071232E-03 -1.88468375E-08  1.90484992E-08
  4.43547154E-04 -8.05759331E-05  1.07648483E-03 -3.19374671E-08 -1.97117913E-08
  3.14067560E-04  7.41403164E-04 -3.76708595E-04  5.58026005E-04 -6.98859480E-04
  9.34464168E-04 -5.02729836E-04  2.59642512E-04 -7.83912970E-09  1.67052875E-03
 -6.51418422E-04  1.03433675E-07 -1.78352325E-04  3.52157307E-04  8.85955033E-09
 -1.72098962E-04  1.70800172E-08 -4.10126738E-09  2.49258929E-04 -3.40980249E-04
  6.26283081E-04 -1.09384745E-07  3.62466605E-08 -6.76064911E-04  8.16897288E-04
 -7.15320594E-05  8.05856656E-04 -1.93534990E-03 -3.09933287E-04  3.99033215E-04
  1.50613993E-04 -1.23116549E-08 -2.65776776E-03 -9.91699638E-04  8.37710464E-08
 -6.50415342E-04  2.44132133E-04  4.20960116E-08  5.83165008E-05 -4.80868304E-10
  1.59417823E-10  1.67632250E-06  5.65866215E-05  5.61726756E-04  5.65481771E-08
  1.99429532E-08 -4.22109637E-04 -1.28006624E-03 -3.44465905E-04 -8.84590156E-04
 -2.46982882E-04  2.61302991E-04  1.21548349E-04  2.89923859E-09 -1.98460635E-04
  3.19059821E-04 -2.94151805E-08  3.26440273E-04  1.12355751E-02  1.74775461E-03
  4.27318320E-05  2.80925394E-04  2.33375642E-08  3.54653518E-05 -3.51675201E-03
 -2.92683324E-07 -1.07181327E-01  2.15457694E-01  2.73725283E-02 -1.71574714E-02
 -1.73441983E-03 -8.80824445E-02  3.66467224E-06  2.59061695E-02  6.43313682E-02
 -4.37057016E-07  2.80003781E-03  1.10610233E-02  3.84278874E-07 -1.66707837E-02
  1.39429253E-07 -1.12979342E-06  2.84367856E-02  3.72524872E-04  1.54142449E-02
  1.21258687E-07  1.67902077E-06 -8.99203872E-03 -9.94646256E-03 -1.02321440E-01
  2.09291939E-01  2.16572307E-01  1.50258197E-02 -7.67638156E-02  3.28575750E-02
 -1.39428292E-06 -3.67527113E-02  4.19433605E-03 -4.05686094E-07  2.89277918E-03
 -3.25821496E-03  3.94265792E-08 -5.23668057E-03  3.55804855E-07 -1.26367922E-07
  7.18991871E-03 -7.04158550E-03  3.13471224E-04  1.45596009E-07  2.70418125E-07
  4.53802046E-03  5.83752853E-03 -1.65058657E-01  3.42457421E-01  3.61742608E-01
  4.27839416E-02  3.78466799E-02  6.59247706E-02  4.07068647E-07  7.84947025E-02
  1.44268914E-02 -1.58145335E-06  8.08495479E-03 -3.21666179E-03  1.06705536E-07
 -7.48023949E-03 -3.81524636E-07  7.53613102E-08  3.82188052E-03  2.73167588E-03
  5.23236300E-03  1.82298805E-07 -6.26186054E-07  6.67314227E-03  2.08772103E-02
  1.48072582E-01  1.80800621E-02  3.24863076E-03  2.46911628E-02 -1.85737126E-02
 -1.06742820E-06  5.12722846E-03 -1.54096069E-03 -5.43666551E-07  4.45336041E-02
 -5.54553032E-02 -2.89699970E-03  7.68935525E-04 -1.39768334E-02 -7.83813509E-07
 -1.32687942E-03  1.58455835E-02  3.69555843E-07 -4.98619893E-02  1.14152900E-01
  8.56709020E-02  3.45684792E-02  2.21673592E-01 -5.54532050E-02  2.99117416E-06
 -2.29469170E-02  2.32901156E-02  1.73839263E-06 -8.37654924E-03  9.54681405E-03
  8.51656713E-07 -6.14515317E-03  1.79683255E-06 -7.36639062E-07  4.42558914E-03
 -4.16409111E-02  1.13211627E-02  4.07336271E-07  7.30992836E-07 -2.04280360E-02
  4.63665954E-02 -1.68203977E-01  3.46529905E-01  3.75557062E-01  3.85206861E-02
 -9.07213330E-02  5.99027338E-02 -2.42940622E-06 -1.69021812E-02  1.72783874E-02
 -1.95422231E-06 -2.52393407E-03 -2.20291789E-03 -4.80373119E-07 -7.64121690E-03
  5.93338189E-07 -3.72418185E-07  5.24794781E-03 -1.14743793E-02  6.57286921E-03
 -1.21349733E-07 -1.23073001E-07 -8.81573475E-03  5.91024990E-03  1.22116814E-01
 -2.57385806E-01 -2.71248333E-01 -1.02970682E-01  1.50084315E-02 -5.04037071E-02
 -4.89188893E-07 -1.74378439E-02 -9.00991492E-03  1.30938640E-06 -1.04291843E-02
 -2.33243852E-02  8.65042673E-08  4.03446970E-03  2.84644477E-07 -6.24674152E-08
  1.35194933E-03  8.81054463E-04 -8.85165159E-03 -5.16921561E-07  5.19008229E-07
  5.24709407E-03 -1.00595937E-02 -1.28880121E-01  6.27830442E-02 -8.49770407E-04
 -1.89515129E-02  1.71196722E-02  7.82576331E-07  1.96484956E-02  8.95393962E-04
 -1.24795892E-06  9.72268063E-03 -6.37041164E-02 -1.03650936E-02  4.98476781E-03
 -2.10068575E-03  1.71813488E-08 -2.04428025E-02  2.11556423E-02  6.89783989E-07
 -1.36840884E-01  3.11222592E-01  1.52675518E-01 -4.42630575E-04 -1.35359805E-01
  8.81659884E-02  5.68479131E-06 -1.83383702E-02  1.32236394E-02 -1.56670383E-06
  2.43303908E-04  1.40914704E-02  8.94324733E-07 -9.33203244E-03 -2.70255936E-07
  2.07690367E-07 -3.70514969E-03  1.75186512E-02  8.46581763E-03  4.02131256E-07
 -2.18357083E-06  1.61235258E-02 -8.60781472E-03  7.45776410E-02 -1.64523711E-01
 -2.16528193E-01 -4.77161668E-02 -1.07236189E-01  6.76761926E-02  2.33836737E-08
 -6.55372242E-02  3.57017407E-02 -4.77478510E-07  1.08049937E-02 -8.53533487E-03
 -3.49881626E-07 -2.18198035E-03 -4.21008895E-08 -6.17247666E-08  2.27736935E-03
 -4.57952037E-03 -3.53500754E-03  5.83841803E-07  2.58165251E-07  4.62302404E-03
 -8.04087946E-03  4.91077344E-02 -1.16099357E-01 -1.16511625E-01 -1.98331152E-02
  3.11570393E-01  7.61730409E-02 -6.49387762E-06  1.56548982E-01  7.12311247E-02
 -2.87731386E-06  2.68811876E-02 -1.66518121E-02 -1.15244358E-06 -2.12684682E-03
  5.81743294E-08 -5.91797442E-07  1.84818044E-03  2.06826736E-02 -1.34114461E-02
 -1.00671893E-06  7.12052643E-07 -4.48977314E-03  9.43425231E-04 -1.99740685E-01
 -2.76343795E-03  1.14569290E-02 -1.55739517E-02  2.41145894E-02  7.36241747E-07
 -4.10046883E-03 -9.49487431E-03  3.33170922E-07  2.31184310E-01  9.48336712E-02
 -1.02330207E-02 -2.04458030E-03 -2.44721946E-02 -1.59177118E-06  1.86978784E-03
 -1.64624996E-02 -4.50596713E-07 -2.83540588E-02  5.09057787E-02 -2.45548322E-02
 -1.10589213E-02  9.59201666E-02  3.16475879E-01  7.56949399E-06  2.30969490E-02
  9.32913789E-05 -3.11255262E-06  4.70830696E-03 -7.21055301E-03 -1.30670164E-07
  4.43968363E-03 -1.61892222E-08  1.28980414E-06  2.77569028E-03 -2.50965076E-02
 -7.88484939E-03 -7.19304558E-07 -3.43701645E-06 -4.56507635E-04 -9.13164542E-03
 -9.74929282E-04 -1.29548472E-03 -1.27969613E-02 -1.01765450E-02  9.11697371E-02
  1.47439249E-01  4.26457993E-06  5.33060824E-02  9.88361730E-02  3.35033716E-06
  1.26531564E-03 -7.06599643E-04  7.76125497E-08  1.01604274E-03 -5.84088886E-07
 -1.05339772E-07 -1.03285648E-02 -5.08493152E-03 -4.39286979E-03 -3.49324724E-07
  3.25063130E-07 -6.57625033E-03 -1.01038133E-02  2.76881624E-02 -6.36768884E-02
 -1.29928704E-01 -1.37733691E-03 -3.13986682E-01  1.95372396E-01  1.31651140E-05
 -1.43804573E-01  9.84610446E-02  6.26516690E-06 -1.71871590E-02  1.59172617E-02
 -9.54369861E-08 -2.98189134E-03  1.72067147E-07  6.84725762E-07 -1.05186038E-02
 -1.46007346E-02  2.81813469E-03  7.39090787E-07  5.17551536E-08 -9.75442469E-03
  1.57494407E-02  2.70680606E-01  2.22420457E-02 -2.46411964E-03  2.55844374E-02
 -2.33056875E-02 -1.08084805E-06 -2.88963330E-03  2.06718990E-03  2.42031880E-07
  2.39700125E-01  1.79171099E-01  9.20320009E-03  3.76600664E-03 -2.02671334E-02
 -1.51188025E-06  2.19820096E-03 -5.47973979E-02 -2.72632748E-07  3.14523242E-02
 -9.29921951E-02 -1.17582153E-01 -5.44059055E-02 -3.45519175E-01  8.46811313E-02
 -1.85112232E-06 -5.94893097E-02 -9.44650274E-03 -1.85248211E-06 -3.68968103E-03
 -5.11054031E-03 -7.39571502E-07  2.19786416E-03 -1.36281547E-06  4.71021333E-07
  1.77464086E-04  3.06697173E-02 -4.99534207E-03  7.31266030E-07 -7.43284050E-07
  1.08705625E-02 -6.01169133E-03 -7.49088358E-02  1.68915228E-01  3.03455730E-01
  1.07760790E-01  3.63666197E-01 -2.66381436E-01  1.17829366E-05  1.69899385E-01
 -1.40095387E-01  6.07672828E-06  7.56093130E-04 -7.86025902E-04  4.83048579E-08
  1.06153186E-02 -1.04004014E-06  7.16669996E-07 -7.18369512E-03  1.85089002E-02
 -1.64193486E-03 -2.81296238E-08  3.78929604E-07  7.31100148E-03 -1.18201286E-05
  2.52594161E-02 -6.03653740E-02 -9.77110994E-02 -8.22859469E-03  1.55311309E-01
  2.34880864E-01 -6.10480575E-06  9.10385476E-02  1.58181855E-01 -3.77984770E-06
  1.09174765E-02  1.49596995E-02 -2.44067644E-07 -4.55752471E-03 -1.61937428E-07
 -3.36260742E-07 -5.30280193E-03  9.37277730E-03 -5.25105860E-03  1.18741147E-07
 -2.73636304E-07 -1.63136814E-02  5.15858873E-03 -4.07892973E-03 -1.30027209E-02
  2.29405474E-03  6.37246637E-03  6.18279029E-03 -1.94242445E-07 -7.01198079E-03
 -3.93134524E-03  2.55741533E-07  2.94885356E-02  7.52530795E-02  1.26824975E-02
 -6.40732491E-03 -2.42722736E-03 -2.50754608E-07 -7.19366680E-03 -2.39153692E-02
 -1.02697205E-06  3.71405607E-06 -7.21398973E-06 -2.25547178E-05 -1.60894631E-07
 -2.54802216E-06 -5.52490370E-06  2.79001201E-01 -1.58090978E-06 -4.22576414E-06
  1.00937362E-01  4.98319279E-07  1.65316836E-06 -1.76437724E-03  1.73998344E-06
 -4.67112262E-03 -2.22527031E-02 -1.93918279E-06  4.06104235E-07 -1.56152860E-07
 -3.96454197E-03  2.63769294E-02  2.68655494E-06  9.64928180E-07 -3.13781226E-07
  7.93975459E-07  3.50345722E-06 -1.29176726E-06 -1.11829962E-05 -5.06855570E-06
  2.49316761E-01 -8.69563040E-06 -3.68279469E-06  1.79211539E-01 -3.54671542E-07
 -1.77195033E-06  1.58755682E-02 -8.05566448E-07 -1.37134718E-02  7.83610958E-03
  5.56190731E-07 -2.35751107E-07 -1.00605555E-06 -1.92078475E-02  9.00129993E-03
  5.22649840E-07 -1.07148992E-07 -6.56410861E-08  2.42628234E-07  1.20534509E-06
  5.14142850E-06  1.61010214E-05 -3.28144254E-06  4.70190671E-01  1.08463567E-05
 -1.67984320E-06  3.38909364E-01  1.85661695E-06  6.61618762E-07  3.98753266E-02
 -1.89477430E-07  7.35153115E-03  1.32217011E-02  2.89869288E-07  4.33157495E-07
 -5.25365800E-07  1.40105509E-02  2.39963173E-02 -1.31936598E-08  2.03707980E-07
 -1.86675133E-07 -6.83146486E-06  4.33596837E-07  4.02836358E-07 -2.04304747E-07
  1.74760117E-02 -2.58504672E-06 -4.03825312E-07  8.86950430E-04  9.34897672E-07
  9.08470355E-06 -1.45445778E-06 -2.38582529E-08 -4.71844799E-07  8.21284898E-03
 -6.69568464E-07 -4.13464291E-06 -1.25545132E-02 -1.36047492E-02  4.02434517E-02
  7.23986138E-02  5.15571834E-02  2.11599504E-02 -2.55018369E-01 -4.94844215E-06
  3.36879337E-02 -4.74945533E-02 -1.23127839E-06  8.91401218E-03 -3.11611215E-03
 -6.15751979E-09 -1.09974069E-02 -1.00493058E-06 -1.01609174E-06  2.73806939E-02
 -2.60337879E-02 -3.50997372E-03  9.92331534E-07  1.73252474E-06 -1.82982996E-03
  1.34599214E-02  1.79529567E-02 -4.08475287E-02 -1.07562837E-01 -7.13212590E-02
 -2.90865403E-01 -7.87531202E-02 -1.33308320E-05 -1.60631887E-01 -8.32711287E-02
 -7.54380746E-06 -9.79978500E-03 -1.31837233E-02 -1.60823822E-08 -4.48067890E-03
  9.44733411E-07 -1.60815221E-07  1.40348381E-02 -2.30523575E-03  2.97135896E-03