 Entering Gaussian System, Link 0=g16
 Input=hcooht_mp2_avtz_opt_anharm.gjf
 Output=hcooht_mp2_avtz_opt_anharm.log
 Initial command:
 /sw/contrib/chem-src/g16/c01/g16/l1.exe "/scr/Gau-43421.inp" -scrdir="/scr/"
 Entering Link 1 = /sw/contrib/chem-src/g16/c01/g16/l1.exe PID=     43422.
  
 Copyright (c) 1988-2019, Gaussian, Inc.  All Rights Reserved.
  
 This is part of the Gaussian(R) 16 program.  It is based on
 the Gaussian(R) 09 system (copyright 2009, Gaussian, Inc.),
 the Gaussian(R) 03 system (copyright 2003, Gaussian, Inc.),
 the Gaussian(R) 98 system (copyright 1998, Gaussian, Inc.),
 the Gaussian(R) 94 system (copyright 1995, Gaussian, Inc.),
 the Gaussian 92(TM) system (copyright 1992, Gaussian, Inc.),
 the Gaussian 90(TM) system (copyright 1990, Gaussian, Inc.),
 the Gaussian 88(TM) system (copyright 1988, Gaussian, Inc.),
 the Gaussian 86(TM) system (copyright 1986, Carnegie Mellon
 University), and the Gaussian 82(TM) system (copyright 1983,
 Carnegie Mellon University). Gaussian is a federally registered
 trademark of Gaussian, Inc.
  
 This software contains proprietary and confidential information,
 including trade secrets, belonging to Gaussian, Inc.
  
 This software is provided under written license and may be
 used, copied, transmitted, or stored only in accord with that
 written license.
  
 The following legend is applicable only to US Government
 contracts under FAR:
  
                    RESTRICTED RIGHTS LEGEND
  
 Use, reproduction and disclosure by the US Government is
 subject to restrictions as set forth in subparagraphs (a)
 and (c) of the Commercial Computer Software - Restricted
 Rights clause in FAR 52.227-19.
  
 Gaussian, Inc.
 340 Quinnipiac St., Bldg. 40, Wallingford CT 06492
  
  
 ---------------------------------------------------------------
 Warning -- This program may not be used in any manner that
 competes with the business of Gaussian, Inc. or will provide
 assistance to any competitor of Gaussian, Inc.  The licensee
 of this program is prohibited from giving any competitor of
 Gaussian, Inc. access to this program.  By using this program,
 the user acknowledges that Gaussian, Inc. is engaged in the
 business of creating and licensing software in the field of
 computational chemistry and represents and warrants to the
 licensee that it is not a competitor of Gaussian, Inc. and that
 it will not use this program in any manner prohibited above.
 ---------------------------------------------------------------
  

 Cite this work as:
 Gaussian 16, Revision C.01,
 M. J. Frisch, G. W. Trucks, H. B. Schlegel, G. E. Scuseria, 
 M. A. Robb, J. R. Cheeseman, G. Scalmani, V. Barone, 
 G. A. Petersson, H. Nakatsuji, X. Li, M. Caricato, A. V. Marenich, 
 J. Bloino, B. G. Janesko, R. Gomperts, B. Mennucci, H. P. Hratchian, 
 J. V. Ortiz, A. F. Izmaylov, J. L. Sonnenberg, D. Williams-Young, 
 F. Ding, F. Lipparini, F. Egidi, J. Goings, B. Peng, A. Petrone, 
 T. Henderson, D. Ranasinghe, V. G. Zakrzewski, J. Gao, N. Rega, 
 G. Zheng, W. Liang, M. Hada, M. Ehara, K. Toyota, R. Fukuda, 
 J. Hasegawa, M. Ishida, T. Nakajima, Y. Honda, O. Kitao, H. Nakai, 
 T. Vreven, K. Throssell, J. A. Montgomery, Jr., J. E. Peralta, 
 F. Ogliaro, M. J. Bearpark, J. J. Heyd, E. N. Brothers, K. N. Kudin, 
 V. N. Staroverov, T. A. Keith, R. Kobayashi, J. Normand, 
 K. Raghavachari, A. P. Rendell, J. C. Burant, S. S. Iyengar, 
 J. Tomasi, M. Cossi, J. M. Millam, M. Klene, C. Adamo, R. Cammi, 
 J. W. Ochterski, R. L. Martin, K. Morokuma, O. Farkas, 
 J. B. Foresman, and D. J. Fox, Gaussian, Inc., Wallingford CT, 2019.
 
 ******************************************
 Gaussian 16:  EM64L-G16RevC.01  3-Jul-2019
                20-Mar-2025 
 ******************************************
 %nprocshared=40
 Will use up to   40 processors via shared memory.
 %mem=50gb
 ----------------------------------------------
 # MP2/aug-cc-pVTZ opt freq=(vibrot,anharmonic)
 ----------------------------------------------
 1/18=20,19=15,38=1,80=1/1,3;
 2/9=110,12=2,17=6,18=5,40=1/2;
 3/5=16,6=1,7=10,11=9,25=1,30=1,71=1/1,2,3;
 4//1;
 5/5=2,38=5/2;
 8/6=4,10=1/1;
 9/15=2,16=-3/6;
 10/5=1/2;
 6/7=2,8=2,9=2,10=2/1;
 7/12=2/1,2,3,16;
 1/18=20,19=15,80=1/3(2);
 2/9=110/2;
 99//99;
 2/9=110/2;
 3/5=16,6=1,7=10,11=9,25=1,30=1,71=1/1,2,3;
 4/5=5,16=3,69=1/1;
 5/5=2,38=5/2;
 8/6=4,10=1/1;
 9/15=2,16=-3/6;
 10/5=1/2;
 7/12=2/1,2,3,16;
 1/18=20,19=15,80=1/3(-8);
 2/9=110/2;
 6/7=2,8=2,9=2,10=2/1;
 99/9=10/99;
 ----
 blah
 ----
 Symbolic Z-matrix:
 Charge =  0 Multiplicity = 1
 C                     1.03144  -0.29808  -0.00035 
 O                     2.23923  -0.17689   0.00071 
 O                     0.18357   0.75714  -0.00076 
 H                    -0.73731   0.41842  -0.00162 
 H                     0.51467  -1.28023  -0.00104 
 

 GradGradGradGradGradGradGradGradGradGradGradGradGradGradGradGradGradGrad
 Berny optimization.
 Initialization pass.
                           ----------------------------
                           !    Initial Parameters    !
                           ! (Angstroms and Degrees)  !
 --------------------------                            --------------------------
 ! Name  Definition              Value          Derivative Info.                !
 --------------------------------------------------------------------------------
 ! R1    R(1,2)                  1.2139         estimate D2E/DX2                !
 ! R2    R(1,3)                  1.3537         estimate D2E/DX2                !
 ! R3    R(1,5)                  1.1098         estimate D2E/DX2                !
 ! R4    R(3,4)                  0.9812         estimate D2E/DX2                !
 ! A1    A(2,1,3)              123.0521         estimate D2E/DX2                !
 ! A2    A(2,1,5)              123.4813         estimate D2E/DX2                !
 ! A3    A(3,1,5)              113.4666         estimate D2E/DX2                !
 ! A4    A(1,3,4)              108.5871         estimate D2E/DX2                !
 ! D1    D(2,1,3,4)           -179.999          estimate D2E/DX2                !
 ! D2    D(2,1,3,5)           -179.9985         estimate D2E/DX2                !
 ! D3    D(5,1,3,4)             -0.0006         estimate D2E/DX2                !
 --------------------------------------------------------------------------------
 Trust Radius=3.00D-01 FncErr=1.00D-07 GrdErr=1.00D-07 EigMax=2.50D+02 EigMin=1.00D-04
 Number of steps in this run=     21 maximum allowed number of steps=    100.
 GradGradGradGradGradGradGradGradGradGradGradGradGradGradGradGradGradGrad

                          Input orientation:                          
 ---------------------------------------------------------------------
 Center     Atomic      Atomic             Coordinates (Angstroms)
 Number     Number       Type             X           Y           Z
 ---------------------------------------------------------------------
      1          6           0        1.031435   -0.298081   -0.000346
      2          8           0        2.239233   -0.176894    0.000708
      3          8           0        0.183566    0.757141   -0.000758
      4          1           0       -0.737312    0.418420   -0.001617
      5          1           0        0.514666   -1.280233   -0.001037
 ---------------------------------------------------------------------
                    Distance matrix (angstroms):
                    1          2          3          4          5
     1  C    0.000000
     2  O    1.213863   0.000000
     3  O    1.353653   2.257917   0.000000
     4  H    1.908361   3.035494   0.981198   0.000000
     5  H    1.109808   2.047313   2.064103   2.110183   0.000000
 Stoichiometry    CH2O2
 Framework group  C1[X(CH2O2)]
 Deg. of freedom     9
 Full point group                 C1      NOp   1
 Largest Abelian subgroup         C1      NOp   1
 Largest concise Abelian subgroup C1      NOp   1
                         Standard orientation:                         
 ---------------------------------------------------------------------
 Center     Atomic      Atomic             Coordinates (Angstroms)
 Number     Number       Type             X           Y           Z
 ---------------------------------------------------------------------
      1          6           0       -0.124018    0.361171   -0.000006
      2          8           0       -1.191825   -0.216109    0.000002
      3          8           0        1.065017   -0.285801    0.000000
      4          1           0        1.784233    0.381639    0.000007
      5          1           0       -0.025658    1.466611    0.000009
 ---------------------------------------------------------------------
 Rotational constants (GHZ):          86.4270280          11.4331709          10.0974144
 Standard basis: Aug-CC-pVTZ (5D, 7F)
 There are   215 symmetry adapted cartesian basis functions of A   symmetry.
 There are   184 symmetry adapted basis functions of A   symmetry.
   184 basis functions,   270 primitive gaussians,   215 cartesian basis functions
    12 alpha electrons       12 beta electrons
       nuclear repulsion energy        69.2925346011 Hartrees.
 NAtoms=    5 NActive=    5 NUniq=    5 SFac= 1.00D+00 NAtFMM=   60 NAOKFM=F Big=F
 Integral buffers will be    131072 words long.
 Raffenetti 1 integral format.
 Two-electron integral symmetry is turned on.
 One-electron integrals computed using PRISM.
 NBasis=   184 RedAO= T EigKep=  7.45D-05  NBF=   184
 NBsUse=   184 1.00D-06 EigRej= -1.00D+00 NBFU=   184
 ExpMin= 2.53D-02 ExpMax= 1.53D+04 ExpMxC= 5.22D+02 IAcc=3 IRadAn=         5 AccDes= 0.00D+00
 Harris functional with IExCor=  205 and IRadAn=       5 diagonalized for initial guess.
 HarFok:  IExCor=  205 AccDes= 0.00D+00 IRadAn=         5 IDoV= 1 UseB2=F ITyADJ=14
 ICtDFT=  3500011 ScaDFX=  1.000000  1.000000  1.000000  1.000000
 FoFCou: FMM=F IPFlag=           0 FMFlag=      100000 FMFlg1=           0
         NFxFlg=           0 DoJE=T BraDBF=F KetDBF=T FulRan=T
         wScrn=  0.000000 ICntrl=       500 IOpCl=  0 I1Cent=   200000004 NGrid=           0
         NMat0=    1 NMatS0=      1 NMatT0=    0 NMatD0=    1 NMtDS0=    0 NMtDT0=    0
 Petite list used in FoFCou.
 Keep R1 ints in memory in canonical form, NReq=164567466.
 Requested convergence on RMS density matrix=1.00D-08 within 128 cycles.
 Requested convergence on MAX density matrix=1.00D-06.
 Requested convergence on             energy=1.00D-06.
 No special actions if energy rises.
 SCF Done:  E(RHF) =  -188.832718887     A.U. after   12 cycles
            NFock= 12  Conv=0.50D-08     -V/T= 2.0025
 ExpMin= 2.53D-02 ExpMax= 1.53D+04 ExpMxC= 5.22D+02 IAcc=3 IRadAn=         5 AccDes= 0.00D+00
 HarFok:  IExCor=  205 AccDes= 0.00D+00 IRadAn=         5 IDoV=-2 UseB2=F ITyADJ=14
 ICtDFT= 12500011 ScaDFX=  1.000000  1.000000  1.000000  1.000000
 Range of M.O.s used for correlation:     4   184
 NBasis=   184 NAE=    12 NBE=    12 NFC=     3 NFV=     0
 NROrb=    181 NOA=     9 NOB=     9 NVA=   172 NVB=   172

 **** Warning!!: The largest alpha MO coefficient is  0.31558245D+02

 Fully direct method using O(ONN) memory.
 JobTyp=1 Pass  1:  I=   4 to  12 NPSUse= 40 ParTrn=T ParDer=T DoDerP=T.
 Spin components of T(2) and E(2):
     alpha-alpha T2 =       0.2245718152D-01 E2=     -0.8244315769D-01
     alpha-beta  T2 =       0.1234689824D+00 E2=     -0.4817055417D+00
     beta-beta   T2 =       0.2245718152D-01 E2=     -0.8244315769D-01
 ANorm=    0.1080917825D+01
 E2 =    -0.6465918571D+00 EUMP2 =    -0.18947931074398D+03
          IDoAtm=11111
          Differentiating once with respect to electric field.
                with respect to dipole field.
          Differentiating once with respect to nuclear coordinates.
 Keep R1 ints in memory in canonical form, NReq=164571589.
          There are     1 degrees of freedom in the 1st order CPHF.  IDoFFX=0 NUNeed=     1.
 LinEq1:  Iter=  0 NonCon=     1 RMS=5.12D-03 Max=1.16D-01 NDo=     1
 AX will form     1 AO Fock derivatives at one time.
 LinEq1:  Iter=  1 NonCon=     1 RMS=1.41D-03 Max=2.17D-02 NDo=     1
 LinEq1:  Iter=  2 NonCon=     1 RMS=5.28D-04 Max=6.26D-03 NDo=     1
 LinEq1:  Iter=  3 NonCon=     1 RMS=2.35D-04 Max=3.31D-03 NDo=     1
 LinEq1:  Iter=  4 NonCon=     1 RMS=6.13D-05 Max=5.80D-04 NDo=     1
 LinEq1:  Iter=  5 NonCon=     1 RMS=2.44D-05 Max=4.07D-04 NDo=     1
 LinEq1:  Iter=  6 NonCon=     1 RMS=8.75D-06 Max=1.20D-04 NDo=     1
 LinEq1:  Iter=  7 NonCon=     1 RMS=2.18D-06 Max=2.34D-05 NDo=     1
 LinEq1:  Iter=  8 NonCon=     1 RMS=5.28D-07 Max=4.84D-06 NDo=     1
 LinEq1:  Iter=  9 NonCon=     1 RMS=9.92D-08 Max=9.46D-07 NDo=     1
 LinEq1:  Iter= 10 NonCon=     1 RMS=1.67D-08 Max=1.31D-07 NDo=     1
 LinEq1:  Iter= 11 NonCon=     1 RMS=2.36D-09 Max=1.97D-08 NDo=     1
 LinEq1:  Iter= 12 NonCon=     1 RMS=3.53D-10 Max=2.48D-09 NDo=     1
 LinEq1:  Iter= 13 NonCon=     0 RMS=5.67D-11 Max=4.48D-10 NDo=     1
 Linear equations converged to 1.000D-10 1.000D-09 after    13 iterations.
 End of Minotr F.D. properties file   721 does not exist.
 End of Minotr F.D. properties file   722 does not exist.
 End of Minotr F.D. properties file   788 does not exist.

 **********************************************************************

            Population analysis using the SCF Density.

 **********************************************************************

 Orbital symmetries:
       Occupied  (A) (A) (A) (A) (A) (A) (A) (A) (A) (A) (A) (A)
       Virtual   (A) (A) (A) (A) (A) (A) (A) (A) (A) (A) (A) (A)
                 (A) (A) (A) (A) (A) (A) (A) (A) (A) (A) (A) (A)
                 (A) (A) (A) (A) (A) (A) (A) (A) (A) (A) (A) (A)
                 (A) (A) (A) (A) (A) (A) (A) (A) (A) (A) (A) (A)
                 (A) (A) (A) (A) (A) (A) (A) (A) (A) (A) (A) (A)
                 (A) (A) (A) (A) (A) (A) (A) (A) (A) (A) (A) (A)
                 (A) (A) (A) (A) (A) (A) (A) (A) (A) (A) (A) (A)
                 (A) (A) (A) (A) (A) (A) (A) (A) (A) (A) (A) (A)
                 (A) (A) (A) (A) (A) (A) (A) (A) (A) (A) (A) (A)
                 (A) (A) (A) (A) (A) (A) (A) (A) (A) (A) (A) (A)
                 (A) (A) (A) (A) (A) (A) (A) (A) (A) (A) (A) (A)
                 (A) (A) (A) (A) (A) (A) (A) (A) (A) (A) (A) (A)
                 (A) (A) (A) (A) (A) (A) (A) (A) (A) (A) (A) (A)
                 (A) (A) (A) (A) (A) (A) (A) (A) (A) (A) (A) (A)
                 (A) (A) (A) (A)
 The electronic state is 1-A.
 Alpha  occ. eigenvalues --  -20.63593 -20.56554 -11.40317  -1.46822  -1.37330
 Alpha  occ. eigenvalues --   -0.86969  -0.79071  -0.66893  -0.63435  -0.60120
 Alpha  occ. eigenvalues --   -0.49154  -0.46955
 Alpha virt. eigenvalues --    0.01679   0.03975   0.07006   0.08072   0.10469
 Alpha virt. eigenvalues --    0.11992   0.14329   0.15592   0.16138   0.17919
 Alpha virt. eigenvalues --    0.18738   0.21605   0.22787   0.24339   0.26012
 Alpha virt. eigenvalues --    0.26322   0.28674   0.31890   0.32208   0.32613
 Alpha virt. eigenvalues --    0.36485   0.37018   0.39972   0.41761   0.42589
 Alpha virt. eigenvalues --    0.47888   0.50021   0.51198   0.51913   0.57320
 Alpha virt. eigenvalues --    0.61387   0.64700   0.66509   0.70665   0.72569
 Alpha virt. eigenvalues --    0.74227   0.74477   0.79633   0.82977   0.85095
 Alpha virt. eigenvalues --    0.85724   0.88183   0.88599   0.88829   0.91153
 Alpha virt. eigenvalues --    0.92862   0.94296   0.96971   0.97942   0.99096
 Alpha virt. eigenvalues --    1.01037   1.03008   1.04606   1.05684   1.09604
 Alpha virt. eigenvalues --    1.14776   1.17048   1.18801   1.24446   1.26767
 Alpha virt. eigenvalues --    1.30432   1.32257   1.36191   1.39435   1.43296
 Alpha virt. eigenvalues --    1.46473   1.47243   1.51152   1.56656   1.57138
 Alpha virt. eigenvalues --    1.60038   1.68606   1.74351   1.76138   1.77703
 Alpha virt. eigenvalues --    1.89550   1.93812   2.01671   2.05855   2.10147
 Alpha virt. eigenvalues --    2.22951   2.26566   2.27832   2.31455   2.35188
 Alpha virt. eigenvalues --    2.39158   2.39528   2.43493   2.45480   2.50239
 Alpha virt. eigenvalues --    2.52137   2.56771   2.58869   2.59599   2.66714
 Alpha virt. eigenvalues --    2.69524   2.74115   2.82430   2.84768   2.85286
 Alpha virt. eigenvalues --    2.87626   2.91983   2.96322   3.06444   3.12359
 Alpha virt. eigenvalues --    3.17834   3.20697   3.25614   3.31807   3.49831
 Alpha virt. eigenvalues --    3.52122   3.64753   3.75587   3.78148   3.86429
 Alpha virt. eigenvalues --    3.90399   3.94761   4.04487   4.08653   4.09918
 Alpha virt. eigenvalues --    4.23198   4.25087   4.26893   4.30151   4.30309
 Alpha virt. eigenvalues --    4.37264   4.54027   4.60899   4.64348   4.68335
 Alpha virt. eigenvalues --    4.83750   4.86297   5.02202   5.09189   5.12211
 Alpha virt. eigenvalues --    5.15717   5.19044   5.29762   5.35660   5.46269
 Alpha virt. eigenvalues --    5.68105   5.85612   6.19121   6.31835   6.47704
 Alpha virt. eigenvalues --    6.60835   6.61235   6.75813   6.80948   6.84942
 Alpha virt. eigenvalues --    6.90746   6.97375   7.09527   7.12708   7.15008
 Alpha virt. eigenvalues --    7.22647   7.26066   7.31535   7.33198   7.43545
 Alpha virt. eigenvalues --    7.51091   7.51249   7.57467   7.70487   7.76840
 Alpha virt. eigenvalues --    7.80098   7.90533   8.18184   8.42121  14.34692
 Alpha virt. eigenvalues --   15.51683  16.89848
          Condensed to atoms (all electrons):
               1          2          3          4          5
     1  C    4.842987   0.520131   0.309601   0.014190   0.237576
     2  O    0.520131   8.146588  -0.090192  -0.000748  -0.041132
     3  O    0.309601  -0.090192   7.926603   0.221223  -0.034865
     4  H    0.014190  -0.000748   0.221223   0.503561   0.012787
     5  H    0.237576  -0.041132  -0.034865   0.012787   0.283116
 Mulliken charges:
               1
     1  C    0.075514
     2  O   -0.534647
     3  O   -0.332370
     4  H    0.248986
     5  H    0.542518
 Sum of Mulliken charges =  -0.00000
 Mulliken charges with hydrogens summed into heavy atoms:
               1
     1  C    0.618031
     2  O   -0.534647
     3  O   -0.083384
 Electronic spatial extent (au):  <R**2>=            136.9879
 Charge=             -0.0000 electrons
 Dipole moment (field-independent basis, Debye):
    X=              3.2499    Y=              3.1287    Z=              0.0000  Tot=              4.5112
 Quadrupole moment (field-independent basis, Debye-Ang):
   XX=            -17.4025   YY=            -16.1149   ZZ=            -17.1088
   XY=              1.6431   XZ=              0.0000   YZ=              0.0000
 Traceless Quadrupole moment (field-independent basis, Debye-Ang):
   XX=             -0.5271   YY=              0.7605   ZZ=             -0.2334
   XY=              1.6431   XZ=              0.0000   YZ=              0.0000
 Octapole moment (field-independent basis, Debye-Ang**2):
  XXX=             14.9248  YYY=              2.0958  ZZZ=              0.0000  XYY=              1.0258
  XXY=              3.7233  XXZ=              0.0001  XZZ=              0.3090  YZZ=             -0.0418
  YYZ=              0.0000  XYZ=              0.0000
 Hexadecapole moment (field-independent basis, Debye-Ang**3):
 XXXX=            -95.8475 YYYY=            -29.4363 ZZZZ=            -14.5639 XXXY=              6.6231
 XXXZ=              0.0001 YYYX=              0.5733 YYYZ=              0.0001 ZZZX=              0.0000
 ZZZY=              0.0000 XXYY=            -23.2965 XXZZ=            -21.4476 YYZZ=             -7.9942
 XXYZ=              0.0000 YYXZ=              0.0000 ZZXY=              0.3627
 N-N= 6.929253460106D+01 E-N=-5.846650825120D+02  KE= 1.883588002938D+02
 Calling FoFJK, ICntrl=  10002127 FMM=F ISym2X=0 I1Cent= 0 IOpClX= 0 NMat=1 NMatS=1 NMatT=0.
 ***** Axes restored to original set *****
 -------------------------------------------------------------------
 Center     Atomic                   Forces (Hartrees/Bohr)
 Number     Number              X              Y              Z
 -------------------------------------------------------------------
      1        6           0.017393150   -0.005389253    0.000016728
      2        8          -0.024660452   -0.000037634   -0.000022136
      3        8          -0.009917794   -0.005635906   -0.000010536
      4        1           0.013690930    0.004866217    0.000012524
      5        1           0.003494166    0.006196575    0.000003419
 -------------------------------------------------------------------
 Cartesian Forces:  Max     0.024660452 RMS     0.009421820

 GradGradGradGradGradGradGradGradGradGradGradGradGradGradGradGradGradGrad
 Berny optimization.
 FormGI is forming the generalized inverse of G from B-inverse, IUseBI=4.
 Internal  Forces:  Max     0.024541013 RMS     0.009020912
 Search for a local minimum.
 Step number   1 out of a maximum of   21
 All quantities printed in internal units (Hartrees-Bohrs-Radians)
 Mixed Optimization -- RFO/linear search
 Second derivative matrix not updated -- first step.
 The second derivative matrix:
                          R1        R2        R3        R4        A1
           R1           0.98155
           R2           0.00000   0.54252
           R3           0.00000   0.00000   0.32620
           R4           0.00000   0.00000   0.00000   0.51153
           A1           0.00000   0.00000   0.00000   0.00000   0.25000
           A2           0.00000   0.00000   0.00000   0.00000   0.00000
           A3           0.00000   0.00000   0.00000   0.00000   0.00000
           A4           0.00000   0.00000   0.00000   0.00000   0.00000
           D1           0.00000   0.00000   0.00000   0.00000   0.00000
           D2           0.00000   0.00000   0.00000   0.00000   0.00000
           D3           0.00000   0.00000   0.00000   0.00000   0.00000
                          A2        A3        A4        D1        D2
           A2           0.16000
           A3           0.00000   0.16000
           A4           0.00000   0.00000   0.16000
           D1           0.00000   0.00000   0.00000   0.02305
           D2           0.00000   0.00000   0.00000   0.00000   0.02305
           D3           0.00000   0.00000   0.00000   0.00000   0.00000
                          D3
           D3           0.02305
 ITU=  0
     Eigenvalues ---    0.02305   0.02305   0.16000   0.16000   0.22000
     Eigenvalues ---    0.32620   0.51153   0.54252   0.98155
 RFO step:  Lambda=-1.29665909D-03 EMin= 2.30486706D-02
 Linear search not attempted -- first point.
 Iteration  1 RMS(Cart)=  0.01609463 RMS(Int)=  0.00007830
 Iteration  2 RMS(Cart)=  0.00008853 RMS(Int)=  0.00000001
 Iteration  3 RMS(Cart)=  0.00000001 RMS(Int)=  0.00000000
 Variable       Old X    -DE/DX   Delta X   Delta X   Delta X     New X
                                 (Linear)    (Quad)   (Total)
    R1        2.29387  -0.02454   0.00000  -0.02497  -0.02497   2.26890
    R2        2.55803  -0.00296   0.00000  -0.00545  -0.00545   2.55258
    R3        2.09723  -0.00711   0.00000  -0.02171  -0.02171   2.07552
    R4        1.85419  -0.01453   0.00000  -0.02833  -0.02833   1.82586
    A1        2.14766  -0.00385   0.00000  -0.01741  -0.01741   2.13026
    A2        2.15515   0.00171   0.00000   0.00736   0.00736   2.16251
    A3        1.98037   0.00214   0.00000   0.01005   0.01005   1.99042
    A4        1.89520  -0.00030   0.00000  -0.00183  -0.00183   1.89337
    D1       -3.14158  -0.00000   0.00000  -0.00004  -0.00004   3.14157
    D2       -3.14157  -0.00000   0.00000  -0.00006  -0.00006   3.14156
    D3       -0.00001   0.00000   0.00000   0.00002   0.00002   0.00001
         Item               Value     Threshold  Converged?
 Maximum Force            0.024541     0.000450     NO 
 RMS     Force            0.009021     0.000300     NO 
 Maximum Displacement     0.036413     0.001800     NO 
 RMS     Displacement     0.016099     0.001200     NO 
 Predicted change in Energy=-6.498820D-04
 GradGradGradGradGradGradGradGradGradGradGradGradGradGradGradGradGradGrad

                          Input orientation:                          
 ---------------------------------------------------------------------
 Center     Atomic      Atomic             Coordinates (Angstroms)
 Number     Number       Type             X           Y           Z
 ---------------------------------------------------------------------
      1          6           0        1.026895   -0.304690   -0.000333
      2          8           0        2.219964   -0.169983    0.000684
      3          8           0        0.186086    0.752484   -0.000756
      4          1           0       -0.721767    0.421796   -0.001609
      5          1           0        0.520411   -1.279254   -0.001036
 ---------------------------------------------------------------------
                    Distance matrix (angstroms):
                    1          2          3          4          5
     1  C    0.000000
     2  O    1.200650   0.000000
     3  O    1.350769   2.233295   0.000000
     4  H    1.893569   3.000665   0.966205   0.000000
     5  H    1.098318   2.029524   2.059061   2.106318   0.000000
 Stoichiometry    CH2O2
 Framework group  C1[X(CH2O2)]
 Deg. of freedom     9
 Full point group                 C1      NOp   1
 Largest Abelian subgroup         C1      NOp   1
 Largest concise Abelian subgroup C1      NOp   1
                         Standard orientation:                         
 ---------------------------------------------------------------------
 Center     Atomic      Atomic             Coordinates (Angstroms)
 Number     Number       Type             X           Y           Z
 ---------------------------------------------------------------------
      1          6           0       -0.128213    0.365851    0.000008
      2          8           0       -1.176045   -0.220330   -0.000003
      3          8           0        1.056364   -0.283268   -0.000000
      4          1           0        1.765342    0.373164   -0.000010
      5          1           0       -0.038615    1.460509   -0.000013
 ---------------------------------------------------------------------
 Rotational constants (GHZ):          86.0567813          11.6827075          10.2862847
 Standard basis: Aug-CC-pVTZ (5D, 7F)
 There are   215 symmetry adapted cartesian basis functions of A   symmetry.
 There are   184 symmetry adapted basis functions of A   symmetry.
   184 basis functions,   270 primitive gaussians,   215 cartesian basis functions
    12 alpha electrons       12 beta electrons
       nuclear repulsion energy        69.8779115590 Hartrees.
 NAtoms=    5 NActive=    5 NUniq=    5 SFac= 1.00D+00 NAtFMM=   60 NAOKFM=F Big=F
 Integral buffers will be    131072 words long.
 Raffenetti 1 integral format.
 Two-electron integral symmetry is turned on.
 One-electron integrals computed using PRISM.
 NBasis=   184 RedAO= T EigKep=  7.12D-05  NBF=   184
 NBsUse=   184 1.00D-06 EigRej= -1.00D+00 NBFU=   184
 Initial guess from the checkpoint file:  "/scr/Gau-43422.chk"
 B after Tr=    -0.000000    0.000000    0.000000
         Rot=    0.999999    0.000000    0.000000   -0.001563 Ang=   0.18 deg.
 ExpMin= 2.53D-02 ExpMax= 1.53D+04 ExpMxC= 5.22D+02 IAcc=3 IRadAn=         5 AccDes= 0.00D+00
 Harris functional with IExCor=  205 and IRadAn=       5 diagonalized for initial guess.
 HarFok:  IExCor=  205 AccDes= 0.00D+00 IRadAn=         5 IDoV= 1 UseB2=F ITyADJ=14
 ICtDFT=  3500011 ScaDFX=  1.000000  1.000000  1.000000  1.000000
 FoFCou: FMM=F IPFlag=           0 FMFlag=      100000 FMFlg1=           0
         NFxFlg=           0 DoJE=T BraDBF=F KetDBF=T FulRan=T
         wScrn=  0.000000 ICntrl=       500 IOpCl=  0 I1Cent=   200000004 NGrid=           0
         NMat0=    1 NMatS0=      1 NMatT0=    0 NMatD0=    1 NMtDS0=    0 NMtDT0=    0
 Petite list used in FoFCou.
 Keep R1 ints in memory in canonical form, NReq=164567584.
 Requested convergence on RMS density matrix=1.00D-08 within 128 cycles.
 Requested convergence on MAX density matrix=1.00D-06.
 Requested convergence on             energy=1.00D-06.
 No special actions if energy rises.
 SCF Done:  E(RHF) =  -188.835842127     A.U. after   10 cycles
            NFock= 10  Conv=0.74D-08     -V/T= 2.0019
 ExpMin= 2.53D-02 ExpMax= 1.53D+04 ExpMxC= 5.22D+02 IAcc=3 IRadAn=         5 AccDes= 0.00D+00
 HarFok:  IExCor=  205 AccDes= 0.00D+00 IRadAn=         5 IDoV=-2 UseB2=F ITyADJ=14
 ICtDFT= 12500011 ScaDFX=  1.000000  1.000000  1.000000  1.000000
 Range of M.O.s used for correlation:     4   184
 NBasis=   184 NAE=    12 NBE=    12 NFC=     3 NFV=     0
 NROrb=    181 NOA=     9 NOB=     9 NVA=   172 NVB=   172

 **** Warning!!: The largest alpha MO coefficient is  0.32448683D+02

 Fully direct method using O(ONN) memory.
 JobTyp=1 Pass  1:  I=   4 to  12 NPSUse= 40 ParTrn=T ParDer=T DoDerP=T.
 Spin components of T(2) and E(2):
     alpha-alpha T2 =       0.2215070782D-01 E2=     -0.8212642188D-01
     alpha-beta  T2 =       0.1217477141D+00 E2=     -0.4798764913D+00
     beta-beta   T2 =       0.2215070782D-01 E2=     -0.8212642188D-01
 ANorm=    0.1079837548D+01
 E2 =    -0.6441293350D+00 EUMP2 =    -0.18947997146173D+03
          IDoAtm=11111
          Differentiating once with respect to electric field.
                with respect to dipole field.
          Differentiating once with respect to nuclear coordinates.
 Keep R1 ints in memory in canonical form, NReq=164572002.
          There are     1 degrees of freedom in the 1st order CPHF.  IDoFFX=0 NUNeed=     1.
 LinEq1:  Iter=  0 NonCon=     1 RMS=5.00D-03 Max=1.12D-01 NDo=     1
 AX will form     1 AO Fock derivatives at one time.
 LinEq1:  Iter=  1 NonCon=     1 RMS=1.35D-03 Max=2.10D-02 NDo=     1
 LinEq1:  Iter=  2 NonCon=     1 RMS=5.00D-04 Max=5.92D-03 NDo=     1
 LinEq1:  Iter=  3 NonCon=     1 RMS=2.23D-04 Max=3.35D-03 NDo=     1
 LinEq1:  Iter=  4 NonCon=     1 RMS=5.90D-05 Max=5.56D-04 NDo=     1
 LinEq1:  Iter=  5 NonCon=     1 RMS=2.33D-05 Max=4.04D-04 NDo=     1
 LinEq1:  Iter=  6 NonCon=     1 RMS=8.59D-06 Max=1.11D-04 NDo=     1
 LinEq1:  Iter=  7 NonCon=     1 RMS=2.13D-06 Max=2.05D-05 NDo=     1
 LinEq1:  Iter=  8 NonCon=     1 RMS=5.03D-07 Max=4.21D-06 NDo=     1
 LinEq1:  Iter=  9 NonCon=     1 RMS=9.26D-08 Max=8.06D-07 NDo=     1
 LinEq1:  Iter= 10 NonCon=     1 RMS=1.54D-08 Max=1.17D-07 NDo=     1
 LinEq1:  Iter= 11 NonCon=     1 RMS=2.12D-09 Max=1.64D-08 NDo=     1
 LinEq1:  Iter= 12 NonCon=     1 RMS=3.18D-10 Max=2.22D-09 NDo=     1
 LinEq1:  Iter= 13 NonCon=     0 RMS=5.11D-11 Max=4.17D-10 NDo=     1
 Linear equations converged to 1.000D-10 1.000D-09 after    13 iterations.
 End of Minotr F.D. properties file   721 does not exist.
 End of Minotr F.D. properties file   722 does not exist.
 End of Minotr F.D. properties file   788 does not exist.
 Calling FoFJK, ICntrl=  10002127 FMM=F ISym2X=0 I1Cent= 0 IOpClX= 0 NMat=1 NMatS=1 NMatT=0.
 ***** Axes restored to original set *****
 -------------------------------------------------------------------
 Center     Atomic                   Forces (Hartrees/Bohr)
 Number     Number              X              Y              Z
 -------------------------------------------------------------------
      1        6           0.005454421    0.000201780   -0.000000148
      2        8          -0.002101904   -0.000944946   -0.000000150
      3        8          -0.002704323   -0.000453973   -0.000001349
      4        1          -0.000021177    0.000961543    0.000000522
      5        1          -0.000627017    0.000235597    0.000001125
 -------------------------------------------------------------------
 Cartesian Forces:  Max     0.005454421 RMS     0.001712610

 GradGradGradGradGradGradGradGradGradGradGradGradGradGradGradGradGradGrad
 Berny optimization.
 Using GEDIIS/GDIIS optimizer.
 FormGI is forming the generalized inverse of G from B-inverse, IUseBI=4.
 Internal  Forces:  Max     0.002194649 RMS     0.001224832
 Search for a local minimum.
 Step number   2 out of a maximum of   21
 All quantities printed in internal units (Hartrees-Bohrs-Radians)
 Mixed Optimization -- RFO/linear search
 Update second derivatives using D2CorX and points    1    2
 DE= -6.61D-04 DEPred=-6.50D-04 R= 1.02D+00
 TightC=F SS=  1.41D+00  RLast= 4.89D-02 DXNew= 5.0454D-01 1.4663D-01
 Trust test= 1.02D+00 RLast= 4.89D-02 DXMaxT set to 3.00D-01
 The second derivative matrix:
                          R1        R2        R3        R4        A1
           R1           0.90401
           R2           0.03153   0.55557
           R3          -0.00972   0.01198   0.32748
           R4          -0.02843   0.02258  -0.00014   0.50580
           A1           0.01060   0.01111   0.00612   0.01046   0.25775
           A2          -0.00852  -0.00429  -0.00347  -0.00643  -0.00346
           A3          -0.03177  -0.01041  -0.01122  -0.02159  -0.00956
           A4           0.02835   0.00700   0.00930   0.01829   0.00717
           D1           0.00002   0.00001   0.00001   0.00002   0.00001
           D2           0.00004   0.00001   0.00001   0.00002   0.00001
           D3          -0.00001  -0.00000  -0.00000  -0.00001  -0.00000
                          A2        A3        A4        D1        D2
           A2           0.16139
           A3           0.00350   0.16801
           A4          -0.00243  -0.00509   0.16290
           D1          -0.00000  -0.00001   0.00000   0.02305
           D2          -0.00000  -0.00001   0.00001   0.00000   0.02305
           D3           0.00000   0.00000  -0.00000  -0.00000  -0.00000
                          D3
           D3           0.02305
 ITU=  1  0
 Use linear search instead of GDIIS.
     Eigenvalues ---    0.02305   0.02305   0.15964   0.16007   0.23277
     Eigenvalues ---    0.32867   0.49565   0.56574   0.91100
 RFO step:  Lambda=-5.27032435D-05 EMin= 2.30486706D-02
 Quartic linear search produced a step of  0.00424.
 Iteration  1 RMS(Cart)=  0.00440886 RMS(Int)=  0.00001270
 Iteration  2 RMS(Cart)=  0.00001412 RMS(Int)=  0.00000000
 Iteration  3 RMS(Cart)=  0.00000000 RMS(Int)=  0.00000000
 Variable       Old X    -DE/DX   Delta X   Delta X   Delta X     New X
                                 (Linear)    (Quad)   (Total)
    R1        2.26890  -0.00219  -0.00011  -0.00316  -0.00326   2.26564
    R2        2.55258   0.00209  -0.00002   0.00368   0.00365   2.55624
    R3        2.07552   0.00008  -0.00009  -0.00054  -0.00063   2.07489
    R4        1.82586  -0.00031  -0.00012  -0.00164  -0.00176   1.82411
    A1        2.13026   0.00152  -0.00007   0.00633   0.00625   2.13651
    A2        2.16251  -0.00007   0.00003   0.00112   0.00115   2.16366
    A3        1.99042  -0.00145   0.00004  -0.00744  -0.00740   1.98301
    A4        1.89337   0.00166  -0.00001   0.01037   0.01036   1.90373
    D1        3.14157   0.00000  -0.00000   0.00006   0.00006  -3.14156
    D2        3.14156   0.00000  -0.00000   0.00009   0.00009  -3.14154
    D3        0.00001  -0.00000   0.00000  -0.00004  -0.00004  -0.00002
         Item               Value     Threshold  Converged?
 Maximum Force            0.002195     0.000450     NO 
 RMS     Force            0.001225     0.000300     NO 
 Maximum Displacement     0.006997     0.001800     NO 
 RMS     Displacement     0.004403     0.001200     NO 
 Predicted change in Energy=-2.636228D-05
 GradGradGradGradGradGradGradGradGradGradGradGradGradGradGradGradGradGrad

                          Input orientation:                          
 ---------------------------------------------------------------------
 Center     Atomic      Atomic             Coordinates (Angstroms)
 Number     Number       Type             X           Y           Z
 ---------------------------------------------------------------------
      1          6           0        1.030361   -0.304716   -0.000357
      2          8           0        2.221919   -0.172025    0.000699
      3          8           0        0.183358    0.749984   -0.000761
      4          1           0       -0.725470    0.424732   -0.001603
      5          1           0        0.521421   -1.277622   -0.001029
 ---------------------------------------------------------------------
                    Distance matrix (angstroms):
                    1          2          3          4          5
     1  C    0.000000
     2  O    1.198924   0.000000
     3  O    1.352703   2.237372   0.000000
     4  H    1.901325   3.007195   0.965275   0.000000
     5  H    1.097983   2.028310   2.055596   2.110154   0.000000
 Stoichiometry    CH2O2
 Framework group  C1[X(CH2O2)]
 Deg. of freedom     9
 Full point group                 C1      NOp   1
 Largest Abelian subgroup         C1      NOp   1
 Largest concise Abelian subgroup C1      NOp   1
                         Standard orientation:                         
 ---------------------------------------------------------------------
 Center     Atomic      Atomic             Coordinates (Angstroms)
 Number     Number       Type             X           Y           Z
 ---------------------------------------------------------------------
      1          6           0       -0.130218    0.363580   -0.000012
      2          8           0       -1.177802   -0.219503    0.000004
      3          8           0        1.058708   -0.281601    0.000000
      4          1           0        1.771097    0.369750    0.000015
      5          1           0       -0.037032    1.457602    0.000019
 ---------------------------------------------------------------------
 Rotational constants (GHZ):          86.8142550          11.6365966          10.2611857
 Standard basis: Aug-CC-pVTZ (5D, 7F)
 There are   215 symmetry adapted cartesian basis functions of A   symmetry.
 There are   184 symmetry adapted basis functions of A   symmetry.
   184 basis functions,   270 primitive gaussians,   215 cartesian basis functions
    12 alpha electrons       12 beta electrons
       nuclear repulsion energy        69.8533120942 Hartrees.
 NAtoms=    5 NActive=    5 NUniq=    5 SFac= 1.00D+00 NAtFMM=   60 NAOKFM=F Big=F
 Integral buffers will be    131072 words long.
 Raffenetti 1 integral format.
 Two-electron integral symmetry is turned on.
 One-electron integrals computed using PRISM.
 NBasis=   184 RedAO= T EigKep=  7.13D-05  NBF=   184
 NBsUse=   184 1.00D-06 EigRej= -1.00D+00 NBFU=   184
 Initial guess from the checkpoint file:  "/scr/Gau-43422.chk"
 B after Tr=    -0.000000   -0.000000   -0.000000
         Rot=    1.000000    0.000000   -0.000000   -0.000078 Ang=  -0.01 deg.
 Keep R1 ints in memory in canonical form, NReq=164567584.
 Requested convergence on RMS density matrix=1.00D-08 within 128 cycles.
 Requested convergence on MAX density matrix=1.00D-06.
 Requested convergence on             energy=1.00D-06.
 No special actions if energy rises.
 SCF Done:  E(RHF) =  -188.836066762     A.U. after    8 cycles
            NFock=  8  Conv=0.82D-08     -V/T= 2.0019
 ExpMin= 2.53D-02 ExpMax= 1.53D+04 ExpMxC= 5.22D+02 IAcc=3 IRadAn=         5 AccDes= 0.00D+00
 HarFok:  IExCor=  205 AccDes= 0.00D+00 IRadAn=         5 IDoV=-2 UseB2=F ITyADJ=14
 ICtDFT= 12500011 ScaDFX=  1.000000  1.000000  1.000000  1.000000
 Range of M.O.s used for correlation:     4   184
 NBasis=   184 NAE=    12 NBE=    12 NFC=     3 NFV=     0
 NROrb=    181 NOA=     9 NOB=     9 NVA=   172 NVB=   172

 **** Warning!!: The largest alpha MO coefficient is  0.32576472D+02

 Fully direct method using O(ONN) memory.
 JobTyp=1 Pass  1:  I=   4 to  12 NPSUse= 40 ParTrn=T ParDer=T DoDerP=T.
 Spin components of T(2) and E(2):
     alpha-alpha T2 =       0.2213146194D-01 E2=     -0.8209485017D-01
     alpha-beta  T2 =       0.1216409395D+00 E2=     -0.4797383626D+00
     beta-beta   T2 =       0.2213146194D-01 E2=     -0.8209485017D-01
 ANorm=    0.1079770283D+01
 E2 =    -0.6439280629D+00 EUMP2 =    -0.18947999482517D+03
          IDoAtm=11111
          Differentiating once with respect to electric field.
                with respect to dipole field.
          Differentiating once with respect to nuclear coordinates.
 Keep R1 ints in memory in canonical form, NReq=164571766.
          There are     1 degrees of freedom in the 1st order CPHF.  IDoFFX=0 NUNeed=     1.
 LinEq1:  Iter=  0 NonCon=     1 RMS=4.99D-03 Max=1.12D-01 NDo=     1
 AX will form     1 AO Fock derivatives at one time.
 LinEq1:  Iter=  1 NonCon=     1 RMS=1.35D-03 Max=2.10D-02 NDo=     1
 LinEq1:  Iter=  2 NonCon=     1 RMS=4.98D-04 Max=5.91D-03 NDo=     1
 LinEq1:  Iter=  3 NonCon=     1 RMS=2.23D-04 Max=3.39D-03 NDo=     1
 LinEq1:  Iter=  4 NonCon=     1 RMS=5.90D-05 Max=5.58D-04 NDo=     1
 LinEq1:  Iter=  5 NonCon=     1 RMS=2.32D-05 Max=4.04D-04 NDo=     1
 LinEq1:  Iter=  6 NonCon=     1 RMS=8.62D-06 Max=1.11D-04 NDo=     1
 LinEq1:  Iter=  7 NonCon=     1 RMS=2.13D-06 Max=2.03D-05 NDo=     1
 LinEq1:  Iter=  8 NonCon=     1 RMS=5.01D-07 Max=4.12D-06 NDo=     1
 LinEq1:  Iter=  9 NonCon=     1 RMS=9.20D-08 Max=8.14D-07 NDo=     1
 LinEq1:  Iter= 10 NonCon=     1 RMS=1.53D-08 Max=1.16D-07 NDo=     1
 LinEq1:  Iter= 11 NonCon=     1 RMS=2.10D-09 Max=1.64D-08 NDo=     1
 LinEq1:  Iter= 12 NonCon=     1 RMS=3.15D-10 Max=2.19D-09 NDo=     1
 LinEq1:  Iter= 13 NonCon=     0 RMS=5.10D-11 Max=4.17D-10 NDo=     1
 Linear equations converged to 1.000D-10 1.000D-09 after    13 iterations.
 End of Minotr F.D. properties file   721 does not exist.
 End of Minotr F.D. properties file   722 does not exist.
 End of Minotr F.D. properties file   788 does not exist.
 Calling FoFJK, ICntrl=  10002127 FMM=F ISym2X=0 I1Cent= 0 IOpClX= 0 NMat=1 NMatS=1 NMatT=0.
 ***** Axes restored to original set *****
 -------------------------------------------------------------------
 Center     Atomic                   Forces (Hartrees/Bohr)
 Number     Number              X              Y              Z
 -------------------------------------------------------------------
      1        6           0.000601854   -0.000538049    0.000007513
      2        8          -0.000258169    0.000344968   -0.000002892
      3        8           0.000225256    0.000845419   -0.000001136
      4        1          -0.000179451   -0.000340373   -0.000000667
      5        1          -0.000389490   -0.000311964   -0.000002818
 -------------------------------------------------------------------
 Cartesian Forces:  Max     0.000845419 RMS     0.000365149

 GradGradGradGradGradGradGradGradGradGradGradGradGradGradGradGradGradGrad
 Berny optimization.
 Using GEDIIS/GDIIS optimizer.
 FormGI is forming the generalized inverse of G from B-inverse, IUseBI=4.
 Internal  Forces:  Max     0.000474265 RMS     0.000308852
 Search for a local minimum.
 Step number   3 out of a maximum of   21
 All quantities printed in internal units (Hartrees-Bohrs-Radians)
 Mixed Optimization -- En-DIIS/RFO-DIIS
 Update second derivatives using D2CorX and points    1    2    3
 DE= -2.34D-05 DEPred=-2.64D-05 R= 8.86D-01
 TightC=F SS=  1.41D+00  RLast= 1.52D-02 DXNew= 5.0454D-01 4.5499D-02
 Trust test= 8.86D-01 RLast= 1.52D-02 DXMaxT set to 3.00D-01
 The second derivative matrix:
                          R1        R2        R3        R4        A1
           R1           0.86232
           R2           0.06733   0.52811
           R3           0.01058   0.00252   0.33457
           R4          -0.02357   0.02411   0.00987   0.51423
           A1           0.01433   0.00178  -0.00753   0.00127   0.26493
           A2           0.02481  -0.02225   0.00253   0.00594  -0.02165
           A3          -0.03140  -0.00524  -0.00062  -0.01367  -0.01656
           A4           0.01979   0.00368  -0.00802   0.00348   0.02217
           D1          -0.00007   0.00005  -0.00003  -0.00003   0.00007
           D2          -0.00011   0.00007  -0.00004  -0.00005   0.00011
           D3           0.00004  -0.00003   0.00002   0.00002  -0.00004
                          A2        A3        A4        D1        D2
           A2           0.16375
           A3           0.01711   0.17445
           A4          -0.02345  -0.01811   0.18760
           D1          -0.00003  -0.00005   0.00008   0.02305
           D2          -0.00005  -0.00008   0.00013   0.00000   0.02305
           D3           0.00002   0.00003  -0.00005  -0.00000  -0.00000
                          D3
           D3           0.02305
 ITU=  1  1  0
 Use linear search instead of GDIIS.
     Eigenvalues ---    0.02305   0.02305   0.14757   0.17429   0.27486
     Eigenvalues ---    0.33566   0.48824   0.54302   0.87936
 RFO step:  Lambda=-2.93627507D-06 EMin= 2.30486706D-02
 Quartic linear search produced a step of -0.10039.
 Iteration  1 RMS(Cart)=  0.00121266 RMS(Int)=  0.00000095
 Iteration  2 RMS(Cart)=  0.00000101 RMS(Int)=  0.00000000
 Iteration  3 RMS(Cart)=  0.00000000 RMS(Int)=  0.00000000
 Variable       Old X    -DE/DX   Delta X   Delta X   Delta X     New X
                                 (Linear)    (Quad)   (Total)
    R1        2.26564  -0.00022   0.00033  -0.00066  -0.00033   2.26530
    R2        2.55624   0.00037  -0.00037   0.00117   0.00081   2.55704
    R3        2.07489   0.00046   0.00006   0.00120   0.00126   2.07615
    R4        1.82411   0.00028   0.00018   0.00027   0.00045   1.82456
    A1        2.13651  -0.00042  -0.00063  -0.00074  -0.00137   2.13514
    A2        2.16366   0.00042  -0.00012   0.00219   0.00208   2.16574
    A3        1.98301   0.00000   0.00074  -0.00145  -0.00071   1.98231
    A4        1.90373  -0.00047  -0.00104  -0.00108  -0.00212   1.90161
    D1       -3.14156  -0.00000  -0.00001  -0.00007  -0.00008   3.14155
    D2       -3.14154  -0.00000  -0.00001  -0.00011  -0.00012   3.14152
    D3       -0.00002   0.00000   0.00000   0.00004   0.00005   0.00003
         Item               Value     Threshold  Converged?
 Maximum Force            0.000474     0.000450     NO 
 RMS     Force            0.000309     0.000300     NO 
 Maximum Displacement     0.002466     0.001800     NO 
 RMS     Displacement     0.001213     0.001200     NO 
 Predicted change in Energy=-1.759409D-06
 GradGradGradGradGradGradGradGradGradGradGradGradGradGradGradGradGradGrad

                          Input orientation:                          
 ---------------------------------------------------------------------
 Center     Atomic      Atomic             Coordinates (Angstroms)
 Number     Number       Type             X           Y           Z
 ---------------------------------------------------------------------
      1          6           0        1.030548   -0.304920   -0.000321
      2          8           0        2.221817   -0.171224    0.000681
      3          8           0        0.183817    0.750544   -0.000758
      4          1           0       -0.724710    0.423749   -0.001614
      5          1           0        0.520116   -1.277796   -0.001038
 ---------------------------------------------------------------------
                    Distance matrix (angstroms):
                    1          2          3          4          5
     1  C    0.000000
     2  O    1.198748   0.000000
     3  O    1.353129   2.236762   0.000000
     4  H    1.900498   3.005997   0.965513   0.000000
     5  H    1.098649   2.029850   2.056031   2.108281   0.000000
 Stoichiometry    CH2O2
 Framework group  C1[X(CH2O2)]
 Deg. of freedom     9
 Full point group                 C1      NOp   1
 Largest Abelian subgroup         C1      NOp   1
 Largest concise Abelian subgroup C1      NOp   1
                         Standard orientation:                         
 ---------------------------------------------------------------------
 Center     Atomic      Atomic             Coordinates (Angstroms)
 Number     Number       Type             X           Y           Z
 ---------------------------------------------------------------------
      1          6           0       -0.130435    0.364093    0.000014
      2          8           0       -1.177428   -0.219689   -0.000005
      3          8           0        1.058465   -0.282031   -0.000000
      4          1           0        1.770052    0.370548   -0.000018
      5          1           0       -0.035737    1.458653   -0.000024
 ---------------------------------------------------------------------
 Rotational constants (GHZ):          86.6196511          11.6433960          10.2637454
 Standard basis: Aug-CC-pVTZ (5D, 7F)
 There are   215 symmetry adapted cartesian basis functions of A   symmetry.
 There are   184 symmetry adapted basis functions of A   symmetry.
   184 basis functions,   270 primitive gaussians,   215 cartesian basis functions
    12 alpha electrons       12 beta electrons
       nuclear repulsion energy        69.8512899694 Hartrees.
 NAtoms=    5 NActive=    5 NUniq=    5 SFac= 1.00D+00 NAtFMM=   60 NAOKFM=F Big=F
 Integral buffers will be    131072 words long.
 Raffenetti 1 integral format.
 Two-electron integral symmetry is turned on.
 One-electron integrals computed using PRISM.
 NBasis=   184 RedAO= T EigKep=  7.14D-05  NBF=   184
 NBsUse=   184 1.00D-06 EigRej= -1.00D+00 NBFU=   184
 Initial guess from the checkpoint file:  "/scr/Gau-43422.chk"
 B after Tr=    -0.000000   -0.000000   -0.000000
         Rot=    1.000000    0.000000    0.000000    0.000034 Ang=   0.00 deg.
 Keep R1 ints in memory in canonical form, NReq=164567584.
 Requested convergence on RMS density matrix=1.00D-08 within 128 cycles.
 Requested convergence on MAX density matrix=1.00D-06.
 Requested convergence on             energy=1.00D-06.
 No special actions if energy rises.
 SCF Done:  E(RHF) =  -188.836024834     A.U. after    7 cycles
            NFock=  7  Conv=0.54D-08     -V/T= 2.0019
 ExpMin= 2.53D-02 ExpMax= 1.53D+04 ExpMxC= 5.22D+02 IAcc=3 IRadAn=         5 AccDes= 0.00D+00
 HarFok:  IExCor=  205 AccDes= 0.00D+00 IRadAn=         5 IDoV=-2 UseB2=F ITyADJ=14
 ICtDFT= 12500011 ScaDFX=  1.000000  1.000000  1.000000  1.000000
 Range of M.O.s used for correlation:     4   184
 NBasis=   184 NAE=    12 NBE=    12 NFC=     3 NFV=     0
 NROrb=    181 NOA=     9 NOB=     9 NVA=   172 NVB=   172

 **** Warning!!: The largest alpha MO coefficient is  0.32393130D+02

 Fully direct method using O(ONN) memory.
 JobTyp=1 Pass  1:  I=   4 to  12 NPSUse= 40 ParTrn=T ParDer=T DoDerP=T.
 Spin components of T(2) and E(2):
     alpha-alpha T2 =       0.2213588181D-01 E2=     -0.8210048411D-01
     alpha-beta  T2 =       0.1216691535D+00 E2=     -0.4797711738D+00
     beta-beta   T2 =       0.2213588181D-01 E2=     -0.8210048411D-01
 ANorm=    0.1079787441D+01
 E2 =    -0.6439721420D+00 EUMP2 =    -0.18947999697574D+03
          IDoAtm=11111
          Differentiating once with respect to electric field.
                with respect to dipole field.
          Differentiating once with respect to nuclear coordinates.
 Keep R1 ints in memory in canonical form, NReq=164571766.
          There are     1 degrees of freedom in the 1st order CPHF.  IDoFFX=0 NUNeed=     1.
 LinEq1:  Iter=  0 NonCon=     1 RMS=5.00D-03 Max=1.12D-01 NDo=     1
 AX will form     1 AO Fock derivatives at one time.
 LinEq1:  Iter=  1 NonCon=     1 RMS=1.35D-03 Max=2.10D-02 NDo=     1
 LinEq1:  Iter=  2 NonCon=     1 RMS=4.98D-04 Max=5.91D-03 NDo=     1
 LinEq1:  Iter=  3 NonCon=     1 RMS=2.23D-04 Max=3.40D-03 NDo=     1
 LinEq1:  Iter=  4 NonCon=     1 RMS=5.91D-05 Max=5.59D-04 NDo=     1
 LinEq1:  Iter=  5 NonCon=     1 RMS=2.33D-05 Max=4.06D-04 NDo=     1
 LinEq1:  Iter=  6 NonCon=     1 RMS=8.65D-06 Max=1.10D-04 NDo=     1
 LinEq1:  Iter=  7 NonCon=     1 RMS=2.13D-06 Max=2.04D-05 NDo=     1
 LinEq1:  Iter=  8 NonCon=     1 RMS=5.02D-07 Max=4.14D-06 NDo=     1
 LinEq1:  Iter=  9 NonCon=     1 RMS=9.22D-08 Max=8.14D-07 NDo=     1
 LinEq1:  Iter= 10 NonCon=     1 RMS=1.53D-08 Max=1.17D-07 NDo=     1
 LinEq1:  Iter= 11 NonCon=     1 RMS=2.11D-09 Max=1.64D-08 NDo=     1
 LinEq1:  Iter= 12 NonCon=     1 RMS=3.16D-10 Max=2.20D-09 NDo=     1
 LinEq1:  Iter= 13 NonCon=     0 RMS=5.10D-11 Max=4.18D-10 NDo=     1
 Linear equations converged to 1.000D-10 1.000D-09 after    13 iterations.
 End of Minotr F.D. properties file   721 does not exist.
 End of Minotr F.D. properties file   722 does not exist.
 End of Minotr F.D. properties file   788 does not exist.
 Calling FoFJK, ICntrl=  10002127 FMM=F ISym2X=0 I1Cent= 0 IOpClX= 0 NMat=1 NMatS=1 NMatT=0.
 ***** Axes restored to original set *****
 -------------------------------------------------------------------
 Center     Atomic                   Forces (Hartrees/Bohr)
 Number     Number              X              Y              Z
 -------------------------------------------------------------------
      1        6           0.000225194   -0.000258128   -0.000008706
      2        8          -0.000034352    0.000024832    0.000003386
      3        8          -0.000069467    0.000326745    0.000001944
      4        1          -0.000076144   -0.000088355    0.000000433
      5        1          -0.000045231   -0.000005094    0.000002942
 -------------------------------------------------------------------
 Cartesian Forces:  Max     0.000326745 RMS     0.000128193

 GradGradGradGradGradGradGradGradGradGradGradGradGradGradGradGradGradGrad
 Berny optimization.
 Using GEDIIS/GDIIS optimizer.
 FormGI is forming the generalized inverse of G from B-inverse, IUseBI=4.
 Internal  Forces:  Max     0.000277064 RMS     0.000096854
 Search for a local minimum.
 Step number   4 out of a maximum of   21
 All quantities printed in internal units (Hartrees-Bohrs-Radians)
 Mixed Optimization -- En-DIIS/RFO-DIIS
 Swapping is turned off.
 Update second derivatives using D2CorX and points    1    2    3    4
 DE= -2.15D-06 DEPred=-1.76D-06 R= 1.22D+00
 TightC=F SS=  1.41D+00  RLast= 3.71D-03 DXNew= 5.0454D-01 1.1126D-02
 Trust test= 1.22D+00 RLast= 3.71D-03 DXMaxT set to 3.00D-01
 The second derivative matrix:
                          R1        R2        R3        R4        A1
           R1           0.87051
           R2           0.09373   0.47633
           R3           0.00707  -0.03020   0.34087
           R4          -0.01211  -0.00035  -0.00039   0.50493
           A1           0.00945   0.02927  -0.01081   0.00790   0.25967
           A2           0.01538  -0.05032   0.00760  -0.00564  -0.02442
           A3          -0.04120   0.00539   0.00556  -0.01068  -0.02294
           A4           0.01151   0.03682  -0.00117   0.01575   0.01199
           D1           0.00029   0.00001  -0.00045  -0.00011   0.00039
           D2           0.00047   0.00001  -0.00074  -0.00019   0.00064
           D3          -0.00018  -0.00000   0.00029   0.00007  -0.00025
                          A2        A3        A4        D1        D2
           A2           0.17104
           A3           0.02419   0.17307
           A4          -0.01817  -0.02557   0.17210
           D1          -0.00041  -0.00005   0.00032   0.02305
           D2          -0.00067  -0.00008   0.00052   0.00001   0.02307
           D3           0.00026   0.00003  -0.00020  -0.00000  -0.00001
                          D3
           D3           0.02305
 ITU=  1  1  1  0
     Eigenvalues ---    0.02305   0.02306   0.13668   0.16489   0.26463
     Eigenvalues ---    0.33402   0.47984   0.50769   0.89496
 En-DIIS/RFO-DIIS/Sim-DIIS IScMMF=       -3 using points:     4    3
 RFO step:  Lambda=-3.54214996D-07.
 DidBck=F Rises=F RFO-DIIS coefs:    1.28599   -0.28599
 Iteration  1 RMS(Cart)=  0.00036641 RMS(Int)=  0.00000017
 Iteration  2 RMS(Cart)=  0.00000015 RMS(Int)=  0.00000000
 Variable       Old X    -DE/DX   Delta X   Delta X   Delta X     New X
                                 (Linear)    (Quad)   (Total)
    R1        2.26530  -0.00003  -0.00010  -0.00003  -0.00013   2.26518
    R2        2.55704   0.00028   0.00023   0.00051   0.00074   2.55778
    R3        2.07615   0.00003   0.00036  -0.00023   0.00013   2.07628
    R4        1.82456   0.00010   0.00013   0.00009   0.00022   1.82478
    A1        2.13514  -0.00002  -0.00039   0.00030  -0.00009   2.13505
    A2        2.16574   0.00005   0.00059  -0.00011   0.00049   2.16623
    A3        1.98231  -0.00003  -0.00020  -0.00020  -0.00040   1.98191
    A4        1.90161  -0.00010  -0.00061  -0.00017  -0.00078   1.90083
    D1        3.14155   0.00000  -0.00002   0.00015   0.00013  -3.14150
    D2        3.14152   0.00000  -0.00004   0.00025   0.00022  -3.14144
    D3        0.00003  -0.00000   0.00001  -0.00010  -0.00008  -0.00006
         Item               Value     Threshold  Converged?
 Maximum Force            0.000277     0.000450     YES
 RMS     Force            0.000097     0.000300     YES
 Maximum Displacement     0.000741     0.001800     YES
 RMS     Displacement     0.000366     0.001200     YES
 Predicted change in Energy=-1.771078D-07
 Optimization completed.
    -- Stationary point found.
                           ----------------------------
                           !   Optimized Parameters   !
                           ! (Angstroms and Degrees)  !
 --------------------------                            --------------------------
 ! Name  Definition              Value          Derivative Info.                !
 --------------------------------------------------------------------------------
 ! R1    R(1,2)                  1.1987         -DE/DX =    0.0                 !
 ! R2    R(1,3)                  1.3531         -DE/DX =    0.0003              !
 ! R3    R(1,5)                  1.0986         -DE/DX =    0.0                 !
 ! R4    R(3,4)                  0.9655         -DE/DX =    0.0001              !
 ! A1    A(2,1,3)              122.3344         -DE/DX =    0.0                 !
 ! A2    A(2,1,5)              124.0878         -DE/DX =    0.0                 !
 ! A3    A(3,1,5)              113.5778         -DE/DX =    0.0                 !
 ! A4    A(1,3,4)              108.9543         -DE/DX =   -0.0001              !
 ! D1    D(2,1,3,4)           -180.0024         -DE/DX =    0.0                 !
 ! D2    D(2,1,3,5)           -180.0039         -DE/DX =    0.0                 !
 ! D3    D(5,1,3,4)              0.0015         -DE/DX =    0.0                 !
 --------------------------------------------------------------------------------
 GradGradGradGradGradGradGradGradGradGradGradGradGradGradGradGradGradGrad

                          Input orientation:                          
 ---------------------------------------------------------------------
 Center     Atomic      Atomic             Coordinates (Angstroms)
 Number     Number       Type             X           Y           Z
 ---------------------------------------------------------------------
      1          6           0        1.030548   -0.304920   -0.000321
      2          8           0        2.221817   -0.171224    0.000681
      3          8           0        0.183817    0.750544   -0.000758
      4          1           0       -0.724710    0.423749   -0.001614
      5          1           0        0.520116   -1.277796   -0.001038
 ---------------------------------------------------------------------
                    Distance matrix (angstroms):
                    1          2          3          4          5
     1  C    0.000000
     2  O    1.198748   0.000000
     3  O    1.353129   2.236762   0.000000
     4  H    1.900498   3.005997   0.965513   0.000000
     5  H    1.098649   2.029850   2.056031   2.108281   0.000000
 Stoichiometry    CH2O2
 Framework group  C1[X(CH2O2)]
 Deg. of freedom     9
 Full point group                 C1      NOp   1
 Largest Abelian subgroup         C1      NOp   1
 Largest concise Abelian subgroup C1      NOp   1
                         Standard orientation:                         
 ---------------------------------------------------------------------
 Center     Atomic      Atomic             Coordinates (Angstroms)
 Number     Number       Type             X           Y           Z
 ---------------------------------------------------------------------
      1          6           0       -0.130435    0.364093    0.000014
      2          8           0       -1.177428   -0.219689   -0.000005
      3          8           0        1.058465   -0.282031   -0.000000
      4          1           0        1.770052    0.370548   -0.000018
      5          1           0       -0.035737    1.458653   -0.000024
 ---------------------------------------------------------------------
 Rotational constants (GHZ):          86.6196511          11.6433960          10.2637454

 **********************************************************************

            Population analysis using the SCF Density.

 **********************************************************************

 Orbital symmetries:
       Occupied  (A) (A) (A) (A) (A) (A) (A) (A) (A) (A) (A) (A)
       Virtual   (A) (A) (A) (A) (A) (A) (A) (A) (A) (A) (A) (A)
                 (A) (A) (A) (A) (A) (A) (A) (A) (A) (A) (A) (A)
                 (A) (A) (A) (A) (A) (A) (A) (A) (A) (A) (A) (A)
                 (A) (A) (A) (A) (A) (A) (A) (A) (A) (A) (A) (A)
                 (A) (A) (A) (A) (A) (A) (A) (A) (A) (A) (A) (A)
                 (A) (A) (A) (A) (A) (A) (A) (A) (A) (A) (A) (A)
                 (A) (A) (A) (A) (A) (A) (A) (A) (A) (A) (A) (A)
                 (A) (A) (A) (A) (A) (A) (A) (A) (A) (A) (A) (A)
                 (A) (A) (A) (A) (A) (A) (A) (A) (A) (A) (A) (A)
                 (A) (A) (A) (A) (A) (A) (A) (A) (A) (A) (A) (A)
                 (A) (A) (A) (A) (A) (A) (A) (A) (A) (A) (A) (A)
                 (A) (A) (A) (A) (A) (A) (A) (A) (A) (A) (A) (A)
                 (A) (A) (A) (A) (A) (A) (A) (A) (A) (A) (A) (A)
                 (A) (A) (A) (A) (A) (A) (A) (A) (A) (A) (A) (A)
                 (A) (A) (A) (A)
 The electronic state is 1-A.
 Alpha  occ. eigenvalues --  -20.63119 -20.56475 -11.39848  -1.47246  -1.38013
 Alpha  occ. eigenvalues --   -0.87135  -0.79505  -0.67133  -0.63579  -0.60349
 Alpha  occ. eigenvalues --   -0.49444  -0.47071
 Alpha virt. eigenvalues --    0.01745   0.03987   0.07009   0.08058   0.10499
 Alpha virt. eigenvalues --    0.12059   0.14598   0.15649   0.16162   0.17944
 Alpha virt. eigenvalues --    0.18745   0.21610   0.22848   0.24444   0.26161
 Alpha virt. eigenvalues --    0.26468   0.28693   0.31967   0.32172   0.32685
 Alpha virt. eigenvalues --    0.36619   0.37107   0.39914   0.42133   0.42865
 Alpha virt. eigenvalues --    0.48106   0.49966   0.51266   0.51901   0.57861
 Alpha virt. eigenvalues --    0.61592   0.64908   0.66886   0.70771   0.72708
 Alpha virt. eigenvalues --    0.74263   0.74823   0.79692   0.83024   0.85109
 Alpha virt. eigenvalues --    0.86049   0.88281   0.88632   0.88889   0.91445
 Alpha virt. eigenvalues --    0.92971   0.94455   0.97271   0.98121   0.99368
 Alpha virt. eigenvalues --    1.01370   1.03112   1.05058   1.06115   1.09867
 Alpha virt. eigenvalues --    1.15196   1.16670   1.19197   1.25356   1.26939
 Alpha virt. eigenvalues --    1.30946   1.32394   1.36739   1.39457   1.43689
 Alpha virt. eigenvalues --    1.46573   1.47551   1.51434   1.56926   1.57344
 Alpha virt. eigenvalues --    1.60595   1.68703   1.73961   1.77026   1.77589
 Alpha virt. eigenvalues --    1.90341   1.95340   2.03327   2.06167   2.11619
 Alpha virt. eigenvalues --    2.23610   2.26121   2.27967   2.32088   2.35199
 Alpha virt. eigenvalues --    2.39614   2.39857   2.43835   2.46215   2.50494
 Alpha virt. eigenvalues --    2.52575   2.57394   2.59406   2.60448   2.67738
 Alpha virt. eigenvalues --    2.69676   2.73200   2.82377   2.85141   2.85149
 Alpha virt. eigenvalues --    2.87198   2.92551   2.95831   3.06683   3.13910
 Alpha virt. eigenvalues --    3.17677   3.21316   3.25751   3.32501   3.49794
 Alpha virt. eigenvalues --    3.51946   3.65443   3.76919   3.79492   3.87857
 Alpha virt. eigenvalues --    3.91112   3.95859   4.07101   4.10174   4.11355
 Alpha virt. eigenvalues --    4.25136   4.27772   4.28207   4.31001   4.32130
 Alpha virt. eigenvalues --    4.37845   4.55976   4.62545   4.67523   4.69357
 Alpha virt. eigenvalues --    4.85296   4.88675   5.05789   5.12805   5.16232
 Alpha virt. eigenvalues --    5.19247   5.22059   5.34035   5.40155   5.49175
 Alpha virt. eigenvalues --    5.71847   5.88535   6.19741   6.32018   6.48553
 Alpha virt. eigenvalues --    6.60951   6.61304   6.75965   6.81289   6.85744
 Alpha virt. eigenvalues --    6.92667   6.98404   7.11122   7.14382   7.18056
 Alpha virt. eigenvalues --    7.24521   7.27487   7.32062   7.36287   7.45270
 Alpha virt. eigenvalues --    7.51702   7.52620   7.57322   7.73282   7.78518
 Alpha virt. eigenvalues --    7.79876   7.92866   8.20175   8.47031  14.63862
 Alpha virt. eigenvalues --   15.87340  17.08289
          Condensed to atoms (all electrons):
               1          2          3          4          5
     1  C    4.855732   0.529682   0.311218   0.012241   0.226595
     2  O    0.529682   8.144286  -0.093533  -0.000929  -0.045995
     3  O    0.311218  -0.093533   7.922803   0.220013  -0.036479
     4  H    0.012241  -0.000929   0.220013   0.523253   0.013606
     5  H    0.226595  -0.045995  -0.036479   0.013606   0.281088
 Mulliken charges:
               1
     1  C    0.064531
     2  O   -0.533512
     3  O   -0.324022
     4  H    0.231817
     5  H    0.561185
 Sum of Mulliken charges =  -0.00000
 Mulliken charges with hydrogens summed into heavy atoms:
               1
     1  C    0.625716
     2  O   -0.533512
     3  O   -0.092204
 Electronic spatial extent (au):  <R**2>=            135.2891
 Charge=             -0.0000 electrons
 Dipole moment (field-independent basis, Debye):
    X=              3.1236    Y=              3.1232    Z=             -0.0000  Tot=              4.4172
 Quadrupole moment (field-independent basis, Debye-Ang):
   XX=            -17.3657   YY=            -16.0927   ZZ=            -17.0332
   XY=              1.5731   XZ=             -0.0001   YZ=             -0.0000
 Traceless Quadrupole moment (field-independent basis, Debye-Ang):
   XX=             -0.5352   YY=              0.7379   ZZ=             -0.2027
   XY=              1.5731   XZ=             -0.0001   YZ=             -0.0000
 Octapole moment (field-independent basis, Debye-Ang**2):
  XXX=             14.4610  YYY=              2.0565  ZZZ=             -0.0000  XYY=              0.9281
  XXY=              3.6234  XXZ=             -0.0002  XZZ=              0.2560  YZZ=             -0.0245
  YYZ=             -0.0001  XYZ=             -0.0000
 Hexadecapole moment (field-independent basis, Debye-Ang**3):
 XXXX=            -94.3994 YYYY=            -29.3337 ZZZZ=            -14.4250 XXXY=              6.3129
 XXXZ=             -0.0003 YYYX=              0.5565 YYYZ=             -0.0002 ZZZX=             -0.0000
 ZZZY=             -0.0000 XXYY=            -22.9633 XXZZ=            -21.0597 YYZZ=             -7.9184
 XXYZ=             -0.0000 YYXZ=             -0.0000 ZZXY=              0.3695
 N-N= 6.985128996939D+01 E-N=-5.858708214545D+02  KE= 1.884745020009D+02
 Unable to Open any file for archive entry.
 1\1\GINC-N3260\FOpt\RMP2-FC\Aug-CC-pVTZ\C1H2O2\GDS001\20-Mar-2025\0\\#
  MP2/aug-cc-pVTZ opt freq=(vibrot,anharmonic)\\blah\\0,1\C,1.030548450
 1,-0.3049196421,-0.0003210578\O,2.2218169783,-0.1712243658,0.000680730
 7\O,0.1838165995,0.7505440229,-0.0007577847\H,-0.7247100871,0.42374922
 13,-0.0016137209\H,0.5201160592,-1.2777962363,-0.0010381672\\Version=E
 M64L-G16RevC.01\State=1-A\HF=-188.8360248\MP2=-189.479997\RMSD=5.438e-
 09\RMSF=1.282e-04\Dipole=-1.4196708,-0.562241,-0.0013297\PG=C01 [X(C1H
 2O2)]\\@
 The archive entry for this job was punched.


 THERE ARE PEOPLE SO ADDICTED TO EXAGERATING THEY
 CAN'T TELL THE TRUTH WITHOUT LYING. -- FORTUNE COOKIE
 Job cpu time:       0 days  0 hours 50 minutes 32.9 seconds.
 Elapsed time:       0 days  0 hours  1 minutes 34.2 seconds.
 File lengths (MBytes):  RWF=     21 Int=      0 D2E=      0 Chk=      5 Scr=      1
 Normal termination of Gaussian 16 at Thu Mar 20 22:14:42 2025.
 Link1:  Proceeding to internal job step number  2.
 ----------------------------------------------------------------------
 #N Geom=AllCheck Guess=TCheck SCRF=Check GenChk RMP2(FC)/Aug-CC-pVTZ F
 req
 ----------------------------------------------------------------------
 1/10=4,29=7,30=1,38=21,40=1,80=1/1,6,3;
 2/12=2,40=1/2;
 3/5=16,6=1,7=10,11=1,14=-4,25=1,30=1,70=2,71=2,116=1,140=1/1,2,3;
 4/5=101,69=2/1;
 5/5=2,38=6,98=1/2;
 8/6=3,8=1,10=1,19=11,30=-1/1;
 9/15=3,16=-3/6;
 11/6=1,8=1,15=11,17=12,24=-1,27=1,28=-2,29=300,32=6,42=3/1,2,10;
 10/6=2,21=1,60=-2/2;
 8/6=4,8=1,10=1,19=11,30=-1/11,4;
 10/5=1,20=4,60=-2/2;
 11/12=2,14=11,16=1,17=2,28=-2,42=3,76=2/2,10,12;
 6/7=2,8=2,9=2,10=2,22=-1/1;
 7/10=1,12=2,25=1,44=2,70=1,71=2/1,2,3,16;
 1/38=20,80=1/6(3);
 7/8=1,25=202,44=-1,70=1,71=1,92=10/16,17;
 1/10=4,30=1,38=20,80=1/3;
 99//99;
 3/5=16,6=1,7=10,11=1,14=-2,25=1,30=1,70=5,71=2,116=1,140=1/1,2,3;
 4/5=5,16=3,69=2/1;
 5/5=2,38=5,98=1/2;
 8/6=3,8=1,10=1,19=11,30=-1/1;
 9/15=3,16=-3/6;
 11/6=1,8=1,15=11,17=12,24=-1,27=1,28=-2,29=300,32=6,42=3/1,2,10;
 10/6=2,21=1,60=-2/2;
 8/6=4,8=1,10=1,19=11,30=-1/11,4;
 10/5=1,20=4,60=-2/2;
 11/12=2,14=11,16=1,17=2,28=-2,42=3,76=2/2,10,12;
 6/7=2,8=2,9=2,10=2,22=-1/1;
 7/7=1,10=1,12=2,25=1,44=2,70=1,71=1/1,2,3,16;
 1/38=20,80=1/6(-12);
 7/8=1,25=202,44=-1,70=1,71=1,92=10/16,17;
 1/10=4,30=1,38=20,80=1/3;
 99//99;
 Structure from the checkpoint file:  "/scr/Gau-43422.chk"
 ----
 blah
 ----
 Charge =  0 Multiplicity = 1
 Redundant internal coordinates found in file.  (old form).
 C,0,1.0305484501,-0.3049196421,-0.0003210578
 O,0,2.2218169783,-0.1712243658,0.0006807307
 O,0,0.1838165995,0.7505440229,-0.0007577847
 H,0,-0.7247100871,0.4237492213,-0.0016137209
 H,0,0.5201160592,-1.2777962363,-0.0010381672
 Recover connectivity data from disk.
 Numerical evaluation of third derivatives.
 Nuclear step= 0.010000 Angstroms, electric field step= 0.000333 atomic units, NStep=1.

 GradGradGradGradGradGradGradGradGradGradGradGradGradGradGradGradGradGrad
 Berny optimization.
 Initialization pass.
                           ----------------------------
                           !    Initial Parameters    !
                           ! (Angstroms and Degrees)  !
 --------------------------                            --------------------------
 ! Name  Definition              Value          Derivative Info.                !
 --------------------------------------------------------------------------------
 ! R1    R(1,2)                  1.1987         calculate D2E/DX2 analytically  !
 ! R2    R(1,3)                  1.3531         calculate D2E/DX2 analytically  !
 ! R3    R(1,5)                  1.0986         calculate D2E/DX2 analytically  !
 ! R4    R(3,4)                  0.9655         calculate D2E/DX2 analytically  !
 ! A1    A(2,1,3)              122.3344         calculate D2E/DX2 analytically  !
 ! A2    A(2,1,5)              124.0878         calculate D2E/DX2 analytically  !
 ! A3    A(3,1,5)              113.5778         calculate D2E/DX2 analytically  !
 ! A4    A(1,3,4)              108.9543         calculate D2E/DX2 analytically  !
 ! D1    D(2,1,3,4)            179.9976         calculate D2E/DX2 analytically  !
 ! D2    D(2,1,3,5)            179.9961         calculate D2E/DX2 analytically  !
 ! D3    D(5,1,3,4)              0.0015         calculate D2E/DX2 analytically  !
 --------------------------------------------------------------------------------
 Trust Radius=3.00D-01 FncErr=1.00D-07 GrdErr=1.00D-07 EigMax=2.50D+02 EigMin=1.00D-04
 Number of steps in this run=      2 maximum allowed number of steps=      2.
 GradGradGradGradGradGradGradGradGradGradGradGradGradGradGradGradGradGrad

                          Input orientation:                          
 ---------------------------------------------------------------------
 Center     Atomic      Atomic             Coordinates (Angstroms)
 Number     Number       Type             X           Y           Z
 ---------------------------------------------------------------------
      1          6           0        1.030548   -0.304920   -0.000321
      2          8           0        2.221817   -0.171224    0.000681
      3          8           0        0.183817    0.750544   -0.000758
      4          1           0       -0.724710    0.423749   -0.001614
      5          1           0        0.520116   -1.277796   -0.001038
 ---------------------------------------------------------------------
                    Distance matrix (angstroms):
                    1          2          3          4          5
     1  C    0.000000
     2  O    1.198748   0.000000
     3  O    1.353129   2.236762   0.000000
     4  H    1.900498   3.005997   0.965513   0.000000
     5  H    1.098649   2.029850   2.056031   2.108281   0.000000
 Stoichiometry    CH2O2
 Framework group  C1[X(CH2O2)]
 Deg. of freedom     9
 Full point group                 C1      NOp   1
 Largest Abelian subgroup         C1      NOp   1
 Largest concise Abelian subgroup C1      NOp   1
                         Standard orientation:                         
 ---------------------------------------------------------------------
 Center     Atomic      Atomic             Coordinates (Angstroms)
 Number     Number       Type             X           Y           Z
 ---------------------------------------------------------------------
      1          6           0       -0.130435    0.364093    0.000014
      2          8           0       -1.177428   -0.219689   -0.000005
      3          8           0        1.058465   -0.282031   -0.000000
      4          1           0        1.770052    0.370548   -0.000018
      5          1           0       -0.035737    1.458653   -0.000024
 ---------------------------------------------------------------------
 Rotational constants (GHZ):          86.6196511          11.6433960          10.2637454
 Standard basis: Aug-CC-pVTZ (5D, 7F)
 There are   215 symmetry adapted cartesian basis functions of A   symmetry.
 There are   184 symmetry adapted basis functions of A   symmetry.
   184 basis functions,   270 primitive gaussians,   215 cartesian basis functions
    12 alpha electrons       12 beta electrons
       nuclear repulsion energy        69.8512899694 Hartrees.
 NAtoms=    5 NActive=    5 NUniq=    5 SFac= 1.00D+00 NAtFMM=   60 NAOKFM=F Big=F
 Integral buffers will be    131072 words long.
 Raffenetti 1 integral format.
 Two-electron integral symmetry is turned on.
 One-electron integrals computed using PRISM.
 NBasis=   184 RedAO= T EigKep=  7.14D-05  NBF=   184
 NBsUse=   184 1.00D-06 EigRej= -1.00D+00 NBFU=   184
 Initial guess from the checkpoint file:  "/scr/Gau-43422.chk"
 B after Tr=     0.000000    0.000000    0.000000
         Rot=    1.000000    0.000000    0.000000    0.000000 Ang=   0.00 deg.
 Keep R1 ints in memory in canonical form, NReq=164567584.
 Requested convergence on RMS density matrix=1.00D-08 within 128 cycles.
 Requested convergence on MAX density matrix=1.00D-06.
 Requested convergence on             energy=1.00D-06.
 No special actions if energy rises.
 SCF Done:  E(RHF) =  -188.836024834     A.U. after    1 cycles
            NFock=  1  Conv=0.17D-08     -V/T= 2.0019
 ExpMin= 2.53D-02 ExpMax= 1.53D+04 ExpMxC= 5.22D+02 IAcc=3 IRadAn=         5 AccDes= 0.00D+00
 HarFok:  IExCor=  205 AccDes= 0.00D+00 IRadAn=         5 IDoV=-2 UseB2=F ITyADJ=14
 ICtDFT= 12500011 ScaDFX=  1.000000  1.000000  1.000000  1.000000
 Range of M.O.s used for correlation:     4   184
 NBasis=   184 NAE=    12 NBE=    12 NFC=     3 NFV=     0
 NROrb=    181 NOA=     9 NOB=     9 NVA=   172 NVB=   172

 **** Warning!!: The largest alpha MO coefficient is  0.32393126D+02

 Disk-based method using ON**2 memory for  9 occupieds at a time.
 Permanent disk used for amplitudes=     5230692 words.
 Estimated scratch disk usage=   162651676 words.
 Actual    scratch disk usage=   157171740 words.
 JobTyp=1 Pass  1:  I=   4 to  12 NPSUse= 40 ParTrn=T ParDer=T DoDerP=T.
 (rs|ai) integrals will be sorted in core.
 Spin components of T(2) and E(2):
     alpha-alpha T2 =       0.2213587981D-01 E2=     -0.8210048216D-01
     alpha-beta  T2 =       0.1216691475D+00 E2=     -0.4797711711D+00
     beta-beta   T2 =       0.2213587981D-01 E2=     -0.8210048216D-01
 ANorm=    0.1079787436D+01
 E2 =    -0.6439721354D+00 EUMP2 =    -0.18947999696914D+03
 G2DrvN: will do     6 centers at a time, making    1 passes.
 Calling FoFCou, ICntrl=  3107 FMM=F I1Cent=   0 AccDes= 0.00D+00.
 End of G2Drv F.D. properties file   721 does not exist.
 End of G2Drv F.D. properties file   722 does not exist.
 End of G2Drv F.D. properties file   788 does not exist.
          IDoAtm=11111
          Differentiating once with respect to electric field.
                with respect to dipole field.
          Differentiating once with respect to nuclear coordinates.
 Keep R1 ints in memory in canonical form, NReq=164568757.
          There are    18 degrees of freedom in the 1st order CPHF.  IDoFFX=6 NUNeed=    18.
     15 vectors produced by pass  0 Test12= 1.15D-14 5.56D-09 XBig12= 6.51D+00 1.40D+00.
 AX will form    15 AO Fock derivatives at one time.
     15 vectors produced by pass  1 Test12= 1.15D-14 5.56D-09 XBig12= 5.48D-01 1.91D-01.
     15 vectors produced by pass  2 Test12= 1.15D-14 5.56D-09 XBig12= 2.16D-02 2.99D-02.
     15 vectors produced by pass  3 Test12= 1.15D-14 5.56D-09 XBig12= 4.68D-04 4.52D-03.
     15 vectors produced by pass  4 Test12= 1.15D-14 5.56D-09 XBig12= 5.68D-06 4.31D-04.
     15 vectors produced by pass  5 Test12= 1.15D-14 5.56D-09 XBig12= 5.28D-08 3.76D-05.
     15 vectors produced by pass  6 Test12= 1.15D-14 5.56D-09 XBig12= 3.23D-10 3.53D-06.
      7 vectors produced by pass  7 Test12= 1.15D-14 5.56D-09 XBig12= 2.18D-12 2.20D-07.
      3 vectors produced by pass  8 Test12= 1.15D-14 5.56D-09 XBig12= 1.61D-14 2.15D-08.
 InvSVY:  IOpt=1 It=  1 EMax= 7.77D-16
 Solved reduced A of dimension   115 with    15 vectors.
 End of Minotr F.D. properties file   721 does not exist.
 End of Minotr F.D. properties file   722 does not exist.
 End of Minotr F.D. properties file   788 does not exist.
 MDV=  6710886400.
 Form MO integral derivatives with frozen-active canonical formalism.
 Discarding MO integrals.
 Reordered first order wavefunction length =      8520192
 In DefCFB: NBatch=  1 ICI= 12 ICA=172 LFMax= 86
            Large arrays: LIAPS=   326607360 LIARS=   170847600 words.
 Semi-Direct transformation.
 ModeAB=           2 MOrb=            12 LenV=    6709891133
 LASXX=     35722311 LTotXX=    35722311 LenRXX=    35722311
 LTotAB=    36295848 MaxLAS=    51269760 LenRXY=    51269760
 NonZer=    71444622 LenScr=   107927040 LnRSAI=           0
 LnScr1=           0 LExtra=           0 Total=    194919111
 MaxDsk=          -1 SrtSym=           F ITran=            4
 JobTyp=0 Pass  1:  I=   1 to  12.
 (rs|ai) integrals will be sorted in core.
 SymMOI:  orbitals are not symmetric.
 Spin components of T(2) and E(2):
     alpha-alpha T2 =       0.2213587981D-01 E2=     -0.8210048216D-01
     alpha-beta  T2 =       0.1216691475D+00 E2=     -0.4797711711D+00
     beta-beta   T2 =       0.2213587981D-01 E2=     -0.8210048216D-01
 ANorm=    0.1527050037D+01
 E2 =    -0.6439721354D+00 EUMP2 =    -0.18947999696914D+03
          IDoAtm=11111
          Differentiating once with respect to electric field.
                with respect to dipole field.
          Differentiating once with respect to nuclear coordinates.
          There are     1 degrees of freedom in the 1st order CPHF.  IDoFFX=0 NUNeed=     1.
 LinEq1:  Iter=  0 NonCon=     1 RMS=5.00D-03 Max=1.12D-01 NDo=     1
 LinEq1:  Iter=  1 NonCon=     1 RMS=1.35D-03 Max=2.10D-02 NDo=     1
 LinEq1:  Iter=  2 NonCon=     1 RMS=4.98D-04 Max=5.91D-03 NDo=     1
 LinEq1:  Iter=  3 NonCon=     1 RMS=2.23D-04 Max=3.40D-03 NDo=     1
 LinEq1:  Iter=  4 NonCon=     1 RMS=5.91D-05 Max=5.59D-04 NDo=     1
 LinEq1:  Iter=  5 NonCon=     1 RMS=2.33D-05 Max=4.06D-04 NDo=     1
 LinEq1:  Iter=  6 NonCon=     1 RMS=8.65D-06 Max=1.10D-04 NDo=     1
[...]
 00544794,-0.00154849,0.00000607,-0.27634204,0.04097367,-0.00009491,0.0
 0005273,0.04115628,0.00001053,0.00000747,-0.00875831,0.00022033,-0.000
 20651,-0.05956166,0.03637372,0.00340641,0.00004796,0.00722753,-0.00631
 536,0.00000231,-0.18263478,0.13619565,-0.00013713,0.14157859,-0.006454
 01,0.00280176,0.00000010,-0.00198257,0.00103241,-0.00000180,0.14543114
 ,0.13123915,0.00015204,-0.13320362,-0.13873962,0.00004466,0.00000885,-
 0.01892626,0.00000417,-0.00000570,0.00216380,-0.00013476,0.00014401,0.
 02119839,0.00008912,-0.00014811,-0.00443280,0.01095147,0.00683262,0.00
 001763,-0.00815456,-0.00344175,-0.00001089,0.00511060,0.00666332,0.000
 00117,-0.00254506,-0.00379094,-0.00000318,-0.00536246,0.00897940,-0.00
 926760,0.00000614,-0.00267595,-0.00214791,-0.00000407,0.00004288,-0.01
 346050,-0.00000572,-0.00008308,0.00366630,0.00000096,-0.00626324,0.021
 20971,0.00001805,0.00000364,-0.00883365,-0.00001042,-0.00000456,0.0037
 6814,-0.00000065,0.00000045,0.00596530,-0.00000226,-0.00000223,-0.0000
 0313,-0.00000472,0.00000269,-0.00089665,0.10047388,-0.08102718,0.12085
 873,0.00008162,-0.00002800,-0.02686266,-0.15108295,-0.02567170,-0.0001
 4876,0.17857101,-0.01388197,0.01136752,-0.00001363,0.03545369,-0.00116
 783,-0.00014613,-0.00002368,0.02310912,0.00018403,0.00003816,-0.035227
 38,-0.03300245,0.03024682,-0.00001948,-0.00107930,0.00662520,-0.000000
 25,0.01597507,0.04059268,-0.03118000,0.00002542,0.00446914,0.00178933,
 0.00000389,-0.02238145,-0.00145173,-0.00001758,0.00001760,-0.00039304,
 -0.00000070,0.00000536,0.00134675,-0.00000268,-0.00002236,0.01133949,-
 0.01071581,0.00202917,-0.00001256,0.00036284,0.00033363,0.00000107,0.0
 2170503,-0.01198856,0.00001794,-0.01142921,0.00160763,0.00130594,0.000
 00048,0.00019639,-0.00080329,0.00000015,-0.01121312,-0.01064816,-0.000
 01148,0.01081125,0.00856899,-0.00001234,0.00000077,0.00467577,0.000000
 96,0.00000029,-0.00078698,0.00001805,-0.00001216,-0.00264694,-0.000007
 02,0.00001131,-0.00028782,0.09432732,0.07442288,0.00009918,-0.02677160
 ,-0.02853055,-0.00003872,-0.00359835,-0.01069181,0.00000301,0.00007714
 ,-0.00140215,0.00000035,-0.06403451,0.05270884,-0.10235219,0.00001573,
 -0.01444753,-0.01118573,-0.00001852,-0.00327744,0.04149056,0.00001088,
 -0.00118549,0.00157652,-0.00000021,-0.03379838,0.07047084,0.00009443,0
 .00003331,-0.00052919,-0.00003553,-0.00003018,0.01155849,0.00000436,0.
 00000521,-0.00964625,0.00000056,-0.00000047,-0.00095403,-0.00006381,-0
 .00000788,-0.00042902,0.99490249,0.28839556,-0.21415152,0.00094488,0.0
 0020259,-0.08142809,-1.06850714,-0.16136933,-0.00099312,1.10375814,-0.
 14395701,0.06807852,-0.00012676,0.14436915,-0.07724207,-0.00098923,-0.
 00014061,0.10453014,0.00102822,0.00012765,-0.11600711,0.07816673,-0.10
 569254,0.00004022,-0.02606334,0.01069144,-0.00001893,-0.00620275,-0.10
 904214,0.10798394,-0.00006220,0.02253027,0.01032788,0.00002101,0.06927
 065,-0.11502410,0.00004049,-0.00006039,-0.00275506,-0.00001667,0.00001
 145,0.00055548,0.00002314,0.00003194,-0.01224811,0.02190747,-0.0074377
 1,0.00002564,-0.00052969,0.00074004,-0.00000172,-0.04622068,0.01324835
 ,-0.00004519,0.02600305,-0.01223671,0.01002100,-0.00000479,0.00217711,
 -0.00292236,0.00000050,0.01891343,0.01590232,0.00001727,-0.00736638,-0
 .02281244,0.00002433,-0.00000075,-0.01062683,-0.00000132,-0.00000064,0
 .00172137,-0.00004371,0.00001244,0.01095067,0.00002313,-0.00001127,-0.
 00331093,-0.02646955,-0.01389597,-0.00001761,-0.00865797,-0.01184361,-
 0.00001834,0.00032004,0.00399286,-0.00000177,-0.00116014,-0.00148745,-
 0.00000242,0.03596763,-0.02315970,0.02806805,-0.00000884,-0.00770720,0
 .00175803,-0.00000856,0.00681703,-0.01919004,-0.00000027,0.00081570,-0
 .00018852,0.00000022,0.02323417,-0.01044753,-0.00002047,-0.00000085,-0
 .00972017,-0.00001710,-0.00001170,0.00920013,-0.00000072,-0.00000319,0
 .00349702,-0.00000187,-0.00000171,0.00126572,0.00004015,0.00001744,-0.
 00424270,-0.02076927,0.56275275,0.88693434,0.00021407,0.00075688,-0.07
 154569,0.13192513,-0.05755597,0.00010728,-0.11776336,-0.00618205,-0.04
 394405,-0.00001194,0.02077902,0.01959500,0.00012289,-0.00005275,-0.022
 82312,-0.00009579,0.00002024,0.00875201,0.03821718,-0.01019058,0.00004
 411,-0.00521642,-0.00308555,-0.00000616,-0.04140795,-0.05852410,-0.021
 99312,-0.00005195,0.01214164,0.00600470,0.00001110,0.00828979,0.025099
 48,0.00003129,-0.00001004,-0.01720801,-0.00000248,-0.00000135,0.001537
 52,-0.00003851,0.00001254,0.00633183,-0.00114960,-0.00291661,-0.000004
 99,-0.00033208,0.00162667,0.00000087,0.01271747,0.00371128,0.00001517,
 -0.01139163,-0.00443792,-0.00195584,-0.00000505,0.00286008,0.00059259,
 0.00000264,0.00429568,-0.00333311,0.00000379,-0.00476060,0.00291458,-0
 .00000530,-0.00000400,0.00360739,0.00000114,0.00000177,-0.00074656,0.0
 0001537,0.00000327,-0.00386492,-0.00001230,-0.00000368,0.00143910,-0.1
 4822344,-0.49208960,-0.00036047,-0.00861326,-0.01313809,-0.00002181,-0
 .00431029,0.03438139,-0.00000547,0.00015584,0.00204276,0.00000110,0.16
 099114,-0.49360869,-0.81904132,-0.00068794,0.02177523,0.01775177,0.000
 01877,0.00069066,-0.00577795,-0.00000494,0.00233926,0.00178179,0.00000
 265,0.46880353,0.80528571,-0.00036293,-0.00069009,0.10796942,-0.000010
 14,-0.00000871,0.01328016,-0.00001481,0.00002504,0.01320357,0.00000125
 ,0.00000230,-0.00043501,0.00038664,0.00067146,-0.13401814,0.02422979,0
 .00926017,-0.01413382,0.00001739,0.00000235,0.00761802,0.00940610,0.00
 580087,0.00001185,-0.00829308,-0.00237796,-0.00608100,-0.00000273,-0.0
 0308116,0.00635162,0.00000975,0.00000404,-0.00349380,-0.00001002,-0.00
 000165,0.00310648,-0.01834554,-0.00796913,-0.00001024,-0.00017323,0.00
 663435,0.00000349,1.71823929,-0.04474622,0.02485990,-0.00002915,-0.008
 57521,0.00510072,-0.00000508,0.73162156,-0.01612760,-0.00001977,0.0000
 0245,-0.00868875,-0.00000062,0.00000741,-0.00219990,0.00187579,0.00068
 585,-0.26826185,-0.01099649,-0.00538189,-0.00001355,-0.00212988,-0.000
 91482,-0.00000431,-1.69825400,-0.68104674,-0.00185376,1.70690653,0.040
 04011,0.00529140,0.00003460,0.00478136,-0.00691073,0.00000131,-0.73153
 231,-0.01359394,-0.00069625,0.69061574,0.01419719,-0.00000167,-0.00000
 411,0.00311623,-0.00000273,-0.00000332,0.00279540,-0.00186711,-0.00065
 363,0.27783215,0.00186702,0.00066295,-0.28172697,-0.00429385,-0.001710
 03,-0.00000544,0.00119010,-0.00026041,0.00000110,-0.00146652,0.0027466
 1,-0.00000164,0.00447383,-0.00390489,0.00000450,0.00009645,-0.00217611
 ,-0.00993647,-0.00000507,0.00107414,0.00153938,0.00000137,0.00124553,-
 0.00023909,0.00000054,-0.00327229,0.00101607,-0.00000189,0.00312872,0.
 00762011,-0.00000568,-0.00000473,0.00144830,0.00000152,0.00000029,-0.0
 0020818,-0.00000192,0.00000201,0.00131836,0.00000460,-0.00000263,-0.00
 201681,0.00000148,0.00000506,-0.00054167,-0.05032105,-0.01620812,-0.00
 796937,-0.00008077,0.00012157,0.01796239,0.01683838,-0.00174061,0.0000
 2470,-0.01982450,0.00630857,0.00236027,-0.00000994,-0.00263543,-0.0010
 0865,0.00001101,-0.00006250,-0.00042244,-0.00001539,0.00002703,-0.0020
 1508,0.03288972,-0.00173143,0.00006823,0.00179227,-0.00378524,0.000012
 39,-1.16429077,0.03972792,0.00333751,-0.00003418,0.00763854,-0.0053647
 1,0.00003496,-0.47863580,-0.04779403,0.00010459,-0.00003976,-0.0220562
 6,-0.00001652,-0.00000384,0.01223999,-0.00150926,-0.00048412,0.4336186
 1,-0.00364326,0.01881762,-0.00000612,0.00042459,-0.00024938,0.00001492
 ,1.12841204,0.43006106,0.00141720,-1.12113172,-0.02817236,-0.00631429,
 -0.00002376,-0.00470629,0.00513829,-0.00000735,0.48404682,0.05128470,0
 .00053617,-0.45128436,-0.05002620,-0.00001646,0.00001562,0.00937482,0.
 00000167,0.00000134,-0.01061147,0.00144126,0.00049036,-0.42182670,-0.0
 0141882,-0.00050720,0.41919538,0.00423621,0.00086254,-0.00000604,0.000
 76925,0.00036148,-0.00002293,0.00119676,0.00120828,0.00000399,-0.00406
 165,0.00011621,-0.00000765,-0.00214057,-0.00165600,0.00858588,-0.00005
 370,0.00144380,-0.00112521,0.00000785,0.00010564,-0.00146347,-0.000008
 44,0.00265506,-0.00008249,-0.00000011,-0.00254851,-0.00591472,-0.00001
 837,-0.00003492,-0.00485854,0.00000554,-0.00001459,0.00080898,-0.00001
 263,-0.00000702,-0.00197564,-0.00000718,0.00000214,0.00386797,0.000032
 64,0.00005440,0.00215724,-0.11117061,0.00290181,0.01541522,-0.00011020
 ,0.00014611,0.00076024,0.08803986,0.00364656,0.00008771,-0.07133784,0.
 00677418,-0.01226605,-0.00001150,-0.01279605,0.01433098,0.00007262,-0.
 00005956,-0.00473827,-0.00006309,0.00002046,0.00226040,0.02180053,-0.0
 0443226,0.00003636,-0.01520484,0.00250269,0.00000794,-0.12957010,-0.00
 399609,-0.00227928,-0.00007811,0.00887382,-0.00401991,0.00003887,-0.06
 245801,0.02774039,0.00006232,-0.00004902,0.00318004,-0.00002283,0.0000
 0448,0.00246463,-0.00016295,-0.00000431,0.01054137,-0.00047293,-0.0007
 2882,0.00000010,-0.00097070,0.00134119,0.00000466,0.12387298,0.0582328
 4,0.00012305,-0.12186660,-0.00452749,-0.00057005,0.00000041,-0.0001088
 4,0.00180394,-0.00000736,0.06304319,-0.02318978,0.00005578,-0.05958450
 ,0.02299148,0.00000002,0.00000294,-0.00053052,-0.00000655,-0.00000121,
 0.00028563,0.00013382,0.00005153,-0.01574892,-0.00012610,-0.00005231,0
 .01567788,0.00180316,-0.00138728,-0.00001397,-0.00052651,0.00217800,-0
 .00002212,-0.00089854,-0.00065256,0.00000042,-0.00056274,0.00117763,-0
 .00000120,0.00018463,-0.00115240,-0.00029983,-0.00005690,0.00038452,0.
 00015102,0.00000760,0.00134439,0.00174861,-0.00000692,0.00073929,-0.00
 103559,-0.00000096,-0.00131581,-0.00056423,-0.00002475,-0.00004046,0.0
 0132851,0.00000475,-0.00001223,-0.00027242,-0.00001517,-0.00000797,-0.
 00043711,-0.00000170,0.00000348,0.00031594,0.00003687,0.00005718,-0.00
 093491,-0.20288932,-0.26287102,-0.46796134,-0.00032376,-0.00023845,0.0
 6491928,0.09801326,0.04172248,0.00008934,-0.08940553,0.01014692,0.0205
 2636,-0.00000576,-0.01348505,-0.00755331,0.00006026,-0.00002739,0.0182
 8370,-0.00007947,0.00001397,0.00529619,0.00540157,-0.01515865,0.000003
 43,0.00272547,0.00152178,0.00003174,-0.00870640,0.01891593,0.03560407,
 -0.00005628,-0.00752009,-0.00117550,0.00002953,0.00692568,-0.02352885,
 0.00003930,-0.00005712,0.02442424,-0.00000433,0.00000721,-0.00811288,-
 0.00003335,0.00004777,-0.00247621,0.00272877,0.00196082,0.00000417,-0.
 00063208,-0.00043747,0.00000500,-0.00037197,-0.00250278,-0.00001108,-0
 .00097771,0.00079778,-0.00083927,0.00000514,-0.00059224,-0.00033598,-0
 .00000830,-0.00141499,0.00243958,0.00000303,0.00183644,-0.00183070,0.0
 0000563,0.00000559,-0.00179596,-0.00000632,-0.00000319,-0.00011111,-0.
 00000155,0.00000190,-0.00008733,0.00000425,-0.00000232,0.00160736,0.09
 674572,0.23434638,0.00022682,-0.01070113,0.00225384,-0.00001753,0.0009
 5134,-0.01581874,0.00000945,-0.00074701,-0.00062698,-0.00000202,-0.086
 24893,0.23301042,0.41267018,0.00029536,-0.02012509,-0.01146156,-0.0000
 0781,0.00812618,-0.01333930,-0.00000089,-0.00085700,0.00056636,-0.0000
 0198,-0.22015452,-0.38843569,0.00021857,0.00031737,-0.10583127,0.00000
 077,-0.00001222,-0.01535593,-0.00000027,-0.00002291,-0.01374781,-0.000
 00234,0.00000246,0.00038703,-0.00021673,-0.00028469,0.13454798,0.07843
 584,-0.21423825,0.15173291,0.00002975,0.00001312,-0.04654173,0.0299789
 9,0.02858642,0.00004642,-0.02895948,0.02496315,-0.00440119,0.00000481,
 -0.02576418,0.00318174,0.00002938,-0.00003845,-0.00377689,-0.00003255,
 0.00000759,0.00279761,-0.09727459,0.17697154,-0.00005332,0.00064312,-0
 .00077349,0.00002160,-0.09399420,0.19823742,-0.15999362,0.00003817,-0.
 00219558,-0.00048093,0.00003142,-0.28778817,0.17851589,-0.00002167,0.0
 0005010,0.04778032,-0.00001151,0.00000312,0.00097063,-0.00016206,-0.00
 014357,-0.02611602,-0.02116535,0.00351221,-0.00001984,0.00156951,0.000
 65595,0.00000656,0.19198682,0.09373638,0.00019834,-0.17148608,-0.01663
 809,-0.00102875,-0.00001106,-0.00058465,0.00367402,-0.00000735,0.10787
 363,-0.01190450,0.00009857,-0.09793904,0.01797215,-0.00002427,0.000005
 34,0.00371531,-0.00000469,-0.00000135,0.00030933,0.00021157,0.00008645
 ,-0.02532198,-0.00018239,-0.00008660,0.02044218,0.01002511,0.00516808,
 -0.00000302,-0.00323217,0.00091857,-0.00002499,-0.00136113,-0.00199005
 ,-0.00000310,-0.00090489,0.00728815,-0.00000022,-0.00452692,0.00767578
 ,0.01369064,-0.00004504,-0.00004201,-0.00197365,0.00000679,0.00371649,
 -0.00613681,-0.00000821,0.00003449,-0.00871292,-0.00000385,-0.01138475
 ,0.00313276,-0.00001319,-0.00003011,-0.00117702,0.00000234,-0.00001417
 ,-0.00030071,-0.00001780,-0.00001247,0.00268707,-0.00000268,0.00000644
 ,0.00085516,0.00003133,0.00005031,-0.00206449,0.02162839,-0.08096615,0
 .00130358,0.00001868,0.00008494,-0.04821309,0.03167037,-0.02846087,0.0
 0002414,-0.02697029,-0.01552441,0.00469262,-0.00002873,0.01500944,0.00
 342190,0.00001095,-0.00008514,0.00700553,-0.00001286,0.00004325,-0.006
 03407,-0.04101208,0.08650168,-0.00002336,-0.00371152,-0.00034490,0.000
 01770,-0.72043915,0.14546766,0.01190947,0.00004200,0.02630284,-0.01862
 884,0.00004951,-0.56555101,0.02555680,0.00001901,0.00002102,0.03934975
 ,-0.00000859,-0.00000145,0.00164416,-0.00082493,-0.00043789,0.04408320
 ,-0.01629132,0.01996957,-0.00001014,0.00120004,0.00014432,0.00000903,0
 .76479121,0.39503465,0.00081378,-0.74780622,-0.04946094,-0.03421810,-0
 .00004738,-0.01249874,0.01268607,-0.00001374,0.47270819,-0.01673451,0.
 00042226,-0.41718047,0.04623099,-0.00002746,0.00001121,0.00234757,-0.0
 0000535,0.00000150,-0.00307101,0.00084396,0.00035632,-0.08543434,-0.00
 080873,-0.00036680,0.08415841,0.00400465,0.00295575,-0.00000932,-0.002
 18860,0.00071555,-0.00002482,0.00037155,-0.00125415,0.00000073,-0.0018
 9371,0.00643196,-0.00000242,-0.00029390,0.00048385,0.01631244,-0.00005
 083,-0.00035268,-0.00217174,0.00000612,0.00668603,-0.00210291,-0.00000
 394,0.00203192,-0.00796445,-0.00000224,-0.00884912,-0.00407335,-0.0000
 2117,-0.00003203,-0.00048977,0.00000266,-0.00001457,0.00045538,-0.0000
 1337,-0.00000995,0.00035723,-0.00000395,0.00000566,0.00199938,0.000035
 83,0.00005089,-0.00232222,-0.07222711,-0.29104020,-0.46851877,-0.00015
 566,-0.00023749,-0.01330503,-0.01247890,0.02661485,-0.00001189,0.01867
 043,-0.02325188,0.03524191,-0.00003158,0.01272386,-0.00519276,-0.00004
 320,-0.00003735,0.02680374,0.00003775,0.00004378,-0.02397717,0.0052814
 7,-0.00832604,0.00000341,0.00473835,0.00377708,0.00003124,-0.02158718,
 0.04023909,0.00502121,-0.00004430,-0.00026150,0.00700636,0.00003635,-0
 .00437305,0.01467460,0.00004334,-0.00005680,0.02456478,-0.00000284,0.0
 0001036,-0.00500148,-0.00003142,0.00004997,-0.01912220,0.00368389,-0.0
 0295602,0.00000524,-0.00038407,0.00190267,0.00000471,0.00842087,0.0038
 9612,-0.00000284,-0.00934155,0.00133625,-0.00021418,0.00000608,-0.0026
 7581,-0.00064949,-0.00001036,0.00361289,0.00192273,0.00000719,-0.00528
 579,0.00289542,0.00000740,0.00000174,-0.00304401,-0.00000741,-0.000001
 50,0.00095698,0.00000669,0.00000731,0.00068397,-0.00000284,-0.00000666
 ,-0.00072362,0.07574066,0.27570740,0.00015890,-0.01054582,0.00484827,-
 0.00003051,0.00314653,-0.03950067,-0.00000625,-0.00237913,0.00301247,-
 0.00000384,-0.06596223,0.27271674,0.42846981,0.00030729,-0.03640141,-0
 .03640603,-0.00003242,0.00530912,-0.02862489,-0.00001071,0.00244302,-0
 .00395448,-0.00000090,-0.24406746,-0.35948440,0.00014811,0.00032990,-0
 .03501949,-0.00001561,-0.00002106,0.00121788,-0.00000993,-0.00004933,-
 0.00112505,-0.00000427,0.00000375,0.00212668,-0.00011830,-0.00026326,0
 .03279998,1.29176184,0.13478359,-0.19209748,0.00125260,0.00025852,-0.2
 3522033,-1.30492433,-0.18361919,-0.00126671,1.31079753,-0.19053469,0.1
 9024235,-0.00017614,0.18843673,-0.18631779,-0.00128457,-0.00021640,0.2
 1374660,0.00128550,0.00018878,-0.21502670,0.02231706,0.01700147,0.0000
 2607,-0.00225425,0.00371225,0.00002250,-0.04050243,0.05504993,-0.05470
 490,-0.00004796,-0.00678044,-0.00027799,0.00002841,-0.05327579,0.04738
 507,0.00006258,-0.00005009,0.02226898,-0.00001318,0.00000763,-0.001567
 84,-0.00006033,0.00001728,-0.01860735,-0.00463313,0.00492318,-0.000003
 55,-0.00140567,0.00005880,0.00000383,0.01623457,0.00856894,0.00000545,
 -0.01048854,-0.01042673,0.00405726,-0.00000353,0.00301810,-0.00116657,
 -0.00000572,0.02290110,0.01182202,0.00002617,-0.01436818,-0.01245101,-
 0.00000660,0.00000862,0.00121881,-0.00000631,-0.00000313,0.00043316,0.
 00001884,0.00001385,0.00010975,-0.00000437,-0.00001798,-0.00258477,-0.
 00452146,0.02691095,-0.00000841,-0.00221329,-0.00167308,-0.00002726,0.
 00420504,-0.00356265,0.00000548,0.00029278,-0.00112429,-0.00000155,0.0
 0223694,0.01112791,0.05250275,-0.00003089,-0.00105520,-0.00248001,0.00
 000493,0.00966096,-0.00422419,-0.00000100,0.00081726,-0.00226170,-0.00
 000136,-0.02055092,-0.04353685,-0.00002401,-0.00000065,-0.00201407,0.0
 0000070,-0.00001714,0.00241477,-0.00000708,-0.00001158,-0.00220354,-0.
 00000136,0.00000106,0.00082305,0.00003175,0.00002831,0.00097979,0.2215
 3010,1.54521271,2.26119137,0.00113617,0.00229599,-0.60721788,-0.009134
 02,-0.01822306,0.00000757,0.00077974,0.03368887,-0.00283441,0.00001338
 ,-0.02463603,-0.00714157,0.00000866,-0.00007307,-0.01239487,-0.0000097
 3,0.00000553,0.00350313,0.00368560,-0.00209901,0.00003684,-0.00347714,
 0.00119424,0.00001886,0.00742070,-0.04452046,0.02061297,-0.00010372,0.
 00320886,-0.00850983,0.00003343,0.00506291,-0.02666066,0.00005138,-0.0
 0003665,-0.01408480,-0.00001345,0.00000282,0.00078186,-0.00002268,0.00
 004193,0.00254540,-0.00080593,0.00773660,-0.00000018,0.00022393,-0.002
 60128,0.00000497,-0.00083151,-0.00198488,-0.00001239,0.00318347,0.0026
 8798,-0.00107445,0.00000581,-0.00019093,0.00046381,-0.00000772,0.00079
 769,0.00173491,0.00000457,-0.00061928,-0.00485257,-0.00000049,0.000009
 31,0.00203895,-0.00000527,-0.00000480,-0.00015897,-0.00000215,0.000001
 99,0.00099023,0.00000934,-0.00000481,-0.00094852,-0.21527577,-1.532627
 24,-0.00118039,0.01160748,-0.00764580,-0.00002277,-0.00679764,0.038233
 56,-0.00000286,-0.00176995,-0.00267545,-0.00000142,0.21223589,-1.53706
 909,-2.27789548,-0.00221145,0.03984117,0.01802201,0.00004184,-0.004955
 82,0.01282262,-0.00001267,-0.00253116,0.00372831,-0.00000169,1.5047149
 2,2.24332255,-0.00119573,-0.00219558,0.63165859,0.00002088,-0.00001693
 ,0.00826882,-0.00003087,0.00002637,0.00976730,-0.00000173,0.00000216,-
 0.00192169,0.00120745,0.00218397,-0.64777301,-0.00696174,0.01067860,-0
 .01069443,-0.00002217,0.00014719,-0.00014598,0.00000521,-0.00861019,0.
 00000742,-0.00287909,0.00500599,0.00225585,-0.00001130,0.00318083,-0.0
 0537781,-0.00000494,-0.00006810,0.00193548,-0.00000099,0.00002977,-0.0
 0078807,0.01475059,-0.01496167,0.00003604,-0.00248909,-0.00731913,0.00
 002239,5.68507003,-0.07024195,0.00631201,-0.00012985,0.00345304,0.0098
 3988,0.00004001,2.64998550,-0.39842589,0.00004787,-0.00005349,-0.00684
 870,-0.00000805,0.00000206,-0.00491234,0.00666680,0.00255173,-1.391220
 18,-0.00551421,0.01290780,-0.00000551,0.00525879,-0.00099319,0.0000061
 9,-5.69750111,-2.58952968,-0.00670711,5.69485148,0.05366930,0.00530943
 ,0.00004985,0.00264066,-0.00752152,-0.00000853,-2.62729033,0.38475019,
 -0.00248974,2.58052090,-0.38803367,0.00000596,0.00001440,0.00534586,-0
 .00000319,-0.00000658,0.00361638,-0.00670772,-0.00245804,1.40034303,0.
 00670285,0.00245131,-1.40579896,-0.00227987,-0.00001454,-0.00001579,0.
 00010418,0.00012550,-0.00002265,0.00016959,0.00633309,0.00000048,0.002
 90505,-0.00954052,0.00000210,-0.00089895,0.00088807,-0.00318286,-0.000
 05590,-0.00066433,0.00080361,0.00000685,-0.00041438,-0.00247617,-0.000
 01056,-0.00290584,0.00549557,-0.00000108,0.00309647,-0.00064015,-0.000
 02673,-0.00004001,-0.00028668,0.00000481,-0.00001395,0.00014853,-0.000
 01751,-0.00000386,0.00263821,0.00000358,-0.00000288,-0.00350631,0.0000
 3585,0.00006069,0.00100625\\@
 The archive entry for this job was punched.


 THE GREAT THING ABOUT BEING IMPERFECT IS THE JOY IT BRINGS OTHERS.
   -- SIGN OUTSIDE LAKE AGASSIZ JR. HIGH SCHOOL, FARGO, N.D.
 Job cpu time:       1 days 12 hours 30 minutes 12.6 seconds.
 Elapsed time:       0 days  0 hours 55 minutes 46.1 seconds.
 File lengths (MBytes):  RWF=   4013 Int=      0 D2E=      0 Chk=     44 Scr=      1
 Normal termination of Gaussian 16 at Thu Mar 20 23:10:34 2025.
