 Entering Gaussian System, Link 0=g16
 Input=hf_mp2_avtz_anharm.gjf
 Output=hf_mp2_avtz_anharm.log
 Initial command:
 /sw/contrib/gaussian/g16/A03/g16/l1.exe "/gscratch/scrubbed/gds001/Gau-11840.inp" -scrdir="/gscratch/scrubbed/gds001/"
 Entering Link 1 = /sw/contrib/gaussian/g16/A03/g16/l1.exe PID=     11845.
  
 Copyright (c) 1988,1990,1992,1993,1995,1998,2003,2009,2016,
            Gaussian, Inc.  All Rights Reserved.
  
 This is part of the Gaussian(R) 16 program.  It is based on
 the Gaussian(R) 09 system (copyright 2009, Gaussian, Inc.),
 the Gaussian(R) 03 system (copyright 2003, Gaussian, Inc.),
 the Gaussian(R) 98 system (copyright 1998, Gaussian, Inc.),
 the Gaussian(R) 94 system (copyright 1995, Gaussian, Inc.),
 the Gaussian 92(TM) system (copyright 1992, Gaussian, Inc.),
 the Gaussian 90(TM) system (copyright 1990, Gaussian, Inc.),
 the Gaussian 88(TM) system (copyright 1988, Gaussian, Inc.),
 the Gaussian 86(TM) system (copyright 1986, Carnegie Mellon
 University), and the Gaussian 82(TM) system (copyright 1983,
 Carnegie Mellon University). Gaussian is a federally registered
 trademark of Gaussian, Inc.
  
 This software contains proprietary and confidential information,
 including trade secrets, belonging to Gaussian, Inc.
  
 This software is provided under written license and may be
 used, copied, transmitted, or stored only in accord with that
 written license.
  
 The following legend is applicable only to US Government
 contracts under FAR:
  
                    RESTRICTED RIGHTS LEGEND
  
 Use, reproduction and disclosure by the US Government is
 subject to restrictions as set forth in subparagraphs (a)
 and (c) of the Commercial Computer Software - Restricted
 Rights clause in FAR 52.227-19.
  
 Gaussian, Inc.
 340 Quinnipiac St., Bldg. 40, Wallingford CT 06492
  
  
 ---------------------------------------------------------------
 Warning -- This program may not be used in any manner that
 competes with the business of Gaussian, Inc. or will provide
 assistance to any competitor of Gaussian, Inc.  The licensee
 of this program is prohibited from giving any competitor of
 Gaussian, Inc. access to this program.  By using this program,
 the user acknowledges that Gaussian, Inc. is engaged in the
 business of creating and licensing software in the field of
 computational chemistry and represents and warrants to the
 licensee that it is not a competitor of Gaussian, Inc. and that
 it will not use this program in any manner prohibited above.
 ---------------------------------------------------------------
  

 Cite this work as:
 Gaussian 16, Revision A.03,
 M. J. Frisch, G. W. Trucks, H. B. Schlegel, G. E. Scuseria, 
 M. A. Robb, J. R. Cheeseman, G. Scalmani, V. Barone, 
 G. A. Petersson, H. Nakatsuji, X. Li, M. Caricato, A. V. Marenich, 
 J. Bloino, B. G. Janesko, R. Gomperts, B. Mennucci, H. P. Hratchian, 
 J. V. Ortiz, A. F. Izmaylov, J. L. Sonnenberg, D. Williams-Young, 
 F. Ding, F. Lipparini, F. Egidi, J. Goings, B. Peng, A. Petrone, 
 T. Henderson, D. Ranasinghe, V. G. Zakrzewski, J. Gao, N. Rega, 
 G. Zheng, W. Liang, M. Hada, M. Ehara, K. Toyota, R. Fukuda, 
 J. Hasegawa, M. Ishida, T. Nakajima, Y. Honda, O. Kitao, H. Nakai, 
 T. Vreven, K. Throssell, J. A. Montgomery, Jr., J. E. Peralta, 
 F. Ogliaro, M. J. Bearpark, J. J. Heyd, E. N. Brothers, K. N. Kudin, 
 V. N. Staroverov, T. A. Keith, R. Kobayashi, J. Normand, 
 K. Raghavachari, A. P. Rendell, J. C. Burant, S. S. Iyengar, 
 J. Tomasi, M. Cossi, J. M. Millam, M. Klene, C. Adamo, R. Cammi, 
 J. W. Ochterski, R. L. Martin, K. Morokuma, O. Farkas, 
 J. B. Foresman, and D. J. Fox, Gaussian, Inc., Wallingford CT, 2016.
 
 ******************************************
 Gaussian 16:  ES64L-G16RevA.03 25-Dec-2016
                22-Jun-2021 
 ******************************************
 %nprocshared=28
 Will use up to   28 processors via shared memory.
 %mem=41GB
 %chk=hf_mp2_avtz_anharm.chk
 ----------------------------------------------
 # mp2/aug-cc-pVTZ opt freq=(vibrot,anharmonic)
 ----------------------------------------------
 1/18=20,19=15,38=1,80=1/1,3;
 2/9=110,12=2,17=6,18=5,40=1/2;
 3/5=16,6=1,7=10,11=9,25=1,30=1,71=1/1,2,3;
 4//1;
 5/5=2,38=5/2;
 8/6=4,10=1/1;
 9/15=2,16=-3/6;
 10/5=1/2;
 6/7=2,8=2,9=2,10=2/1;
 7/12=2/1,2,3,16;
 1/18=20,19=15,80=1/3(2);
 2/9=110/2;
 99//99;
 2/9=110/2;
 3/5=16,6=1,7=10,11=9,25=1,30=1,71=1/1,2,3;
 4/5=5,16=3,69=1/1;
 5/5=2,38=5/2;
 8/6=4,10=1/1;
 9/15=2,16=-3/6;
 10/5=1/2;
 7/12=2/1,2,3,16;
 1/18=20,19=15,80=1/3(-8);
 2/9=110/2;
 6/7=2,8=2,9=2,10=2/1;
 99//99;
 --
 HF
 --
 Symbolic Z-matrix:
 Charge =  0 Multiplicity = 1
 F                     0.        0.        0.09218 
 H                     0.        0.       -0.82965 
 

 GradGradGradGradGradGradGradGradGradGradGradGradGradGradGradGradGradGrad
 Berny optimization.
 Initialization pass.
                           ----------------------------
                           !    Initial Parameters    !
                           ! (Angstroms and Degrees)  !
 --------------------------                            --------------------------
 ! Name  Definition              Value          Derivative Info.                !
 --------------------------------------------------------------------------------
 ! R1    R(1,2)                  0.9218         estimate D2E/DX2                !
 --------------------------------------------------------------------------------
 Trust Radius=3.00D-01 FncErr=1.00D-07 GrdErr=1.00D-07 EigMax=2.50D+02 EigMin=1.00D-04
 Number of steps in this run=     20 maximum allowed number of steps=    100.
 GradGradGradGradGradGradGradGradGradGradGradGradGradGradGradGradGradGrad

                          Input orientation:                          
 ---------------------------------------------------------------------
 Center     Atomic      Atomic             Coordinates (Angstroms)
 Number     Number       Type             X           Y           Z
 ---------------------------------------------------------------------
      1          9           0        0.000000    0.000000    0.092184
      2          1           0        0.000000    0.000000   -0.829654
 ---------------------------------------------------------------------
 Stoichiometry    FH
 Framework group  C*V[C*(HF)]
 Deg. of freedom     1
 Full point group                 C*V     NOp   4
 Largest Abelian subgroup         C2V     NOp   4
 Largest concise Abelian subgroup C1      NOp   1
                         Standard orientation:                         
 ---------------------------------------------------------------------
 Center     Atomic      Atomic             Coordinates (Angstroms)
 Number     Number       Type             X           Y           Z
 ---------------------------------------------------------------------
      1          9           0        0.000000    0.000000    0.092184
      2          1           0        0.000000    0.000000   -0.829654
 ---------------------------------------------------------------------
 Rotational constants (GHZ):           0.0000000         621.3995892         621.3995892
 Standard basis: Aug-CC-pVTZ (5D, 7F)
 There are    37 symmetry adapted cartesian basis functions of A1  symmetry.
 There are     7 symmetry adapted cartesian basis functions of A2  symmetry.
 There are    18 symmetry adapted cartesian basis functions of B1  symmetry.
 There are    18 symmetry adapted cartesian basis functions of B2  symmetry.
 There are    30 symmetry adapted basis functions of A1  symmetry.
 There are     7 symmetry adapted basis functions of A2  symmetry.
 There are    16 symmetry adapted basis functions of B1  symmetry.
 There are    16 symmetry adapted basis functions of B2  symmetry.
    69 basis functions,    99 primitive gaussians,    80 cartesian basis functions
     5 alpha electrons        5 beta electrons
       nuclear repulsion energy         5.1664119924 Hartrees.
 NAtoms=    2 NActive=    2 NUniq=    2 SFac= 1.00D+00 NAtFMM=   60 NAOKFM=F Big=F
 Integral buffers will be    131072 words long.
 Raffenetti 1 integral format.
 Two-electron integral symmetry is turned on.
 One-electron integrals computed using PRISM.
 NBasis=    69 RedAO= T EigKep=  3.66D-04  NBF=    30     7    16    16
 NBsUse=    69 1.00D-06 EigRej= -1.00D+00 NBFU=    30     7    16    16
 ExpMin= 2.53D-02 ExpMax= 1.95D+04 ExpMxC= 6.65D+02 IAcc=3 IRadAn=         5 AccDes= 0.00D+00
 Harris functional with IExCor=  205 and IRadAn=       5 diagonalized for initial guess.
 HarFok:  IExCor=  205 AccDes= 0.00D+00 IRadAn=         5 IDoV= 1 UseB2=F ITyADJ=14
 ICtDFT=  3500011 ScaDFX=  1.000000  1.000000  1.000000  1.000000
 FoFCou: FMM=F IPFlag=           0 FMFlag=      100000 FMFlg1=           0
         NFxFlg=           0 DoJE=T BraDBF=F KetDBF=T FulRan=T
         wScrn=  0.000000 ICntrl=       500 IOpCl=  0 I1Cent=   200000004 NGrid=           0
         NMat0=    1 NMatS0=      1 NMatT0=    0 NMatD0=    1 NMtDS0=    0 NMtDT0=    0
 Petite list used in FoFCou.
 Initial guess orbital symmetries:
       Occupied  (SG) (SG) (SG) (PI) (PI)
       Virtual   (SG) (SG) (PI) (PI) (SG) (SG) (PI) (PI) (SG) (SG)
                 (DLTA) (DLTA) (PI) (PI) (SG) (PI) (PI) (PI) (PI)
                 (SG) (DLTA) (DLTA) (SG) (PI) (PI) (SG) (SG) (DLTA)
                 (DLTA) (SG) (PI) (PI) (PHI) (PHI) (SG) (DLTA)
                 (DLTA) (PI) (PI) (SG) (DLTA) (DLTA) (PI) (PI)
                 (PI) (PI) (SG) (SG) (PI) (PI) (SG) (PHI) (PHI)
                 (DLTA) (DLTA) (PI) (PI) (DLTA) (DLTA) (SG) (PI)
                 (PI) (SG) (SG)
 The electronic state of the initial guess is 1-SG.
 Keep R1 ints in memory in symmetry-blocked form, NReq=16549204.
 Requested convergence on RMS density matrix=1.00D-08 within 128 cycles.
 Requested convergence on MAX density matrix=1.00D-06.
 Requested convergence on             energy=1.00D-06.
 No special actions if energy rises.
 SCF Done:  E(RHF) =  -100.060833469     A.U. after    9 cycles
            NFock=  9  Conv=0.47D-08     -V/T= 2.0010
 ExpMin= 2.53D-02 ExpMax= 1.95D+04 ExpMxC= 6.65D+02 IAcc=3 IRadAn=         5 AccDes= 0.00D+00
 HarFok:  IExCor=  205 AccDes= 0.00D+00 IRadAn=         5 IDoV=-2 UseB2=F ITyADJ=14
 ICtDFT= 12500011 ScaDFX=  1.000000  1.000000  1.000000  1.000000
 Range of M.O.s used for correlation:     2    69
 NBasis=    69 NAE=     5 NBE=     5 NFC=     1 NFV=     0
 NROrb=     68 NOA=     4 NOB=     4 NVA=    64 NVB=    64

 **** Warning!!: The largest alpha MO coefficient is  0.18556674D+02

 Fully direct method using O(ONN) memory.
 JobTyp=1 Pass  1:  I=   2 to   5 NPSUse= 28 ParTrn=T ParDer=T DoDerP=T.
 Spin components of T(2) and E(2):
     alpha-alpha T2 =       0.6956064978D-02 E2=     -0.3564162918D-01
     alpha-beta  T2 =       0.3820365536D-01 E2=     -0.2087739799D+00
     beta-beta   T2 =       0.6956064978D-02 E2=     -0.3564162918D-01
 ANorm=    0.1025726955D+01
 E2 =    -0.2800572382D+00 EUMP2 =    -0.10034089070736D+03
          IDoAtm=11
          Differentiating once with respect to electric field.
                with respect to dipole field.
          Differentiating once with respect to nuclear coordinates.
 Keep R1 ints in memory in symmetry-blocked form, NReq=16549860.
          There are     1 degrees of freedom in the 1st order CPHF.  IDoFFX=0 NUNeed=     1.
 LinEq1:  Iter=  0 NonCon=     1 RMS=5.55D-03 Max=5.07D-02 NDo=     1
 AX will form     1 AO Fock derivatives at one time.
 LinEq1:  Iter=  1 NonCon=     1 RMS=8.68D-04 Max=8.01D-03 NDo=     1
 LinEq1:  Iter=  2 NonCon=     1 RMS=3.11D-04 Max=2.07D-03 NDo=     1
 LinEq1:  Iter=  3 NonCon=     1 RMS=6.54D-05 Max=4.58D-04 NDo=     1
 LinEq1:  Iter=  4 NonCon=     1 RMS=8.91D-06 Max=5.07D-05 NDo=     1
 LinEq1:  Iter=  5 NonCon=     1 RMS=9.31D-07 Max=6.69D-06 NDo=     1
 LinEq1:  Iter=  6 NonCon=     1 RMS=7.62D-08 Max=3.78D-07 NDo=     1
 LinEq1:  Iter=  7 NonCon=     1 RMS=6.03D-09 Max=3.59D-08 NDo=     1
 LinEq1:  Iter=  8 NonCon=     1 RMS=4.74D-10 Max=2.99D-09 NDo=     1
 LinEq1:  Iter=  9 NonCon=     0 RMS=3.89D-11 Max=2.89D-10 NDo=     1
 Linear equations converged to 1.000D-10 1.000D-09 after     9 iterations.
 End of Minotr F.D. properties file   721 does not exist.
 End of Minotr F.D. properties file   722 does not exist.
 End of Minotr F.D. properties file   788 does not exist.

 **********************************************************************

            Population analysis using the SCF density.

 **********************************************************************

 Orbital symmetries:
       Occupied  (SG) (SG) (SG) (PI) (PI)
       Virtual   (SG) (SG) (PI) (PI) (SG) (PI) (PI) (SG) (SG) (SG)
                 (DLTA) (DLTA) (PI) (PI) (SG) (PI) (PI) (SG) (DLTA)
                 (DLTA) (PI) (PI) (SG) (PI) (PI) (SG) (SG) (SG)
                 (DLTA) (DLTA) (PI) (PI) (PHI) (PHI) (DLTA) (DLTA)
                 (SG) (PI) (PI) (SG) (DLTA) (DLTA) (PI) (PI) (PI)
                 (PI) (SG) (SG) (PI) (PI) (SG) (PHI) (PHI) (DLTA)
                 (DLTA) (PI) (PI) (SG) (DLTA) (DLTA) (PI) (PI)
                 (SG) (SG)
 The electronic state is 1-SG.
 Alpha  occ. eigenvalues --  -26.29952  -1.60111  -0.76678  -0.65005  -0.65005
 Alpha virt. eigenvalues --    0.03044   0.13868   0.20135   0.20135   0.20776
 Alpha virt. eigenvalues --    0.28535   0.28535   0.31068   0.42662   0.70899
 Alpha virt. eigenvalues --    0.75981   0.75981   0.82710   0.82710   0.94853
 Alpha virt. eigenvalues --    1.04140   1.04140   1.07027   1.08520   1.08520
 Alpha virt. eigenvalues --    1.14501   1.14501   1.14939   1.66687   1.66687
 Alpha virt. eigenvalues --    1.97976   2.38880   2.73757   2.80832   2.80832
 Alpha virt. eigenvalues --    2.90312   2.90312   2.93455   2.93455   3.15837
 Alpha virt. eigenvalues --    3.15837   3.15991   3.62316   3.62316   4.08489
 Alpha virt. eigenvalues --    4.16064   4.16064   4.30149   4.30149   4.76778
 Alpha virt. eigenvalues --    4.76778   5.05399   5.64632   6.06239   6.06239
 Alpha virt. eigenvalues --    7.53883   8.82990   8.82990   8.91895   8.91895
 Alpha virt. eigenvalues --    9.23491   9.23491   9.34350   9.35871   9.35871
 Alpha virt. eigenvalues --    9.54879   9.54879   9.87515  14.56525
          Condensed to atoms (all electrons):
               1          2
     1  F    9.203035   0.174934
     2  H    0.174934   0.447097
 Mulliken charges:
               1
     1  F   -0.377969
     2  H    0.377969
 Sum of Mulliken charges =   0.00000
 Mulliken charges with hydrogens summed into heavy atoms:
               1
     1  F    0.000000
 Electronic spatial extent (au):  <R**2>=             13.8297
 Charge=             -0.0000 electrons
 Dipole moment (field-independent basis, Debye):
    X=              0.0000    Y=              0.0000    Z=             -1.9348  Tot=              1.9348
 Quadrupole moment (field-independent basis, Debye-Ang):
   XX=             -5.7019   YY=             -5.7019   ZZ=             -3.5241
   XY=              0.0000   XZ=              0.0000   YZ=              0.0000
 Traceless Quadrupole moment (field-independent basis, Debye-Ang):
   XX=             -0.7260   YY=             -0.7260   ZZ=              1.4519
   XY=              0.0000   XZ=              0.0000   YZ=              0.0000
 Octapole moment (field-independent basis, Debye-Ang**2):
  XXX=              0.0000  YYY=              0.0000  ZZZ=             -1.9789  XYY=              0.0000
  XXY=              0.0000  XXZ=             -0.1417  XZZ=              0.0000  YZZ=              0.0000
  YYZ=             -0.1417  XYZ=              0.0000
 Hexadecapole moment (field-independent basis, Debye-Ang**3):
 XXXX=             -3.7877 YYYY=             -3.7877 ZZZZ=             -3.2136 XXXY=              0.0000
 XXXZ=              0.0000 YYYX=              0.0000 YYYZ=              0.0000 ZZZX=              0.0000
 ZZZY=              0.0000 XXYY=             -1.2626 XXZZ=             -1.4293 YYZZ=             -1.4293
 XXYZ=              0.0000 YYXZ=              0.0000 ZZXY=              0.0000
 N-N= 5.166411992433D+00 E-N=-2.504808310322D+02  KE= 9.996136114626D+01
 Symmetry A1   KE= 8.743290679055D+01
 Symmetry A2   KE= 4.748349024050D-52
 Symmetry B1   KE= 6.264227177855D+00
 Symmetry B2   KE= 6.264227177855D+00
 Calling FoFJK, ICntrl=  10002127 FMM=F ISym2X=1 I1Cent= 0 IOpClX= 0 NMat=1 NMatS=1 NMatT=0.
 ***** Axes restored to original set *****
 -------------------------------------------------------------------
 Center     Atomic                   Forces (Hartrees/Bohr)
 Number     Number              X              Y              Z
 -------------------------------------------------------------------
      1        9          -0.000000000   -0.000000000   -0.000000538
      2        1          -0.000000000   -0.000000000    0.000000538
 -------------------------------------------------------------------
 Cartesian Forces:  Max     0.000000538 RMS     0.000000310

 GradGradGradGradGradGradGradGradGradGradGradGradGradGradGradGradGradGrad
 Berny optimization.
 FormGI is forming the generalized inverse of G from B-inverse, IUseBI=4.
 Internal  Forces:  Max     0.000000538 RMS     0.000000538
 Search for a local minimum.
 Step number   1 out of a maximum of   20
 All quantities printed in internal units (Hartrees-Bohrs-Radians)
 Mixed Optimization -- En-DIIS/RFO-DIIS
 Second derivative matrix not updated -- first step.
 The second derivative matrix:
                          R1
           R1           0.64563
 ITU=  0
     Eigenvalues ---    0.64563
 RFO step:  Lambda=-4.47919479D-13 EMin= 6.45631453D-01
 Linear search not attempted -- first point.
 Iteration  1 RMS(Cart)=  0.00000059 RMS(Int)=  0.00000000
 ClnCor:  largest displacement from symmetrization is 0.00D+00 for atom     0.
 Variable       Old X    -DE/DX   Delta X   Delta X   Delta X     New X
                                 (Linear)    (Quad)   (Total)
    R1        1.74202  -0.00000   0.00000  -0.00000  -0.00000   1.74202
         Item               Value     Threshold  Converged?
 Maximum Force            0.000001     0.000450     YES
 RMS     Force            0.000001     0.000300     YES
 Maximum Displacement     0.000000     0.001800     YES
 RMS     Displacement     0.000001     0.001200     YES
 Predicted change in Energy=-2.239514D-13
 Optimization completed.
    -- Stationary point found.
                           ----------------------------
                           !   Optimized Parameters   !
                           ! (Angstroms and Degrees)  !
 --------------------------                            --------------------------
 ! Name  Definition              Value          Derivative Info.                !
 --------------------------------------------------------------------------------
 ! R1    R(1,2)                  0.9218         -DE/DX =    0.0                 !
 --------------------------------------------------------------------------------
 GradGradGradGradGradGradGradGradGradGradGradGradGradGradGradGradGradGrad

                          Input orientation:                          
 ---------------------------------------------------------------------
 Center     Atomic      Atomic             Coordinates (Angstroms)
 Number     Number       Type             X           Y           Z
 ---------------------------------------------------------------------
      1          9           0        0.000000    0.000000    0.092184
      2          1           0        0.000000    0.000000   -0.829654
 ---------------------------------------------------------------------
 Stoichiometry    FH
 Framework group  C*V[C*(HF)]
 Deg. of freedom     1
 Full point group                 C*V     NOp   4
 Largest Abelian subgroup         C2V     NOp   4
 Largest concise Abelian subgroup C1      NOp   1
                         Standard orientation:                         
 ---------------------------------------------------------------------
 Center     Atomic      Atomic             Coordinates (Angstroms)
 Number     Number       Type             X           Y           Z
 ---------------------------------------------------------------------
      1          9           0        0.000000    0.000000    0.092184
      2          1           0        0.000000    0.000000   -0.829654
 ---------------------------------------------------------------------
 Rotational constants (GHZ):           0.0000000         621.3995892         621.3995892
 1\1\GINC-N2144\FOpt\RMP2-FC\Aug-CC-pVTZ\F1H1\GDS001\22-Jun-2021\0\\# m
 p2/aug-cc-pVTZ opt freq=(vibrot,anharmonic)\\HF\\0,1\F,0.,0.,0.092184\
 H,0.,0.,-0.829654\\Version=ES64L-G16RevA.03\State=1-SG\HF=-100.0608335
 \MP2=-100.3408907\RMSD=4.725e-09\RMSF=3.105e-07\Dipole=0.,0.,-0.712119
 8\PG=C*V [C*(H1F1)]\\@


 "WOULD YOU TELL ME PLEASE, WHICH WAY I OUGHT TO WALK FROM HERE?"
 "THAT DEPENDS A GREAT DEAL ON WHERE YOU WANT TO GO," SAID THE CAT.
 "I DON'T MUCH CARE WHERE -- ", SAID ALICE.
 "THEN IT DOESN'T MATTER WHICH WAY YOU WALK," SAID THE CAT.

                                      -- LEWIS CARROLL
 Job cpu time:       0 days  0 hours  2 minutes 26.5 seconds.
 Elapsed time:       0 days  0 hours  0 minutes  6.7 seconds.
 File lengths (MBytes):  RWF=     72 Int=      0 D2E=      0 Chk=      8 Scr=      8
 Normal termination of Gaussian 16 at Tue Jun 22 20:22:27 2021.
 Link1:  Proceeding to internal job step number  2.
 ----------------------------------------------------------------------
 #N Geom=AllCheck Guess=TCheck SCRF=Check GenChk RMP2(FC)/Aug-CC-pVTZ F
 req
 ----------------------------------------------------------------------
 1/10=4,29=7,30=1,38=21,40=1,80=1/1,6,3;
 2/12=2,40=1/2;
 3/5=16,6=1,7=10,11=1,14=-4,25=1,30=1,70=2,71=2,116=1,140=1/1,2,3;
 4/5=101,69=2/1;
 5/5=2,38=6,98=1/2;
 8/6=3,8=1,10=1,19=11,30=-1/1;
 9/15=3,16=-3/6;
 11/6=1,8=1,15=11,17=12,24=-1,27=1,28=-2,29=300,32=6,42=3/1,2,10;
 10/6=2,21=1,60=-2/2;
 8/6=4,8=1,10=1,19=11,30=-1/11,4;
 10/5=1,20=4,60=-2/2;
 11/12=2,14=11,16=1,17=2,28=-2,42=3/2,10,12;
 6/7=2,8=2,9=2,10=2,22=-1/1;
 7/10=1,12=2,25=1,44=2,70=1,71=2/1,2,3,16;
 1/38=20,80=1/6(3);
 7/8=1,25=202,44=-1,70=1,71=1,92=10/16,17;
 1/10=4,30=1,38=20,80=1/3;
 99//99;
 3/5=16,6=1,7=10,11=1,14=-2,25=1,30=1,70=5,71=2,116=1,140=1/1,2,3;
 4/5=5,16=3,69=2/1;
 5/5=2,38=5,98=1/2;
 8/6=3,8=1,10=1,19=11,30=-1/1;
 9/15=3,16=-3/6;
 11/6=1,8=1,15=11,17=12,24=-1,27=1,28=-2,29=300,32=6,42=3/1,2,10;
 10/6=2,21=1,60=-2/2;
 8/6=4,8=1,10=1,19=11,30=-1/11,4;
 10/5=1,20=4,60=-2/2;
 11/12=2,14=11,16=1,17=2,28=-2,42=3/2,10,12;
 6/7=2,8=2,9=2,10=2,22=-1/1;
 7/7=1,10=1,12=2,25=1,44=2,70=1,71=1/1,2,3,16;
 1/38=20,80=1/6(-12);
 7/8=1,25=202,44=-1,70=1,71=1,92=10/16,17;
 1/10=4,30=1,38=20,80=1/3;
 99//99;
 Structure from the checkpoint file:  "hf_mp2_avtz_anharm.chk"
 --
 HF
 --
 Charge =  0 Multiplicity = 1
 Redundant internal coordinates found in file.  (old form).
 F,0,0.,0.,0.092184
 H,0,0.,0.,-0.829654
 Recover connectivity data from disk.
 Numerical evaluation of third derivatives.
 Nuclear step= 0.010000 Angstroms, electric field step= 0.000333 atomic units, NStep=1.

 GradGradGradGradGradGradGradGradGradGradGradGradGradGradGradGradGradGrad
 Berny optimization.
 Initialization pass.
                           ----------------------------
                           !    Initial Parameters    !
                           ! (Angstroms and Degrees)  !
 --------------------------                            --------------------------
 ! Name  Definition              Value          Derivative Info.                !
 --------------------------------------------------------------------------------
 ! R1    R(1,2)                  0.9218         calculate D2E/DX2 analytically  !
 --------------------------------------------------------------------------------
 Trust Radius=3.00D-01 FncErr=1.00D-07 GrdErr=1.00D-07 EigMax=2.50D+02 EigMin=1.00D-04
 Number of steps in this run=      2 maximum allowed number of steps=      2.
 GradGradGradGradGradGradGradGradGradGradGradGradGradGradGradGradGradGrad

                          Input orientation:                          
 ---------------------------------------------------------------------
 Center     Atomic      Atomic             Coordinates (Angstroms)
 Number     Number       Type             X           Y           Z
 ---------------------------------------------------------------------
      1          9           0        0.000000    0.000000    0.092184
      2          1           0        0.000000    0.000000   -0.829654
 ---------------------------------------------------------------------
 Stoichiometry    FH
 Framework group  C*V[C*(HF)]
 Deg. of freedom     1
 Full point group                 C*V     NOp   4
 Largest Abelian subgroup         C2V     NOp   4
 Largest concise Abelian subgroup C1      NOp   1
                         Standard orientation:                         
 ---------------------------------------------------------------------
 Center     Atomic      Atomic             Coordinates (Angstroms)
 Number     Number       Type             X           Y           Z
 ---------------------------------------------------------------------
      1          9           0        0.000000    0.000000    0.092184
      2          1           0        0.000000    0.000000   -0.829654
 ---------------------------------------------------------------------
 Rotational constants (GHZ):           0.0000000         621.3995892         621.3995892
 Standard basis: Aug-CC-pVTZ (5D, 7F)
 There are    37 symmetry adapted cartesian basis functions of A1  symmetry.
 There are     7 symmetry adapted cartesian basis functions of A2  symmetry.
 There are    18 symmetry adapted cartesian basis functions of B1  symmetry.
 There are    18 symmetry adapted cartesian basis functions of B2  symmetry.
 There are    30 symmetry adapted basis functions of A1  symmetry.
 There are     7 symmetry adapted basis functions of A2  symmetry.
 There are    16 symmetry adapted basis functions of B1  symmetry.
 There are    16 symmetry adapted basis functions of B2  symmetry.
    69 basis functions,    99 primitive gaussians,    80 cartesian basis functions
     5 alpha electrons        5 beta electrons
       nuclear repulsion energy         5.1664119924 Hartrees.
 NAtoms=    2 NActive=    2 NUniq=    2 SFac= 1.00D+00 NAtFMM=   60 NAOKFM=F Big=F
 Integral buffers will be    131072 words long.
 Raffenetti 1 integral format.
 Two-electron integral symmetry is turned on.
 One-electron integrals computed using PRISM.
 NBasis=    69 RedAO= T EigKep=  3.66D-04  NBF=    30     7    16    16
 NBsUse=    69 1.00D-06 EigRej= -1.00D+00 NBFU=    30     7    16    16
 Initial guess from the checkpoint file:  "hf_mp2_avtz_anharm.chk"
 B after Tr=     0.000000    0.000000    0.000000
         Rot=    1.000000    0.000000    0.000000    0.000000 Ang=   0.00 deg.
 Initial guess orbital symmetries:
       Occupied  (SG) (SG) (SG) (PI) (PI)
       Virtual   (SG) (SG) (PI) (PI) (SG) (PI) (PI) (SG) (SG) (SG)
                 (DLTA) (DLTA) (PI) (PI) (SG) (PI) (PI) (SG) (DLTA)
                 (DLTA) (PI) (PI) (SG) (PI) (PI) (SG) (SG) (SG)
                 (DLTA) (DLTA) (PI) (PI) (PHI) (PHI) (DLTA) (DLTA)
                 (SG) (PI) (PI) (SG) (DLTA) (DLTA) (PI) (PI) (PI)
                 (PI) (SG) (SG) (PI) (PI) (SG) (PHI) (PHI) (DLTA)
                 (DLTA) (PI) (PI) (SG) (DLTA) (DLTA) (PI) (PI)
                 (SG) (SG)
 Keep R1 ints in memory in symmetry-blocked form, NReq=16549204.
 Requested convergence on RMS density matrix=1.00D-08 within 128 cycles.
 Requested convergence on MAX density matrix=1.00D-06.
 Requested convergence on             energy=1.00D-06.
 No special actions if energy rises.
 SCF Done:  E(RHF) =  -100.060833469     A.U. after    1 cycles
            NFock=  1  Conv=0.47D-09     -V/T= 2.0010
 ExpMin= 2.53D-02 ExpMax= 1.95D+04 ExpMxC= 6.65D+02 IAcc=3 IRadAn=         5 AccDes= 0.00D+00
 HarFok:  IExCor=  205 AccDes= 0.00D+00 IRadAn=         5 IDoV=-2 UseB2=F ITyADJ=14
 ICtDFT= 12500011 ScaDFX=  1.000000  1.000000  1.000000  1.000000
 Range of M.O.s used for correlation:     2    69
 NBasis=    69 NAE=     5 NBE=     5 NFC=     1 NFV=     0
 NROrb=     68 NOA=     4 NOB=     4 NVA=    64 NVB=    64

 **** Warning!!: The largest alpha MO coefficient is  0.18556674D+02

 Disk-based method using ON**2 memory for  4 occupieds at a time.
 Permanent disk used for amplitudes=      122560 words.
 Estimated scratch disk usage=     4053398 words.
 Actual    scratch disk usage=     4053398 words.
 JobTyp=1 Pass  1:  I=   2 to   5 NPSUse= 28 ParTrn=T ParDer=T DoDerP=T.
 (rs|ai) integrals will be sorted in core.
 Spin components of T(2) and E(2):
     alpha-alpha T2 =       0.6956064966D-02 E2=     -0.3564162913D-01
     alpha-beta  T2 =       0.3820365534D-01 E2=     -0.2087739799D+00
     beta-beta   T2 =       0.6956064966D-02 E2=     -0.3564162913D-01
 ANorm=    0.1025726955D+01
 E2 =    -0.2800572381D+00 EUMP2 =    -0.10034089070725D+03
 G2DrvN: will do     3 centers at a time, making    1 passes.
 Calling FoFCou, ICntrl=  3107 FMM=F I1Cent=   0 AccDes= 0.00D+00.
 End of G2Drv F.D. properties file   721 does not exist.
 End of G2Drv F.D. properties file   722 does not exist.
 End of G2Drv F.D. properties file   788 does not exist.
          IDoAtm=11
          Differentiating once with respect to electric field.
                with respect to dipole field.
          Differentiating once with respect to nuclear coordinates.
 Keep R1 ints in memory in symmetry-blocked form, NReq=16549772.
          There are     9 degrees of freedom in the 1st order CPHF.  IDoFFX=6 NUNeed=     9.
      6 vectors produced by pass  0 Test12= 3.56D-15 1.11D-08 XBig12= 1.06D+00 5.17D-01.
 AX will form     6 AO Fock derivatives at one time.
      6 vectors produced by pass  1 Test12= 3.56D-15 1.11D-08 XBig12= 5.88D-02 9.48D-02.
      6 vectors produced by pass  2 Test12= 3.56D-15 1.11D-08 XBig12= 2.62D-03 1.69D-02.
      6 vectors produced by pass  3 Test12= 3.56D-15 1.11D-08 XBig12= 3.72D-05 2.10D-03.
      6 vectors produced by pass  4 Test12= 3.56D-15 1.11D-08 XBig12= 3.61D-07 2.33D-04.
      6 vectors produced by pass  5 Test12= 3.56D-15 1.11D-08 XBig12= 1.79D-09 1.12D-05.
      4 vectors produced by pass  6 Test12= 3.56D-15 1.11D-08 XBig12= 5.20D-12 7.99D-07.
      3 vectors produced by pass  7 Test12= 3.56D-15 1.11D-08 XBig12= 2.30D-14 5.19D-08.
 InvSVY:  IOpt=1 It=  1 EMax= 6.66D-16
 Solved reduced A of dimension    43 with     6 vectors.
 End of Minotr F.D. properties file   721 does not exist.
 End of Minotr F.D. properties file   722 does not exist.
 End of Minotr F.D. properties file   788 does not exist.
 MDV=  5502926848.
 Form MO integral derivatives with frozen-active canonical formalism.
 Discarding MO integrals.
 Reordered first order wavefunction length =       204800
 In DefCFB: NBatch=  1 ICI=  5 ICA= 64 LFMax= 64
            Large arrays: LIAPS=     7065600 LIARS=     9856000 words.
 Semi-Direct transformation.
 ModeAB=           2 MOrb=             5 LenV=    5502623200
 LASXX=       770935 LTotXX=      770935 LenRXX=      770935
 LTotAB=      804225 MaxLAS=     1117800 LenRXY=     1117800
 NonZer=     1541870 LenScr=     2621440 LnRSAI=           0
 LnScr1=           0 LExtra=           0 Total=      4510175
 MaxDsk=          -1 SrtSym=           F ITran=            4
 JobTyp=0 Pass  1:  I=   1 to   5.
 (rs|ai) integrals will be sorted in core.
 Spin components of T(2) and E(2):
     alpha-alpha T2 =       0.6956064966D-02 E2=     -0.3564162913D-01
     alpha-beta  T2 =       0.3820365534D-01 E2=     -0.2087739799D+00
     beta-beta   T2 =       0.6956064966D-02 E2=     -0.3564162913D-01
 ANorm=    0.1450596970D+01
 E2 =    -0.2800572381D+00 EUMP2 =    -0.10034089070725D+03
          IDoAtm=11
          Differentiating once with respect to electric field.
                with respect to dipole field.
          Differentiating once with respect to nuclear coordinates.
          There are     1 degrees of freedom in the 1st order CPHF.  IDoFFX=0 NUNeed=     1.
 LinEq1:  Iter=  0 NonCon=     1 RMS=5.55D-03 Max=5.07D-02 NDo=     1
 LinEq1:  Iter=  1 NonCon=     1 RMS=8.68D-04 Max=8.01D-03 NDo=     1
 LinEq1:  Iter=  2 NonCon=     1 RMS=3.11D-04 Max=2.07D-03 NDo=     1
 LinEq1:  Iter=  3 NonCon=     1 RMS=6.54D-05 Max=4.58D-04 NDo=     1
 LinEq1:  Iter=  4 NonCon=     1 RMS=8.91D-06 Max=5.07D-05 NDo=     1
 LinEq1:  Iter=  5 NonCon=     1 RMS=9.31D-07 Max=6.69D-06 NDo=     1
 LinEq1:  Iter=  6 NonCon=     1 RMS=7.62D-08 Max=3.78D-07 NDo=     1
 LinEq1:  Iter=  7 NonCon=     1 RMS=6.03D-09 Max=3.59D-08 NDo=     1
 LinEq1:  Iter=  8 NonCon=     1 RMS=4.74D-10 Max=2.99D-09 NDo=     1
 LinEq1:  Iter=  9 NonCon=     0 RMS=3.89D-11 Max=2.89D-10 NDo=     1
 Linear equations converged to 1.000D-10 1.000D-09 after     9 iterations.
 End of Minotr F.D. properties file   721 does not exist.
 End of Minotr F.D. properties file   722 does not exist.
 End of Minotr F.D. properties file   788 does not exist.
 Symmetrizing basis deriv contribution to polar:
 IMax=3 JMax=2 DiffMx= 0.00D+00
 G2DrvN: will do     3 centers at a time, making    1 passes.
 Calling FoFCou, ICntrl=  3107 FMM=F I1Cent=   0 AccDes= 0.00D+00.
 End of G2Drv F.D. properties file   721 does not exist.
 End of G2Drv F.D. properties file   722 does not exist.
 End of G2Drv F.D. properties file   788 does not exist.
 R2 and R3 integrals will be kept in memory, NReq=    12440840.
 DD1Dir will call FoFMem   1 times, MxPair=        30
 NAB=    15 NAA=     0 NBB=     0.
 Discarding MO integrals.

 **********************************************************************

            Population analysis using the MP2 density.

 **********************************************************************

 Orbital symmetries:
       Occupied  (SG) (SG) (SG) (PI) (PI)
       Virtual   (SG) (SG) (PI) (PI) (SG) (PI) (PI) (SG) (SG) (SG)
                 (DLTA) (DLTA) (PI) (PI) (SG) (PI) (PI) (SG) (DLTA)
                 (DLTA) (PI) (PI) (SG) (PI) (PI) (SG) (SG) (SG)
                 (DLTA) (DLTA) (PI) (PI) (PHI) (PHI) (DLTA) (DLTA)
                 (SG) (PI) (PI) (SG) (DLTA) (DLTA) (PI) (PI) (PI)
                 (PI) (SG) (SG) (PI) (PI) (SG) (PHI) (PHI) (DLTA)
                 (DLTA) (PI) (PI) (SG) (DLTA) (DLTA) (PI) (PI)
                 (SG) (SG)
 The electronic state is 1-SG.
 Alpha  occ. eigenvalues --  -26.29952  -1.60111  -0.76678  -0.65005  -0.65005
 Alpha virt. eigenvalues --    0.03044   0.13868   0.20135   0.20135   0.20776
 Alpha virt. eigenvalues --    0.28535   0.28535   0.31068   0.42662   0.70899
 Alpha virt. eigenvalues --    0.75981   0.75981   0.82710   0.82710   0.94853
 Alpha virt. eigenvalues --    1.04140   1.04140   1.07027   1.08520   1.08520
 Alpha virt. eigenvalues --    1.14501   1.14501   1.14939   1.66687   1.66687
 Alpha virt. eigenvalues --    1.97976   2.38880   2.73757   2.80832   2.80832
 Alpha virt. eigenvalues --    2.90312   2.90312   2.93455   2.93455   3.15837
 Alpha virt. eigenvalues --    3.15837   3.15991   3.62316   3.62316   4.08489
 Alpha virt. eigenvalues --    4.16064   4.16064   4.30149   4.30149   4.76778
 Alpha virt. eigenvalues --    4.76778   5.05399   5.64632   6.06239   6.06239
 Alpha virt. eigenvalues --    7.53883   8.82990   8.82990   8.91895   8.91895
 Alpha virt. eigenvalues --    9.23491   9.23491   9.34350   9.35871   9.35871
 Alpha virt. eigenvalues --    9.54879   9.54879   9.87515  14.56525
          Condensed to atoms (all electrons):
               1          2
     1  F    9.233775   0.112468
     2  H    0.112468   0.541290
 Mulliken charges:
               1
     1  F   -0.346243
     2  H    0.346243
 Sum of Mulliken charges =  -0.00000
 Mulliken charges with hydrogens summed into heavy atoms:
               1
     1  F   -0.000000
 APT charges:
               1
     1  F   -0.387226
     2  H    0.387226
 Sum of APT charges =  -0.00000
 APT charges with hydrogens summed into heavy atoms:
               1
     1  F   -0.000000
 Electronic spatial extent (au):  <R**2>=             14.2843
 Charge=             -0.0000 electrons
 Dipole moment (field-independent basis, Debye):
    X=              0.0000    Y=              0.0000    Z=             -1.8100  Tot=              1.8100
 Quadrupole moment (field-independent basis, Debye-Ang):
   XX=             -5.9073   YY=             -5.9073   ZZ=             -3.7246
   XY=              0.0000   XZ=              0.0000   YZ=              0.0000
 Traceless Quadrupole moment (field-independent basis, Debye-Ang):
   XX=             -0.7276   YY=             -0.7276   ZZ=              1.4551
   XY=              0.0000   XZ=              0.0000   YZ=              0.0000
 Octapole moment (field-independent basis, Debye-Ang**2):
  XXX=              0.0000  YYY=              0.0000  ZZZ=             -1.8103  XYY=              0.0000
  XXY=              0.0000  XXZ=             -0.1034  XZZ=              0.0000  YZZ=              0.0000
  YYZ=             -0.1034  XYZ=              0.0000
 Hexadecapole moment (field-independent basis, Debye-Ang**3):
 XXXX=             -4.2934 YYYY=             -4.2934 ZZZZ=             -3.6855 XXXY=              0.0000
 XXXZ=              0.0000 YYYX=              0.0000 YYYZ=              0.0000 ZZZX=              0.0000
 ZZZY=              0.0000 XXYY=             -1.4311 XXZZ=             -1.5838 YYZZ=             -1.5838
 XXYZ=              0.0000 YYXZ=              0.0000 ZZXY=              0.0000
 N-N= 5.166411992433D+00 E-N=-2.503904769254D+02  KE= 1.002527488371D+02
 Symmetry A1   KE= 8.766964199945D+01
 Symmetry A2   KE= 2.670315770128D-02
 Symmetry B1   KE= 6.278201839963D+00
 Symmetry B2   KE= 6.278201839963D+00
  Exact polarizability:   4.962   0.000   4.962   0.000   0.000   6.379
 Approx polarizability:   3.517  -0.000   3.517  -0.000  -0.000   4.992
 Calling FoFJK, ICntrl=  10100127 FMM=F ISym2X=1 I1Cent= 0 IOpClX= 0 NMat=1 NMatS=1 NMatT=0.
 Full mass-weighted force constant matrix:
 Low frequencies ---   -0.0017   -0.0010   -0.0009    3.0648    3.0648 4122.8665
 Diagonal vibrational polarizability:
        0.0000000       0.0000000       0.1909469
 Harmonic frequencies (cm**-1), IR intensities (KM/Mole), Raman scattering
 activities (A**4/AMU), depolarization ratios for plane and unpolarized
 incident light, reduced masses (AMU), force constants (mDyne/A),
 and normal coordinates:
                      1
                     SG
 Frequencies --   4122.8665
 Red. masses --      1.0583
 Frc consts  --     10.5989
 IR Inten    --    120.6086
  Atom  AN      X      Y      Z
     1   9    -0.00  -0.00  -0.05
     2   1    -0.00  -0.00   1.00

 -------------------
 - Thermochemistry -
 -------------------
 Temperature   298.150 Kelvin.  Pressure   1.00000 Atm.
 Atom     1 has atomic number  9 and mass  18.99840
 Atom     2 has atomic number  1 and mass   1.00783
 Molecular mass:    20.00623 amu.
 Principal axes and moments of inertia in atomic units:
                           1         2         3
     Eigenvalues --     0.00000   2.90432   2.90432
           X            0.00000  -0.00000   1.00000
           Y            0.00000   1.00000   0.00000
           Z            1.00000   0.00000   0.00000
 This molecule is a prolate symmetric top.
 Rotational symmetry number  1.
 Rotational temperature (Kelvin)     29.82248
 Rotational constant (GHZ):         621.399589
 Zero-point vibrational energy      24660.2 (Joules/Mol)
                                    5.89393 (Kcal/Mol)
 Vibrational temperatures:   5931.89
          (Kelvin)
 
 Zero-point correction=                           0.009393 (Hartree/Particle)
 Thermal correction to Energy=                    0.011753
 Thermal correction to Enthalpy=                  0.012697
 Thermal correction to Gibbs Free Energy=        -0.007013
 Sum of electronic and zero-point Energies=           -100.331498
 Sum of electronic and thermal Energies=              -100.329138
 Sum of electronic and thermal Enthalpies=            -100.328193
 Sum of electronic and thermal Free Energies=         -100.347904
 
                     E (Thermal)             CV                S
                      KCal/Mol        Cal/Mol-Kelvin    Cal/Mol-Kelvin
 Total                    7.375              4.968             41.484
 Electronic               0.000              0.000              0.000
 Translational            0.889              2.981             34.922
 Rotational               0.592              1.987              6.562
 Vibrational              5.894              0.000              0.000
                       Q            Log10(Q)             Ln(Q)
 Total Bot       0.168194D+04          3.225809          7.427700
 Total V=0       0.351636D+08          7.546093         17.375521
 Vib (Bot)       0.478318D-04         -4.320284         -9.947821
 Vib (V=0)       0.100000D+01          0.000000          0.000000
 Electronic      0.100000D+01          0.000000          0.000000
 Translational   0.351724D+07          6.546202         15.073186
 Rotational      0.999749D+01          0.999891          2.302334

     ==================================================
      Anharmonic Data: Displacement Vectors Definition
     ==================================================

 Framework definition based on atomic masses: C*V 
 NOTE: Degenerate modes will be reoriented, following the conventions
       from: L. Henry, G. Amat, J. Mol. Spectrosc. 1961, 5, 319
 Linear top along axis: Z
                 1 
      1  -0.000000D+00
      2  -0.000000D+00
      3  -0.514934D-01
      4   0.000000D+00
      5   0.000000D+00
      6   0.970696D+00
                 1 
      1  -0.000000D+00
      2  -0.000000D+00
      3  -0.514934D-01
      4   0.000000D+00
      5   0.000000D+00
      6   0.970696D+00

 **********************************************************************

                  Harmonic vibro-rotational analysis

 **********************************************************************


     ==================================================
               Analysis of the Rotor Symmetry
     ==================================================

 Framework Group : C*V 
 Rotor Type      : Linear Molecule
 Inertia moments : X=     0.81329 , Y=     0.81329 , Z=     0.00000
 Representation  : Ir Representation, Iz < Ix < Iy

 Axes Definition for the Symmetric-Top Representation
 ----------------------------------------------------
 Axis Z automatically chosen to be collinear with Z from Eckart orient.
 NOTE: In Vibro-rotational analysis, this will be referred to as the
       spectroscopic orientation.

     ==================================================
        Vibro-Rotational Analysis Based on Symmetry
     ==================================================

 Representation SG  
 ------------------
    Z Translation
    1 Vibrations with frequencies:
   4122.87

 Representation PI   (doubly degenerate)
 --------------------------------------
    X Translation
    Y Translation
    X Rotation
    Y Rotation
 No Vibration

 Input/Output information
 ------------------------
 Normal modes will be PRINTED in DESCENDING order (imag. freq. first)
   and sorted by irreducible representation
 The connection between this new numbering (A) and the one used before
   (H) is reported in the present equivalency table:
 ----+------+
 (H) |     1|
 (A) |     1|
 ----+------+

 Normal modes will be READ in ASCENDING order (imag. freq. first)

 Analysis of symmetry-allowed terms
 ----------------------------------

     ==================================================
                   Coriolis Couplings
     ==================================================
 No Coriolis coupling for diatomic molecules

     ==================================================
      Inertia Moments Derivatives w.r.t. Normal Modes
     ==================================================

 Units: amu^1/2.Ang

                 Ixx        Ixy        Iyy        Ixz        Iyz        Izz
 Q(     1)    -1.80365    0.00000   -1.80365    0.00000    0.00000    0.00000

     ==================================================
               Vibro-rotational Alpha Matrix
     ==================================================

 Vibro-Rot alpha Matrix (in cm^-1)
 ---------------------------------
                 A(z)           B(x)           C(y)
 Q(     1)       -0.00000            NaN            NaN

 Vibro-Rot alpha Matrix (in MHz)
 -------------------------------
                 A(z)           B(x)           C(y)
 Q(     1)       -0.00000            NaN            NaN

     ==================================================
          Quartic Centrifugal Distortion Constants
     ==================================================

 NOTE: Values in Cartesian coords. refer to the structure in Eckart orientation.

 Quartic Centrifugal Distortion Constants Tau Prime
 --------------------------------------------------
                      cm^-1                    MHz
 TauP aaaa      0.0000000000D+00         0.0000000000D+00
 TauP bbaa      0.0000000000D+00         0.0000000000D+00
 TauP bbbb     -0.8382473867D-02        -0.2513002445D+03
 cm-1                       MHz
 De    0.2095618467D-02         0.6282506111D+02

     ==================================================
            Rotational l-type doubling constants
     ==================================================
 Ref.: J.K.G. Watson, J. Mol. Spectry. 101, 83 (1983)
       q_i = q_i^e + (q_i^J)*J(J+1) + (q_i^K)*K(K+-1)^2

 q^e constants (in cm^-1)
 ------------------------


 q^J constants (in cm^-1)
 ------------------------


 q^K constants (in cm^-1)
 ------------------------


     ==================================================
       Average Coordinates and Mean Square Amplitudes
     ==================================================

 NOTE: Temperature is given in K between parentheses
       For Cartesian and internal coords., units are given between
       parentheses next to each label

 Mean Square Amplitudes of Normal Coordinates (in amu.bohr^2)
 -----------------------------------------------------------
 Mode    <Q^2> (0)    <Q^2> (298.15)    <Q^2> (298.15) class.
    1     0.014601       0.014601          0.057946

 Mean Square Amplitudes of Cartesian Coordinates
 -----------------------------------------------
    Label        <(S-Se)^2>^1/2 (0)    <(S-Se)^2>^1/2 (298.15)
 X(1)  (Angs)        0.000000              0.000000
 Y(1)  (Angs)        0.000000              0.000000
 Z(1)  (Angs)        0.003293              0.003293
 X(2)  (Angs)        0.000000              0.000000
 Y(2)  (Angs)        0.000000              0.000000
 Z(2)  (Angs)        0.062070              0.062070
 ***** Axes restored to original set *****
 -------------------------------------------------------------------
 Center     Atomic                   Forces (Hartrees/Bohr)
 Number     Number              X              Y              Z
 -------------------------------------------------------------------
      1        9          -0.000000000   -0.000000000   -0.000000541
      2        1          -0.000000000   -0.000000000    0.000000541
 -------------------------------------------------------------------
 Cartesian Forces:  Max     0.000000541 RMS     0.000000312
 FormGI is forming the generalized inverse of G from B-inverse, IUseBI=4.
 NDeriv=      1 NFrqRd=  0 NDerD0=      0 MskFDP=       0 MskDFD=       0 MskDF0=       0
 At 1st pt F.D. properties file   721 does not exist.
 At 1st pt F.D. properties file   722 does not exist.
 D2Numr ... symmetry will not be used.
 Standard basis: Aug-CC-pVTZ (5D, 7F)
    69 basis functions,    99 primitive gaussians,    80 cartesian basis functions
     5 alpha electrons        5 beta electrons
       nuclear repulsion energy         5.2243426603 Hartrees.
 NAtoms=    2 NActive=    2 NUniq=    2 SFac= 1.00D+00 NAtFMM=   60 NAOKFM=F Big=F
 Integral buffers will be    131072 words long.
 Raffenetti 1 integral format.
 Two-electron integral symmetry is turned off.
 One-electron integrals computed using PRISM.
 NBasis=    69 RedAO= T EigKep=  3.55D-04  NBF=    69
 NBsUse=    69 1.00D-06 EigRej= -1.00D+00 NBFU=    69
 Initial guess from the checkpoint file:  "hf_mp2_avtz_anharm.chk"
 B after Tr=     0.000000    0.000000    0.000959
         Rot=    1.000000    0.000000    0.000000    0.000000 Ang=   0.00 deg.
 Keep R1 ints in memory in canonical form, NReq=16541271.
 Requested convergence on RMS density matrix=1.00D-08 within 128 cycles.
 Requested convergence on MAX density matrix=1.00D-06.
 Requested convergence on             energy=1.00D-06.
 No special actions if energy rises.
 SCF Done:  E(RHF) =  -100.061268707     A.U. after    8 cycles
            NFock=  8  Conv=0.35D-08     -V/T= 2.0008
 ExpMin= 2.53D-02 ExpMax= 1.95D+04 ExpMxC= 6.65D+02 IAcc=3 IRadAn=         5 AccDes= 0.00D+00
 HarFok:  IExCor=  205 AccDes= 0.00D+00 IRadAn=         5 IDoV=-2 UseB2=F ITyADJ=14
 ICtDFT= 12500011 ScaDFX=  1.000000  1.000000  1.000000  1.000000
 Range of M.O.s used for correlation:     2    69
 NBasis=    69 NAE=     5 NBE=     5 NFC=     1 NFV=     0
 NROrb=     68 NOA=     4 NOB=     4 NVA=    64 NVB=    64

 **** Warning!!: The largest alpha MO coefficient is  0.19113596D+02

 Disk-based method using ON**2 memory for  4 occupieds at a time.
 Permanent disk used for amplitudes=      122560 words.
 Estimated scratch disk usage=     4053398 words.
 Actual    scratch disk usage=     4053398 words.
 JobTyp=1 Pass  1:  I=   2 to   5 NPSUse= 28 ParTrn=T ParDer=T DoDerP=T.
 (rs|ai) integrals will be sorted in core.
 Spin components of T(2) and E(2):
     alpha-alpha T2 =       0.6909571980D-02 E2=     -0.3557342462D-01
     alpha-beta  T2 =       0.3790673889D-01 E2=     -0.2083574457D+00
     beta-beta   T2 =       0.6909571980D-02 E2=     -0.3557342462D-01
 ANorm=    0.1025536875D+01
 E2 =    -0.2795042950D+00 EUMP2 =    -0.10034077300175D+03
 G2DrvN: will do     3 centers at a time, making    1 passes.
 Calling FoFCou, ICntrl=  3107 FMM=F I1Cent=   0 AccDes= 0.00D+00.
 End of G2Drv F.D. properties file   721 does not exist.
 End of G2Drv F.D. properties file   722 does not exist.
 End of G2Drv F.D. properties file   788 does not exist.
          IDoAtm=11
          Differentiating once with respect to electric field.
                with respect to dipole field.
          Differentiating once with respect to nuclear coordinates.
 Keep R1 ints in memory in canonical form, NReq=16541833.
          There are     9 degrees of freedom in the 1st order CPHF.  IDoFFX=6 NUNeed=     9.
      6 vectors produced by pass  0 Test12= 3.56D-15 1.11D-08 XBig12= 1.03D+00 5.08D-01.
 AX will form     6 AO Fock derivatives at one time.
      6 vectors produced by pass  1 Test12= 3.56D-15 1.11D-08 XBig12= 5.58D-02 9.23D-02.
      6 vectors produced by pass  2 Test12= 3.56D-15 1.11D-08 XBig12= 2.45D-03 1.63D-02.
      6 vectors produced by pass  3 Test12= 3.56D-15 1.11D-08 XBig12= 3.50D-05 2.02D-03.
      6 vectors produced by pass  4 Test12= 3.56D-15 1.11D-08 XBig12= 3.43D-07 2.29D-04.
      6 vectors produced by pass  5 Test12= 3.56D-15 1.11D-08 XBig12= 1.70D-09 1.11D-05.
      4 vectors produced by pass  6 Test12= 3.56D-15 1.11D-08 XBig12= 4.86D-12 7.57D-07.
      3 vectors produced by pass  7 Test12= 3.56D-15 1.11D-08 XBig12= 2.12D-14 4.94D-08.
 InvSVY:  IOpt=1 It=  1 EMax= 2.22D-16
 Solved reduced A of dimension    43 with     6 vectors.
 End of Minotr F.D. properties file   721 does not exist.
 End of Minotr F.D. properties file   722 does not exist.
 End of Minotr F.D. properties file   788 does not exist.
 MDV=  5502926848.
 Form MO integral derivatives with frozen-active canonical formalism.
 Discarding MO integrals.
 Reordered first order wavefunction length =       204800
 In DefCFB: NBatch=  1 ICI=  5 ICA= 64 LFMax= 64
            Large arrays: LIAPS=     7065600 LIARS=     9856000 words.
 Semi-Direct transformation.
 ModeAB=           2 MOrb=             5 LenV=    5502624889
 LASXX=       770935 LTotXX=      770935 LenRXX=      770935
 LTotAB=      804225 MaxLAS=     1117800 LenRXY=     1117800
 NonZer=     1541870 LenScr=     2621440 LnRSAI=           0
 LnScr1=           0 LExtra=           0 Total=      4510175
 MaxDsk=          -1 SrtSym=           F ITran=            4
 JobTyp=0 Pass  1:  I=   1 to   5.
 (rs|ai) integrals will be sorted in core.
 Spin components of T(2) and E(2):
     alpha-alpha T2 =       0.6909571980D-02 E2=     -0.3557342462D-01
     alpha-beta  T2 =       0.3790673889D-01 E2=     -0.2083574457D+00
     beta-beta   T2 =       0.6909571980D-02 E2=     -0.3557342462D-01
 ANorm=    0.1450328158D+01
 E2 =    -0.2795042950D+00 EUMP2 =    -0.10034077300175D+03
          IDoAtm=11
          Differentiating once with respect to electric field.
                with respect to dipole field.
          Differentiating once with respect to nuclear coordinates.
          There are     1 degrees of freedom in the 1st order CPHF.  IDoFFX=0 NUNeed=     1.
 LinEq1:  Iter=  0 NonCon=     1 RMS=5.49D-03 Max=4.77D-02 NDo=     1
 LinEq1:  Iter=  1 NonCon=     1 RMS=8.45D-04 Max=7.73D-03 NDo=     1
 LinEq1:  Iter=  2 NonCon=     1 RMS=3.02D-04 Max=2.00D-03 NDo=     1
 LinEq1:  Iter=  3 NonCon=     1 RMS=6.33D-05 Max=4.46D-04 NDo=     1
 LinEq1:  Iter=  4 NonCon=     1 RMS=8.56D-06 Max=4.84D-05 NDo=     1
 LinEq1:  Iter=  5 NonCon=     1 RMS=8.91D-07 Max=6.44D-06 NDo=     1
 LinEq1:  Iter=  6 NonCon=     1 RMS=7.30D-08 Max=3.64D-07 NDo=     1
 LinEq1:  Iter=  7 NonCon=     1 RMS=5.67D-09 Max=3.31D-08 NDo=     1
 LinEq1:  Iter=  8 NonCon=     1 RMS=4.50D-10 Max=2.82D-09 NDo=     1
 LinEq1:  Iter=  9 NonCon=     0 RMS=3.73D-11 Max=2.79D-10 NDo=     1
 Linear equations converged to 1.000D-10 1.000D-09 after     9 iterations.
 End of Minotr F.D. properties file   721 does not exist.
 End of Minotr F.D. properties file   722 does not exist.
 End of Minotr F.D. properties file   788 does not exist.
 Symmetrizing basis deriv contribution to polar:
 IMax=3 JMax=2 DiffMx= 0.00D+00
 G2DrvN: will do     3 centers at a time, making    1 passes.
 Calling FoFCou, ICntrl=  3107 FMM=F I1Cent=   0 AccDes= 0.00D+00.
 End of G2Drv F.D. properties file   721 does not exist.
 End of G2Drv F.D. properties file   722 does not exist.
 End of G2Drv F.D. properties file   788 does not exist.
 R2 and R3 integrals will be kept in memory, NReq=    12440840.
 DD1Dir will call FoFMem   1 times, MxPair=        30
 NAB=    15 NAA=     0 NBB=     0.
 Discarding MO integrals.

 **********************************************************************

            Population analysis using the MP2 density.

 **********************************************************************

 Alpha  occ. eigenvalues --  -26.29932  -1.60476  -0.77084  -0.65110  -0.65110
 Alpha virt. eigenvalues --    0.03068   0.13903   0.20108   0.20108   0.20861
 Alpha virt. eigenvalues --    0.28581   0.28581   0.31046   0.42869   0.71375
 Alpha virt. eigenvalues --    0.76004   0.76004   0.82527   0.82527   0.95034
 Alpha virt. eigenvalues --    1.04354   1.04354   1.06700   1.08659   1.08659
 Alpha virt. eigenvalues --    1.14606   1.14606   1.14822   1.66948   1.66948
 Alpha virt. eigenvalues --    1.99404   2.39564   2.71178   2.80736   2.80736
 Alpha virt. eigenvalues --    2.90735   2.90735   2.93372   2.93372   3.16169
 Alpha virt. eigenvalues --    3.16169   3.16630   3.62733   3.62733   4.10152
 Alpha virt. eigenvalues --    4.17270   4.17270   4.30581   4.30581   4.77007
 Alpha virt. eigenvalues --    4.77007   5.09315   5.67418   6.10234   6.10234
 Alpha virt. eigenvalues --    7.53995   8.82895   8.82895   8.91852   8.91852
 Alpha virt. eigenvalues --    9.24443   9.24443   9.34270   9.35955   9.35955
 Alpha virt. eigenvalues --    9.54860   9.54860   9.89677  14.71859
          Condensed to atoms (all electrons):
               1          2
     1  F    9.231127   0.109781
     2  H    0.109781   0.549310
 Mulliken charges:
               1
     1  F   -0.340909
     2  H    0.340909
 Sum of Mulliken charges =  -0.00000
 Mulliken charges with hydrogens summed into heavy atoms:
               1
     1  F   -0.000000
 APT charges:
               1
     1  F   -0.387321
     2  H    0.387321
 Sum of APT charges =  -0.00000
 APT charges with hydrogens summed into heavy atoms:
               1
     1  F   -0.000000
 Electronic spatial extent (au):  <R**2>=             14.2272
 Charge=             -0.0000 electrons
 Dipole moment (field-independent basis, Debye):
    X=              0.0000    Y=             -0.0000    Z=             -1.7932  Tot=              1.7932
 Quadrupole moment (field-independent basis, Debye-Ang):
   XX=             -5.8948   YY=             -5.8948   ZZ=             -3.7539
   XY=             -0.0000   XZ=             -0.0000   YZ=             -0.0000
 Traceless Quadrupole moment (field-independent basis, Debye-Ang):
   XX=             -0.7136   YY=             -0.7136   ZZ=              1.4272
   XY=             -0.0000   XZ=             -0.0000   YZ=             -0.0000
 Octapole moment (field-independent basis, Debye-Ang**2):
  XXX=              0.0000  YYY=              0.0000  ZZZ=             -1.7754  XYY=             -0.0000
  XXY=              0.0000  XXZ=             -0.1098  XZZ=             -0.0000  YZZ=             -0.0000
  YYZ=             -0.1098  XYZ=             -0.0000
 Hexadecapole moment (field-independent basis, Debye-Ang**3):
 XXXX=             -4.2736 YYYY=             -4.2736 ZZZZ=             -3.6817 XXXY=             -0.0000
 XXXZ=             -0.0000 YYYX=             -0.0000 YYYZ=              0.0000 ZZZX=             -0.0000
 ZZZY=              0.0000 XXYY=             -1.4245 XXZZ=             -1.5687 YYZZ=             -1.5687
 XXYZ=              0.0000 YYXZ=             -0.0000 ZZXY=             -0.0000
 N-N= 5.224342660287D+00 E-N=-2.505099450763D+02  KE= 1.002734654345D+02
  Exact polarizability:   4.935   0.000   4.935  -0.000   0.000   6.271
 Approx polarizability:   3.502   0.000   3.502  -0.000   0.000   4.905
 Calling FoFJK, ICntrl=  10100127 FMM=F ISym2X=0 I1Cent= 0 IOpClX= 0 NMat=1 NMatS=1 NMatT=0.
 -------------------------------------------------------------------
 Center     Atomic                   Forces (Hartrees/Bohr)
 Number     Number              X              Y              Z
 -------------------------------------------------------------------
      1        9           0.000000000    0.000000000    0.012338062
      2        1          -0.000000000   -0.000000000   -0.012338062
 -------------------------------------------------------------------
 Cartesian Forces:  Max     0.012338062 RMS     0.007123383
 NDeriv=      1 NFrqRd=  0 NDerD0=      0 MskFDP=       0 MskDFD=       0 MskDF0=       0
 Re-enter D2Numr:  normal mode   1 step-up   number 1
 Standard basis: Aug-CC-pVTZ (5D, 7F)
    69 basis functions,    99 primitive gaussians,    80 cartesian basis functions
     5 alpha electrons        5 beta electrons
       nuclear repulsion energy         5.1097519753 Hartrees.
 NAtoms=    2 NActive=    2 NUniq=    2 SFac= 1.00D+00 NAtFMM=   60 NAOKFM=F Big=F
 Integral buffers will be    131072 words long.
 Raffenetti 1 integral format.
 Two-electron integral symmetry is turned off.
 One-electron integrals computed using PRISM.
 NBasis=    69 RedAO= T EigKep=  3.78D-04  NBF=    69
 NBsUse=    69 1.00D-06 EigRej= -1.00D+00 NBFU=    69
 Initial guess from the checkpoint file:  "hf_mp2_avtz_anharm.chk"
 B after Tr=     0.000000    0.000000   -0.000959
         Rot=    1.000000    0.000000    0.000000    0.000000 Ang=   0.00 deg.
 Keep R1 ints in memory in canonical form, NReq=16541271.
 Requested convergence on RMS density matrix=1.00D-08 within 128 cycles.
 Requested convergence on MAX density matrix=1.00D-06.
 Requested convergence on             energy=1.00D-06.
 No special actions if energy rises.
 SCF Done:  E(RHF) =  -100.060169480     A.U. after    8 cycles
            NFock=  8  Conv=0.36D-08     -V/T= 2.0012
 ExpMin= 2.53D-02 ExpMax= 1.95D+04 ExpMxC= 6.65D+02 IAcc=3 IRadAn=         5 AccDes= 0.00D+00
 HarFok:  IExCor=  205 AccDes= 0.00D+00 IRadAn=         5 IDoV=-2 UseB2=F ITyADJ=14
 ICtDFT= 12500011 ScaDFX=  1.000000  1.000000  1.000000  1.000000
 Range of M.O.s used for correlation:     2    69
 NBasis=    69 NAE=     5 NBE=     5 NFC=     1 NFV=     0
 NROrb=     68 NOA=     4 NOB=     4 NVA=    64 NVB=    64

 **** Warning!!: The largest alpha MO coefficient is  0.18009432D+02

 Disk-based method using ON**2 memory for  4 occupieds at a time.
 Permanent disk used for amplitudes=      122560 words.
 Estimated scratch disk usage=     4053398 words.
 Actual    scratch disk usage=     4053398 words.
 JobTyp=1 Pass  1:  I=   2 to   5 NPSUse= 28 ParTrn=T ParDer=T DoDerP=T.
 (rs|ai) integrals will be sorted in core.
 Spin components of T(2) and E(2):
     alpha-alpha T2 =       0.7002505927D-02 E2=     -0.3570923695D-01
     alpha-beta  T2 =       0.3850391120D-01 E2=     -0.2091906500D+00
     beta-beta   T2 =       0.7002505927D-02 E2=     -0.3570923695D-01
 ANorm=    0.1025918575D+01
 E2 =    -0.2806091239D+00 EUMP2 =    -0.10034077860360D+03
 G2DrvN: will do     3 centers at a time, making    1 passes.
 Calling FoFCou, ICntrl=  3107 FMM=F I1Cent=   0 AccDes= 0.00D+00.
 End of G2Drv F.D. properties file   721 does not exist.
 End of G2Drv F.D. properties file   722 does not exist.
 End of G2Drv F.D. properties file   788 does not exist.
          IDoAtm=11
          Differentiating once with respect to electric field.
                with respect to dipole field.
          Differentiating once with respect to nuclear coordinates.
 Keep R1 ints in memory in canonical form, NReq=16541833.
          There are     9 degrees of freedom in the 1st order CPHF.  IDoFFX=6 NUNeed=     9.
      6 vectors produced by pass  0 Test12= 3.56D-15 1.11D-08 XBig12= 1.09D+00 5.26D-01.
 AX will form     6 AO Fock derivatives at one time.
      6 vectors produced by pass  1 Test12= 3.56D-15 1.11D-08 XBig12= 6.20D-02 8.33D-02.
      6 vectors produced by pass  2 Test12= 3.56D-15 1.11D-08 XBig12= 2.79D-03 1.76D-02.
      6 vectors produced by pass  3 Test12= 3.56D-15 1.11D-08 XBig12= 3.95D-05 2.19D-03.
      6 vectors produced by pass  4 Test12= 3.56D-15 1.11D-08 XBig12= 3.79D-07 2.36D-04.
      6 vectors produced by pass  5 Test12= 3.56D-15 1.11D-08 XBig12= 1.90D-09 1.17D-05.
      4 vectors produced by pass  6 Test12= 3.56D-15 1.11D-08 XBig12= 5.58D-12 8.42D-07.
      3 vectors produced by pass  7 Test12= 3.56D-15 1.11D-08 XBig12= 2.50D-14 5.59D-08.
 InvSVY:  IOpt=1 It=  1 EMax= 4.44D-16
 Solved reduced A of dimension    43 with     6 vectors.
 End of Minotr F.D. properties file   721 does not exist.
 End of Minotr F.D. properties file   722 does not exist.
 End of Minotr F.D. properties file   788 does not exist.
 MDV=  5502926848.
 Form MO integral derivatives with frozen-active canonical formalism.
 Discarding MO integrals.
 Reordered first order wavefunction length =       204800
 In DefCFB: NBatch=  1 ICI=  5 ICA= 64 LFMax= 64
            Large arrays: LIAPS=     7065600 LIARS=     9856000 words.
 Semi-Direct transformation.
 ModeAB=           2 MOrb=             5 LenV=    5502624889
 LASXX=       770935 LTotXX=      770935 LenRXX=      770935
 LTotAB=      804225 MaxLAS=     1117800 LenRXY=     1117800
 NonZer=     1541870 LenScr=     2621440 LnRSAI=           0
 LnScr1=           0 LExtra=           0 Total=      4510175
 MaxDsk=          -1 SrtSym=           F ITran=            4
 JobTyp=0 Pass  1:  I=   1 to   5.
 (rs|ai) integrals will be sorted in core.
 Spin components of T(2) and E(2):
     alpha-alpha T2 =       0.7002505927D-02 E2=     -0.3570923695D-01
     alpha-beta  T2 =       0.3850391120D-01 E2=     -0.2091906500D+00
     beta-beta   T2 =       0.7002505927D-02 E2=     -0.3570923695D-01
 ANorm=    0.1450867963D+01
 E2 =    -0.2806091239D+00 EUMP2 =    -0.10034077860360D+03
          IDoAtm=11
          Differentiating once with respect to electric field.
                with respect to dipole field.
          Differentiating once with respect to nuclear coordinates.
          There are     1 degrees of freedom in the 1st order CPHF.  IDoFFX=0 NUNeed=     1.
 LinEq1:  Iter=  0 NonCon=     1 RMS=5.61D-03 Max=4.84D-02 NDo=     1
 LinEq1:  Iter=  1 NonCon=     1 RMS=8.91D-04 Max=8.30D-03 NDo=     1
 LinEq1:  Iter=  2 NonCon=     1 RMS=3.20D-04 Max=1.70D-03 NDo=     1
 LinEq1:  Iter=  3 NonCon=     1 RMS=6.75D-05 Max=4.71D-04 NDo=     1
 LinEq1:  Iter=  4 NonCon=     1 RMS=9.26D-06 Max=5.31D-05 NDo=     1
 LinEq1:  Iter=  5 NonCon=     1 RMS=9.72D-07 Max=6.94D-06 NDo=     1
 LinEq1:  Iter=  6 NonCon=     1 RMS=7.94D-08 Max=3.92D-07 NDo=     1
 LinEq1:  Iter=  7 NonCon=     1 RMS=6.39D-09 Max=3.96D-08 NDo=     1
 LinEq1:  Iter=  8 NonCon=     1 RMS=4.97D-10 Max=3.15D-09 NDo=     1
 LinEq1:  Iter=  9 NonCon=     0 RMS=4.05D-11 Max=2.98D-10 NDo=     1
 Linear equations converged to 1.000D-10 1.000D-09 after     9 iterations.
 End of Minotr F.D. properties file   721 does not exist.
 End of Minotr F.D. properties file   722 does not exist.
 End of Minotr F.D. properties file   788 does not exist.
 Symmetrizing basis deriv contribution to polar:
 IMax=3 JMax=2 DiffMx= 0.00D+00
 G2DrvN: will do     3 centers at a time, making    1 passes.
 Calling FoFCou, ICntrl=  3107 FMM=F I1Cent=   0 AccDes= 0.00D+00.
 End of G2Drv F.D. properties file   721 does not exist.
 End of G2Drv F.D. properties file   722 does not exist.
 End of G2Drv F.D. properties file   788 does not exist.
 R2 and R3 integrals will be kept in memory, NReq=    12440840.
 DD1Dir will call FoFMem   1 times, MxPair=        30
 NAB=    15 NAA=     0 NBB=     0.
 Discarding MO integrals.

 **********************************************************************

            Population analysis using the MP2 density.

 **********************************************************************

 Alpha  occ. eigenvalues --  -26.29971  -1.59756  -0.76275  -0.64901  -0.64901
 Alpha virt. eigenvalues --    0.03018   0.13830   0.20161   0.20161   0.20688
 Alpha virt. eigenvalues --    0.28488   0.28488   0.31090   0.42453   0.70429
 Alpha virt. eigenvalues --    0.75958   0.75958   0.82899   0.82899   0.94677
 Alpha virt. eigenvalues --    1.03914   1.03914   1.07333   1.08382   1.08382
 Alpha virt. eigenvalues --    1.14396   1.14396   1.15094   1.66428   1.66428
 Alpha virt. eigenvalues --    1.96553   2.38221   2.76334   2.80933   2.80933
 Alpha virt. eigenvalues --    2.89901   2.89901   2.93538   2.93538   3.15395
 Alpha virt. eigenvalues --    3.15506   3.15506   3.61860   3.61860   4.06812
 Alpha virt. eigenvalues --    4.14879   4.14879   4.29692   4.29692   4.76593
 Alpha virt. eigenvalues --    4.76593   5.01576   5.61790   6.02332   6.02332
 Alpha virt. eigenvalues --    7.53945   8.83085   8.83085   8.91933   8.91933
 Alpha virt. eigenvalues --    9.22609   9.22609   9.34560   9.35789   9.35789
 Alpha virt. eigenvalues --    9.54871   9.54871   9.85490  14.41948
          Condensed to atoms (all electrons):
               1          2
     1  F    9.235821   0.115168
     2  H    0.115168   0.533843
 Mulliken charges:
               1
     1  F   -0.350989
     2  H    0.350989
 Sum of Mulliken charges =  -0.00000
 Mulliken charges with hydrogens summed into heavy atoms:
               1
     1  F   -0.000000
 APT charges:
               1
     1  F   -0.387119
     2  H    0.387119
 Sum of APT charges =  -0.00000
 APT charges with hydrogens summed into heavy atoms:
               1
     1  F   -0.000000
 Electronic spatial extent (au):  <R**2>=             14.3415
 Charge=             -0.0000 electrons
 Dipole moment (field-independent basis, Debye):
    X=             -0.0000    Y=              0.0000    Z=             -1.8269  Tot=              1.8269
 Quadrupole moment (field-independent basis, Debye-Ang):
   XX=             -5.9198   YY=             -5.9198   ZZ=             -3.6947
   XY=             -0.0000   XZ=              0.0000   YZ=              0.0000
 Traceless Quadrupole moment (field-independent basis, Debye-Ang):
   XX=             -0.7417   YY=             -0.7417   ZZ=              1.4834
   XY=             -0.0000   XZ=              0.0000   YZ=              0.0000
 Octapole moment (field-independent basis, Debye-Ang**2):
  XXX=             -0.0000  YYY=              0.0000  ZZZ=             -1.8462  XYY=             -0.0000
  XXY=              0.0000  XXZ=             -0.0970  XZZ=             -0.0000  YZZ=             -0.0000
  YYZ=             -0.0970  XYZ=              0.0000
 Hexadecapole moment (field-independent basis, Debye-Ang**3):
 XXXX=             -4.3133 YYYY=             -4.3133 ZZZZ=             -3.6882 XXXY=             -0.0000
 XXXZ=              0.0000 YYYX=             -0.0000 YYYZ=              0.0000 ZZZX=              0.0000
 ZZZY=             -0.0000 XXYY=             -1.4378 XXZZ=             -1.5991 YYZZ=             -1.5991
 XXYZ=              0.0000 YYXZ=              0.0000 ZZXY=             -0.0000
 N-N= 5.109751975326D+00 E-N=-2.502737157461D+02  KE= 1.002329112676D+02
  Exact polarizability:   4.989   0.000   4.989  -0.000  -0.000   6.488
 Approx polarizability:   3.533   0.000   3.533  -0.000  -0.000   5.081
 Calling FoFJK, ICntrl=  10100127 FMM=F ISym2X=0 I1Cent= 0 IOpClX= 0 NMat=1 NMatS=1 NMatT=0.
 -------------------------------------------------------------------
 Center     Atomic                   Forces (Hartrees/Bohr)
 Number     Number              X              Y              Z
 -------------------------------------------------------------------
      1        9           0.000000000   -0.000000000   -0.011465698
      2        1          -0.000000000    0.000000000    0.011465698
 -------------------------------------------------------------------
 Cartesian Forces:  Max     0.011465698 RMS     0.006619724
 NDeriv=      1 NFrqRd=  0 NDerD0=      0 MskFDP=       0 MskDFD=       0 MskDF0=       0
 Re-enter D2Numr:  normal mode   1 step-down number 1
 Max difference between Dipole analytic and numerical normal mode 1st derivatives:
 I=     3 ID=     1 Difference=    1.5628069443D-05
 Max difference between Dipole analytic and numerical normal mode 2nd derivatives:
 I=     3 ID=     1 Difference=    2.4969266098D-05
 Recovering previously computed normal modes.
 Harmonic frequencies (cm**-1), IR intensities (KM/Mole), Raman scattering
 activities (A**4/AMU), depolarization ratios for plane and unpolarized
 incident light, reduced masses (AMU), force constants (mDyne/A),
 and normal coordinates:
                      1
                     SG
 Frequencies --   4122.8665
 Red. masses --      1.0583
 Frc consts  --     10.5989
 IR Inten    --    120.6086
  Atom  AN      X      Y      Z
     1   9    -0.00  -0.00  -0.05
     2   1     0.00   0.00   1.00

 -------------------
 - Thermochemistry -
 -------------------
 Temperature   298.150 Kelvin.  Pressure   1.00000 Atm.
 Atom     1 has atomic number  9 and mass  18.99840
 Atom     2 has atomic number  1 and mass   1.00783
 Molecular mass:    20.00623 amu.
 Principal axes and moments of inertia in atomic units:
                           1         2         3
     Eigenvalues --     0.00000   2.90432   2.90432
           X            0.00000  -0.00000   1.00000
           Y            0.00000   1.00000   0.00000
           Z            1.00000   0.00000   0.00000
 This molecule is a prolate symmetric top.
 Rotational symmetry number  1.
 Rotational temperature (Kelvin)     29.82248
 Rotational constant (GHZ):         621.399589
 Zero-point vibrational energy      24660.2 (Joules/Mol)
                                    5.89393 (Kcal/Mol)
 Vibrational temperatures:   5931.89
          (Kelvin)
 
 Zero-point correction=                           0.009393 (Hartree/Particle)
 Thermal correction to Energy=                    0.011753
 Thermal correction to Enthalpy=                  0.012697
 Thermal correction to Gibbs Free Energy=        -0.007013
 Sum of electronic and zero-point Energies=           -100.331498
 Sum of electronic and thermal Energies=              -100.329138
 Sum of electronic and thermal Enthalpies=            -100.328193
 Sum of electronic and thermal Free Energies=         -100.347904
 
                     E (Thermal)             CV                S
                      KCal/Mol        Cal/Mol-Kelvin    Cal/Mol-Kelvin
 Total                    7.375              4.968             41.484
 Electronic               0.000              0.000              0.000
 Translational            0.889              2.981             34.922
 Rotational               0.592              1.987              6.562
 Vibrational              5.894              0.000              0.000
                       Q            Log10(Q)             Ln(Q)
 Total Bot       0.168194D+04          3.225809          7.427700
 Total V=0       0.351636D+08          7.546093         17.375521
 Vib (Bot)       0.478318D-04         -4.320284         -9.947821
 Vib (V=0)       0.100000D+01          0.000000          0.000000
 Electronic      0.100000D+01          0.000000          0.000000
 Translational   0.351724D+07          6.546202         15.073186
 Rotational      0.999749D+01          0.999891          2.302334
 ***** Axes restored to original set *****
 -------------------------------------------------------------------
 Center     Atomic                   Forces (Hartrees/Bohr)
 Number     Number              X              Y              Z
 -------------------------------------------------------------------
      1        9          -0.000000000   -0.000000000   -0.000000541
      2        1          -0.000000000   -0.000000000    0.000000541
 -------------------------------------------------------------------
 Cartesian Forces:  Max     0.000000541 RMS     0.000000312

 **********************************************************************

             Second-order Perturbative Anharmonic Analysis

 **********************************************************************

     ==================================================
                      Reference System
     ==================================================

 NOTE: The system is set in Eckart orientation for the anharmonic
       treatment.
 
 Atom           X                  Y                  Z
 ----------------------------------------------------------------
  F       0.0000000000000    0.0000000000000    0.0464381093293
  H       0.0000000000000    0.0000000000000   -0.8753998906707
 ----------------------------------------------------------------

     ==================================================
               Analysis of the Rotor Symmetry
     ==================================================

 Framework Group : C*V 
 Rotor Type      : Linear Molecule
 Inertia moments : X=     2.90432 , Y=     2.90432 , Z=     0.00000
 Representation  : Ir Representation, Iz < Ix < Iy

 Axes Definition for the Symmetric-Top Representation
 ----------------------------------------------------
 Axis Z automatically chosen to be collinear with Z from Eckart orient.
 NOTE: In Vibro-rotational analysis, this will be referred to as the
       spectroscopic orientation.

     ==================================================
                   Data Source Definition
     ==================================================

 Main data sources
 -----------------
 Harmonic data taken from: current calculation
 Anharmonic data taken from: current calculation

     ==================================================
           Input Data Extraction and Preparation
     ==================================================

 Data for Harmonic Potential Energy Surface
 ------------------------------------------

 Definition of the model system: Active modes
 --------------------------------------------
 The 1 Active Modes are:
     1

 Data for Anharmonic Potential Energy Surface
 --------------------------------------------

 Data for Electric Dipole
 ------------------------
 Property available.

     ==================================================
        Vibro-Rotational Analysis Based on Symmetry
     ==================================================

 Representation SG  
 ------------------
    Z Translation
    1 Vibrations with frequencies:
   4122.87

 Representation PI   (doubly degenerate)
 --------------------------------------
    X Translation
    Y Translation
    X Rotation
    Y Rotation
 No Vibration

 Input/Output information
 ------------------------
 Normal modes will be PRINTED in DESCENDING order (imag. freq. first)
   and sorted by irreducible representation
 The connection between this new numbering (A) and the one used before
   (H) is reported in the present equivalency table:
 ----+------+
 (H) |     1|
 (A) |     1|
 ----+------+

 Normal modes will be READ in ASCENDING order (imag. freq. first)

 TIP: To use the same numbering as in the whole output, use the option
      "Print=NMOrder=AscNoIrrep" in the "ReadAnharm section"

 TIP: To use the same numbering for reading and printing, use the option
      "DataSrc=NMOrder=Print" in the "ReadAnharm section"

 Analysis of symmetry-allowed terms
 ----------------------------------

                             Possible   Symmetry allowed
 Coriolis couplings:             3            0
 Third derivatives :             1            1
 Fourth derivatives: total       1            1
                     (ii|jj)     1            1
                     (ii|jk)     0            0

 WARNING: Anharmonic treatment of linear tops is experimental.
          Moreover, an hybrid treatment is used to simulate spectra:
          - Energy: equations including degenerate modes are used.
          - Intensity: summation done on N' modes, considering only one mode
            per couple of degenerate modes. No variational correction done.

     ==================================================
                   Coriolis Couplings
     ==================================================
 No Coriolis coupling for diatomic molecules

     ==================================================
     Printing Energy derivatives and Coriolis Couplings
     ==================================================

 ........................................................
 :   Reference Energy (a.u.):       -0.100341D+03       :
 :                    (cm-1):       -0.457187D-03       :
 :......................................................:

 ........................................................
 :                   CORIOLIS COUPLINGS                 :
 :......................................................:

    Ax       I      J          Zeta(I,J)


 Num. of Coriolis couplings larger than  0.100D-02: 0 over 3

 ........................................................
 :      QUADRATIC FORCE CONSTANTS IN NORMAL MODES       :
 :                                                      :
 : FI =  Frequency [cm-1]                               :
 : k  =  Force Const.[ attoJ * amu(-1) * ang(-2) ]      :
 : K  =  Force Const.[ Hartrees * amu(-1) * bohr(-2) ]  :
 :......................................................:

      I      J                  FI(I,J)       k(I,J)       K(I,J)

      1      1                 4122.86653     10.01495      0.64327

 Num. of 2nd derivatives larger than  0.371D-04: 1 over 1

 ........................................................
 :        CUBIC FORCE CONSTANTS IN NORMAL MODES         :
 :                                                      :
 : FI =  Reduced values [cm-1]  (default input)         :
 : k  =  Cubic Force Const.[AttoJ*amu(-3/2)*Ang(-3)]    :
 : K  =  Cubic Force Const.[Hartree*amu(-3/2)*Bohr(-3)] :
 :......................................................:

      I      J      K          FI(I,J,K)     k(I,J,K)     K(I,J,K)

      1      1      1          2739.50143     73.58807      2.50121

 Num. of 3rd derivatives larger than  0.371D-04: 1 over 1

 ........................................................
 :                                                      :
 :       QUARTIC FORCE CONSTANTS IN NORMAL MODES        :
 :                                                      :
 : FI =  Reduced values [cm-1]  (default input)         :
 : k  =  Quartic Force Const.[AttoJ*amu(-2)*Ang(-4)]    :
 : K  =  Quartic Force Const.[Hartree*amu(-2)*Bohr(-4)] :
 :......................................................:

      I      J      K      L  FI(I,J,K,L)   k(I,J,K,L)   K(I,J,K,L)

      1      1      1      1   1669.34289    495.86998      8.91890

 Num. of 4th derivatives larger than  0.371D-04: 1 over 1

     ==================================================
                     Input for POLYMODE
     ==================================================

 ***************** cut here for POLYMODE input *****************
  1,  1,  1,  1,  1,  0,  0,  5,  0
SCF-CI
          Input generated by DiNa
  1, 1,  0.176441D-03 /
  1, 1, 1, 0.535622D-05 /
  1, 1, 1, 1, 0.111836D-06 /
 0.529425D+04,0.529425D+04,0.000000D+00 /
 ***************** cut here for POLYMODE input *****************

     ==================================================
      Inertia Moments Derivatives w.r.t. Normal Modes
     ==================================================

 Units: amu^1/2.Ang

                 Ixx        Ixy        Iyy        Ixz        Iyz        Izz
 Q(     1)    -1.80365    0.00000   -1.80365    0.00000    0.00000    0.00000

     ==================================================
               Vibro-rotational Alpha Matrix
     ==================================================

 Vibro-Rot alpha Matrix (in cm^-1)
 ---------------------------------
                 A(z)           B(x)           C(y)
 Q(     1)       -0.00000            NaN            NaN

 Vibro-Rot alpha Matrix (in MHz)
 -------------------------------
                 A(z)           B(x)           C(y)
 Q(     1)       -0.00000            NaN            NaN

     ==================================================
          Quartic Centrifugal Distortion Constants
     ==================================================

 NOTE: Values in Cartesian coords. refer to the structure in Eckart orientation.

 Quartic Centrifugal Distortion Constants Tau Prime
 --------------------------------------------------
                      cm^-1                    MHz
 TauP aaaa      0.0000000000D+00         0.0000000000D+00
 TauP bbaa      0.0000000000D+00         0.0000000000D+00
 TauP bbbb     -0.8382473867D-02        -0.2513002445D+03
 cm-1                       MHz
 De    0.2095618467D-02         0.6282506111D+02

     ==================================================
           Sextic Centrifugal Distortion Constants
     ==================================================

 Sextic Distortion Constants
 ---------------------------
                       in cm-1                  in Hz
 Phi aaa         0.0000000000D+00         0.0000000000D+00
 Phi aab         0.6952641822-309         0.0000000000D+00
 Phi abb         0.7618338110-316         0.0000000000D+00
 Phi bbb         0.1676289240D-06         0.5025388714D+04

 Linear molecule
 ---------------
                       cm^-1                    Hz
 He               0.1676289240D-06         0.5025388714D+04

     ==================================================
       Average Coordinates and Mean Square Amplitudes
     ==================================================

 NOTE: Temperature is given in K between parentheses
       For Cartesian and internal coords., units are given between
       parentheses next to each label

 Mean Square Amplitudes of Normal Coordinates (in amu.bohr^2)
 -----------------------------------------------------------
 Mode    <Q^2> (0)    <Q^2> (298.15)    <Q^2> (298.15) class.
    1     0.014601       0.014601          0.057946

 Average Normal Coordinates (in amu^1/2.bohr)
 --------------------------------------------
   Mode    <Q> (0)       <Q> (298.15)
      1    -0.028387       -0.028387

 Mean Square Amplitudes of Cartesian Coordinates
 -----------------------------------------------
    Label        <(S-Se)^2>^1/2 (0)    <(S-Se)^2>^1/2 (298.15)
 X(1)  (Angs)        0.000000              0.000000
 Y(1)  (Angs)        0.000000              0.000000
 Z(1)  (Angs)        0.003293              0.003293
 X(2)  (Angs)        0.000000              0.000000
 Y(2)  (Angs)        0.000000              0.000000
 Z(2)  (Angs)        0.062070              0.062070

 Average Cartesian Coordinates
 -----------------------------
    Label              Se         <S> = Sz (0)   <S> = Sz (298.15)
 X(1)  (Angs)       0.000000        0.000000        0.000000
 Y(1)  (Angs)       0.000000        0.000000        0.000000
 Z(1)  (Angs)       0.046438        0.047212        0.047212
 X(2)  (Angs)       0.000000        0.000000        0.000000
 Y(2)  (Angs)       0.000000        0.000000        0.000000
 Z(2)  (Angs)      -0.875400       -0.889982       -0.889982

 Internal coordinates for the Equilibrium structure (Se)
                           Interatomic distances:
                    1          2
     1  F    0.000000
     2  H    0.921838   0.000000

 Internal coordinates for the vibrationally average structure at 0K (Sz)
                           Interatomic distances:
                    1          2
     1  F    0.000000
     2  H    0.937193   0.000000

 Internal coordinates for the vibr. average structure at 298.15K (Sa)
                           Interatomic distances:
                    1          2
     1  F    0.000000
     2  H    0.937193   0.000000

     ==================================================
      Vibrational Average of Electric-Field Properties
     ==================================================

 Electric dipole
 ---------------
 ------------------------------------------------------------------------
  Property at reference geometry, Unit: Debye
 ------------------------------------------------------------------------
     X=     0.0000     Y=     0.0000     Z=    -1.8100
 ------------------------------------------------------------------------
  Temperature:     0K, Unit: Debye
 ------------------------------------------------------------------------
     X=     0.0000     Y=    -0.0000     Z=    -1.8365
 ------------------------------------------------------------------------
  Temperature:   298K, Unit: Debye
 ------------------------------------------------------------------------
     X=     0.0000     Y=    -0.0000     Z=    -1.8368

     ==================================================
                     Anharmonic X Matrix
     ==================================================

 PT2 model: Deperturbed VPT2 (DVPT2)
 Ref.: V. Barone, J. Chem. Phys. 122, 1, 014108 (2005)

 Coriolis contributions to X Matrix (in cm^-1)
 ---------------------------------------------
                1
      1  0.000000D+00

 3rd Deriv. contributions to X Matrix (in cm^-1)
 -----------------------------------------------
                1
      1 -0.189615D+03

 4th Deriv. contributions to X Matrix (in cm^-1)
 -----------------------------------------------
                1
      1  0.104334D+03

 Total Anharmonic X Matrix (in cm^-1)
 ------------------------------------
                1
      1 -0.852810D+02

     ==================================================
                Anharmonic Zero Point Energy
     ==================================================

 Anharmonic X0 Term
 ------------------
 U term         : cm-1 =     0.00000 ; Kcal/mol =   0.000 ; KJ/mol =   0.000
 Coriolis       : cm-1 =     0.00000 ; Kcal/mol =   0.000 ; KJ/mol =   0.000
 Anharmonic     : cm-1 =     3.96174 ; Kcal/mol =   0.011 ; KJ/mol =   0.047
 Total X0       : cm-1 =     3.96174 ; Kcal/mol =   0.011 ; KJ/mol =   0.047

 Anharmonic Zero Point Energy
 ----------------------------
 Harmonic       : cm-1 =  2061.43327 ; Kcal/mol =   5.894 ; KJ/mol =  24.660
 Anharmonic Pot.: cm-1 =   -17.35851 ; Kcal/mol =  -0.050 ; KJ/mol =  -0.208
 Watson+Coriolis: cm-1 =     0.00000 ; Kcal/mol =   0.000 ; KJ/mol =   0.000
 Total Anharm   : cm-1 =  2044.07475 ; Kcal/mol =   5.844 ; KJ/mol =  24.453

     ==================================================
          Vibrational Energies at Anharmonic Level
     ==================================================

 Units: Vibrational energies and rotational constants in cm^-1.
 NOTE: Transition energies are given with respect to the ground state.

 Reference Data
 --------------
                              E(harm)  E(anharm)     Ba(x)      Ca(y)
 Equilibrium Geometry                             20.727659  20.727659
 Ground State                 2061.433  2044.075        NaN        NaN

 Fundamental Bands
 -----------------
     Mode(n)      Status      E(harm)  E(anharm)     Ba(x)      Ca(y)
        1(1)      active      4122.867  3952.305        NaN        NaN

 Overtones
 ---------
     Mode(n)                  E(harm)  E(anharm)     Ba(x)      Ca(y)
        1(2)                  8245.733  7734.047        NaN        NaN

 WARNING: Anharmonic transition moments for symmetric and linear tops
          are not yet fully implemented.

     ==================================================
               Anharmonic Transition Moments
     ==================================================

 Electric dipole : Fundamental Bands
 ------------------------------------------------------------------------
   Mode(n)                            X               Y               Z
      1(1)                      -0.148562D-13    0.463326D-13    0.429882D-01

 Electric dipole : Overtones
 ------------------------------------------------------------------------
   Mode(n)                            X               Y               Z
      1(2)                       0.268297D-13   -0.836750D-13    0.407463D-02

 Electric dipole : Combination Bands
 ------------------------------------------------------------------------
   Mode(n)     Mode(n)                X               Y               Z

     ==================================================
              Anharmonic Infrared Spectroscopy
     ==================================================

 Units: Transition energies (E) in cm^-1
        Integrated intensity (I) in km.mol^-1

 Fundamental Bands
 -----------------
   Mode(n)                  E(harm)   E(anharm)        I(harm)       I(anharm)
      1(1)                  4122.867   3952.305    120.60856125    118.27833973

 Overtones
 ---------
   Mode(n)                  E(harm)   E(anharm)                      I(anharm)
      1(2)                  8245.733   7734.047                      2.07941344

 Units: Transition energies (E) in cm^-1
        Dipole strengths (DS) in 10^-40 esu^2.cm^2

 Fundamental Bands
 -----------------
   Mode(n)                  E(harm)   E(anharm)       DS(harm)      DS(anharm)
      1(1)                  4122.867   3952.305    116.70414052    119.38842559

 Overtones
 ---------
   Mode(n)                  E(harm)   E(anharm)                     DS(anharm)
      1(2)                  8245.733   7734.047                      1.07260901


 GradGradGradGradGradGradGradGradGradGradGradGradGradGradGradGradGradGrad
 Berny optimization.
 Internal  Forces:  Max     0.000000541 RMS     0.000000541
 Search for a local minimum.
 Step number   1 out of a maximum of    2
 All quantities printed in internal units (Hartrees-Bohrs-Radians)
 Second derivative matrix not updated -- analytic derivatives used.
 The second derivative matrix:
                          R1
           R1           0.61564
 ITU=  0
     Eigenvalues ---    0.61564
 Angle between quadratic step and forces=  90.00 degrees.
 Linear search not attempted -- first point.
 Iteration  1 RMS(Cart)=  0.00000062 RMS(Int)=  0.00000000
 ClnCor:  largest displacement from symmetrization is 0.00D+00 for atom     0.
 Variable       Old X    -DE/DX   Delta X   Delta X   Delta X     New X
                                 (Linear)    (Quad)   (Total)
    R1        1.74202  -0.00000   0.00000  -0.00000  -0.00000   1.74202
         Item               Value     Threshold  Converged?
 Maximum Force            0.000001     0.000450     YES
 RMS     Force            0.000001     0.000300     YES
 Maximum Displacement     0.000000     0.001800     YES
 RMS     Displacement     0.000001     0.001200     YES
 Predicted change in Energy=-2.378100D-13
 Optimization completed.
    -- Stationary point found.
                           ----------------------------
                           !   Optimized Parameters   !
                           ! (Angstroms and Degrees)  !
 --------------------------                            --------------------------
 ! Name  Definition              Value          Derivative Info.                !
 --------------------------------------------------------------------------------
 ! R1    R(1,2)                  0.9218         -DE/DX =    0.0                 !
 --------------------------------------------------------------------------------
 GradGradGradGradGradGradGradGradGradGradGradGradGradGradGradGradGradGrad


 ----------------------------------------------------------------------

 Electric dipole moment (input orientation):
 (Debye = 10**-18 statcoulomb cm , SI units = C m)
                  (au)            (Debye)         (10**-30 SI)
   Tot        0.712120D+00      0.181003D+01      0.603760D+01
   x          0.000000D+00      0.000000D+00      0.000000D+00
   y          0.000000D+00      0.000000D+00      0.000000D+00
   z         -0.712120D+00     -0.181003D+01     -0.603760D+01

 Dipole polarizability, Alpha (input orientation).
 (esu units = cm**3 , SI units = C**2 m**2 J**-1)
 Alpha(0;0):
               (au)            (10**-24 esu)      (10**-40 SI)
   iso        0.543401D+01      0.805237D+00      0.895947D+00
   aniso      0.141707D+01      0.209989D+00      0.233644D+00
   xx         0.496165D+01      0.735241D+00      0.818066D+00
   yx         0.000000D+00      0.000000D+00      0.000000D+00
   yy         0.496165D+01      0.735241D+00      0.818066D+00
   zx         0.000000D+00      0.000000D+00      0.000000D+00
   zy         0.000000D+00      0.000000D+00      0.000000D+00
   zz         0.637873D+01      0.945230D+00      0.105171D+01

 ----------------------------------------------------------------------

 Dipole orientation:
     9          0.00000000          0.00000000         -0.17420251
     1          0.00000000          0.00000000          1.56781884

 Electric dipole moment (dipole orientation):
 (Debye = 10**-18 statcoulomb cm , SI units = C m)
                  (au)            (Debye)         (10**-30 SI)
   Tot        0.712120D+00      0.181003D+01      0.603760D+01
   x          0.000000D+00      0.000000D+00      0.000000D+00
   y          0.000000D+00      0.000000D+00      0.000000D+00
   z          0.712120D+00      0.181003D+01      0.603760D+01

 Dipole polarizability, Alpha (dipole orientation).
 (esu units = cm**3 , SI units = C**2 m**2 J**-1)
 Alpha(0;0):
               (au)            (10**-24 esu)      (10**-40 SI)
   iso        0.543401D+01      0.805237D+00      0.895947D+00
   aniso      0.141707D+01      0.209989D+00      0.233644D+00
   xx         0.496165D+01      0.735241D+00      0.818066D+00
   yx         0.000000D+00      0.000000D+00      0.000000D+00
   yy         0.496165D+01      0.735241D+00      0.818066D+00
   zx         0.000000D+00      0.000000D+00      0.000000D+00
   zy         0.000000D+00      0.000000D+00      0.000000D+00
   zz         0.637873D+01      0.945230D+00      0.105171D+01

 ----------------------------------------------------------------------
 1\1\GINC-N2144\Freq\RMP2-FC\Aug-CC-pVTZ\F1H1\GDS001\22-Jun-2021\0\\#N 
 Geom=AllCheck Guess=TCheck SCRF=Check GenChk RMP2(FC)/Aug-CC-pVTZ Freq
 \\HF\\0,1\F,0.,0.,0.092184\H,0.,0.,-0.829654\\Version=ES64L-G16RevA.03
 \State=1-SG\HF=-100.0608335\MP2=-100.3408907\RMSD=4.656e-10\RMSF=3.124
 e-07\ZeroPoint=0.0093926\Thermal=0.011753\Dipole=0.,0.,-0.7121198\Dipo
 leDeriv=-0.4087894,0.,0.,0.,-0.4087894,0.,0.,0.,-0.3440978,0.4087894,0
 .,0.,0.,0.4087894,0.,0.,0.,0.3440978\Polar=4.9616538,0.,4.9616538,0.,0
 .,6.378727\Quadrupole=-0.5409308,-0.5409308,1.0818616,0.,0.,0.\PG=C*V 
 [C*(H1F1)]\NImag=0\\0.00000034,0.,0.00000034,0.,0.,0.61564027,-0.00000
 034,0.,0.,0.00000034,0.,-0.00000034,0.,0.,0.00000034,0.,0.,-0.61564027
 ,0.,0.,0.61564027\\0.,0.,0.00000054,0.,0.,-0.00000054\\-0.36173720,0.,
 -0.36173720,0.,0.,2.39379415,0.36173720,0.,0.,-0.36173720,0.,0.3617372
 0,0.,0.,-0.36173720,0.,0.,-2.39379415,0.,0.,2.39379415,-1.82857859,0.,
 -1.82857858,0.,0.,8.53588093,1.82857860,0.,0.,-1.82857860,0.,1.8285785
 9,0.,0.,-1.82857859,0.,0.,-8.53588090,0.,0.,8.53588090\\@


 ROSE IS A RED
 TY COBB IS BLUE
 'CAUSE PETE JUST HIT
 NO. 4592.
 Job cpu time:       0 days  0 hours 17 minutes 29.1 seconds.
 Elapsed time:       0 days  0 hours  0 minutes 40.6 seconds.
 File lengths (MBytes):  RWF=    240 Int=      0 D2E=      0 Chk=     44 Scr=      8
 Normal termination of Gaussian 16 at Tue Jun 22 20:23:10 2021.
