 Entering Gaussian System, Link 0=g16
 Input=hf_mp2_opt_anharm.gjf
 Output=hf_mp2_opt_anharm.log
 Initial command:
 /sw/contrib/gaussian/g16/A03/g16/l1.exe "/gscratch/scrubbed/gds001/Gau-1057.inp" -scrdir="/gscratch/scrubbed/gds001/"
 Entering Link 1 = /sw/contrib/gaussian/g16/A03/g16/l1.exe PID=      1058.
  
 Copyright (c) 1988,1990,1992,1993,1995,1998,2003,2009,2016,
            Gaussian, Inc.  All Rights Reserved.
  
 This is part of the Gaussian(R) 16 program.  It is based on
 the Gaussian(R) 09 system (copyright 2009, Gaussian, Inc.),
 the Gaussian(R) 03 system (copyright 2003, Gaussian, Inc.),
 the Gaussian(R) 98 system (copyright 1998, Gaussian, Inc.),
 the Gaussian(R) 94 system (copyright 1995, Gaussian, Inc.),
 the Gaussian 92(TM) system (copyright 1992, Gaussian, Inc.),
 the Gaussian 90(TM) system (copyright 1990, Gaussian, Inc.),
 the Gaussian 88(TM) system (copyright 1988, Gaussian, Inc.),
 the Gaussian 86(TM) system (copyright 1986, Carnegie Mellon
 University), and the Gaussian 82(TM) system (copyright 1983,
 Carnegie Mellon University). Gaussian is a federally registered
 trademark of Gaussian, Inc.
  
 This software contains proprietary and confidential information,
 including trade secrets, belonging to Gaussian, Inc.
  
 This software is provided under written license and may be
 used, copied, transmitted, or stored only in accord with that
 written license.
  
 The following legend is applicable only to US Government
 contracts under FAR:
  
                    RESTRICTED RIGHTS LEGEND
  
 Use, reproduction and disclosure by the US Government is
 subject to restrictions as set forth in subparagraphs (a)
 and (c) of the Commercial Computer Software - Restricted
 Rights clause in FAR 52.227-19.
  
 Gaussian, Inc.
 340 Quinnipiac St., Bldg. 40, Wallingford CT 06492
  
  
 ---------------------------------------------------------------
 Warning -- This program may not be used in any manner that
 competes with the business of Gaussian, Inc. or will provide
 assistance to any competitor of Gaussian, Inc.  The licensee
 of this program is prohibited from giving any competitor of
 Gaussian, Inc. access to this program.  By using this program,
 the user acknowledges that Gaussian, Inc. is engaged in the
 business of creating and licensing software in the field of
 computational chemistry and represents and warrants to the
 licensee that it is not a competitor of Gaussian, Inc. and that
 it will not use this program in any manner prohibited above.
 ---------------------------------------------------------------
  

 Cite this work as:
 Gaussian 16, Revision A.03,
 M. J. Frisch, G. W. Trucks, H. B. Schlegel, G. E. Scuseria, 
 M. A. Robb, J. R. Cheeseman, G. Scalmani, V. Barone, 
 G. A. Petersson, H. Nakatsuji, X. Li, M. Caricato, A. V. Marenich, 
 J. Bloino, B. G. Janesko, R. Gomperts, B. Mennucci, H. P. Hratchian, 
 J. V. Ortiz, A. F. Izmaylov, J. L. Sonnenberg, D. Williams-Young, 
 F. Ding, F. Lipparini, F. Egidi, J. Goings, B. Peng, A. Petrone, 
 T. Henderson, D. Ranasinghe, V. G. Zakrzewski, J. Gao, N. Rega, 
 G. Zheng, W. Liang, M. Hada, M. Ehara, K. Toyota, R. Fukuda, 
 J. Hasegawa, M. Ishida, T. Nakajima, Y. Honda, O. Kitao, H. Nakai, 
 T. Vreven, K. Throssell, J. A. Montgomery, Jr., J. E. Peralta, 
 F. Ogliaro, M. J. Bearpark, J. J. Heyd, E. N. Brothers, K. N. Kudin, 
 V. N. Staroverov, T. A. Keith, R. Kobayashi, J. Normand, 
 K. Raghavachari, A. P. Rendell, J. C. Burant, S. S. Iyengar, 
 J. Tomasi, M. Cossi, J. M. Millam, M. Klene, C. Adamo, R. Cammi, 
 J. W. Ochterski, R. L. Martin, K. Morokuma, O. Farkas, 
 J. B. Foresman, and D. J. Fox, Gaussian, Inc., Wallingford CT, 2016.
 
 ******************************************
 Gaussian 16:  ES64L-G16RevA.03 25-Dec-2016
                 4-Aug-2020 
 ******************************************
 %nprocshared=28
 Will use up to   28 processors via shared memory.
 %mem=41GB
 %chk=hf.chk
 ---------------------------------------------
 # MP2/aug-cc-pVDZ Opt Freq(vibrot,anharmonic)
 ---------------------------------------------
 1/18=20,19=15,38=1,80=1/1,3;
 2/9=110,12=2,17=6,18=5,40=1/2;
 3/5=16,7=10,11=9,25=1,30=1,71=1/1,2,3;
 4//1;
 5/5=2,38=5/2;
 8/6=4,10=1/1;
 9/15=2,16=-3/6;
 10/5=1/2;
 6/7=2,8=2,9=2,10=2/1;
 7/12=2/1,2,3,16;
 1/18=20,19=15,80=1/3(2);
 2/9=110/2;
 99//99;
 2/9=110/2;
 3/5=16,7=10,11=9,25=1,30=1,71=1/1,2,3;
 4/5=5,16=3,69=1/1;
 5/5=2,38=5/2;
 8/6=4,10=1/1;
 9/15=2,16=-3/6;
 10/5=1/2;
 7/12=2/1,2,3,16;
 1/18=20,19=15,80=1/3(-8);
 2/9=110/2;
 6/7=2,8=2,9=2,10=2/1;
 99//99;
 --
 hf
 --
 Symbolic Z-matrix:
 Charge =  0 Multiplicity = 1
 H                     0.        0.       -0.83233 
 F                     0.        0.        0.09248 
 

 GradGradGradGradGradGradGradGradGradGradGradGradGradGradGradGradGradGrad
 Berny optimization.
 Initialization pass.
                           ----------------------------
                           !    Initial Parameters    !
                           ! (Angstroms and Degrees)  !
 --------------------------                            --------------------------
 ! Name  Definition              Value          Derivative Info.                !
 --------------------------------------------------------------------------------
 ! R1    R(1,2)                  0.9248         estimate D2E/DX2                !
 --------------------------------------------------------------------------------
 Trust Radius=3.00D-01 FncErr=1.00D-07 GrdErr=1.00D-07 EigMax=2.50D+02 EigMin=1.00D-04
 Number of steps in this run=     20 maximum allowed number of steps=    100.
 GradGradGradGradGradGradGradGradGradGradGradGradGradGradGradGradGradGrad

                          Input orientation:                          
 ---------------------------------------------------------------------
 Center     Atomic      Atomic             Coordinates (Angstroms)
 Number     Number       Type             X           Y           Z
 ---------------------------------------------------------------------
      1          1           0        0.000000    0.000000   -0.832330
      2          9           0        0.000000    0.000000    0.092481
 ---------------------------------------------------------------------
 Stoichiometry    FH
 Framework group  C*V[C*(HF)]
 Deg. of freedom     1
 Full point group                 C*V     NOp   4
 Largest Abelian subgroup         C2V     NOp   4
 Largest concise Abelian subgroup C1      NOp   1
                         Standard orientation:                         
 ---------------------------------------------------------------------
 Center     Atomic      Atomic             Coordinates (Angstroms)
 Number     Number       Type             X           Y           Z
 ---------------------------------------------------------------------
      1          1           0        0.000000    0.000000   -0.832330
      2          9           0        0.000000    0.000000    0.092481
 ---------------------------------------------------------------------
 Rotational constants (GHZ):           0.0000000         617.4107709         617.4107709
 Standard basis: Aug-CC-pVDZ (5D, 7F)
 There are    18 symmetry adapted cartesian basis functions of A1  symmetry.
 There are     2 symmetry adapted cartesian basis functions of A2  symmetry.
 There are     7 symmetry adapted cartesian basis functions of B1  symmetry.
 There are     7 symmetry adapted cartesian basis functions of B2  symmetry.
 There are    16 symmetry adapted basis functions of A1  symmetry.
 There are     2 symmetry adapted basis functions of A2  symmetry.
 There are     7 symmetry adapted basis functions of B1  symmetry.
 There are     7 symmetry adapted basis functions of B2  symmetry.
    32 basis functions,    54 primitive gaussians,    34 cartesian basis functions
     5 alpha electrons        5 beta electrons
       nuclear repulsion energy         5.1498034715 Hartrees.
 NAtoms=    2 NActive=    2 NUniq=    2 SFac= 1.00D+00 NAtFMM=   60 NAOKFM=F Big=F
 Integral buffers will be    131072 words long.
 Raffenetti 1 integral format.
 Two-electron integral symmetry is turned on.
 One-electron integrals computed using PRISM.
 NBasis=    32 RedAO= T EigKep=  2.17D-03  NBF=    16     2     7     7
 NBsUse=    32 1.00D-06 EigRej= -1.00D+00 NBFU=    16     2     7     7
 ExpMin= 2.97D-02 ExpMax= 1.47D+04 ExpMxC= 5.03D+02 IAcc=3 IRadAn=         5 AccDes= 0.00D+00
 Harris functional with IExCor=  205 and IRadAn=       5 diagonalized for initial guess.
 HarFok:  IExCor=  205 AccDes= 0.00D+00 IRadAn=         5 IDoV= 1 UseB2=F ITyADJ=14
 ICtDFT=  3500011 ScaDFX=  1.000000  1.000000  1.000000  1.000000
 FoFCou: FMM=F IPFlag=           0 FMFlag=      100000 FMFlg1=           0
         NFxFlg=           0 DoJE=T BraDBF=F KetDBF=T FulRan=T
         wScrn=  0.000000 ICntrl=       500 IOpCl=  0 I1Cent=   200000004 NGrid=           0
         NMat0=    1 NMatS0=      1 NMatT0=    0 NMatD0=    1 NMtDS0=    0 NMtDT0=    0
 Petite list used in FoFCou.
 Initial guess orbital symmetries:
       Occupied  (SG) (SG) (SG) (PI) (PI)
       Virtual   (SG) (SG) (PI) (PI) (SG) (SG) (PI) (PI) (SG) (SG)
                 (DLTA) (DLTA) (PI) (PI) (PI) (PI) (SG) (SG) (PI)
                 (PI) (SG) (SG) (DLTA) (DLTA) (PI) (PI) (SG)
 The electronic state of the initial guess is 1-SG.
 Keep R1 ints in memory in symmetry-blocked form, NReq=5909791.
 Requested convergence on RMS density matrix=1.00D-08 within 128 cycles.
 Requested convergence on MAX density matrix=1.00D-06.
 Requested convergence on             energy=1.00D-06.
 No special actions if energy rises.
 SCF Done:  E(RHF) =  -100.033079482     A.U. after    9 cycles
            NFock=  9  Conv=0.67D-08     -V/T= 2.0011
 ExpMin= 2.97D-02 ExpMax= 1.47D+04 ExpMxC= 5.03D+02 IAcc=3 IRadAn=         5 AccDes= 0.00D+00
 HarFok:  IExCor=  205 AccDes= 0.00D+00 IRadAn=         5 IDoV=-2 UseB2=F ITyADJ=14
 ICtDFT= 12500011 ScaDFX=  1.000000  1.000000  1.000000  1.000000
 Range of M.O.s used for correlation:     2    32
 NBasis=    32 NAE=     5 NBE=     5 NFC=     1 NFV=     0
 NROrb=     31 NOA=     4 NOB=     4 NVA=    27 NVB=    27
 Fully direct method using O(ONN) memory.
 JobTyp=1 Pass  1:  I=   2 to   5 NPSUse= 28 ParTrn=T ParDer=T DoDerP=T.
 Spin components of T(2) and E(2):
     alpha-alpha T2 =       0.6617500137D-02 E2=     -0.2976939980D-01
     alpha-beta  T2 =       0.3528241555D-01 E2=     -0.1631861875D+00
     beta-beta   T2 =       0.6617500137D-02 E2=     -0.2976939980D-01
 ANorm=    0.1023971394D+01
 E2 =    -0.2227249871D+00 EUMP2 =    -0.10025580446880D+03
          IDoAtm=11
          Differentiating once with respect to electric field.
                with respect to dipole field.
          Differentiating once with respect to nuclear coordinates.
 Keep R1 ints in memory in symmetry-blocked form, NReq=5910380.
          There are     1 degrees of freedom in the 1st order CPHF.  IDoFFX=0 NUNeed=     1.
 LinEq1:  Iter=  0 NonCon=     1 RMS=9.92D-03 Max=6.37D-02 NDo=     1
 AX will form     1 AO Fock derivatives at one time.
 LinEq1:  Iter=  1 NonCon=     1 RMS=2.58D-03 Max=1.19D-02 NDo=     1
 LinEq1:  Iter=  2 NonCon=     1 RMS=6.09D-04 Max=3.16D-03 NDo=     1
 LinEq1:  Iter=  3 NonCon=     1 RMS=6.39D-05 Max=2.95D-04 NDo=     1
 LinEq1:  Iter=  4 NonCon=     1 RMS=6.58D-06 Max=2.94D-05 NDo=     1
 LinEq1:  Iter=  5 NonCon=     1 RMS=8.40D-07 Max=3.18D-06 NDo=     1
 LinEq1:  Iter=  6 NonCon=     1 RMS=5.69D-08 Max=2.15D-07 NDo=     1
 LinEq1:  Iter=  7 NonCon=     1 RMS=5.28D-09 Max=3.34D-08 NDo=     1
 LinEq1:  Iter=  8 NonCon=     1 RMS=3.44D-10 Max=1.80D-09 NDo=     1
 LinEq1:  Iter=  9 NonCon=     0 RMS=2.67D-11 Max=1.60D-10 NDo=     1
 Linear equations converged to 1.000D-10 1.000D-09 after     9 iterations.
 End of Minotr F.D. properties file   721 does not exist.
 End of Minotr F.D. properties file   722 does not exist.
 End of Minotr F.D. properties file   788 does not exist.

 **********************************************************************

            Population analysis using the SCF density.

 **********************************************************************

 Orbital symmetries:
       Occupied  (SG) (SG) (SG) (PI) (PI)
       Virtual   (SG) (SG) (PI) (PI) (SG) (SG) (PI) (PI) (SG) (SG)
                 (DLTA) (DLTA) (PI) (PI) (SG) (PI) (PI) (SG) (PI)
                 (PI) (SG) (SG) (DLTA) (DLTA) (PI) (PI) (SG)
 The electronic state is 1-SG.
 Alpha  occ. eigenvalues --  -26.31106  -1.60480  -0.76820  -0.64997  -0.64997
 Alpha virt. eigenvalues --    0.03557   0.19398   0.24433   0.24433   0.25568
 Alpha virt. eigenvalues --    0.36079   0.40176   0.40176   0.65837   0.93696
 Alpha virt. eigenvalues --    1.34687   1.34687   1.43127   1.43127   1.62361
 Alpha virt. eigenvalues --    1.66963   1.66963   2.06472   2.15674   2.15674
 Alpha virt. eigenvalues --    2.65097   3.58994   4.85302   4.85302   4.92625
 Alpha virt. eigenvalues --    4.92625   5.14010
          Condensed to atoms (all electrons):
               1          2
     1  H    0.384310   0.282685
     2  F    0.282685   9.050320
 Mulliken charges:
               1
     1  H    0.333005
     2  F   -0.333005
 Sum of Mulliken charges =   0.00000
 Mulliken charges with hydrogens summed into heavy atoms:
               1
     2  F    0.000000
 Electronic spatial extent (au):  <R**2>=             13.9049
 Charge=              0.0000 electrons
 Dipole moment (field-independent basis, Debye):
    X=              0.0000    Y=              0.0000    Z=             -1.9463  Tot=              1.9463
 Quadrupole moment (field-independent basis, Debye-Ang):
   XX=             -5.7315   YY=             -5.7315   ZZ=             -3.5422
   XY=              0.0000   XZ=              0.0000   YZ=              0.0000
 Traceless Quadrupole moment (field-independent basis, Debye-Ang):
   XX=             -0.7298   YY=             -0.7298   ZZ=              1.4596
   XY=              0.0000   XZ=              0.0000   YZ=              0.0000
 Octapole moment (field-independent basis, Debye-Ang**2):
  XXX=              0.0000  YYY=              0.0000  ZZZ=             -2.0000  XYY=              0.0000
  XXY=              0.0000  XXZ=             -0.1502  XZZ=              0.0000  YZZ=              0.0000
  YYZ=             -0.1502  XYZ=              0.0000
 Hexadecapole moment (field-independent basis, Debye-Ang**3):
 XXXX=             -3.8207 YYYY=             -3.8207 ZZZZ=             -3.3282 XXXY=              0.0000
 XXXZ=              0.0000 YYYX=              0.0000 YYYZ=              0.0000 ZZZX=              0.0000
 ZZZY=              0.0000 XXYY=             -1.2736 XXZZ=             -1.4576 YYZZ=             -1.4576
 XXYZ=              0.0000 YYXZ=              0.0000 ZZXY=              0.0000
 N-N= 5.149803471498D+00 E-N=-2.503207583533D+02  KE= 9.992300496022D+01
 Symmetry A1   KE= 8.744271902437D+01
 Symmetry A2   KE= 4.937739416546D-52
 Symmetry B1   KE= 6.240142967924D+00
 Symmetry B2   KE= 6.240142967924D+00
 Calling FoFJK, ICntrl=  10002127 FMM=F ISym2X=1 I1Cent= 0 IOpClX= 0 NMat=1 NMatS=1 NMatT=0.
 ***** Axes restored to original set *****
 -------------------------------------------------------------------
 Center     Atomic                   Forces (Hartrees/Bohr)
 Number     Number              X              Y              Z
 -------------------------------------------------------------------
      1        1          -0.000000000   -0.000000000   -0.000000546
      2        9          -0.000000000   -0.000000000    0.000000546
 -------------------------------------------------------------------
 Cartesian Forces:  Max     0.000000546 RMS     0.000000315

 GradGradGradGradGradGradGradGradGradGradGradGradGradGradGradGradGradGrad
 Berny optimization.
 FormGI is forming the generalized inverse of G from B-inverse, IUseBI=4.
 Internal  Forces:  Max     0.000000546 RMS     0.000000546
 Search for a local minimum.
 Step number   1 out of a maximum of   20
 All quantities printed in internal units (Hartrees-Bohrs-Radians)
 Mixed Optimization -- En-DIIS/RFO-DIIS
 Second derivative matrix not updated -- first step.
 The second derivative matrix:
                          R1
           R1           0.63787
 ITU=  0
     Eigenvalues ---    0.63787
 RFO step:  Lambda=-4.66682248D-13 EMin= 6.37865817D-01
 Linear search not attempted -- first point.
 Iteration  1 RMS(Cart)=  0.00000060 RMS(Int)=  0.00000000
 ClnCor:  largest displacement from symmetrization is 0.00D+00 for atom     0.
 Variable       Old X    -DE/DX   Delta X   Delta X   Delta X     New X
                                 (Linear)    (Quad)   (Total)
    R1        1.74764   0.00000   0.00000   0.00000   0.00000   1.74764
         Item               Value     Threshold  Converged?
 Maximum Force            0.000001     0.000450     YES
 RMS     Force            0.000001     0.000300     YES
 Maximum Displacement     0.000000     0.001800     YES
 RMS     Displacement     0.000001     0.001200     YES
 Predicted change in Energy=-2.333399D-13
 Optimization completed.
    -- Stationary point found.
                           ----------------------------
                           !   Optimized Parameters   !
                           ! (Angstroms and Degrees)  !
 --------------------------                            --------------------------
 ! Name  Definition              Value          Derivative Info.                !
 --------------------------------------------------------------------------------
 ! R1    R(1,2)                  0.9248         -DE/DX =    0.0                 !
 --------------------------------------------------------------------------------
 GradGradGradGradGradGradGradGradGradGradGradGradGradGradGradGradGradGrad

                          Input orientation:                          
 ---------------------------------------------------------------------
 Center     Atomic      Atomic             Coordinates (Angstroms)
 Number     Number       Type             X           Y           Z
 ---------------------------------------------------------------------
      1          1           0        0.000000    0.000000   -0.832330
      2          9           0        0.000000    0.000000    0.092481
 ---------------------------------------------------------------------
 Stoichiometry    FH
 Framework group  C*V[C*(HF)]
 Deg. of freedom     1
 Full point group                 C*V     NOp   4
 Largest Abelian subgroup         C2V     NOp   4
 Largest concise Abelian subgroup C1      NOp   1
                         Standard orientation:                         
 ---------------------------------------------------------------------
 Center     Atomic      Atomic             Coordinates (Angstroms)
 Number     Number       Type             X           Y           Z
 ---------------------------------------------------------------------
      1          1           0        0.000000    0.000000   -0.832330
      2          9           0        0.000000    0.000000    0.092481
 ---------------------------------------------------------------------
 Rotational constants (GHZ):           0.0000000         617.4107709         617.4107709
 1\1\GINC-N2161\FOpt\RMP2-FC\Aug-CC-pVDZ\F1H1\GDS001\04-Aug-2020\0\\# M
 P2/aug-cc-pVDZ Opt Freq(vibrot,anharmonic)\\hf\\0,1\H,0.,0.,-0.83233\F
 ,0.,0.,0.092481\\Version=ES64L-G16RevA.03\State=1-SG\HF=-100.0330795\M
 P2=-100.2558045\RMSD=6.702e-09\RMSF=3.150e-07\Dipole=0.,0.,-0.7140183\
 PG=C*V [C*(H1F1)]\\@


 ON INDUCTION, OR "WHY DO YOU BELIEVE THE SUN WILL RISE TOMORROW?":

 ... THE FARMER WHO HAS FED THE CHICKEN EVERY DAY THROUGHOUT ITS
 LIFE AT LAST WRINGS ITS NECK INSTEAD, SHOWING THAT MORE REFINED VIEWS
 AS TO THE UNIFORMITY OF NATURE WOULD HAVE BEEN USEFUL TO THE CHICKEN.

                               -- BERTRAND RUSSELL
 Job cpu time:       0 days  0 hours  1 minutes  6.6 seconds.
 Elapsed time:       0 days  0 hours  0 minutes  2.8 seconds.
 File lengths (MBytes):  RWF=     72 Int=      0 D2E=      0 Chk=      8 Scr=      8
 Normal termination of Gaussian 16 at Tue Aug  4 15:32:50 2020.
 Link1:  Proceeding to internal job step number  2.
 ----------------------------------------------------------------------
 #N Geom=AllCheck Guess=TCheck SCRF=Check GenChk RMP2(FC)/Aug-CC-pVDZ F
 req
 ----------------------------------------------------------------------
 1/10=4,29=7,30=1,38=21,40=1,80=1/1,6,3;
 2/12=2,40=1/2;
 3/5=16,7=10,11=1,14=-4,25=1,30=1,70=2,71=2,116=1,140=1/1,2,3;
 4/5=101,69=2/1;
 5/5=2,38=6,98=1/2;
 8/6=3,8=1,10=1,19=11,30=-1/1;
 9/15=3,16=-3/6;
 11/6=1,8=1,15=11,17=12,24=-1,27=1,28=-2,29=300,32=6,42=3/1,2,10;
 10/6=2,21=1,60=-2/2;
 8/6=4,8=1,10=1,19=11,30=-1/11,4;
 10/5=1,20=4,60=-2/2;
 11/12=2,14=11,16=1,17=2,28=-2,42=3/2,10,12;
 6/7=2,8=2,9=2,10=2,22=-1/1;
 7/10=1,12=2,25=1,44=2,70=1,71=2/1,2,3,16;
 1/38=20,80=1/6(3);
 7/8=1,25=202,44=-1,70=1,71=1,92=10/16,17;
 1/10=4,30=1,38=20,80=1/3;
 99//99;
 3/5=16,7=10,11=1,14=-2,25=1,30=1,70=5,71=2,116=1,140=1/1,2,3;
 4/5=5,16=3,69=2/1;
 5/5=2,38=5,98=1/2;
 8/6=3,8=1,10=1,19=11,30=-1/1;
 9/15=3,16=-3/6;
 11/6=1,8=1,15=11,17=12,24=-1,27=1,28=-2,29=300,32=6,42=3/1,2,10;
 10/6=2,21=1,60=-2/2;
 8/6=4,8=1,10=1,19=11,30=-1/11,4;
 10/5=1,20=4,60=-2/2;
 11/12=2,14=11,16=1,17=2,28=-2,42=3/2,10,12;
 6/7=2,8=2,9=2,10=2,22=-1/1;
 7/7=1,10=1,12=2,25=1,44=2,70=1,71=1/1,2,3,16;
 1/38=20,80=1/6(-12);
 7/8=1,25=202,44=-1,70=1,71=1,92=10/16,17;
 1/10=4,30=1,38=20,80=1/3;
 99//99;
 Structure from the checkpoint file:  "hf.chk"
 --
 hf
 --
 Charge =  0 Multiplicity = 1
 Redundant internal coordinates found in file.  (old form).
 H,0,0.,0.,-0.83233
 F,0,0.,0.,0.092481
 Recover connectivity data from disk.
 Numerical evaluation of third derivatives.
 Nuclear step= 0.010000 Angstroms, electric field step= 0.000333 atomic units, NStep=1.

 GradGradGradGradGradGradGradGradGradGradGradGradGradGradGradGradGradGrad
 Berny optimization.
 Initialization pass.
                           ----------------------------
                           !    Initial Parameters    !
                           ! (Angstroms and Degrees)  !
 --------------------------                            --------------------------
 ! Name  Definition              Value          Derivative Info.                !
 --------------------------------------------------------------------------------
 ! R1    R(1,2)                  0.9248         calculate D2E/DX2 analytically  !
 --------------------------------------------------------------------------------
 Trust Radius=3.00D-01 FncErr=1.00D-07 GrdErr=1.00D-07 EigMax=2.50D+02 EigMin=1.00D-04
 Number of steps in this run=      2 maximum allowed number of steps=      2.
 GradGradGradGradGradGradGradGradGradGradGradGradGradGradGradGradGradGrad

                          Input orientation:                          
 ---------------------------------------------------------------------
 Center     Atomic      Atomic             Coordinates (Angstroms)
 Number     Number       Type             X           Y           Z
 ---------------------------------------------------------------------
      1          1           0        0.000000    0.000000   -0.832330
      2          9           0        0.000000    0.000000    0.092481
 ---------------------------------------------------------------------
 Stoichiometry    FH
 Framework group  C*V[C*(HF)]
 Deg. of freedom     1
 Full point group                 C*V     NOp   4
 Largest Abelian subgroup         C2V     NOp   4
 Largest concise Abelian subgroup C1      NOp   1
                         Standard orientation:                         
 ---------------------------------------------------------------------
 Center     Atomic      Atomic             Coordinates (Angstroms)
 Number     Number       Type             X           Y           Z
 ---------------------------------------------------------------------
      1          1           0        0.000000    0.000000   -0.832330
      2          9           0        0.000000    0.000000    0.092481
 ---------------------------------------------------------------------
 Rotational constants (GHZ):           0.0000000         617.4107709         617.4107709
 Standard basis: Aug-CC-pVDZ (5D, 7F)
 There are    18 symmetry adapted cartesian basis functions of A1  symmetry.
 There are     2 symmetry adapted cartesian basis functions of A2  symmetry.
 There are     7 symmetry adapted cartesian basis functions of B1  symmetry.
 There are     7 symmetry adapted cartesian basis functions of B2  symmetry.
 There are    16 symmetry adapted basis functions of A1  symmetry.
 There are     2 symmetry adapted basis functions of A2  symmetry.
 There are     7 symmetry adapted basis functions of B1  symmetry.
 There are     7 symmetry adapted basis functions of B2  symmetry.
    32 basis functions,    54 primitive gaussians,    34 cartesian basis functions
     5 alpha electrons        5 beta electrons
       nuclear repulsion energy         5.1498034715 Hartrees.
 NAtoms=    2 NActive=    2 NUniq=    2 SFac= 1.00D+00 NAtFMM=   60 NAOKFM=F Big=F
 Integral buffers will be    131072 words long.
 Raffenetti 1 integral format.
 Two-electron integral symmetry is turned on.
 One-electron integrals computed using PRISM.
 NBasis=    32 RedAO= T EigKep=  2.17D-03  NBF=    16     2     7     7
 NBsUse=    32 1.00D-06 EigRej= -1.00D+00 NBFU=    16     2     7     7
 Initial guess from the checkpoint file:  "hf.chk"
 B after Tr=     0.000000    0.000000    0.000000
         Rot=    1.000000    0.000000    0.000000    0.000000 Ang=   0.00 deg.
 Initial guess orbital symmetries:
       Occupied  (SG) (SG) (SG) (PI) (PI)
       Virtual   (SG) (SG) (PI) (PI) (SG) (SG) (PI) (PI) (SG) (SG)
                 (DLTA) (DLTA) (PI) (PI) (SG) (PI) (PI) (SG) (PI)
                 (PI) (SG) (SG) (DLTA) (DLTA) (PI) (PI) (SG)
 Keep R1 ints in memory in symmetry-blocked form, NReq=5909791.
 Requested convergence on RMS density matrix=1.00D-08 within 128 cycles.
 Requested convergence on MAX density matrix=1.00D-06.
 Requested convergence on             energy=1.00D-06.
 No special actions if energy rises.
 SCF Done:  E(RHF) =  -100.033079482     A.U. after    1 cycles
            NFock=  1  Conv=0.24D-09     -V/T= 2.0011
 ExpMin= 2.97D-02 ExpMax= 1.47D+04 ExpMxC= 5.03D+02 IAcc=3 IRadAn=         5 AccDes= 0.00D+00
 HarFok:  IExCor=  205 AccDes= 0.00D+00 IRadAn=         5 IDoV=-2 UseB2=F ITyADJ=14
 ICtDFT= 12500011 ScaDFX=  1.000000  1.000000  1.000000  1.000000
 Range of M.O.s used for correlation:     2    32
 NBasis=    32 NAE=     5 NBE=     5 NFC=     1 NFV=     0
 NROrb=     31 NOA=     4 NOB=     4 NVA=    27 NVB=    27
 Disk-based method using ON**2 memory for  4 occupieds at a time.
 Permanent disk used for amplitudes=       21735 words.
 Estimated scratch disk usage=      677888 words.
 Actual    scratch disk usage=      677888 words.
 JobTyp=1 Pass  1:  I=   2 to   5 NPSUse= 28 ParTrn=T ParDer=T DoDerP=T.
 (rs|ai) integrals will be sorted in core.
 Spin components of T(2) and E(2):
     alpha-alpha T2 =       0.6617500131D-02 E2=     -0.2976939978D-01
     alpha-beta  T2 =       0.3528241554D-01 E2=     -0.1631861875D+00
     beta-beta   T2 =       0.6617500131D-02 E2=     -0.2976939978D-01
 ANorm=    0.1023971394D+01
 E2 =    -0.2227249871D+00 EUMP2 =    -0.10025580446878D+03
 G2DrvN: will do     3 centers at a time, making    1 passes.
 Calling FoFCou, ICntrl=  3107 FMM=F I1Cent=   0 AccDes= 0.00D+00.
 End of G2Drv F.D. properties file   721 does not exist.
 End of G2Drv F.D. properties file   722 does not exist.
 End of G2Drv F.D. properties file   788 does not exist.
          IDoAtm=11
          Differentiating once with respect to electric field.
                with respect to dipole field.
          Differentiating once with respect to nuclear coordinates.
 Keep R1 ints in memory in symmetry-blocked form, NReq=5910248.
          There are     9 degrees of freedom in the 1st order CPHF.  IDoFFX=6 NUNeed=     9.
      6 vectors produced by pass  0 Test12= 1.50D-15 1.11D-08 XBig12= 1.04D+00 5.34D-01.
 AX will form     6 AO Fock derivatives at one time.
      6 vectors produced by pass  1 Test12= 1.50D-15 1.11D-08 XBig12= 5.91D-02 9.68D-02.
      6 vectors produced by pass  2 Test12= 1.50D-15 1.11D-08 XBig12= 3.07D-03 2.06D-02.
      6 vectors produced by pass  3 Test12= 1.50D-15 1.11D-08 XBig12= 3.54D-05 2.21D-03.
      6 vectors produced by pass  4 Test12= 1.50D-15 1.11D-08 XBig12= 3.34D-07 3.96D-04.
      6 vectors produced by pass  5 Test12= 1.50D-15 1.11D-08 XBig12= 4.39D-10 1.04D-05.
      6 vectors produced by pass  6 Test12= 1.50D-15 1.11D-08 XBig12= 2.98D-12 8.09D-07.
      1 vectors produced by pass  7 Test12= 1.50D-15 1.11D-08 XBig12= 9.55D-15 3.57D-08.
 InvSVY:  IOpt=1 It=  1 EMax= 2.22D-16
 Solved reduced A of dimension    43 with     6 vectors.
 End of Minotr F.D. properties file   721 does not exist.
 End of Minotr F.D. properties file   722 does not exist.
 End of Minotr F.D. properties file   788 does not exist.
 MDV=  5502926848.
 Form MO integral derivatives with frozen-active canonical formalism.
 Discarding MO integrals.
 Reordered first order wavefunction length =        36450
 In DefCFB: NBatch=  1 ICI=  5 ICA= 27 LFMax= 27
            Large arrays: LIAPS=      587520 LIARS=      803250 words.
 Semi-Direct transformation.
 ModeAB=           2 MOrb=             5 LenV=    5502733520
 LASXX=        70525 LTotXX=       70525 LenRXX=       70525
 LTotAB=       77175 MaxLAS=       95200 LenRXY=       95200
 NonZer=      141050 LenScr=      524288 LnRSAI=           0
 LnScr1=           0 LExtra=           0 Total=       690013
 MaxDsk=          -1 SrtSym=           F ITran=            4
 JobTyp=0 Pass  1:  I=   1 to   5.
 (rs|ai) integrals will be sorted in core.
 Spin components of T(2) and E(2):
     alpha-alpha T2 =       0.6617500131D-02 E2=     -0.2976939978D-01
     alpha-beta  T2 =       0.3528241554D-01 E2=     -0.1631861875D+00
     beta-beta   T2 =       0.6617500131D-02 E2=     -0.2976939978D-01
 ANorm=    0.1448114233D+01
 E2 =    -0.2227249871D+00 EUMP2 =    -0.10025580446878D+03
          IDoAtm=11
          Differentiating once with respect to electric field.
                with respect to dipole field.
          Differentiating once with respect to nuclear coordinates.
          There are     1 degrees of freedom in the 1st order CPHF.  IDoFFX=0 NUNeed=     1.
 LinEq1:  Iter=  0 NonCon=     1 RMS=9.92D-03 Max=6.37D-02 NDo=     1
 LinEq1:  Iter=  1 NonCon=     1 RMS=2.58D-03 Max=1.19D-02 NDo=     1
 LinEq1:  Iter=  2 NonCon=     1 RMS=6.09D-04 Max=3.16D-03 NDo=     1
 LinEq1:  Iter=  3 NonCon=     1 RMS=6.39D-05 Max=2.95D-04 NDo=     1
 LinEq1:  Iter=  4 NonCon=     1 RMS=6.58D-06 Max=2.94D-05 NDo=     1
 LinEq1:  Iter=  5 NonCon=     1 RMS=8.40D-07 Max=3.18D-06 NDo=     1
 LinEq1:  Iter=  6 NonCon=     1 RMS=5.69D-08 Max=2.15D-07 NDo=     1
 LinEq1:  Iter=  7 NonCon=     1 RMS=5.28D-09 Max=3.34D-08 NDo=     1
 LinEq1:  Iter=  8 NonCon=     1 RMS=3.44D-10 Max=1.80D-09 NDo=     1
 LinEq1:  Iter=  9 NonCon=     0 RMS=2.67D-11 Max=1.60D-10 NDo=     1
 Linear equations converged to 1.000D-10 1.000D-09 after     9 iterations.
 End of Minotr F.D. properties file   721 does not exist.
 End of Minotr F.D. properties file   722 does not exist.
 End of Minotr F.D. properties file   788 does not exist.
 Symmetrizing basis deriv contribution to polar:
 IMax=3 JMax=2 DiffMx= 0.00D+00
 G2DrvN: will do     3 centers at a time, making    1 passes.
 Calling FoFCou, ICntrl=  3107 FMM=F I1Cent=   0 AccDes= 0.00D+00.
 End of G2Drv F.D. properties file   721 does not exist.
 End of G2Drv F.D. properties file   722 does not exist.
 End of G2Drv F.D. properties file   788 does not exist.
 R2 and R3 integrals will be kept in memory, NReq=     1174620.
 DD1Dir will call FoFMem   1 times, MxPair=        30
 NAB=    15 NAA=     0 NBB=     0.
 Discarding MO integrals.

 **********************************************************************

            Population analysis using the MP2 density.

 **********************************************************************

 Orbital symmetries:
       Occupied  (SG) (SG) (SG) (PI) (PI)
       Virtual   (SG) (SG) (PI) (PI) (SG) (SG) (PI) (PI) (SG) (SG)
                 (DLTA) (DLTA) (PI) (PI) (SG) (PI) (PI) (SG) (PI)
                 (PI) (SG) (SG) (DLTA) (DLTA) (PI) (PI) (SG)
 The electronic state is 1-SG.
 Alpha  occ. eigenvalues --  -26.31106  -1.60480  -0.76820  -0.64997  -0.64997
 Alpha virt. eigenvalues --    0.03557   0.19398   0.24433   0.24433   0.25568
 Alpha virt. eigenvalues --    0.36079   0.40176   0.40176   0.65837   0.93696
 Alpha virt. eigenvalues --    1.34687   1.34687   1.43127   1.43127   1.62361
 Alpha virt. eigenvalues --    1.66963   1.66963   2.06472   2.15674   2.15674
 Alpha virt. eigenvalues --    2.65097   3.58994   4.85302   4.85302   4.92625
 Alpha virt. eigenvalues --    4.92625   5.14010
          Condensed to atoms (all electrons):
               1          2
     1  H    0.443216   0.277622
     2  F    0.277622   9.001541
 Mulliken charges:
               1
     1  H    0.279162
     2  F   -0.279162
 Sum of Mulliken charges =  -0.00000
 Mulliken charges with hydrogens summed into heavy atoms:
               1
     2  F   -0.000000
 APT charges:
               1
     1  H    0.384901
     2  F   -0.384901
 Sum of APT charges =  -0.00000
 APT charges with hydrogens summed into heavy atoms:
               1
     2  F   -0.000000
 Electronic spatial extent (au):  <R**2>=             14.4215
 Charge=              0.0000 electrons
 Dipole moment (field-independent basis, Debye):
    X=              0.0000    Y=              0.0000    Z=             -1.8149  Tot=              1.8149
 Quadrupole moment (field-independent basis, Debye-Ang):
   XX=             -5.9601   YY=             -5.9601   ZZ=             -3.7799
   XY=              0.0000   XZ=              0.0000   YZ=              0.0000
 Traceless Quadrupole moment (field-independent basis, Debye-Ang):
   XX=             -0.7267   YY=             -0.7267   ZZ=              1.4535
   XY=              0.0000   XZ=              0.0000   YZ=              0.0000
 Octapole moment (field-independent basis, Debye-Ang**2):
  XXX=              0.0000  YYY=              0.0000  ZZZ=             -1.8026  XYY=              0.0000
  XXY=              0.0000  XXZ=             -0.1097  XZZ=              0.0000  YZZ=              0.0000
  YYZ=             -0.1097  XYZ=              0.0000
 Hexadecapole moment (field-independent basis, Debye-Ang**3):
 XXXX=             -4.3975 YYYY=             -4.3975 ZZZZ=             -3.9076 XXXY=              0.0000
 XXXZ=              0.0000 YYYX=              0.0000 YYYZ=              0.0000 ZZZX=              0.0000
 ZZZY=              0.0000 XXYY=             -1.4658 XXZZ=             -1.6407 YYZZ=             -1.6407
 XXYZ=              0.0000 YYXZ=              0.0000 ZZXY=              0.0000
 N-N= 5.149803471498D+00 E-N=-2.498918048457D+02  KE= 9.993754420759D+01
 Symmetry A1   KE= 8.757828843329D+01
 Symmetry A2   KE= 1.825188927451D-02
 Symmetry B1   KE= 6.170501942511D+00
 Symmetry B2   KE= 6.170501942511D+00
  Exact polarizability:   4.341   0.000   4.341   0.000   0.000   6.284
 Approx polarizability:   3.161  -0.000   3.161  -0.000  -0.000   4.944
 Calling FoFJK, ICntrl=  10100127 FMM=F ISym2X=1 I1Cent= 0 IOpClX= 0 NMat=1 NMatS=1 NMatT=0.
 Full mass-weighted force constant matrix:
 Low frequencies ---   -2.9138   -2.9138   -0.0023   -0.0023   -0.0016 4082.3292
 Diagonal vibrational polarizability:
        0.0000000       0.0000000       0.1874487
 Harmonic frequencies (cm**-1), IR intensities (KM/Mole), Raman scattering
 activities (A**4/AMU), depolarization ratios for plane and unpolarized
 incident light, reduced masses (AMU), force constants (mDyne/A),
 and normal coordinates:
                      1
                     SG
 Frequencies --   4082.3292
 Red. masses --      1.0583
 Frc consts  --     10.3915
 IR Inten    --    116.0821
  Atom  AN      X      Y      Z
     1   1     0.00   0.00   1.00
     2   9     0.00   0.00  -0.05

 -------------------
 - Thermochemistry -
 -------------------
 Temperature   298.150 Kelvin.  Pressure   1.00000 Atm.
 Atom     1 has atomic number  1 and mass   1.00783
 Atom     2 has atomic number  9 and mass  18.99840
 Molecular mass:    20.00623 amu.
 Principal axes and moments of inertia in atomic units:
                           1         2         3
     Eigenvalues --     0.00000   2.92308   2.92308
           X            0.00000  -0.00000   1.00000
           Y            0.00000   1.00000   0.00000
           Z            1.00000   0.00000   0.00000
 This molecule is a prolate symmetric top.
 Rotational symmetry number  1.
 Rotational temperature (Kelvin)     29.63105
 Rotational constant (GHZ):         617.410771
 Zero-point vibrational energy      24417.8 (Joules/Mol)
                                    5.83598 (Kcal/Mol)
 Vibrational temperatures:   5873.56
          (Kelvin)
 
 Zero-point correction=                           0.009300 (Hartree/Particle)
 Thermal correction to Energy=                    0.011661
 Thermal correction to Enthalpy=                  0.012605
 Thermal correction to Gibbs Free Energy=        -0.007112
 Sum of electronic and zero-point Energies=           -100.246504
 Sum of electronic and thermal Energies=              -100.244144
 Sum of electronic and thermal Enthalpies=            -100.243200
 Sum of electronic and thermal Free Energies=         -100.262916
 
                     E (Thermal)             CV                S
                      KCal/Mol        Cal/Mol-Kelvin    Cal/Mol-Kelvin
 Total                    7.317              4.968             41.497
 Electronic               0.000              0.000              0.000
 Translational            0.889              2.981             34.922
 Rotational               0.592              1.987              6.575
 Vibrational              5.836              0.000              0.000
                       Q            Log10(Q)             Ln(Q)
 Total Bot       0.186674D+04          3.271084          7.531950
 Total V=0       0.353907D+08          7.548890         17.381961
 Vib (Bot)       0.527466D-04         -4.277805         -9.850010
 Vib (V=0)       0.100000D+01          0.000000          0.000000
 Electronic      0.100000D+01          0.000000          0.000000
 Translational   0.351724D+07          6.546202         15.073186
 Rotational      0.100621D+02          1.002688          2.308774

     ==================================================
      Anharmonic Data: Displacement Vectors Definition
     ==================================================

 Framework definition based on atomic masses: C*V 
 NOTE: Degenerate modes will be reoriented, following the conventions
       from: L. Henry, G. Amat, J. Mol. Spectrosc. 1961, 5, 319
 Linear top along axis: Z
                 1 
      1   0.000000D+00
      2   0.000000D+00
      3   0.970696D+00
      4   0.000000D+00
      5   0.000000D+00
      6  -0.514934D-01
                 1 
      1   0.000000D+00
      2   0.000000D+00
      3   0.970696D+00
      4   0.000000D+00
      5   0.000000D+00
      6  -0.514934D-01

 **********************************************************************

                  Harmonic vibro-rotational analysis

 **********************************************************************


     ==================================================
               Analysis of the Rotor Symmetry
     ==================================================

 Framework Group : C*V 
 Rotor Type      : Linear Molecule
 Inertia moments : X=     0.81855 , Y=     0.81855 , Z=     0.00000
 Representation  : Ir Representation, Iz < Ix < Iy

 Axes Definition for the Symmetric-Top Representation
 ----------------------------------------------------
 Axis Z automatically chosen to be collinear with Z from Eckart orient.
 NOTE: In Vibro-rotational analysis, this will be referred to as the
       spectroscopic orientation.

     ==================================================
        Vibro-Rotational Analysis Based on Symmetry
     ==================================================

 Representation SG  
 ------------------
    Z Translation
    1 Vibrations with frequencies:
   4082.33

 Representation PI   (doubly degenerate)
 --------------------------------------
    X Translation
    Y Translation
    X Rotation
    Y Rotation
 No Vibration

 Input/Output information
 ------------------------
 Normal modes will be PRINTED in DESCENDING order (imag. freq. first)
   and sorted by irreducible representation
 The connection between this new numbering (A) and the one used before
   (H) is reported in the present equivalency table:
 ----+------+
 (H) |     1|
 (A) |     1|
 ----+------+

 Normal modes will be READ in ASCENDING order (imag. freq. first)

 Analysis of symmetry-allowed terms
 ----------------------------------

     ==================================================
                   Coriolis Couplings
     ==================================================
 No Coriolis coupling for diatomic molecules

     ==================================================
      Inertia Moments Derivatives w.r.t. Normal Modes
     ==================================================

 Units: amu^1/2.Ang

                 Ixx        Ixy        Iyy        Ixz        Iyz        Izz
 Q(     1)    -1.80947    0.00000   -1.80947    0.00000    0.00000    0.00000

     ==================================================
               Vibro-rotational Alpha Matrix
     ==================================================

 Vibro-Rot alpha Matrix (in cm^-1)
 ---------------------------------
                 A(z)           B(x)           C(y)
 Q(     1)       -0.00000            NaN            NaN

 Vibro-Rot alpha Matrix (in MHz)
 -------------------------------
                 A(z)           B(x)           C(y)
 Q(     1)       -0.00000            NaN            NaN

     ==================================================
          Quartic Centrifugal Distortion Constants
     ==================================================

 NOTE: Values in Cartesian coords. refer to the structure in Eckart orientation.

 Quartic Centrifugal Distortion Constants Tau Prime
 --------------------------------------------------
                      cm^-1                    MHz
 TauP aaaa      0.0000000000D+00         0.0000000000D+00
 TauP bbaa      0.0000000000D+00         0.0000000000D+00
 TauP bbbb     -0.8386184958D-02        -0.2514115002D+03
 cm-1                       MHz
 De    0.2096546240D-02         0.6285287505D+02

     ==================================================
            Rotational l-type doubling constants
     ==================================================
 Ref.: J.K.G. Watson, J. Mol. Spectry. 101, 83 (1983)
       q_i = q_i^e + (q_i^J)*J(J+1) + (q_i^K)*K(K+-1)^2

 q^e constants (in cm^-1)
 ------------------------


 q^J constants (in cm^-1)
 ------------------------


 q^K constants (in cm^-1)
 ------------------------


     ==================================================
       Average Coordinates and Mean Square Amplitudes
     ==================================================

 NOTE: Temperature is given in K between parentheses
       For Cartesian and internal coords., units are given between
       parentheses next to each label

 Mean Square Amplitudes of Normal Coordinates (in amu.bohr^2)
 -----------------------------------------------------------
 Mode    <Q^2> (0)    <Q^2> (298.15)    <Q^2> (298.15) class.
    1     0.014746       0.014746          0.059103

 Mean Square Amplitudes of Cartesian Coordinates
 -----------------------------------------------
    Label        <(S-Se)^2>^1/2 (0)    <(S-Se)^2>^1/2 (298.15)
 X(1)  (Angs)        0.000000              0.000000
 Y(1)  (Angs)        0.000000              0.000000
 Z(1)  (Angs)        0.062377              0.062377
 X(2)  (Angs)        0.000000              0.000000
 Y(2)  (Angs)        0.000000              0.000000
 Z(2)  (Angs)        0.003309              0.003309
 ***** Axes restored to original set *****
 -------------------------------------------------------------------
 Center     Atomic                   Forces (Hartrees/Bohr)
 Number     Number              X              Y              Z
 -------------------------------------------------------------------
      1        1          -0.000000000   -0.000000000   -0.000000542
      2        9          -0.000000000   -0.000000000    0.000000542
 -------------------------------------------------------------------
 Cartesian Forces:  Max     0.000000542 RMS     0.000000313
 FormGI is forming the generalized inverse of G from B-inverse, IUseBI=4.
 NDeriv=      1 NFrqRd=  0 NDerD0=      0 MskFDP=       0 MskDFD=       0 MskDF0=       0
 At 1st pt F.D. properties file   721 does not exist.
 At 1st pt F.D. properties file   722 does not exist.
 D2Numr ... symmetry will not be used.
 Standard basis: Aug-CC-pVDZ (5D, 7F)
    32 basis functions,    54 primitive gaussians,    34 cartesian basis functions
     5 alpha electrons        5 beta electrons
       nuclear repulsion energy         5.2073602026 Hartrees.
 NAtoms=    2 NActive=    2 NUniq=    2 SFac= 1.00D+00 NAtFMM=   60 NAOKFM=F Big=F
 Integral buffers will be    131072 words long.
 Raffenetti 1 integral format.
 Two-electron integral symmetry is turned off.
 One-electron integrals computed using PRISM.
 NBasis=    32 RedAO= T EigKep=  2.11D-03  NBF=    32
 NBsUse=    32 1.00D-06 EigRej= -1.00D+00 NBFU=    32
 Initial guess from the checkpoint file:  "hf.chk"
 B after Tr=     0.000000    0.000000    0.000959
         Rot=    1.000000    0.000000    0.000000    0.000000 Ang=   0.00 deg.
 Keep R1 ints in memory in canonical form, NReq=5907339.
 Requested convergence on RMS density matrix=1.00D-08 within 128 cycles.
 Requested convergence on MAX density matrix=1.00D-06.
 Requested convergence on             energy=1.00D-06.
 No special actions if energy rises.
 SCF Done:  E(RHF) =  -100.033557753     A.U. after    8 cycles
            NFock=  8  Conv=0.94D-08     -V/T= 2.0009
 ExpMin= 2.97D-02 ExpMax= 1.47D+04 ExpMxC= 5.03D+02 IAcc=3 IRadAn=         5 AccDes= 0.00D+00
 HarFok:  IExCor=  205 AccDes= 0.00D+00 IRadAn=         5 IDoV=-2 UseB2=F ITyADJ=14
 ICtDFT= 12500011 ScaDFX=  1.000000  1.000000  1.000000  1.000000
 Range of M.O.s used for correlation:     2    32
 NBasis=    32 NAE=     5 NBE=     5 NFC=     1 NFV=     0
 NROrb=     31 NOA=     4 NOB=     4 NVA=    27 NVB=    27
 Disk-based method using ON**2 memory for  4 occupieds at a time.
 Permanent disk used for amplitudes=       21735 words.
 Estimated scratch disk usage=      677888 words.
 Actual    scratch disk usage=      677888 words.
 JobTyp=1 Pass  1:  I=   2 to   5 NPSUse= 28 ParTrn=T ParDer=T DoDerP=T.
 (rs|ai) integrals will be sorted in core.
 Spin components of T(2) and E(2):
     alpha-alpha T2 =       0.6571944809D-02 E2=     -0.2969702765D-01
     alpha-beta  T2 =       0.3498977556D-01 E2=     -0.1627371083D+00
     beta-beta   T2 =       0.6571944809D-02 E2=     -0.2969702765D-01
 ANorm=    0.1023783993D+01
 E2 =    -0.2221311636D+00 EUMP2 =    -0.10025568891678D+03
 G2DrvN: will do     3 centers at a time, making    1 passes.
 Calling FoFCou, ICntrl=  3107 FMM=F I1Cent=   0 AccDes= 0.00D+00.
 End of G2Drv F.D. properties file   721 does not exist.
 End of G2Drv F.D. properties file   722 does not exist.
 End of G2Drv F.D. properties file   788 does not exist.
          IDoAtm=11
          Differentiating once with respect to electric field.
                with respect to dipole field.
          Differentiating once with respect to nuclear coordinates.
 Keep R1 ints in memory in canonical form, NReq=5907790.
          There are     9 degrees of freedom in the 1st order CPHF.  IDoFFX=6 NUNeed=     9.
      6 vectors produced by pass  0 Test12= 1.50D-15 1.11D-08 XBig12= 1.01D+00 5.30D-01.
 AX will form     6 AO Fock derivatives at one time.
      6 vectors produced by pass  1 Test12= 1.50D-15 1.11D-08 XBig12= 5.61D-02 9.33D-02.
      6 vectors produced by pass  2 Test12= 1.50D-15 1.11D-08 XBig12= 2.86D-03 2.00D-02.
      6 vectors produced by pass  3 Test12= 1.50D-15 1.11D-08 XBig12= 3.30D-05 2.13D-03.
      6 vectors produced by pass  4 Test12= 1.50D-15 1.11D-08 XBig12= 3.14D-07 3.84D-04.
      6 vectors produced by pass  5 Test12= 1.50D-15 1.11D-08 XBig12= 4.15D-10 1.01D-05.
      6 vectors produced by pass  6 Test12= 1.50D-15 1.11D-08 XBig12= 2.82D-12 7.77D-07.
      1 vectors produced by pass  7 Test12= 1.50D-15 1.11D-08 XBig12= 8.89D-15 3.43D-08.
 InvSVY:  IOpt=1 It=  1 EMax= 2.22D-16
 Solved reduced A of dimension    43 with     6 vectors.
 End of Minotr F.D. properties file   721 does not exist.
 End of Minotr F.D. properties file   722 does not exist.
 End of Minotr F.D. properties file   788 does not exist.
 MDV=  5502926848.
 Form MO integral derivatives with frozen-active canonical formalism.
 Discarding MO integrals.
 Reordered first order wavefunction length =        36450
 In DefCFB: NBatch=  1 ICI=  5 ICA= 27 LFMax= 27
            Large arrays: LIAPS=      587520 LIARS=      803250 words.
 Semi-Direct transformation.
 ModeAB=           2 MOrb=             5 LenV=    5502734393
 LASXX=        70525 LTotXX=       70525 LenRXX=       70525
 LTotAB=       77175 MaxLAS=       95200 LenRXY=       95200
 NonZer=      141050 LenScr=      524288 LnRSAI=           0
 LnScr1=           0 LExtra=           0 Total=       690013
 MaxDsk=          -1 SrtSym=           F ITran=            4
 JobTyp=0 Pass  1:  I=   1 to   5.
 (rs|ai) integrals will be sorted in core.
 Spin components of T(2) and E(2):
     alpha-alpha T2 =       0.6571944809D-02 E2=     -0.2969702765D-01
     alpha-beta  T2 =       0.3498977556D-01 E2=     -0.1627371083D+00
     beta-beta   T2 =       0.6571944809D-02 E2=     -0.2969702765D-01
 ANorm=    0.1447849208D+01
 E2 =    -0.2221311636D+00 EUMP2 =    -0.10025568891678D+03
          IDoAtm=11
          Differentiating once with respect to electric field.
                with respect to dipole field.
          Differentiating once with respect to nuclear coordinates.
          There are     1 degrees of freedom in the 1st order CPHF.  IDoFFX=0 NUNeed=     1.
 LinEq1:  Iter=  0 NonCon=     1 RMS=9.82D-03 Max=6.28D-02 NDo=     1
 LinEq1:  Iter=  1 NonCon=     1 RMS=2.54D-03 Max=1.15D-02 NDo=     1
 LinEq1:  Iter=  2 NonCon=     1 RMS=5.91D-04 Max=3.05D-03 NDo=     1
 LinEq1:  Iter=  3 NonCon=     1 RMS=6.13D-05 Max=2.85D-04 NDo=     1
 LinEq1:  Iter=  4 NonCon=     1 RMS=6.13D-06 Max=2.68D-05 NDo=     1
 LinEq1:  Iter=  5 NonCon=     1 RMS=7.93D-07 Max=2.96D-06 NDo=     1
 LinEq1:  Iter=  6 NonCon=     1 RMS=5.42D-08 Max=2.03D-07 NDo=     1
 LinEq1:  Iter=  7 NonCon=     1 RMS=5.04D-09 Max=3.22D-08 NDo=     1
 LinEq1:  Iter=  8 NonCon=     1 RMS=3.30D-10 Max=1.69D-09 NDo=     1
 LinEq1:  Iter=  9 NonCon=     0 RMS=2.54D-11 Max=1.52D-10 NDo=     1
 Linear equations converged to 1.000D-10 1.000D-09 after     9 iterations.
 End of Minotr F.D. properties file   721 does not exist.
 End of Minotr F.D. properties file   722 does not exist.
 End of Minotr F.D. properties file   788 does not exist.
 Symmetrizing basis deriv contribution to polar:
 IMax=3 JMax=2 DiffMx= 0.00D+00
 G2DrvN: will do     3 centers at a time, making    1 passes.
 Calling FoFCou, ICntrl=  3107 FMM=F I1Cent=   0 AccDes= 0.00D+00.
 End of G2Drv F.D. properties file   721 does not exist.
 End of G2Drv F.D. properties file   722 does not exist.
 End of G2Drv F.D. properties file   788 does not exist.
 R2 and R3 integrals will be kept in memory, NReq=     1174620.
 DD1Dir will call FoFMem   1 times, MxPair=        30
 NAB=    15 NAA=     0 NBB=     0.
 Discarding MO integrals.

 **********************************************************************

            Population analysis using the MP2 density.

 **********************************************************************

 Alpha  occ. eigenvalues --  -26.31089  -1.60843  -0.77228  -0.65101  -0.65101
 Alpha virt. eigenvalues --    0.03588   0.19461   0.24393   0.24393   0.25683
 Alpha virt. eigenvalues --    0.36116   0.40335   0.40335   0.66265   0.94212
 Alpha virt. eigenvalues --    1.34609   1.34609   1.43213   1.43213   1.62342
 Alpha virt. eigenvalues --    1.67111   1.67111   2.06780   2.16349   2.16349
 Alpha virt. eigenvalues --    2.67796   3.59800   4.85209   4.85209   4.92490
 Alpha virt. eigenvalues --    4.92490   5.15495
          Condensed to atoms (all electrons):
               1          2
     1  H    0.449928   0.282220
     2  F    0.282220   8.985632
 Mulliken charges:
               1
     1  H    0.267852
     2  F   -0.267852
 Sum of Mulliken charges =   0.00000
 Mulliken charges with hydrogens summed into heavy atoms:
               1
     2  F    0.000000
 APT charges:
               1
     1  H    0.385015
     2  F   -0.385015
 Sum of APT charges =   0.00000
 APT charges with hydrogens summed into heavy atoms:
               1
     2  F    0.000000
 Electronic spatial extent (au):  <R**2>=             14.3641
 Charge=              0.0000 electrons
 Dipole moment (field-independent basis, Debye):
    X=             -0.0000    Y=              0.0000    Z=             -1.7983  Tot=              1.7983
 Quadrupole moment (field-independent basis, Debye-Ang):
   XX=             -5.9474   YY=             -5.9474   ZZ=             -3.8095
   XY=             -0.0000   XZ=             -0.0000   YZ=              0.0000
 Traceless Quadrupole moment (field-independent basis, Debye-Ang):
   XX=             -0.7126   YY=             -0.7126   ZZ=              1.4253
   XY=             -0.0000   XZ=             -0.0000   YZ=              0.0000
 Octapole moment (field-independent basis, Debye-Ang**2):
  XXX=             -0.0000  YYY=              0.0000  ZZZ=             -1.7684  XYY=             -0.0000
  XXY=              0.0000  XXZ=             -0.1168  XZZ=              0.0000  YZZ=             -0.0000
  YYZ=             -0.1168  XYZ=              0.0000
 Hexadecapole moment (field-independent basis, Debye-Ang**3):
 XXXX=             -4.3770 YYYY=             -4.3770 ZZZZ=             -3.9016 XXXY=             -0.0000
 XXXZ=              0.0000 YYYX=             -0.0000 YYYZ=             -0.0000 ZZZX=              0.0000
 ZZZY=             -0.0000 XXYY=             -1.4590 XXZZ=             -1.6249 YYZZ=             -1.6249
 XXYZ=             -0.0000 YYXZ=              0.0000 ZZXY=             -0.0000
 N-N= 5.207360202620D+00 E-N=-2.500106895881D+02  KE= 9.995831789835D+01
  Exact polarizability:   4.317   0.000   4.317   0.000   0.000   6.176
 Approx polarizability:   3.147   0.000   3.147   0.000   0.000   4.856
 Calling FoFJK, ICntrl=  10100127 FMM=F ISym2X=0 I1Cent= 0 IOpClX= 0 NMat=1 NMatS=1 NMatT=0.
 -------------------------------------------------------------------
 Center     Atomic                   Forces (Hartrees/Bohr)
 Number     Number              X              Y              Z
 -------------------------------------------------------------------
      1        1          -0.000000000    0.000000000   -0.012117921
      2        9           0.000000000   -0.000000000    0.012117921
 -------------------------------------------------------------------
 Cartesian Forces:  Max     0.012117921 RMS     0.006996285
 NDeriv=      1 NFrqRd=  0 NDerD0=      0 MskFDP=       0 MskDFD=       0 MskDF0=       0
 Re-enter D2Numr:  normal mode   1 step-up   number 1
 Standard basis: Aug-CC-pVDZ (5D, 7F)
    32 basis functions,    54 primitive gaussians,    34 cartesian basis functions
     5 alpha electrons        5 beta electrons
       nuclear repulsion energy         5.0935051752 Hartrees.
 NAtoms=    2 NActive=    2 NUniq=    2 SFac= 1.00D+00 NAtFMM=   60 NAOKFM=F Big=F
 Integral buffers will be    131072 words long.
 Raffenetti 1 integral format.
 Two-electron integral symmetry is turned off.
 One-electron integrals computed using PRISM.
 NBasis=    32 RedAO= T EigKep=  2.24D-03  NBF=    32
 NBsUse=    32 1.00D-06 EigRej= -1.00D+00 NBFU=    32
 Initial guess from the checkpoint file:  "hf.chk"
 B after Tr=     0.000000    0.000000   -0.000959
         Rot=    1.000000    0.000000    0.000000    0.000000 Ang=   0.00 deg.
 Keep R1 ints in memory in canonical form, NReq=5907295.
 Requested convergence on RMS density matrix=1.00D-08 within 128 cycles.
 Requested convergence on MAX density matrix=1.00D-06.
 Requested convergence on             energy=1.00D-06.
 No special actions if energy rises.
 SCF Done:  E(RHF) =  -100.032377105     A.U. after    8 cycles
            NFock=  8  Conv=0.99D-08     -V/T= 2.0013
 ExpMin= 2.97D-02 ExpMax= 1.47D+04 ExpMxC= 5.03D+02 IAcc=3 IRadAn=         5 AccDes= 0.00D+00
 HarFok:  IExCor=  205 AccDes= 0.00D+00 IRadAn=         5 IDoV=-2 UseB2=F ITyADJ=14
 ICtDFT= 12500011 ScaDFX=  1.000000  1.000000  1.000000  1.000000
 Range of M.O.s used for correlation:     2    32
 NBasis=    32 NAE=     5 NBE=     5 NFC=     1 NFV=     0
 NROrb=     31 NOA=     4 NOB=     4 NVA=    27 NVB=    27
 Disk-based method using ON**2 memory for  4 occupieds at a time.
 Permanent disk used for amplitudes=       21735 words.
 Estimated scratch disk usage=      677888 words.
 Actual    scratch disk usage=      677888 words.
 JobTyp=1 Pass  1:  I=   2 to   5 NPSUse= 28 ParTrn=T ParDer=T DoDerP=T.
 (rs|ai) integrals will be sorted in core.
 Spin components of T(2) and E(2):
     alpha-alpha T2 =       0.6662960741D-02 E2=     -0.2984110176D-01
     alpha-beta  T2 =       0.3557837440D-01 E2=     -0.1636353936D+00
     beta-beta   T2 =       0.6662960741D-02 E2=     -0.2984110176D-01
 ANorm=    0.1024160288D+01
 E2 =    -0.2233175971D+00 EUMP2 =    -0.10025569470236D+03
 G2DrvN: will do     3 centers at a time, making    1 passes.
 Calling FoFCou, ICntrl=  3107 FMM=F I1Cent=   0 AccDes= 0.00D+00.
 End of G2Drv F.D. properties file   721 does not exist.
 End of G2Drv F.D. properties file   722 does not exist.
 End of G2Drv F.D. properties file   788 does not exist.
          IDoAtm=11
          Differentiating once with respect to electric field.
                with respect to dipole field.
          Differentiating once with respect to nuclear coordinates.
 Keep R1 ints in memory in canonical form, NReq=5907746.
          There are     9 degrees of freedom in the 1st order CPHF.  IDoFFX=6 NUNeed=     9.
      6 vectors produced by pass  0 Test12= 1.50D-15 1.11D-08 XBig12= 1.07D+00 5.37D-01.
 AX will form     6 AO Fock derivatives at one time.
      6 vectors produced by pass  1 Test12= 1.50D-15 1.11D-08 XBig12= 6.22D-02 1.00D-01.
      6 vectors produced by pass  2 Test12= 1.50D-15 1.11D-08 XBig12= 3.28D-03 2.13D-02.
      6 vectors produced by pass  3 Test12= 1.50D-15 1.11D-08 XBig12= 3.78D-05 2.29D-03.
      6 vectors produced by pass  4 Test12= 1.50D-15 1.11D-08 XBig12= 3.55D-07 4.07D-04.
      6 vectors produced by pass  5 Test12= 1.50D-15 1.11D-08 XBig12= 4.63D-10 1.07D-05.
      6 vectors produced by pass  6 Test12= 1.50D-15 1.11D-08 XBig12= 3.15D-12 8.40D-07.
      1 vectors produced by pass  7 Test12= 1.50D-15 1.11D-08 XBig12= 1.02D-14 3.72D-08.
 InvSVY:  IOpt=1 It=  1 EMax= 3.33D-16
 Solved reduced A of dimension    43 with     6 vectors.
 End of Minotr F.D. properties file   721 does not exist.
 End of Minotr F.D. properties file   722 does not exist.
 End of Minotr F.D. properties file   788 does not exist.
 MDV=  5502926848.
 Form MO integral derivatives with frozen-active canonical formalism.
 Discarding MO integrals.
 Reordered first order wavefunction length =        36450
 In DefCFB: NBatch=  1 ICI=  5 ICA= 27 LFMax= 27
            Large arrays: LIAPS=      587520 LIARS=      803250 words.
 Semi-Direct transformation.
 ModeAB=           2 MOrb=             5 LenV=    5502734393
 LASXX=        70525 LTotXX=       70525 LenRXX=       70525
 LTotAB=       77175 MaxLAS=       95200 LenRXY=       95200
 NonZer=      141050 LenScr=      524288 LnRSAI=           0
 LnScr1=           0 LExtra=           0 Total=       690013
 MaxDsk=          -1 SrtSym=           F ITran=            4
 JobTyp=0 Pass  1:  I=   1 to   5.
 (rs|ai) integrals will be sorted in core.
 Spin components of T(2) and E(2):
     alpha-alpha T2 =       0.6662960741D-02 E2=     -0.2984110176D-01
     alpha-beta  T2 =       0.3557837440D-01 E2=     -0.1636353936D+00
     beta-beta   T2 =       0.6662960741D-02 E2=     -0.2984110176D-01
 ANorm=    0.1448381370D+01
 E2 =    -0.2233175971D+00 EUMP2 =    -0.10025569470236D+03
          IDoAtm=11
          Differentiating once with respect to electric field.
                with respect to dipole field.
          Differentiating once with respect to nuclear coordinates.
          There are     1 degrees of freedom in the 1st order CPHF.  IDoFFX=0 NUNeed=     1.
 LinEq1:  Iter=  0 NonCon=     1 RMS=1.00D-02 Max=6.44D-02 NDo=     1
 LinEq1:  Iter=  1 NonCon=     1 RMS=2.63D-03 Max=1.24D-02 NDo=     1
 LinEq1:  Iter=  2 NonCon=     1 RMS=6.28D-04 Max=3.27D-03 NDo=     1
 LinEq1:  Iter=  3 NonCon=     1 RMS=6.65D-05 Max=3.04D-04 NDo=     1
 LinEq1:  Iter=  4 NonCon=     1 RMS=7.04D-06 Max=3.20D-05 NDo=     1
 LinEq1:  Iter=  5 NonCon=     1 RMS=8.88D-07 Max=3.40D-06 NDo=     1
 LinEq1:  Iter=  6 NonCon=     1 RMS=5.98D-08 Max=2.28D-07 NDo=     1
 LinEq1:  Iter=  7 NonCon=     1 RMS=5.52D-09 Max=3.45D-08 NDo=     1
 LinEq1:  Iter=  8 NonCon=     1 RMS=3.57D-10 Max=1.91D-09 NDo=     1
 LinEq1:  Iter=  9 NonCon=     0 RMS=2.80D-11 Max=1.68D-10 NDo=     1
 Linear equations converged to 1.000D-10 1.000D-09 after     9 iterations.
 End of Minotr F.D. properties file   721 does not exist.
 End of Minotr F.D. properties file   722 does not exist.
 End of Minotr F.D. properties file   788 does not exist.
 Symmetrizing basis deriv contribution to polar:
 IMax=3 JMax=2 DiffMx= 0.00D+00
 G2DrvN: will do     3 centers at a time, making    1 passes.
 Calling FoFCou, ICntrl=  3107 FMM=F I1Cent=   0 AccDes= 0.00D+00.
 End of G2Drv F.D. properties file   721 does not exist.
 End of G2Drv F.D. properties file   722 does not exist.
 End of G2Drv F.D. properties file   788 does not exist.
 R2 and R3 integrals will be kept in memory, NReq=     1174620.
 DD1Dir will call FoFMem   1 times, MxPair=        30
 NAB=    15 NAA=     0 NBB=     0.
 Discarding MO integrals.

 **********************************************************************

            Population analysis using the MP2 density.

 **********************************************************************

 Alpha  occ. eigenvalues --  -26.31121  -1.60128  -0.76414  -0.64895  -0.64895
 Alpha virt. eigenvalues --    0.03524   0.19324   0.24473   0.24473   0.25454
 Alpha virt. eigenvalues --    0.36049   0.40019   0.40019   0.65399   0.93219
 Alpha virt. eigenvalues --    1.34765   1.34765   1.43035   1.43035   1.62366
 Alpha virt. eigenvalues --    1.66819   1.66819   2.06189   2.15010   2.15010
 Alpha virt. eigenvalues --    2.62431   3.58146   4.85394   4.85394   4.92760
 Alpha virt. eigenvalues --    4.92760   5.12609
          Condensed to atoms (all electrons):
               1          2
     1  H    0.436558   0.273130
     2  F    0.273130   9.017182
 Mulliken charges:
               1
     1  H    0.290312
     2  F   -0.290312
 Sum of Mulliken charges =  -0.00000
 Mulliken charges with hydrogens summed into heavy atoms:
               1
     2  F   -0.000000
 APT charges:
               1
     1  H    0.384790
     2  F   -0.384790
 Sum of APT charges =  -0.00000
 APT charges with hydrogens summed into heavy atoms:
               1
     2  F   -0.000000
 Electronic spatial extent (au):  <R**2>=             14.4791
 Charge=             -0.0000 electrons
 Dipole moment (field-independent basis, Debye):
    X=              0.0000    Y=             -0.0000    Z=             -1.8315  Tot=              1.8315
 Quadrupole moment (field-independent basis, Debye-Ang):
   XX=             -5.9728   YY=             -5.9728   ZZ=             -3.7498
   XY=             -0.0000   XZ=             -0.0000   YZ=             -0.0000
 Traceless Quadrupole moment (field-independent basis, Debye-Ang):
   XX=             -0.7410   YY=             -0.7410   ZZ=              1.4820
   XY=             -0.0000   XZ=             -0.0000   YZ=             -0.0000
 Octapole moment (field-independent basis, Debye-Ang**2):
  XXX=              0.0000  YYY=             -0.0000  ZZZ=             -1.8378  XYY=             -0.0000
  XXY=             -0.0000  XXZ=             -0.1026  XZZ=              0.0000  YZZ=             -0.0000
  YYZ=             -0.1026  XYZ=              0.0000
 Hexadecapole moment (field-independent basis, Debye-Ang**3):
 XXXX=             -4.4181 YYYY=             -4.4181 ZZZZ=             -3.9127 XXXY=             -0.0000
 XXXZ=             -0.0000 YYYX=             -0.0000 YYYZ=             -0.0000 ZZZX=             -0.0000
 ZZZY=              0.0000 XXYY=             -1.4727 XXZZ=             -1.6567 YYZZ=             -1.6567
 XXYZ=             -0.0000 YYXZ=             -0.0000 ZZXY=             -0.0000
 N-N= 5.093505175159D+00 E-N=-2.497755560043D+02  KE= 9.991760197604D+01
  Exact polarizability:   4.366   0.000   4.366   0.000   0.000   6.395
 Approx polarizability:   3.175  -0.000   3.175   0.000   0.000   5.033
 Calling FoFJK, ICntrl=  10100127 FMM=F ISym2X=0 I1Cent= 0 IOpClX= 0 NMat=1 NMatS=1 NMatT=0.
 -------------------------------------------------------------------
 Center     Atomic                   Forces (Hartrees/Bohr)
 Number     Number              X              Y              Z
 -------------------------------------------------------------------
      1        1          -0.000000000    0.000000000    0.011221355
      2        9           0.000000000   -0.000000000   -0.011221355
 -------------------------------------------------------------------
 Cartesian Forces:  Max     0.011221355 RMS     0.006478652
 NDeriv=      1 NFrqRd=  0 NDerD0=      0 MskFDP=       0 MskDFD=       0 MskDF0=       0
 Re-enter D2Numr:  normal mode   1 step-down number 1
 Max difference between Dipole analytic and numerical normal mode 1st derivatives:
 I=     3 ID=     1 Difference=    9.7047386229D-06
 Max difference between Dipole analytic and numerical normal mode 2nd derivatives:
 I=     3 ID=     1 Difference=    1.0121536056D-05
 Recovering previously computed normal modes.
 Harmonic frequencies (cm**-1), IR intensities (KM/Mole), Raman scattering
 activities (A**4/AMU), depolarization ratios for plane and unpolarized
 incident light, reduced masses (AMU), force constants (mDyne/A),
 and normal coordinates:
                      1
                     SG
 Frequencies --   4082.3292
 Red. masses --      1.0583
 Frc consts  --     10.3915
 IR Inten    --    116.0821
  Atom  AN      X      Y      Z
     1   1     0.00   0.00   1.00
     2   9     0.00   0.00  -0.05

 -------------------
 - Thermochemistry -
 -------------------
 Temperature   298.150 Kelvin.  Pressure   1.00000 Atm.
 Atom     1 has atomic number  1 and mass   1.00783
 Atom     2 has atomic number  9 and mass  18.99840
 Molecular mass:    20.00623 amu.
 Principal axes and moments of inertia in atomic units:
                           1         2         3
     Eigenvalues --     0.00000   2.92308   2.92308
           X            0.00000  -0.00000   1.00000
           Y            0.00000   1.00000   0.00000
           Z            1.00000   0.00000   0.00000
 This molecule is a prolate symmetric top.
 Rotational symmetry number  1.
 Rotational temperature (Kelvin)     29.63105
 Rotational constant (GHZ):         617.410771
 Zero-point vibrational energy      24417.8 (Joules/Mol)
                                    5.83598 (Kcal/Mol)
 Vibrational temperatures:   5873.56
          (Kelvin)
 
 Zero-point correction=                           0.009300 (Hartree/Particle)
 Thermal correction to Energy=                    0.011661
 Thermal correction to Enthalpy=                  0.012605
 Thermal correction to Gibbs Free Energy=        -0.007112
 Sum of electronic and zero-point Energies=           -100.246504
 Sum of electronic and thermal Energies=              -100.244144
 Sum of electronic and thermal Enthalpies=            -100.243200
 Sum of electronic and thermal Free Energies=         -100.262916
 
                     E (Thermal)             CV                S
                      KCal/Mol        Cal/Mol-Kelvin    Cal/Mol-Kelvin
 Total                    7.317              4.968             41.497
 Electronic               0.000              0.000              0.000
 Translational            0.889              2.981             34.922
 Rotational               0.592              1.987              6.575
 Vibrational              5.836              0.000              0.000
                       Q            Log10(Q)             Ln(Q)
 Total Bot       0.186674D+04          3.271084          7.531950
 Total V=0       0.353907D+08          7.548890         17.381961
 Vib (Bot)       0.527466D-04         -4.277805         -9.850010
 Vib (V=0)       0.100000D+01          0.000000          0.000000
 Electronic      0.100000D+01          0.000000          0.000000
 Translational   0.351724D+07          6.546202         15.073186
 Rotational      0.100621D+02          1.002688          2.308774
 ***** Axes restored to original set *****
 -------------------------------------------------------------------
 Center     Atomic                   Forces (Hartrees/Bohr)
 Number     Number              X              Y              Z
 -------------------------------------------------------------------
      1        1          -0.000000000   -0.000000000   -0.000000542
      2        9          -0.000000000   -0.000000000    0.000000542
 -------------------------------------------------------------------
 Cartesian Forces:  Max     0.000000542 RMS     0.000000313

 **********************************************************************

             Second-order Perturbative Anharmonic Analysis

 **********************************************************************

     ==================================================
                      Reference System
     ==================================================

 NOTE: The system is set in Eckart orientation for the anharmonic
       treatment.
 
 Atom           X                  Y                  Z
 ----------------------------------------------------------------
  H       0.0000000000000    0.0000000000000   -0.8782231241184
  F       0.0000000000000    0.0000000000000    0.0465878758816
 ----------------------------------------------------------------

     ==================================================
               Analysis of the Rotor Symmetry
     ==================================================

 Framework Group : C*V 
 Rotor Type      : Linear Molecule
 Inertia moments : X=     2.92308 , Y=     2.92308 , Z=     0.00000
 Representation  : Ir Representation, Iz < Ix < Iy

 Axes Definition for the Symmetric-Top Representation
 ----------------------------------------------------
 Axis Z automatically chosen to be collinear with Z from Eckart orient.
 NOTE: In Vibro-rotational analysis, this will be referred to as the
       spectroscopic orientation.

     ==================================================
                   Data Source Definition
     ==================================================

 Main data sources
 -----------------
 Harmonic data taken from: current calculation
 Anharmonic data taken from: current calculation

     ==================================================
           Input Data Extraction and Preparation
     ==================================================

 Data for Harmonic Potential Energy Surface
 ------------------------------------------

 Definition of the model system: Active modes
 --------------------------------------------
 The 1 Active Modes are:
     1

 Data for Anharmonic Potential Energy Surface
 --------------------------------------------

 Data for Electric Dipole
 ------------------------
 Property available.

     ==================================================
        Vibro-Rotational Analysis Based on Symmetry
     ==================================================

 Representation SG  
 ------------------
    Z Translation
    1 Vibrations with frequencies:
   4082.33

 Representation PI   (doubly degenerate)
 --------------------------------------
    X Translation
    Y Translation
    X Rotation
    Y Rotation
 No Vibration

 Input/Output information
 ------------------------
 Normal modes will be PRINTED in DESCENDING order (imag. freq. first)
   and sorted by irreducible representation
 The connection between this new numbering (A) and the one used before
   (H) is reported in the present equivalency table:
 ----+------+
 (H) |     1|
 (A) |     1|
 ----+------+

 Normal modes will be READ in ASCENDING order (imag. freq. first)

 TIP: To use the same numbering as in the whole output, use the option
      "Print=NMOrder=AscNoIrrep" in the "ReadAnharm section"

 TIP: To use the same numbering for reading and printing, use the option
      "DataSrc=NMOrder=Print" in the "ReadAnharm section"

 Analysis of symmetry-allowed terms
 ----------------------------------

                             Possible   Symmetry allowed
 Coriolis couplings:             3            0
 Third derivatives :             1            1
 Fourth derivatives: total       1            1
                     (ii|jj)     1            1
                     (ii|jk)     0            0

 WARNING: Anharmonic treatment of linear tops is experimental.
          Moreover, an hybrid treatment is used to simulate spectra:
          - Energy: equations including degenerate modes are used.
          - Intensity: summation done on N' modes, considering only one mode
            per couple of degenerate modes. No variational correction done.

     ==================================================
                   Coriolis Couplings
     ==================================================
 No Coriolis coupling for diatomic molecules

     ==================================================
     Printing Energy derivatives and Coriolis Couplings
     ==================================================

 ........................................................
 :   Reference Energy (a.u.):       -0.100256D+03       :
 :                    (cm-1):       -0.456799D-03       :
 :......................................................:

 ........................................................
 :                   CORIOLIS COUPLINGS                 :
 :......................................................:

    Ax       I      J          Zeta(I,J)


 Num. of Coriolis couplings larger than  0.100D-02: 0 over 3

 ........................................................
 :      QUADRATIC FORCE CONSTANTS IN NORMAL MODES       :
 :                                                      :
 : FI =  Frequency [cm-1]                               :
 : k  =  Force Const.[ attoJ * amu(-1) * ang(-2) ]      :
 : K  =  Force Const.[ Hartrees * amu(-1) * bohr(-2) ]  :
 :......................................................:

      I      J                  FI(I,J)       k(I,J)       K(I,J)

      1      1                 4082.32918      9.81898      0.63068

 Num. of 2nd derivatives larger than  0.371D-04: 1 over 1

 ........................................................
 :        CUBIC FORCE CONSTANTS IN NORMAL MODES         :
 :                                                      :
 : FI =  Reduced values [cm-1]  (default input)         :
 : k  =  Cubic Force Const.[AttoJ*amu(-3/2)*Ang(-3)]    :
 : K  =  Cubic Force Const.[Hartree*amu(-3/2)*Bohr(-3)] :
 :......................................................:

      I      J      K          FI(I,J,K)     k(I,J,K)     K(I,J,K)

      1      1      1          2850.42493     75.44120      2.56419

 Num. of 3rd derivatives larger than  0.371D-04: 1 over 1

 ........................................................
 :                                                      :
 :       QUARTIC FORCE CONSTANTS IN NORMAL MODES        :
 :                                                      :
 : FI =  Reduced values [cm-1]  (default input)         :
 : k  =  Quartic Force Const.[AttoJ*amu(-2)*Ang(-4)]    :
 : K  =  Quartic Force Const.[Hartree*amu(-2)*Bohr(-4)] :
 :......................................................:

      I      J      K      L  FI(I,J,K,L)   k(I,J,K,L)   K(I,J,K,L)

      1      1      1      1   1782.42039    519.09864      9.33670

 Num. of 4th derivatives larger than  0.371D-04: 1 over 1

     ==================================================
                     Input for POLYMODE
     ==================================================

 ***************** cut here for POLYMODE input *****************
  1,  1,  1,  1,  1,  0,  0,  5,  0
SCF-CI
          Input generated by DiNa
  1, 1,  0.172989D-03 /
  1, 1, 1, 0.549110D-05 /
  1, 1, 1, 1, 0.117074D-06 /
 0.532845D+04,0.532845D+04,0.000000D+00 /
 ***************** cut here for POLYMODE input *****************

     ==================================================
      Inertia Moments Derivatives w.r.t. Normal Modes
     ==================================================

 Units: amu^1/2.Ang

                 Ixx        Ixy        Iyy        Ixz        Iyz        Izz
 Q(     1)    -1.80947    0.00000   -1.80947    0.00000    0.00000    0.00000

     ==================================================
               Vibro-rotational Alpha Matrix
     ==================================================

 Vibro-Rot alpha Matrix (in cm^-1)
 ---------------------------------
                 A(z)           B(x)           C(y)
 Q(     1)       -0.00000            NaN            NaN

 Vibro-Rot alpha Matrix (in MHz)
 -------------------------------
                 A(z)           B(x)           C(y)
 Q(     1)       -0.00000            NaN            NaN

     ==================================================
          Quartic Centrifugal Distortion Constants
     ==================================================

 NOTE: Values in Cartesian coords. refer to the structure in Eckart orientation.

 Quartic Centrifugal Distortion Constants Tau Prime
 --------------------------------------------------
                      cm^-1                    MHz
 TauP aaaa      0.0000000000D+00         0.0000000000D+00
 TauP bbaa      0.0000000000D+00         0.0000000000D+00
 TauP bbbb     -0.8386184958D-02        -0.2514115002D+03
 cm-1                       MHz
 De    0.2096546240D-02         0.6285287505D+02

     ==================================================
           Sextic Centrifugal Distortion Constants
     ==================================================

 Sextic Distortion Constants
 ---------------------------
                       in cm-1                  in Hz
 Phi aaa         0.0000000000D+00         0.0000000000D+00
 Phi aab         0.6953027833-309         0.0000000000D+00
 Phi abb         0.7618338110-316         0.0000000000D+00
 Phi bbb         0.1457538065D-06         0.4369589192D+04

 Linear molecule
 ---------------
                       cm^-1                    Hz
 He               0.1457538065D-06         0.4369589192D+04

     ==================================================
       Average Coordinates and Mean Square Amplitudes
     ==================================================

 NOTE: Temperature is given in K between parentheses
       For Cartesian and internal coords., units are given between
       parentheses next to each label

 Mean Square Amplitudes of Normal Coordinates (in amu.bohr^2)
 -----------------------------------------------------------
 Mode    <Q^2> (0)    <Q^2> (298.15)    <Q^2> (298.15) class.
    1     0.014746       0.014746          0.059103

 Average Normal Coordinates (in amu^1/2.bohr)
 --------------------------------------------
   Mode    <Q> (0)       <Q> (298.15)
      1    -0.029978       -0.029978

 Mean Square Amplitudes of Cartesian Coordinates
 -----------------------------------------------
    Label        <(S-Se)^2>^1/2 (0)    <(S-Se)^2>^1/2 (298.15)
 X(1)  (Angs)        0.000000              0.000000
 Y(1)  (Angs)        0.000000              0.000000
 Z(1)  (Angs)        0.062377              0.062377
 X(2)  (Angs)        0.000000              0.000000
 Y(2)  (Angs)        0.000000              0.000000
 Z(2)  (Angs)        0.003309              0.003309

 Average Cartesian Coordinates
 -----------------------------
    Label              Se         <S> = Sz (0)   <S> = Sz (298.15)
 X(1)  (Angs)       0.000000        0.000000        0.000000
 Y(1)  (Angs)       0.000000        0.000000        0.000000
 Z(1)  (Angs)      -0.878223       -0.893622       -0.893622
 X(2)  (Angs)       0.000000        0.000000        0.000000
 Y(2)  (Angs)       0.000000        0.000000        0.000000
 Z(2)  (Angs)       0.046588        0.047405        0.047405

 Internal coordinates for the Equilibrium structure (Se)
                           Interatomic distances:
                    1          2
     1  H    0.000000
     2  F    0.924811   0.000000

 Internal coordinates for the vibrationally average structure at 0K (Sz)
                           Interatomic distances:
                    1          2
     1  H    0.000000
     2  F    0.941027   0.000000

 Internal coordinates for the vibr. average structure at 298.15K (Sa)
                           Interatomic distances:
                    1          2
     1  H    0.000000
     2  F    0.941027   0.000000

     ==================================================
      Vibrational Average of Electric-Field Properties
     ==================================================

 Electric dipole
 ---------------
 ------------------------------------------------------------------------
  Property at reference geometry, Unit: Debye
 ------------------------------------------------------------------------
     X=     0.0000     Y=     0.0000     Z=    -1.8149
 ------------------------------------------------------------------------
  Temperature:     0K, Unit: Debye
 ------------------------------------------------------------------------
     X=    -0.0000     Y=     0.0000     Z=    -1.8424
 ------------------------------------------------------------------------
  Temperature:   298K, Unit: Debye
 ------------------------------------------------------------------------
     X=    -0.0000     Y=     0.0000     Z=    -1.8427

     ==================================================
                     Anharmonic X Matrix
     ==================================================

 PT2 model: Deperturbed VPT2 (DVPT2)
 Ref.: V. Barone, J. Chem. Phys. 122, 1, 014108 (2005)

 Coriolis contributions to X Matrix (in cm^-1)
 ---------------------------------------------
                1
      1  0.000000D+00

 3rd Deriv. contributions to X Matrix (in cm^-1)
 -----------------------------------------------
                1
      1 -0.207319D+03

 4th Deriv. contributions to X Matrix (in cm^-1)
 -----------------------------------------------
                1
      1  0.111401D+03

 Total Anharmonic X Matrix (in cm^-1)
 ------------------------------------
                1
      1 -0.959181D+02

     ==================================================
                Anharmonic Zero Point Energy
     ==================================================

 Anharmonic X0 Term
 ------------------
 U term         : cm-1 =     0.00000 ; Kcal/mol =   0.000 ; KJ/mol =   0.000
 Coriolis       : cm-1 =     0.00000 ; Kcal/mol =   0.000 ; KJ/mol =   0.000
 Anharmonic     : cm-1 =     3.66305 ; Kcal/mol =   0.010 ; KJ/mol =   0.044
 Total X0       : cm-1 =     3.66305 ; Kcal/mol =   0.010 ; KJ/mol =   0.044

 Anharmonic Zero Point Energy
 ----------------------------
 Harmonic       : cm-1 =  2041.16459 ; Kcal/mol =   5.836 ; KJ/mol =  24.418
 Anharmonic Pot.: cm-1 =   -20.31648 ; Kcal/mol =  -0.058 ; KJ/mol =  -0.243
 Watson+Coriolis: cm-1 =     0.00000 ; Kcal/mol =   0.000 ; KJ/mol =   0.000
 Total Anharm   : cm-1 =  2020.84811 ; Kcal/mol =   5.778 ; KJ/mol =  24.175

     ==================================================
          Vibrational Energies at Anharmonic Level
     ==================================================

 Units: Vibrational energies and rotational constants in cm^-1.
 NOTE: Transition energies are given with respect to the ground state.

 Reference Data
 --------------
                              E(harm)  E(anharm)     Ba(x)      Ca(y)
 Equilibrium Geometry                             20.594607  20.594607
 Ground State                 2041.165  2020.848        NaN        NaN

 Fundamental Bands
 -----------------
     Mode(n)      Status      E(harm)  E(anharm)     Ba(x)      Ca(y)
        1(1)      active      4082.329  3890.493        NaN        NaN

 Overtones
 ---------
     Mode(n)                  E(harm)  E(anharm)     Ba(x)      Ca(y)
        1(2)                  8164.658  7589.150        NaN        NaN

 WARNING: Anharmonic transition moments for symmetric and linear tops
          are not yet fully implemented.

     ==================================================
               Anharmonic Transition Moments
     ==================================================

 Electric dipole : Fundamental Bands
 ------------------------------------------------------------------------
   Mode(n)                            X               Y               Z
      1(1)                       0.119641D-14   -0.404931D-14    0.425925D-01

 Electric dipole : Overtones
 ------------------------------------------------------------------------
   Mode(n)                            X               Y               Z
      1(2)                      -0.205617D-14    0.695922D-14    0.418153D-02

 Electric dipole : Combination Bands
 ------------------------------------------------------------------------
   Mode(n)     Mode(n)                X               Y               Z

     ==================================================
              Anharmonic Infrared Spectroscopy
     ==================================================

 Units: Transition energies (E) in cm^-1
        Integrated intensity (I) in km.mol^-1

 Fundamental Bands
 -----------------
   Mode(n)                  E(harm)   E(anharm)        I(harm)       I(anharm)
      1(1)                  4082.329   3890.493    116.08212974    114.29510277

 Overtones
 ---------
   Mode(n)                  E(harm)   E(anharm)                      I(anharm)
      1(2)                  8164.658   7589.150                      2.14891947

 Units: Transition energies (E) in cm^-1
        Dipole strengths (DS) in 10^-40 esu^2.cm^2

 Fundamental Bands
 -----------------
   Mode(n)                  E(harm)   E(anharm)       DS(harm)      DS(anharm)
      1(1)                  4082.329   3890.493    113.43961653    117.20075187

 Overtones
 ---------
   Mode(n)                  E(harm)   E(anharm)                     DS(anharm)
      1(2)                  8164.658   7589.150                      1.12962536


 GradGradGradGradGradGradGradGradGradGradGradGradGradGradGradGradGradGrad
 Berny optimization.
 Internal  Forces:  Max     0.000000542 RMS     0.000000542
 Search for a local minimum.
 Step number   1 out of a maximum of    2
 All quantities printed in internal units (Hartrees-Bohrs-Radians)
 Second derivative matrix not updated -- analytic derivatives used.
 The second derivative matrix:
                          R1
           R1           0.60359
 ITU=  0
     Eigenvalues ---    0.60359
 Angle between quadratic step and forces=  90.00 degrees.
 Linear search not attempted -- first point.
 Iteration  1 RMS(Cart)=  0.00000064 RMS(Int)=  0.00000000
 ClnCor:  largest displacement from symmetrization is 0.00D+00 for atom     0.
 Variable       Old X    -DE/DX   Delta X   Delta X   Delta X     New X
                                 (Linear)    (Quad)   (Total)
    R1        1.74764   0.00000   0.00000   0.00000   0.00000   1.74764
         Item               Value     Threshold  Converged?
 Maximum Force            0.000001     0.000450     YES
 RMS     Force            0.000001     0.000300     YES
 Maximum Displacement     0.000000     0.001800     YES
 RMS     Displacement     0.000001     0.001200     YES
 Predicted change in Energy=-2.437454D-13
 Optimization completed.
    -- Stationary point found.
                           ----------------------------
                           !   Optimized Parameters   !
                           ! (Angstroms and Degrees)  !
 --------------------------                            --------------------------
 ! Name  Definition              Value          Derivative Info.                !
 --------------------------------------------------------------------------------
 ! R1    R(1,2)                  0.9248         -DE/DX =    0.0                 !
 --------------------------------------------------------------------------------
 GradGradGradGradGradGradGradGradGradGradGradGradGradGradGradGradGradGrad


 ----------------------------------------------------------------------

 Electric dipole moment (input orientation):
 (Debye = 10**-18 statcoulomb cm , SI units = C m)
                  (au)            (Debye)         (10**-30 SI)
   Tot        0.714018D+00      0.181485D+01      0.605370D+01
   x          0.000000D+00      0.000000D+00      0.000000D+00
   y          0.000000D+00      0.000000D+00      0.000000D+00
   z         -0.714018D+00     -0.181485D+01     -0.605370D+01

 Dipole polarizability, Alpha (input orientation).
 (esu units = cm**3 , SI units = C**2 m**2 J**-1)
 Alpha(0;0):
               (au)            (10**-24 esu)      (10**-40 SI)
   iso        0.498905D+01      0.739301D+00      0.822583D+00
   aniso      0.194285D+01      0.287901D+00      0.320333D+00
   xx         0.434143D+01      0.643334D+00      0.715805D+00
   yx         0.000000D+00      0.000000D+00      0.000000D+00
   yy         0.434143D+01      0.643334D+00      0.715805D+00
   zx         0.000000D+00      0.000000D+00      0.000000D+00
   zy         0.000000D+00      0.000000D+00      0.000000D+00
   zz         0.628428D+01      0.931235D+00      0.103614D+01

 ----------------------------------------------------------------------

 Dipole orientation:
     1          0.00000000          0.00000000          1.57287575
     9          0.00000000          0.00000000         -0.17476376

 Electric dipole moment (dipole orientation):
 (Debye = 10**-18 statcoulomb cm , SI units = C m)
                  (au)            (Debye)         (10**-30 SI)
   Tot        0.714018D+00      0.181485D+01      0.605370D+01
   x          0.000000D+00      0.000000D+00      0.000000D+00
   y          0.000000D+00      0.000000D+00      0.000000D+00
   z          0.714018D+00      0.181485D+01      0.605370D+01

 Dipole polarizability, Alpha (dipole orientation).
 (esu units = cm**3 , SI units = C**2 m**2 J**-1)
 Alpha(0;0):
               (au)            (10**-24 esu)      (10**-40 SI)
   iso        0.498905D+01      0.739301D+00      0.822583D+00
   aniso      0.194285D+01      0.287901D+00      0.320333D+00
   xx         0.434143D+01      0.643334D+00      0.715805D+00
   yx         0.000000D+00      0.000000D+00      0.000000D+00
   yy         0.434143D+01      0.643334D+00      0.715805D+00
   zx         0.000000D+00      0.000000D+00      0.000000D+00
   zy         0.000000D+00      0.000000D+00      0.000000D+00
   zz         0.628428D+01      0.931235D+00      0.103614D+01

 ----------------------------------------------------------------------
 1\1\GINC-N2161\Freq\RMP2-FC\Aug-CC-pVDZ\F1H1\GDS001\04-Aug-2020\0\\#N 
 Geom=AllCheck Guess=TCheck SCRF=Check GenChk RMP2(FC)/Aug-CC-pVDZ Freq
 \\hf\\0,1\H,0.,0.,-0.83233\F,0.,0.,0.092481\\Version=ES64L-G16RevA.03\
 State=1-SG\HF=-100.0330795\MP2=-100.2558045\RMSD=2.403e-10\RMSF=3.132e
 -07\ZeroPoint=0.0093002\Thermal=0.0116607\Dipole=0.,0.,-0.7140183\Dipo
 leDeriv=0.4085615,0.,0.,0.,0.4085615,0.,0.,0.,0.3375791,-0.4085615,0.,
 0.,0.,-0.4085615,0.,0.,0.,-0.3375791\Polar=4.3414315,0.,4.3414315,0.,0
 .,6.2842826\Quadrupole=-0.5403155,-0.5403155,1.080631,0.,0.,0.\PG=C*V 
 [C*(H1F1)]\NImag=0\\-0.00000031,0.,-0.00000031,0.,0.,0.60359344,0.0000
 0031,0.,0.,-0.00000031,0.,0.00000031,0.,0.,-0.00000031,0.,0.,-0.603593
 44,0.,0.,0.60359344\\0.,0.,0.00000054,0.,0.,-0.00000054\\-0.35354449,0
 .,-0.35354449,0.,0.,2.45407593,0.35354449,0.,0.,-0.35354449,0.,0.35354
 449,0.,0.,-0.35354449,0.,0.,-2.45407593,0.,0.,2.45407593,-1.84842696,0
 .,-1.84842696,0.,0.,8.93573803,1.84842696,0.,0.,-1.84842696,0.,1.84842
 696,0.,0.,-1.84842696,0.,0.,-8.93573803,0.,0.,8.93573802\\@


 BRING ME INTO THE COMPANY OF THOSE WHO SEEK TRUTH,
 AND DELIVER ME FROM THOSE WHO HAVE FOUND IT.
 Job cpu time:       0 days  0 hours  5 minutes  5.1 seconds.
 Elapsed time:       0 days  0 hours  0 minutes 13.0 seconds.
 File lengths (MBytes):  RWF=    116 Int=      0 D2E=      0 Chk=     44 Scr=      8
 Normal termination of Gaussian 16 at Tue Aug  4 15:33:04 2020.
