 Entering Gaussian System, Link 0=g16
 Input=hno3_mp2_avdz_opt_anharm.gjf
 Output=hno3_mp2_avdz_opt_anharm.log
 Initial command:
 /sw/contrib/chem-src/g16/c01/g16/l1.exe "/scr/Gau-22858.inp" -scrdir="/scr/"
 Entering Link 1 = /sw/contrib/chem-src/g16/c01/g16/l1.exe PID=     22859.
  
 Copyright (c) 1988-2019, Gaussian, Inc.  All Rights Reserved.
  
 This is part of the Gaussian(R) 16 program.  It is based on
 the Gaussian(R) 09 system (copyright 2009, Gaussian, Inc.),
 the Gaussian(R) 03 system (copyright 2003, Gaussian, Inc.),
 the Gaussian(R) 98 system (copyright 1998, Gaussian, Inc.),
 the Gaussian(R) 94 system (copyright 1995, Gaussian, Inc.),
 the Gaussian 92(TM) system (copyright 1992, Gaussian, Inc.),
 the Gaussian 90(TM) system (copyright 1990, Gaussian, Inc.),
 the Gaussian 88(TM) system (copyright 1988, Gaussian, Inc.),
 the Gaussian 86(TM) system (copyright 1986, Carnegie Mellon
 University), and the Gaussian 82(TM) system (copyright 1983,
 Carnegie Mellon University). Gaussian is a federally registered
 trademark of Gaussian, Inc.
  
 This software contains proprietary and confidential information,
 including trade secrets, belonging to Gaussian, Inc.
  
 This software is provided under written license and may be
 used, copied, transmitted, or stored only in accord with that
 written license.
  
 The following legend is applicable only to US Government
 contracts under FAR:
  
                    RESTRICTED RIGHTS LEGEND
  
 Use, reproduction and disclosure by the US Government is
 subject to restrictions as set forth in subparagraphs (a)
 and (c) of the Commercial Computer Software - Restricted
 Rights clause in FAR 52.227-19.
  
 Gaussian, Inc.
 340 Quinnipiac St., Bldg. 40, Wallingford CT 06492
  
  
 ---------------------------------------------------------------
 Warning -- This program may not be used in any manner that
 competes with the business of Gaussian, Inc. or will provide
 assistance to any competitor of Gaussian, Inc.  The licensee
 of this program is prohibited from giving any competitor of
 Gaussian, Inc. access to this program.  By using this program,
 the user acknowledges that Gaussian, Inc. is engaged in the
 business of creating and licensing software in the field of
 computational chemistry and represents and warrants to the
 licensee that it is not a competitor of Gaussian, Inc. and that
 it will not use this program in any manner prohibited above.
 ---------------------------------------------------------------
  

 Cite this work as:
 Gaussian 16, Revision C.01,
 M. J. Frisch, G. W. Trucks, H. B. Schlegel, G. E. Scuseria, 
 M. A. Robb, J. R. Cheeseman, G. Scalmani, V. Barone, 
 G. A. Petersson, H. Nakatsuji, X. Li, M. Caricato, A. V. Marenich, 
 J. Bloino, B. G. Janesko, R. Gomperts, B. Mennucci, H. P. Hratchian, 
 J. V. Ortiz, A. F. Izmaylov, J. L. Sonnenberg, D. Williams-Young, 
 F. Ding, F. Lipparini, F. Egidi, J. Goings, B. Peng, A. Petrone, 
 T. Henderson, D. Ranasinghe, V. G. Zakrzewski, J. Gao, N. Rega, 
 G. Zheng, W. Liang, M. Hada, M. Ehara, K. Toyota, R. Fukuda, 
 J. Hasegawa, M. Ishida, T. Nakajima, Y. Honda, O. Kitao, H. Nakai, 
 T. Vreven, K. Throssell, J. A. Montgomery, Jr., J. E. Peralta, 
 F. Ogliaro, M. J. Bearpark, J. J. Heyd, E. N. Brothers, K. N. Kudin, 
 V. N. Staroverov, T. A. Keith, R. Kobayashi, J. Normand, 
 K. Raghavachari, A. P. Rendell, J. C. Burant, S. S. Iyengar, 
 J. Tomasi, M. Cossi, J. M. Millam, M. Klene, C. Adamo, R. Cammi, 
 J. W. Ochterski, R. L. Martin, K. Morokuma, O. Farkas, 
 J. B. Foresman, and D. J. Fox, Gaussian, Inc., Wallingford CT, 2019.
 
 ******************************************
 Gaussian 16:  EM64L-G16RevC.01  3-Jul-2019
                23-Mar-2025 
 ******************************************
 %nprocshared=40
 Will use up to   40 processors via shared memory.
 %mem=50gb
 ----------------------------------------------
 # MP2/aug-cc-pVDZ opt freq=(vibrot,anharmonic)
 ----------------------------------------------
 1/18=20,19=15,38=1,80=1/1,3;
 2/9=110,12=2,17=6,18=5,40=1/2;
 3/5=16,7=10,11=9,25=1,30=1,71=1/1,2,3;
 4//1;
 5/5=2,38=5/2;
 8/6=4,10=1/1;
 9/15=2,16=-3/6;
 10/5=1/2;
 6/7=2,8=2,9=2,10=2/1;
 7/12=2/1,2,3,16;
 1/18=20,19=15,80=1/3(2);
 2/9=110/2;
 99//99;
 2/9=110/2;
 3/5=16,7=10,11=9,25=1,30=1,71=1/1,2,3;
 4/5=5,16=3,69=1/1;
 5/5=2,38=5/2;
 8/6=4,10=1/1;
 9/15=2,16=-3/6;
 10/5=1/2;
 7/12=2/1,2,3,16;
 1/18=20,19=15,80=1/3(-8);
 2/9=110/2;
 6/7=2,8=2,9=2,10=2/1;
 99/9=10/99;
 ----
 blah
 ----
 Symbolic Z-matrix:
 Charge =  0 Multiplicity = 1
 O                     0.09609  -1.07046  -0.01069 
 N                     0.85222   0.07729   0.00244 
 O                     2.04457  -0.10404   0.01864 
 O                     0.24523   1.13838  -0.00384 
 H                    -0.8439   -0.74299  -0.02055 
 

 GradGradGradGradGradGradGradGradGradGradGradGradGradGradGradGradGradGrad
 Berny optimization.
 Initialization pass.
                           ----------------------------
                           !    Initial Parameters    !
                           ! (Angstroms and Degrees)  !
 --------------------------                            --------------------------
 ! Name  Definition              Value          Derivative Info.                !
 --------------------------------------------------------------------------------
 ! R1    R(1,2)                  1.3745         estimate D2E/DX2                !
 ! R2    R(1,5)                  0.9954         estimate D2E/DX2                !
 ! R3    R(2,3)                  1.2062         estimate D2E/DX2                !
 ! R4    R(2,4)                  1.2224         estimate D2E/DX2                !
 ! A1    A(2,1,5)              104.1738         estimate D2E/DX2                !
 ! A2    A(1,2,3)              114.7344         estimate D2E/DX2                !
 ! A3    A(1,2,4)              116.8471         estimate D2E/DX2                !
 ! A4    A(3,2,4)              128.4185         estimate D2E/DX2                !
 ! D1    D(5,1,2,3)            179.8521         estimate D2E/DX2                !
 ! D2    D(5,1,2,4)             -0.1599         estimate D2E/DX2                !
 ! D3    D(1,2,3,4)            179.9863         estimate D2E/DX2                !
 --------------------------------------------------------------------------------
 Trust Radius=3.00D-01 FncErr=1.00D-07 GrdErr=1.00D-07 EigMax=2.50D+02 EigMin=1.00D-04
 Number of steps in this run=     21 maximum allowed number of steps=    100.
 GradGradGradGradGradGradGradGradGradGradGradGradGradGradGradGradGradGrad

                          Input orientation:                          
 ---------------------------------------------------------------------
 Center     Atomic      Atomic             Coordinates (Angstroms)
 Number     Number       Type             X           Y           Z
 ---------------------------------------------------------------------
      1          8           0        0.096090   -1.070457   -0.010693
      2          7           0        0.852219    0.077288    0.002440
      3          8           0        2.044572   -0.104036    0.018637
      4          8           0        0.245233    1.138377   -0.003839
      5          1           0       -0.843897   -0.742988   -0.020552
 ---------------------------------------------------------------------
                    Distance matrix (angstroms):
                    1          2          3          4          5
     1  O    0.000000
     2  N    1.374490   0.000000
     3  O    2.175181   1.206170   0.000000
     4  O    2.213874   1.222449   2.186714   0.000000
     5  H    0.995444   1.884195   2.958555   2.173941   0.000000
 Stoichiometry    HNO3
 Framework group  C1[X(HNO3)]
 Deg. of freedom     9
 Full point group                 C1      NOp   1
 Largest Abelian subgroup         C1      NOp   1
 Largest concise Abelian subgroup C1      NOp   1
                         Standard orientation:                         
 ---------------------------------------------------------------------
 Center     Atomic      Atomic             Coordinates (Angstroms)
 Number     Number       Type             X           Y           Z
 ---------------------------------------------------------------------
      1          8           0       -1.106549   -0.570200   -0.000305
      2          7           0        0.129579    0.030807    0.000009
      3          8           0        1.062474   -0.733754    0.000133
      4          8           0        0.149166    1.253099   -0.000102
      5          1           0       -1.747776    0.191201    0.002124
 ---------------------------------------------------------------------
 Rotational constants (GHZ):          12.9820308          12.2334234           6.2983083
 Standard basis: Aug-CC-pVDZ (5D, 7F)
 There are   109 symmetry adapted cartesian basis functions of A   symmetry.
 There are   101 symmetry adapted basis functions of A   symmetry.
   101 basis functions,   183 primitive gaussians,   109 cartesian basis functions
    16 alpha electrons       16 beta electrons
       nuclear repulsion energy       126.3224495603 Hartrees.
 NAtoms=    5 NActive=    5 NUniq=    5 SFac= 1.00D+00 NAtFMM=   60 NAOKFM=F Big=F
 Integral buffers will be    131072 words long.
 Raffenetti 1 integral format.
 Two-electron integral symmetry is turned on.
 One-electron integrals computed using PRISM.
 NBasis=   101 RedAO= T EigKep=  4.20D-04  NBF=   101
 NBsUse=   101 1.00D-06 EigRej= -1.00D+00 NBFU=   101
 ExpMin= 2.97D-02 ExpMax= 1.17D+04 ExpMxC= 4.01D+02 IAcc=3 IRadAn=         5 AccDes= 0.00D+00
 Harris functional with IExCor=  205 and IRadAn=       5 diagonalized for initial guess.
 HarFok:  IExCor=  205 AccDes= 0.00D+00 IRadAn=         5 IDoV= 1 UseB2=F ITyADJ=14
 ICtDFT=  3500011 ScaDFX=  1.000000  1.000000  1.000000  1.000000
 FoFCou: FMM=F IPFlag=           0 FMFlag=      100000 FMFlg1=           0
         NFxFlg=           0 DoJE=T BraDBF=F KetDBF=T FulRan=T
         wScrn=  0.000000 ICntrl=       500 IOpCl=  0 I1Cent=   200000004 NGrid=           0
         NMat0=    1 NMatS0=      1 NMatT0=    0 NMatD0=    1 NMtDS0=    0 NMtDT0=    0
 Petite list used in FoFCou.
 Keep R1 ints in memory in canonical form, NReq=21720389.
 Requested convergence on RMS density matrix=1.00D-08 within 128 cycles.
 Requested convergence on MAX density matrix=1.00D-06.
 Requested convergence on             energy=1.00D-06.
 No special actions if energy rises.
 SCF Done:  E(RHF) =  -279.495012684     A.U. after   15 cycles
            NFock= 15  Conv=0.21D-08     -V/T= 2.0022
 ExpMin= 2.97D-02 ExpMax= 1.17D+04 ExpMxC= 4.01D+02 IAcc=3 IRadAn=         5 AccDes= 0.00D+00
 HarFok:  IExCor=  205 AccDes= 0.00D+00 IRadAn=         5 IDoV=-2 UseB2=F ITyADJ=14
 ICtDFT= 12500011 ScaDFX=  1.000000  1.000000  1.000000  1.000000
 Range of M.O.s used for correlation:     5   101
 NBasis=   101 NAE=    16 NBE=    16 NFC=     4 NFV=     0
 NROrb=     97 NOA=    12 NOB=    12 NVA=    85 NVB=    85

 **** Warning!!: The largest alpha MO coefficient is  0.16781455D+02

 Fully direct method using O(ONN) memory.
 JobTyp=1 Pass  1:  I=   5 to  16 NPSUse= 40 ParTrn=T ParDer=T DoDerP=T.
 Spin components of T(2) and E(2):
     alpha-alpha T2 =       0.3314782618D-01 E2=     -0.1101914016D+00
     alpha-beta  T2 =       0.1680710353D+00 E2=     -0.5681585834D+00
     beta-beta   T2 =       0.3314782618D-01 E2=     -0.1101914016D+00
 ANorm=    0.1111020561D+01
 E2 =    -0.7885413867D+00 EUMP2 =    -0.28028355407059D+03
          IDoAtm=11111
          Differentiating once with respect to electric field.
                with respect to dipole field.
          Differentiating once with respect to nuclear coordinates.
 Keep R1 ints in memory in canonical form, NReq=21723200.
          There are     1 degrees of freedom in the 1st order CPHF.  IDoFFX=0 NUNeed=     1.
 LinEq1:  Iter=  0 NonCon=     1 RMS=8.56D-03 Max=1.82D-01 NDo=     1
 AX will form     1 AO Fock derivatives at one time.
 LinEq1:  Iter=  1 NonCon=     1 RMS=2.66D-03 Max=2.93D-02 NDo=     1
 LinEq1:  Iter=  2 NonCon=     1 RMS=1.03D-03 Max=1.83D-02 NDo=     1
 LinEq1:  Iter=  3 NonCon=     1 RMS=2.23D-04 Max=2.33D-03 NDo=     1
 LinEq1:  Iter=  4 NonCon=     1 RMS=9.88D-05 Max=1.18D-03 NDo=     1
 LinEq1:  Iter=  5 NonCon=     1 RMS=3.81D-05 Max=7.65D-04 NDo=     1
 LinEq1:  Iter=  6 NonCon=     1 RMS=1.26D-05 Max=1.08D-04 NDo=     1
 LinEq1:  Iter=  7 NonCon=     1 RMS=5.73D-06 Max=1.16D-04 NDo=     1
 LinEq1:  Iter=  8 NonCon=     1 RMS=2.53D-06 Max=1.90D-05 NDo=     1
 LinEq1:  Iter=  9 NonCon=     1 RMS=8.64D-07 Max=6.98D-06 NDo=     1
 LinEq1:  Iter= 10 NonCon=     1 RMS=1.46D-07 Max=1.48D-06 NDo=     1
 LinEq1:  Iter= 11 NonCon=     1 RMS=3.13D-08 Max=3.73D-07 NDo=     1
 LinEq1:  Iter= 12 NonCon=     1 RMS=6.83D-09 Max=7.38D-08 NDo=     1
 LinEq1:  Iter= 13 NonCon=     1 RMS=1.03D-09 Max=8.06D-09 NDo=     1
 LinEq1:  Iter= 14 NonCon=     1 RMS=1.72D-10 Max=1.41D-09 NDo=     1
 LinEq1:  Iter= 15 NonCon=     0 RMS=3.60D-11 Max=2.55D-10 NDo=     1
 Linear equations converged to 1.000D-10 1.000D-09 after    15 iterations.
 End of Minotr F.D. properties file   721 does not exist.
 End of Minotr F.D. properties file   722 does not exist.
 End of Minotr F.D. properties file   788 does not exist.

 **********************************************************************

            Population analysis using the SCF Density.

 **********************************************************************

 Orbital symmetries:
       Occupied  (A) (A) (A) (A) (A) (A) (A) (A) (A) (A) (A) (A)
                 (A) (A) (A) (A)
       Virtual   (A) (A) (A) (A) (A) (A) (A) (A) (A) (A) (A) (A)
                 (A) (A) (A) (A) (A) (A) (A) (A) (A) (A) (A) (A)
                 (A) (A) (A) (A) (A) (A) (A) (A) (A) (A) (A) (A)
                 (A) (A) (A) (A) (A) (A) (A) (A) (A) (A) (A) (A)
                 (A) (A) (A) (A) (A) (A) (A) (A) (A) (A) (A) (A)
                 (A) (A) (A) (A) (A) (A) (A) (A) (A) (A) (A) (A)
                 (A) (A) (A) (A) (A) (A) (A) (A) (A) (A) (A) (A)
                 (A)
 The electronic state is 1-A.
 Alpha  occ. eigenvalues --  -20.70938 -20.65506 -20.65012 -15.94728  -1.69190
 Alpha  occ. eigenvalues --   -1.46466  -1.45173  -0.96550  -0.83066  -0.79302
 Alpha  occ. eigenvalues --   -0.79013  -0.69798  -0.58670  -0.55430  -0.52799
 Alpha  occ. eigenvalues --   -0.49574
 Alpha virt. eigenvalues --    0.02790   0.07359   0.10767   0.11747   0.15347
 Alpha virt. eigenvalues --    0.15677   0.17265   0.19457   0.21922   0.22416
 Alpha virt. eigenvalues --    0.23663   0.26884   0.27489   0.29438   0.30215
 Alpha virt. eigenvalues --    0.31027   0.33083   0.39685   0.39776   0.43402
 Alpha virt. eigenvalues --    0.45067   0.52975   0.54369   0.57547   0.66745
 Alpha virt. eigenvalues --    0.71291   0.75383   0.81774   0.82282   0.92143
 Alpha virt. eigenvalues --    0.95079   0.99310   1.03336   1.07542   1.13042
 Alpha virt. eigenvalues --    1.15258   1.16817   1.17512   1.21607   1.23876
 Alpha virt. eigenvalues --    1.24182   1.24546   1.27785   1.28037   1.32771
 Alpha virt. eigenvalues --    1.35883   1.42238   1.46472   1.52614   1.65231
 Alpha virt. eigenvalues --    1.71616   1.83249   1.86359   1.93043   2.00422
 Alpha virt. eigenvalues --    2.05293   2.07580   2.23887   2.28297   2.32602
 Alpha virt. eigenvalues --    2.35539   2.38411   2.40704   2.48176   2.68006
 Alpha virt. eigenvalues --    2.86042   2.93514   3.36893   3.43796   3.57709
 Alpha virt. eigenvalues --    3.59365   3.61332   3.61771   3.62544   3.62708
 Alpha virt. eigenvalues --    3.64859   3.66907   3.80326   3.80646   3.86296
 Alpha virt. eigenvalues --    3.93504   4.05320   4.13635   4.20190   4.41148
          Condensed to atoms (all electrons):
               1          2          3          4          5
     1  O    8.410850  -0.070316  -0.099330  -0.082945   0.382705
     2  N   -0.070316   5.595943   0.021720   0.000091  -0.056997
     3  O   -0.099330   0.021720   8.767681  -0.093749   0.006830
     4  O   -0.082945   0.000091  -0.093749   8.809465  -0.002660
     5  H    0.382705  -0.056997   0.006830  -0.002660   0.405366
 Mulliken charges:
               1
     1  O   -0.540964
     2  N    1.509559
     3  O   -0.603151
     4  O   -0.630202
     5  H    0.264757
 Sum of Mulliken charges =  -0.00000
 Mulliken charges with hydrogens summed into heavy atoms:
               1
     1  O   -0.276206
     2  N    1.509559
     3  O   -0.603151
     4  O   -0.630202
 Electronic spatial extent (au):  <R**2>=            198.1562
 Charge=             -0.0000 electrons
 Dipole moment (field-independent basis, Debye):
    X=             -2.8748    Y=              0.3541    Z=              0.0043  Tot=              2.8965
 Quadrupole moment (field-independent basis, Debye-Ang):
   XX=            -19.1752   YY=            -25.7417   ZZ=            -21.3639
   XY=             -1.1662   XZ=             -0.0095   YZ=              0.0018
 Traceless Quadrupole moment (field-independent basis, Debye-Ang):
   XX=              2.9184   YY=             -3.6481   ZZ=              0.7297
   XY=             -1.1662   XZ=             -0.0095   YZ=              0.0018
 Octapole moment (field-independent basis, Debye-Ang**2):
  XXX=            -13.0955  YYY=             -1.6390  ZZZ=              0.0014  XYY=             -0.6825
  XXY=              2.9273  XXZ=              0.0171  XZZ=              0.0832  YZZ=              0.0392
  YYZ=             -0.0007  XYZ=             -0.0025
 Hexadecapole moment (field-independent basis, Debye-Ang**3):
 XXXX=            -82.9194 YYYY=            -99.8040 ZZZZ=            -16.3539 XXXY=             -4.0803
 XXXZ=             -0.0334 YYYX=             -0.6373 YYYZ=              0.0012 ZZZX=             -0.0041
 ZZZY=              0.0006 XXYY=            -34.1196 XXZZ=            -20.3771 YYZZ=            -19.4238
 XXYZ=              0.0042 YYXZ=             -0.0011 ZZXY=             -0.3566
 N-N= 1.263224495603D+02 E-N=-9.128800504896D+02  KE= 2.788694453796D+02
 Calling FoFJK, ICntrl=  10002127 FMM=F ISym2X=0 I1Cent= 0 IOpClX= 0 NMat=1 NMatS=1 NMatT=0.
 ***** Axes restored to original set *****
 -------------------------------------------------------------------
 Center     Atomic                   Forces (Hartrees/Bohr)
 Number     Number              X              Y              Z
 -------------------------------------------------------------------
      1        8          -0.023741772   -0.013061911   -0.000273407
      2        7           0.001984332    0.020795951    0.000059141
      3        8           0.012787147   -0.007861908    0.000147628
      4        8          -0.007610960    0.002725412   -0.000077369
      5        1           0.016581253   -0.002597544    0.000144006
 -------------------------------------------------------------------
 Cartesian Forces:  Max     0.023741772 RMS     0.010780172

 GradGradGradGradGradGradGradGradGradGradGradGradGradGradGradGradGradGrad
 Berny optimization.
 FormGI is forming the generalized inverse of G from B-inverse, IUseBI=4.
 Internal  Forces:  Max     0.017016523 RMS     0.009204071
 Search for a local minimum.
 Step number   1 out of a maximum of   21
 All quantities printed in internal units (Hartrees-Bohrs-Radians)
 Mixed Optimization -- RFO/linear search
 Second derivative matrix not updated -- first step.
 The second derivative matrix:
                          R1        R2        R3        R4        A1
           R1           0.50123
           R2           0.00000   0.48498
           R3           0.00000   0.00000   1.01783
           R4           0.00000   0.00000   0.00000   0.94306
           A1           0.00000   0.00000   0.00000   0.00000   0.16000
           A2           0.00000   0.00000   0.00000   0.00000   0.00000
           A3           0.00000   0.00000   0.00000   0.00000   0.00000
           A4           0.00000   0.00000   0.00000   0.00000   0.00000
           D1           0.00000   0.00000   0.00000   0.00000   0.00000
           D2           0.00000   0.00000   0.00000   0.00000   0.00000
           D3           0.00000   0.00000   0.00000   0.00000   0.00000
                          A2        A3        A4        D1        D2
           A2           0.25000
           A3           0.00000   0.25000
           A4           0.00000   0.00000   0.25000
           D1           0.00000   0.00000   0.00000   0.01632
           D2           0.00000   0.00000   0.00000   0.00000   0.01632
           D3           0.00000   0.00000   0.00000   0.00000   0.00000
                          D3
           D3           0.03859
 ITU=  0
     Eigenvalues ---    0.01632   0.03239   0.16000   0.25000   0.25000
     Eigenvalues ---    0.48498   0.50123   0.94306   1.01783
 RFO step:  Lambda=-1.99165718D-03 EMin= 1.63225641D-02
 Linear search not attempted -- first point.
 Iteration  1 RMS(Cart)=  0.02156074 RMS(Int)=  0.00036756
 Iteration  2 RMS(Cart)=  0.00033508 RMS(Int)=  0.00000099
 Iteration  3 RMS(Cart)=  0.00000013 RMS(Int)=  0.00000099
 Variable       Old X    -DE/DX   Delta X   Delta X   Delta X     New X
                                 (Linear)    (Quad)   (Total)
    R1        2.59741   0.01702   0.00000   0.03381   0.03381   2.63122
    R2        1.88112  -0.01651   0.00000  -0.03391  -0.03391   1.84721
    R3        2.27933   0.01382   0.00000   0.01356   0.01356   2.29289
    R4        2.31009   0.00615   0.00000   0.00650   0.00650   2.31660
    A1        1.81818  -0.00565   0.00000  -0.03486  -0.03486   1.78332
    A2        2.00249  -0.00484   0.00000  -0.01922  -0.01922   1.98327
    A3        2.03937  -0.00365   0.00000  -0.01447  -0.01447   2.02490
    A4        2.24133   0.00849   0.00000   0.03369   0.03369   2.27502
    D1        3.13901   0.00003   0.00000   0.00199   0.00199   3.14100
    D2       -0.00279   0.00004   0.00000   0.00216   0.00215  -0.00064
    D3        3.14135   0.00001   0.00000   0.00018   0.00018   3.14154
         Item               Value     Threshold  Converged?
 Maximum Force            0.017017     0.000450     NO 
 RMS     Force            0.009204     0.000300     NO 
 Maximum Displacement     0.040630     0.001800     NO 
 RMS     Displacement     0.021500     0.001200     NO 
 Predicted change in Energy=-1.001263D-03
 GradGradGradGradGradGradGradGradGradGradGradGradGradGradGradGradGradGrad

                          Input orientation:                          
 ---------------------------------------------------------------------
 Center     Atomic      Atomic             Coordinates (Angstroms)
 Number     Number       Type             X           Y           Z
 ---------------------------------------------------------------------
      1          8           0        0.089878   -1.079760   -0.009977
      2          7           0        0.852498    0.085138    0.002565
      3          8           0        2.048811   -0.116833    0.018262
      4          8           0        0.225427    1.138488   -0.003860
      5          1           0       -0.822397   -0.728848   -0.020998
 ---------------------------------------------------------------------
                    Distance matrix (angstroms):
                    1          2          3          4          5
     1  O    0.000000
     2  N    1.392384   0.000000
     3  O    2.182989   1.213344   0.000000
     4  O    2.222394   1.225890   2.213831   0.000000
     5  H    0.977499   1.862364   2.935973   2.141302   0.000000
 Stoichiometry    HNO3
 Framework group  C1[X(HNO3)]
 Deg. of freedom     9
 Full point group                 C1      NOp   1
 Largest Abelian subgroup         C1      NOp   1
 Largest concise Abelian subgroup C1      NOp   1
                         Standard orientation:                         
 ---------------------------------------------------------------------
 Center     Atomic      Atomic             Coordinates (Angstroms)
 Number     Number       Type             X           Y           Z
 ---------------------------------------------------------------------
      1          8           0       -1.069247   -0.648754   -0.000068
      2          7           0        0.136683    0.047281    0.000003
      3          8           0        1.113615   -0.672307    0.000029
      4          8           0        0.051718    1.270223   -0.000023
      5          1           0       -1.725464    0.075736    0.000484
 ---------------------------------------------------------------------
 Rotational constants (GHZ):          12.6995812          12.2095681           6.2248775
 Standard basis: Aug-CC-pVDZ (5D, 7F)
 There are   109 symmetry adapted cartesian basis functions of A   symmetry.
 There are   101 symmetry adapted basis functions of A   symmetry.
   101 basis functions,   183 primitive gaussians,   109 cartesian basis functions
    16 alpha electrons       16 beta electrons
       nuclear repulsion energy       125.6698337719 Hartrees.
 NAtoms=    5 NActive=    5 NUniq=    5 SFac= 1.00D+00 NAtFMM=   60 NAOKFM=F Big=F
 Integral buffers will be    131072 words long.
 Raffenetti 1 integral format.
 Two-electron integral symmetry is turned on.
 One-electron integrals computed using PRISM.
 NBasis=   101 RedAO= T EigKep=  4.30D-04  NBF=   101
 NBsUse=   101 1.00D-06 EigRej= -1.00D+00 NBFU=   101
 Initial guess from the checkpoint file:  "/scr/Gau-22859.chk"
 B after Tr=    -0.000000    0.000000    0.000000
         Rot=    0.999402   -0.000000   -0.000003   -0.034585 Ang=  -3.96 deg.
 ExpMin= 2.97D-02 ExpMax= 1.17D+04 ExpMxC= 4.01D+02 IAcc=3 IRadAn=         5 AccDes= 0.00D+00
 Harris functional with IExCor=  205 and IRadAn=       5 diagonalized for initial guess.
 HarFok:  IExCor=  205 AccDes= 0.00D+00 IRadAn=         5 IDoV= 1 UseB2=F ITyADJ=14
 ICtDFT=  3500011 ScaDFX=  1.000000  1.000000  1.000000  1.000000
 FoFCou: FMM=F IPFlag=           0 FMFlag=      100000 FMFlg1=           0
         NFxFlg=           0 DoJE=T BraDBF=F KetDBF=T FulRan=T
         wScrn=  0.000000 ICntrl=       500 IOpCl=  0 I1Cent=   200000004 NGrid=           0
         NMat0=    1 NMatS0=      1 NMatT0=    0 NMatD0=    1 NMtDS0=    0 NMtDT0=    0
 Petite list used in FoFCou.
 Keep R1 ints in memory in canonical form, NReq=21720271.
 Requested convergence on RMS density matrix=1.00D-08 within 128 cycles.
 Requested convergence on MAX density matrix=1.00D-06.
 Requested convergence on             energy=1.00D-06.
 No special actions if energy rises.
 SCF Done:  E(RHF) =  -279.493114024     A.U. after   12 cycles
            NFock= 12  Conv=0.99D-08     -V/T= 2.0024
 ExpMin= 2.97D-02 ExpMax= 1.17D+04 ExpMxC= 4.01D+02 IAcc=3 IRadAn=         5 AccDes= 0.00D+00
 HarFok:  IExCor=  205 AccDes= 0.00D+00 IRadAn=         5 IDoV=-2 UseB2=F ITyADJ=14
 ICtDFT= 12500011 ScaDFX=  1.000000  1.000000  1.000000  1.000000
 Range of M.O.s used for correlation:     5   101
 NBasis=   101 NAE=    16 NBE=    16 NFC=     4 NFV=     0
 NROrb=     97 NOA=    12 NOB=    12 NVA=    85 NVB=    85

 **** Warning!!: The largest alpha MO coefficient is  0.16828020D+02

 Fully direct method using O(ONN) memory.
 JobTyp=1 Pass  1:  I=   5 to  16 NPSUse= 40 ParTrn=T ParDer=T DoDerP=T.
 Spin components of T(2) and E(2):
     alpha-alpha T2 =       0.3351330252D-01 E2=     -0.1105832766D+00
     alpha-beta  T2 =       0.1699486512D+00 E2=     -0.5703704350D+00
     beta-beta   T2 =       0.3351330252D-01 E2=     -0.1105832766D+00
 ANorm=    0.1112193893D+01
 E2 =    -0.7915369881D+00 EUMP2 =    -0.28028465101186D+03
          IDoAtm=11111
          Differentiating once with respect to electric field.
                with respect to dipole field.
          Differentiating once with respect to nuclear coordinates.
 Keep R1 ints in memory in canonical form, NReq=21722964.
          There are     1 degrees of freedom in the 1st order CPHF.  IDoFFX=0 NUNeed=     1.
 LinEq1:  Iter=  0 NonCon=     1 RMS=8.74D-03 Max=1.88D-01 NDo=     1
 AX will form     1 AO Fock derivatives at one time.
 LinEq1:  Iter=  1 NonCon=     1 RMS=2.77D-03 Max=3.06D-02 NDo=     1
 LinEq1:  Iter=  2 NonCon=     1 RMS=1.07D-03 Max=1.88D-02 NDo=     1
 LinEq1:  Iter=  3 NonCon=     1 RMS=2.28D-04 Max=2.32D-03 NDo=     1
 LinEq1:  Iter=  4 NonCon=     1 RMS=9.75D-05 Max=1.09D-03 NDo=     1
 LinEq1:  Iter=  5 NonCon=     1 RMS=3.99D-05 Max=8.38D-04 NDo=     1
 LinEq1:  Iter=  6 NonCon=     1 RMS=1.36D-05 Max=1.47D-04 NDo=     1
 LinEq1:  Iter=  7 NonCon=     1 RMS=7.01D-06 Max=1.51D-04 NDo=     1
 LinEq1:  Iter=  8 NonCon=     1 RMS=3.03D-06 Max=2.24D-05 NDo=     1
 LinEq1:  Iter=  9 NonCon=     1 RMS=9.42D-07 Max=7.24D-06 NDo=     1
 LinEq1:  Iter= 10 NonCon=     1 RMS=1.54D-07 Max=1.37D-06 NDo=     1
 LinEq1:  Iter= 11 NonCon=     1 RMS=3.21D-08 Max=3.44D-07 NDo=     1
 LinEq1:  Iter= 12 NonCon=     1 RMS=6.83D-09 Max=7.05D-08 NDo=     1
 LinEq1:  Iter= 13 NonCon=     1 RMS=1.01D-09 Max=7.73D-09 NDo=     1
 LinEq1:  Iter= 14 NonCon=     1 RMS=1.71D-10 Max=1.33D-09 NDo=     1
 LinEq1:  Iter= 15 NonCon=     0 RMS=3.69D-11 Max=2.34D-10 NDo=     1
 Linear equations converged to 1.000D-10 1.000D-09 after    15 iterations.
 End of Minotr F.D. properties file   721 does not exist.
 End of Minotr F.D. properties file   722 does not exist.
 End of Minotr F.D. properties file   788 does not exist.
 Calling FoFJK, ICntrl=  10002127 FMM=F ISym2X=0 I1Cent= 0 IOpClX= 0 NMat=1 NMatS=1 NMatT=0.
 ***** Axes restored to original set *****
 -------------------------------------------------------------------
 Center     Atomic                   Forces (Hartrees/Bohr)
 Number     Number              X              Y              Z
 -------------------------------------------------------------------
      1        8          -0.006709130   -0.007245522   -0.000091917
      2        7           0.004498097    0.008767622    0.000072477
      3        8           0.000190210    0.001454216    0.000002449
      4        8           0.002059733   -0.002168260    0.000028871
      5        1          -0.000038911   -0.000808056   -0.000011880
 -------------------------------------------------------------------
 Cartesian Forces:  Max     0.008767622 RMS     0.003709250

 GradGradGradGradGradGradGradGradGradGradGradGradGradGradGradGradGradGrad
 Berny optimization.
 Using GEDIIS/GDIIS optimizer.
 FormGI is forming the generalized inverse of G from B-inverse, IUseBI=4.
 Internal  Forces:  Max     0.010434683 RMS     0.003372791
 Search for a local minimum.
 Step number   2 out of a maximum of   21
 All quantities printed in internal units (Hartrees-Bohrs-Radians)
 Mixed Optimization -- RFO/linear search
 Update second derivatives using D2CorX and points    1    2
 DE= -1.10D-03 DEPred=-1.00D-03 R= 1.10D+00
 TightC=F SS=  1.41D+00  RLast= 7.39D-02 DXNew= 5.0454D-01 2.2162D-01
 Trust test= 1.10D+00 RLast= 7.39D-02 DXMaxT set to 3.00D-01
 The second derivative matrix:
                          R1        R2        R3        R4        A1
           R1           0.38046
           R2           0.08081   0.49646
           R3          -0.06692  -0.01179   1.02957
           R4          -0.01908  -0.03158   0.02770   0.97006
           A1           0.02169   0.01802  -0.01606  -0.01858   0.17225
           A2           0.01690   0.01995  -0.01761  -0.01848   0.01248
           A3           0.01788   0.00225  -0.00236  -0.00679   0.00384
           A4          -0.03478  -0.02220   0.01997   0.02527  -0.01632
           D1          -0.00018   0.00003  -0.00002   0.00003  -0.00001
           D2          -0.00018  -0.00000   0.00000   0.00005  -0.00003
           D3          -0.00005   0.00002  -0.00002  -0.00000   0.00000
                          A2        A3        A4        D1        D2
           A2           0.26254
           A3           0.00428   0.25044
           A4          -0.01682  -0.00471   0.27153
           D1          -0.00002   0.00001   0.00001   0.01632
           D2          -0.00003   0.00000   0.00003  -0.00000   0.01632
           D3           0.00000   0.00000  -0.00001  -0.00000  -0.00000
                          D3
           D3           0.03859
 ITU=  1  0
 Use linear search instead of GDIIS.
     Eigenvalues ---    0.01632   0.03270   0.16706   0.24619   0.27212
     Eigenvalues ---    0.34414   0.53986   0.96135   1.05257
 RFO step:  Lambda=-2.98935971D-04 EMin= 1.63221675D-02
 Quartic linear search produced a step of  0.11581.
 Iteration  1 RMS(Cart)=  0.01038842 RMS(Int)=  0.00002201
 Iteration  2 RMS(Cart)=  0.00002389 RMS(Int)=  0.00000011
 Iteration  3 RMS(Cart)=  0.00000000 RMS(Int)=  0.00000011
 Variable       Old X    -DE/DX   Delta X   Delta X   Delta X     New X
                                 (Linear)    (Quad)   (Total)
    R1        2.63122   0.01043   0.00392   0.02439   0.02831   2.65953
    R2        1.84721  -0.00025  -0.00393  -0.00176  -0.00569   1.84152
    R3        2.29289  -0.00005   0.00157   0.00041   0.00198   2.29487
    R4        2.31660  -0.00292   0.00075  -0.00322  -0.00247   2.31413
    A1        1.78332   0.00142  -0.00404   0.00866   0.00463   1.78795
    A2        1.98327   0.00173  -0.00223   0.00704   0.00482   1.98808
    A3        2.02490  -0.00010  -0.00168  -0.00095  -0.00262   2.02228
    A4        2.27502  -0.00163   0.00390  -0.00610  -0.00219   2.27282
    D1        3.14100   0.00001   0.00023   0.00062   0.00086  -3.14133
    D2       -0.00064   0.00001   0.00025   0.00067   0.00092   0.00029
    D3        3.14154   0.00000   0.00002   0.00006   0.00008  -3.14157
         Item               Value     Threshold  Converged?
 Maximum Force            0.010435     0.000450     NO 
 RMS     Force            0.003373     0.000300     NO 
 Maximum Displacement     0.016518     0.001800     NO 
 RMS     Displacement     0.010392     0.001200     NO 
 Predicted change in Energy=-1.613545D-04
 GradGradGradGradGradGradGradGradGradGradGradGradGradGradGradGradGradGrad

                          Input orientation:                          
 ---------------------------------------------------------------------
 Center     Atomic      Atomic             Coordinates (Angstroms)
 Number     Number       Type             X           Y           Z
 ---------------------------------------------------------------------
      1          8           0        0.081137   -1.085282   -0.009751
      2          7           0        0.856433    0.089212    0.002667
      3          8           0        2.053987   -0.111715    0.018166
      4          8           0        0.231267    1.142174   -0.003670
      5          1           0       -0.828607   -0.736205   -0.021419
 ---------------------------------------------------------------------
                    Distance matrix (angstroms):
                    1          2          3          4          5
     1  O    0.000000
     2  N    1.407364   0.000000
     3  O    2.200171   1.214393   0.000000
     4  O    2.232518   1.224583   2.212470   0.000000
     5  H    0.974488   1.876500   2.949730   2.156839   0.000000
 Stoichiometry    HNO3
 Framework group  C1[X(HNO3)]
 Deg. of freedom     9
 Full point group                 C1      NOp   1
 Largest Abelian subgroup         C1      NOp   1
 Largest concise Abelian subgroup C1      NOp   1
                         Standard orientation:                         
 ---------------------------------------------------------------------
 Center     Atomic      Atomic             Coordinates (Angstroms)
 Number     Number       Type             X           Y           Z
 ---------------------------------------------------------------------
      1          8           0       -1.110741   -0.598868    0.000030
      2          7           0        0.142383    0.041720   -0.000001
      3          8           0        1.085938   -0.722777   -0.000013
      4          8           0        0.116570    1.266030    0.000010
      5          1           0       -1.730821    0.152881   -0.000216
 ---------------------------------------------------------------------
 Rotational constants (GHZ):          12.7150744          12.0042473           6.1747203
 Standard basis: Aug-CC-pVDZ (5D, 7F)
 There are   109 symmetry adapted cartesian basis functions of A   symmetry.
 There are   101 symmetry adapted basis functions of A   symmetry.
   101 basis functions,   183 primitive gaussians,   109 cartesian basis functions
    16 alpha electrons       16 beta electrons
       nuclear repulsion energy       125.2445903900 Hartrees.
 NAtoms=    5 NActive=    5 NUniq=    5 SFac= 1.00D+00 NAtFMM=   60 NAOKFM=F Big=F
 Integral buffers will be    131072 words long.
 Raffenetti 1 integral format.
 Two-electron integral symmetry is turned on.
 One-electron integrals computed using PRISM.
 NBasis=   101 RedAO= T EigKep=  4.38D-04  NBF=   101
 NBsUse=   101 1.00D-06 EigRej= -1.00D+00 NBFU=   101
 Initial guess from the checkpoint file:  "/scr/Gau-22859.chk"
 B after Tr=    -0.000000   -0.000000    0.000000
         Rot=    0.999708   -0.000000   -0.000000    0.024145 Ang=  -2.77 deg.
 Keep R1 ints in memory in canonical form, NReq=21720153.
 Requested convergence on RMS density matrix=1.00D-08 within 128 cycles.
 Requested convergence on MAX density matrix=1.00D-06.
 Requested convergence on             energy=1.00D-06.
 No special actions if energy rises.
 SCF Done:  E(RHF) =  -279.491862778     A.U. after   12 cycles
            NFock= 12  Conv=0.93D-08     -V/T= 2.0025
 ExpMin= 2.97D-02 ExpMax= 1.17D+04 ExpMxC= 4.01D+02 IAcc=3 IRadAn=         5 AccDes= 0.00D+00
 HarFok:  IExCor=  205 AccDes= 0.00D+00 IRadAn=         5 IDoV=-2 UseB2=F ITyADJ=14
 ICtDFT= 12500011 ScaDFX=  1.000000  1.000000  1.000000  1.000000
 Range of M.O.s used for correlation:     5   101
 NBasis=   101 NAE=    16 NBE=    16 NFC=     4 NFV=     0
 NROrb=     97 NOA=    12 NOB=    12 NVA=    85 NVB=    85

 **** Warning!!: The largest alpha MO coefficient is  0.16917780D+02

 Fully direct method using O(ONN) memory.
 JobTyp=1 Pass  1:  I=   5 to  16 NPSUse= 40 ParTrn=T ParDer=T DoDerP=T.
 Spin components of T(2) and E(2):
     alpha-alpha T2 =       0.3367593134D-01 E2=     -0.1107441177D+00
     alpha-beta  T2 =       0.1709202770D+00 E2=     -0.5714794905D+00
     beta-beta   T2 =       0.3367593134D-01 E2=     -0.1107441177D+00
 ANorm=    0.1112776770D+01
 E2 =    -0.7929677259D+00 EUMP2 =    -0.28028483050355D+03
          IDoAtm=11111
          Differentiating once with respect to electric field.
                with respect to dipole field.
          Differentiating once with respect to nuclear coordinates.
 Keep R1 ints in memory in canonical form, NReq=21722964.
          There are     1 degrees of freedom in the 1st order CPHF.  IDoFFX=0 NUNeed=     1.
 LinEq1:  Iter=  0 NonCon=     1 RMS=8.82D-03 Max=1.89D-01 NDo=     1
 AX will form     1 AO Fock derivatives at one time.
 LinEq1:  Iter=  1 NonCon=     1 RMS=2.81D-03 Max=3.04D-02 NDo=     1
 LinEq1:  Iter=  2 NonCon=     1 RMS=1.09D-03 Max=1.87D-02 NDo=     1
 LinEq1:  Iter=  3 NonCon=     1 RMS=2.28D-04 Max=2.23D-03 NDo=     1
 LinEq1:  Iter=  4 NonCon=     1 RMS=9.58D-05 Max=9.92D-04 NDo=     1
 LinEq1:  Iter=  5 NonCon=     1 RMS=4.01D-05 Max=8.46D-04 NDo=     1
 LinEq1:  Iter=  6 NonCon=     1 RMS=1.37D-05 Max=1.52D-04 NDo=     1
 LinEq1:  Iter=  7 NonCon=     1 RMS=7.22D-06 Max=1.59D-04 NDo=     1
 LinEq1:  Iter=  8 NonCon=     1 RMS=3.11D-06 Max=2.28D-05 NDo=     1
 LinEq1:  Iter=  9 NonCon=     1 RMS=9.69D-07 Max=7.89D-06 NDo=     1
 LinEq1:  Iter= 10 NonCon=     1 RMS=1.57D-07 Max=1.19D-06 NDo=     1
 LinEq1:  Iter= 11 NonCon=     1 RMS=3.22D-08 Max=3.18D-07 NDo=     1
 LinEq1:  Iter= 12 NonCon=     1 RMS=6.43D-09 Max=5.72D-08 NDo=     1
 LinEq1:  Iter= 13 NonCon=     1 RMS=9.11D-10 Max=6.96D-09 NDo=     1
 LinEq1:  Iter= 14 NonCon=     1 RMS=1.43D-10 Max=1.27D-09 NDo=     1
 LinEq1:  Iter= 15 NonCon=     0 RMS=3.09D-11 Max=2.17D-10 NDo=     1
 Linear equations converged to 1.000D-10 1.000D-09 after    15 iterations.
 End of Minotr F.D. properties file   721 does not exist.
 End of Minotr F.D. properties file   722 does not exist.
 End of Minotr F.D. properties file   788 does not exist.
 Calling FoFJK, ICntrl=  10002127 FMM=F ISym2X=0 I1Cent= 0 IOpClX= 0 NMat=1 NMatS=1 NMatT=0.
 ***** Axes restored to original set *****
 -------------------------------------------------------------------
 Center     Atomic                   Forces (Hartrees/Bohr)
 Number     Number              X              Y              Z
 -------------------------------------------------------------------
      1        8           0.001561980   -0.004023044    0.000009021
      2        7           0.003101231    0.005388779    0.000052749
      3        8          -0.003849166   -0.000356512   -0.000050331
      4        8           0.001197005   -0.002390338    0.000009239
      5        1          -0.002011050    0.001381115   -0.000020677
 -------------------------------------------------------------------
 Cartesian Forces:  Max     0.005388779 RMS     0.002385074

 GradGradGradGradGradGradGradGradGradGradGradGradGradGradGradGradGradGrad
 Berny optimization.
 Using GEDIIS/GDIIS optimizer.
 FormGI is forming the generalized inverse of G from B-inverse, IUseBI=4.
 Internal  Forces:  Max     0.003737453 RMS     0.001826850
 Search for a local minimum.
 Step number   3 out of a maximum of   21
 All quantities printed in internal units (Hartrees-Bohrs-Radians)
 Mixed Optimization -- RFO/linear search
 Update second derivatives using D2CorX and points    1    2    3
 DE= -1.79D-04 DEPred=-1.61D-04 R= 1.11D+00
 TightC=F SS=  1.41D+00  RLast= 3.00D-02 DXNew= 5.0454D-01 9.0083D-02
 Trust test= 1.11D+00 RLast= 3.00D-02 DXMaxT set to 3.00D-01
 The second derivative matrix:
                          R1        R2        R3        R4        A1
           R1           0.26920
           R2           0.02348   0.55672
           R3           0.03096  -0.08939   1.12629
           R4           0.06208  -0.06100   0.05792   0.96737
           A1           0.04925  -0.00370   0.01139  -0.01010   0.18056
           A2           0.05177  -0.01027   0.02096  -0.00558   0.02399
           A3           0.00716   0.01484  -0.01874  -0.01333  -0.00073
           A4          -0.05893  -0.00456  -0.00223   0.01891  -0.02326
           D1          -0.00014  -0.00013   0.00019   0.00014   0.00005
           D2          -0.00013  -0.00018   0.00026   0.00018   0.00004
           D3          -0.00004  -0.00001   0.00002   0.00002   0.00001
                          A2        A3        A4        D1        D2
           A2           0.27846
           A3          -0.00206   0.25305
           A4          -0.02640  -0.00099   0.27739
           D1           0.00006  -0.00002  -0.00004   0.01632
           D2           0.00006  -0.00004  -0.00003   0.00000   0.01632
           D3           0.00002  -0.00000  -0.00002  -0.00000   0.00000
                          D3
           D3           0.03859
 ITU=  1  1  0
 Use linear search instead of GDIIS.
     Eigenvalues ---    0.01632   0.03269   0.15598   0.20693   0.25380
     Eigenvalues ---    0.37939   0.54200   0.95427   1.16668
 RFO step:  Lambda=-7.76608197D-05 EMin= 1.63226308D-02
 Quartic linear search produced a step of  0.15105.
 Iteration  1 RMS(Cart)=  0.00353161 RMS(Int)=  0.00001323
 Iteration  2 RMS(Cart)=  0.00001631 RMS(Int)=  0.00000001
 Iteration  3 RMS(Cart)=  0.00000000 RMS(Int)=  0.00000001
 Variable       Old X    -DE/DX   Delta X   Delta X   Delta X     New X
                                 (Linear)    (Quad)   (Total)
    R1        2.65953   0.00245   0.00428   0.00978   0.01405   2.67358
    R2        1.84152   0.00237  -0.00086   0.00348   0.00262   1.84413
    R3        2.29487  -0.00374   0.00030  -0.00339  -0.00309   2.29177
    R4        2.31413  -0.00267  -0.00037  -0.00315  -0.00352   2.31060
    A1        1.78795  -0.00105   0.00070  -0.00874  -0.00804   1.77990
    A2        1.98808  -0.00136   0.00073  -0.00674  -0.00602   1.98207
    A3        2.02228   0.00046  -0.00040   0.00118   0.00078   2.02306
    A4        2.27282   0.00090  -0.00033   0.00557   0.00524   2.27806
    D1       -3.14133  -0.00000   0.00013   0.00004   0.00017  -3.14115
    D2        0.00029  -0.00000   0.00014   0.00005   0.00019   0.00047
    D3       -3.14157  -0.00000   0.00001   0.00000   0.00001  -3.14156
         Item               Value     Threshold  Converged?
 Maximum Force            0.003737     0.000450     NO 
 RMS     Force            0.001827     0.000300     NO 
 Maximum Displacement     0.008745     0.001800     NO 
 RMS     Displacement     0.003535     0.001200     NO 
 Predicted change in Energy=-4.133006D-05
 GradGradGradGradGradGradGradGradGradGradGradGradGradGradGradGradGradGrad

                          Input orientation:                          
 ---------------------------------------------------------------------
 Center     Atomic      Atomic             Coordinates (Angstroms)
 Number     Number       Type             X           Y           Z
 ---------------------------------------------------------------------
      1          8           0        0.080840   -1.089910   -0.009692
      2          7           0        0.857423    0.092640    0.002695
      3          8           0        2.052625   -0.112366    0.018111
      4          8           0        0.231530    1.143001   -0.003644
      5          1           0       -0.828202   -0.735180   -0.021478
 ---------------------------------------------------------------------
                    Distance matrix (angstroms):
                    1          2          3          4          5
     1  O    0.000000
     2  N    1.414800   0.000000
     3  O    2.200978   1.212755   0.000000
     4  O    2.237998   1.222718   2.211969   0.000000
     5  H    0.975874   1.878084   2.947648   2.156598   0.000000
 Stoichiometry    HNO3
 Framework group  C1[X(HNO3)]
 Deg. of freedom     9
 Full point group                 C1      NOp   1
 Largest Abelian subgroup         C1      NOp   1
 Largest concise Abelian subgroup C1      NOp   1
                         Standard orientation:                         
 ---------------------------------------------------------------------
 Center     Atomic      Atomic             Coordinates (Angstroms)
 Number     Number       Type             X           Y           Z
 ---------------------------------------------------------------------
      1          8           0       -1.127742   -0.574475    0.000050
      2          7           0        0.146267    0.040798   -0.000001
      3          8           0        1.066277   -0.749365   -0.000022
      4          8           0        0.149144    1.263512    0.000017
      5          1           0       -1.725306    0.197046   -0.000359
 ---------------------------------------------------------------------
 Rotational constants (GHZ):          12.6956176          11.9795313           6.1635919
 Standard basis: Aug-CC-pVDZ (5D, 7F)
 There are   109 symmetry adapted cartesian basis functions of A   symmetry.
 There are   101 symmetry adapted basis functions of A   symmetry.
   101 basis functions,   183 primitive gaussians,   109 cartesian basis functions
    16 alpha electrons       16 beta electrons
       nuclear repulsion energy       125.1578575652 Hartrees.
 NAtoms=    5 NActive=    5 NUniq=    5 SFac= 1.00D+00 NAtFMM=   60 NAOKFM=F Big=F
 Integral buffers will be    131072 words long.
 Raffenetti 1 integral format.
 Two-electron integral symmetry is turned on.
 One-electron integrals computed using PRISM.
 NBasis=   101 RedAO= T EigKep=  4.41D-04  NBF=   101
 NBsUse=   101 1.00D-06 EigRej= -1.00D+00 NBFU=   101
 Initial guess from the checkpoint file:  "/scr/Gau-22859.chk"
 B after Tr=    -0.000000    0.000000   -0.000000
         Rot=    0.999923   -0.000000    0.000000    0.012409 Ang=  -1.42 deg.
 Keep R1 ints in memory in canonical form, NReq=21720212.
 Requested convergence on RMS density matrix=1.00D-08 within 128 cycles.
 Requested convergence on MAX density matrix=1.00D-06.
 Requested convergence on             energy=1.00D-06.
 No special actions if energy rises.
 SCF Done:  E(RHF) =  -279.491447899     A.U. after   11 cycles
            NFock= 11  Conv=0.32D-08     -V/T= 2.0025
 ExpMin= 2.97D-02 ExpMax= 1.17D+04 ExpMxC= 4.01D+02 IAcc=3 IRadAn=         5 AccDes= 0.00D+00
 HarFok:  IExCor=  205 AccDes= 0.00D+00 IRadAn=         5 IDoV=-2 UseB2=F ITyADJ=14
 ICtDFT= 12500011 ScaDFX=  1.000000  1.000000  1.000000  1.000000
 Range of M.O.s used for correlation:     5   101
 NBasis=   101 NAE=    16 NBE=    16 NFC=     4 NFV=     0
 NROrb=     97 NOA=    12 NOB=    12 NVA=    85 NVB=    85

 **** Warning!!: The largest alpha MO coefficient is  0.16897304D+02

 Fully direct method using O(ONN) memory.
 JobTyp=1 Pass  1:  I=   5 to  16 NPSUse= 40 ParTrn=T ParDer=T DoDerP=T.
 Spin components of T(2) and E(2):
     alpha-alpha T2 =       0.3371775580D-01 E2=     -0.1107994616D+00
     alpha-beta  T2 =       0.1711836060D+00 E2=     -0.5718322149D+00
     beta-beta   T2 =       0.3371775580D-01 E2=     -0.1107994616D+00
 ANorm=    0.1112932665D+01
 E2 =    -0.7934311381D+00 EUMP2 =    -0.28028487903696D+03
          IDoAtm=11111
          Differentiating once with respect to electric field.
                with respect to dipole field.
          Differentiating once with respect to nuclear coordinates.
 Keep R1 ints in memory in canonical form, NReq=21722787.
          There are     1 degrees of freedom in the 1st order CPHF.  IDoFFX=0 NUNeed=     1.
 LinEq1:  Iter=  0 NonCon=     1 RMS=8.84D-03 Max=1.89D-01 NDo=     1
 AX will form     1 AO Fock derivatives at one time.
 LinEq1:  Iter=  1 NonCon=     1 RMS=2.83D-03 Max=3.08D-02 NDo=     1
 LinEq1:  Iter=  2 NonCon=     1 RMS=1.09D-03 Max=1.85D-02 NDo=     1
 LinEq1:  Iter=  3 NonCon=     1 RMS=2.26D-04 Max=2.19D-03 NDo=     1
 LinEq1:  Iter=  4 NonCon=     1 RMS=9.36D-05 Max=9.71D-04 NDo=     1
 LinEq1:  Iter=  5 NonCon=     1 RMS=3.99D-05 Max=8.46D-04 NDo=     1
 LinEq1:  Iter=  6 NonCon=     1 RMS=1.37D-05 Max=1.53D-04 NDo=     1
 LinEq1:  Iter=  7 NonCon=     1 RMS=7.10D-06 Max=1.55D-04 NDo=     1
 LinEq1:  Iter=  8 NonCon=     1 RMS=3.09D-06 Max=2.23D-05 NDo=     1
 LinEq1:  Iter=  9 NonCon=     1 RMS=9.75D-07 Max=8.11D-06 NDo=     1
 LinEq1:  Iter= 10 NonCon=     1 RMS=1.59D-07 Max=1.22D-06 NDo=     1
 LinEq1:  Iter= 11 NonCon=     1 RMS=3.32D-08 Max=3.43D-07 NDo=     1
 LinEq1:  Iter= 12 NonCon=     1 RMS=6.78D-09 Max=6.28D-08 NDo=     1
 LinEq1:  Iter= 13 NonCon=     1 RMS=1.06D-09 Max=1.47D-08 NDo=     1
 LinEq1:  Iter= 14 NonCon=     1 RMS=1.85D-10 Max=2.73D-09 NDo=     1
 LinEq1:  Iter= 15 NonCon=     0 RMS=3.91D-11 Max=4.18D-10 NDo=     1
 Linear equations converged to 1.000D-10 1.000D-09 after    15 iterations.
 End of Minotr F.D. properties file   721 does not exist.
 End of Minotr F.D. properties file   722 does not exist.
 End of Minotr F.D. properties file   788 does not exist.
 Calling FoFJK, ICntrl=  10002127 FMM=F ISym2X=0 I1Cent= 0 IOpClX= 0 NMat=1 NMatS=1 NMatT=0.
 ***** Axes restored to original set *****
 -------------------------------------------------------------------
 Center     Atomic                   Forces (Hartrees/Bohr)
 Number     Number              X              Y              Z
 -------------------------------------------------------------------
      1        8           0.000706901   -0.000275868    0.000001077
      2        7           0.001821155    0.001019239    0.000028761
      3        8          -0.001872013    0.000362514   -0.000021814
      4        8           0.000538175   -0.001330451    0.000001155
      5        1          -0.001194218    0.000224565   -0.000009179
 -------------------------------------------------------------------
 Cartesian Forces:  Max     0.001872013 RMS     0.000898325

 GradGradGradGradGradGradGradGradGradGradGradGradGradGradGradGradGradGrad
 Berny optimization.
 Using GEDIIS/GDIIS optimizer.
 FormGI is forming the generalized inverse of G from B-inverse, IUseBI=4.
 Internal  Forces:  Max     0.001906476 RMS     0.000828402
 Search for a local minimum.
 Step number   4 out of a maximum of   21
 All quantities printed in internal units (Hartrees-Bohrs-Radians)
 Mixed Optimization -- En-DIIS/RFO-DIIS
 Update second derivatives using D2CorX and points    1    2    3    4
 DE= -4.85D-05 DEPred=-4.13D-05 R= 1.17D+00
 TightC=F SS=  1.41D+00  RLast= 1.88D-02 DXNew= 5.0454D-01 5.6549D-02
 Trust test= 1.17D+00 RLast= 1.88D-02 DXMaxT set to 3.00D-01
 The second derivative matrix:
                          R1        R2        R3        R4        A1
           R1           0.26717
           R2          -0.01364   0.50703
           R3           0.09913  -0.02116   1.02800
           R4           0.11087  -0.01078  -0.01832   0.90900
           A1           0.03305   0.00275   0.00341  -0.01594   0.19672
           A2           0.04327   0.00111   0.00585  -0.01748   0.03915
           A3           0.02841   0.00597  -0.00928  -0.00983  -0.00961
           A4          -0.07168  -0.00709   0.00343   0.02730  -0.02954
           D1           0.00003  -0.00007   0.00012   0.00008  -0.00001
           D2           0.00004  -0.00011   0.00018   0.00011  -0.00002
           D3          -0.00001   0.00000   0.00001   0.00001   0.00000
                          A2        A3        A4        D1        D2
           A2           0.29219
           A3          -0.00980   0.25703
           A4          -0.03240   0.00277   0.27963
           D1           0.00000   0.00003  -0.00004   0.01632
           D2           0.00000   0.00003  -0.00003   0.00000   0.01632
           D3           0.00001   0.00001  -0.00001   0.00000   0.00000
                          D3
           D3           0.03859
 ITU=  1  1  1  0
 Use linear search instead of GDIIS.
     Eigenvalues ---    0.01632   0.03273   0.16204   0.18191   0.27668
     Eigenvalues ---    0.38903   0.50619   0.92877   1.04215
 RFO step:  Lambda=-9.75667469D-06 EMin= 1.63234719D-02
 Quartic linear search produced a step of  0.20767.
 Iteration  1 RMS(Cart)=  0.00159625 RMS(Int)=  0.00000117
 Iteration  2 RMS(Cart)=  0.00000132 RMS(Int)=  0.00000001
 Iteration  3 RMS(Cart)=  0.00000000 RMS(Int)=  0.00000001
 Variable       Old X    -DE/DX   Delta X   Delta X   Delta X     New X
                                 (Linear)    (Quad)   (Total)
    R1        2.67358   0.00031   0.00292   0.00060   0.00352   2.67710
    R2        1.84413   0.00119   0.00054   0.00182   0.00236   1.84649
    R3        2.29177  -0.00191  -0.00064  -0.00157  -0.00221   2.28956
    R4        2.31060  -0.00142  -0.00073  -0.00133  -0.00206   2.30854
    A1        1.77990   0.00041  -0.00167   0.00316   0.00149   1.78139
    A2        1.98207   0.00023  -0.00125   0.00136   0.00011   1.98217
    A3        2.02306  -0.00037   0.00016  -0.00216  -0.00199   2.02106
    A4        2.27806   0.00014   0.00109   0.00080   0.00189   2.27995
    D1       -3.14115  -0.00001   0.00004  -0.00034  -0.00031  -3.14146
    D2        0.00047  -0.00001   0.00004  -0.00036  -0.00032   0.00015
    D3       -3.14156  -0.00000   0.00000  -0.00002  -0.00002  -3.14158
         Item               Value     Threshold  Converged?
 Maximum Force            0.001906     0.000450     NO 
 RMS     Force            0.000828     0.000300     NO 
 Maximum Displacement     0.003353     0.001800     NO 
 RMS     Displacement     0.001597     0.001200     NO 
 Predicted change in Energy=-6.318088D-06
 GradGradGradGradGradGradGradGradGradGradGradGradGradGradGradGradGradGrad

                          Input orientation:                          
 ---------------------------------------------------------------------
 Center     Atomic      Atomic             Coordinates (Angstroms)
 Number     Number       Type             X           Y           Z
 ---------------------------------------------------------------------
      1          8           0        0.080556   -1.090064   -0.009820
      2          7           0        0.858837    0.093597    0.002699
      3          8           0        2.052788   -0.111767    0.018177
      4          8           0        0.232012    1.142132   -0.003676
      5          1           0       -0.829976   -0.735713   -0.021387
 ---------------------------------------------------------------------
                    Distance matrix (angstroms):
                    1          2          3          4          5
     1  O    0.000000
     2  N    1.416662   0.000000
     3  O    2.201715   1.211583   0.000000
     4  O    2.237337   1.221628   2.210874   0.000000
     5  H    0.977122   1.881602   2.949781   2.157414   0.000000
 Stoichiometry    HNO3
 Framework group  C1[X(HNO3)]
 Deg. of freedom     9
 Full point group                 C1      NOp   1
 Largest Abelian subgroup         C1      NOp   1
 Largest concise Abelian subgroup C1      NOp   1
                         Standard orientation:                         
 ---------------------------------------------------------------------
 Center     Atomic      Atomic             Coordinates (Angstroms)
 Number     Number       Type             X           Y           Z
 ---------------------------------------------------------------------
      1          8           0       -1.128463   -0.574246    0.000016
      2          7           0        0.147637    0.040979   -0.000002
      3          8           0        1.066311   -0.748939   -0.000006
      4          8           0        0.148897    1.262606    0.000006
      5          1           0       -1.727421    0.197775   -0.000110
 ---------------------------------------------------------------------
 Rotational constants (GHZ):          12.7113160          11.9688779           6.1644649
 Standard basis: Aug-CC-pVDZ (5D, 7F)
 There are   109 symmetry adapted cartesian basis functions of A   symmetry.
 There are   101 symmetry adapted basis functions of A   symmetry.
   101 basis functions,   183 primitive gaussians,   109 cartesian basis functions
    16 alpha electrons       16 beta electrons
       nuclear repulsion energy       125.1714659771 Hartrees.
 NAtoms=    5 NActive=    5 NUniq=    5 SFac= 1.00D+00 NAtFMM=   60 NAOKFM=F Big=F
 Integral buffers will be    131072 words long.
 Raffenetti 1 integral format.
 Two-electron integral symmetry is turned on.
 One-electron integrals computed using PRISM.
 NBasis=   101 RedAO= T EigKep=  4.42D-04  NBF=   101
 NBsUse=   101 1.00D-06 EigRej= -1.00D+00 NBFU=   101
 Initial guess from the checkpoint file:  "/scr/Gau-22859.chk"
 B after Tr=    -0.000000    0.000000    0.000000
         Rot=    1.000000   -0.000000   -0.000000    0.000014 Ang=  -0.00 deg.
 Keep R1 ints in memory in canonical form, NReq=21720212.
 Requested convergence on RMS density matrix=1.00D-08 within 128 cycles.
 Requested convergence on MAX density matrix=1.00D-06.
 Requested convergence on             energy=1.00D-06.
 No special actions if energy rises.
 SCF Done:  E(RHF) =  -279.491519517     A.U. after   10 cycles
            NFock= 10  Conv=0.95D-08     -V/T= 2.0025
 ExpMin= 2.97D-02 ExpMax= 1.17D+04 ExpMxC= 4.01D+02 IAcc=3 IRadAn=         5 AccDes= 0.00D+00
 HarFok:  IExCor=  205 AccDes= 0.00D+00 IRadAn=         5 IDoV=-2 UseB2=F ITyADJ=14
 ICtDFT= 12500011 ScaDFX=  1.000000  1.000000  1.000000  1.000000
 Range of M.O.s used for correlation:     5   101
 NBasis=   101 NAE=    16 NBE=    16 NFC=     4 NFV=     0
 NROrb=     97 NOA=    12 NOB=    12 NVA=    85 NVB=    85

 **** Warning!!: The largest alpha MO coefficient is  0.16877444D+02

 Fully direct method using O(ONN) memory.
 JobTyp=1 Pass  1:  I=   5 to  16 NPSUse= 40 ParTrn=T ParDer=T DoDerP=T.
 Spin components of T(2) and E(2):
     alpha-alpha T2 =       0.3370563092D-01 E2=     -0.1107894994D+00
     alpha-beta  T2 =       0.1711314333D+00 E2=     -0.5717867188D+00
     beta-beta   T2 =       0.3370563092D-01 E2=     -0.1107894994D+00
 ANorm=    0.1112898331D+01
 E2 =    -0.7933657177D+00 EUMP2 =    -0.28028488523514D+03
          IDoAtm=11111
          Differentiating once with respect to electric field.
                with respect to dipole field.
          Differentiating once with respect to nuclear coordinates.
 Keep R1 ints in memory in canonical form, NReq=21722787.
          There are     1 degrees of freedom in the 1st order CPHF.  IDoFFX=0 NUNeed=     1.
 LinEq1:  Iter=  0 NonCon=     1 RMS=8.84D-03 Max=1.88D-01 NDo=     1
 AX will form     1 AO Fock derivatives at one time.
 LinEq1:  Iter=  1 NonCon=     1 RMS=2.83D-03 Max=3.10D-02 NDo=     1
 LinEq1:  Iter=  2 NonCon=     1 RMS=1.09D-03 Max=1.83D-02 NDo=     1
 LinEq1:  Iter=  3 NonCon=     1 RMS=2.25D-04 Max=2.19D-03 NDo=     1
 LinEq1:  Iter=  4 NonCon=     1 RMS=9.29D-05 Max=9.60D-04 NDo=     1
 LinEq1:  Iter=  5 NonCon=     1 RMS=3.98D-05 Max=8.44D-04 NDo=     1
 LinEq1:  Iter=  6 NonCon=     1 RMS=1.37D-05 Max=1.52D-04 NDo=     1
 LinEq1:  Iter=  7 NonCon=     1 RMS=7.04D-06 Max=1.54D-04 NDo=     1
 LinEq1:  Iter=  8 NonCon=     1 RMS=3.07D-06 Max=2.19D-05 NDo=     1
 LinEq1:  Iter=  9 NonCon=     1 RMS=9.73D-07 Max=8.11D-06 NDo=     1
 LinEq1:  Iter= 10 NonCon=     1 RMS=1.60D-07 Max=1.23D-06 NDo=     1
 LinEq1:  Iter= 11 NonCon=     1 RMS=3.36D-08 Max=3.46D-07 NDo=     1
 LinEq1:  Iter= 12 NonCon=     1 RMS=7.01D-09 Max=6.33D-08 NDo=     1
 LinEq1:  Iter= 13 NonCon=     1 RMS=1.13D-09 Max=1.76D-08 NDo=     1
 LinEq1:  Iter= 14 NonCon=     1 RMS=1.97D-10 Max=2.83D-09 NDo=     1
 LinEq1:  Iter= 15 NonCon=     0 RMS=4.05D-11 Max=3.88D-10 NDo=     1
 Linear equations converged to 1.000D-10 1.000D-09 after    15 iterations.
 End of Minotr F.D. properties file   721 does not exist.
 End of Minotr F.D. properties file   722 does not exist.
 End of Minotr F.D. properties file   788 does not exist.
 Calling FoFJK, ICntrl=  10002127 FMM=F ISym2X=0 I1Cent= 0 IOpClX= 0 NMat=1 NMatS=1 NMatT=0.
 ***** Axes restored to original set *****
 -------------------------------------------------------------------
 Center     Atomic                   Forces (Hartrees/Bohr)
 Number     Number              X              Y              Z
 -------------------------------------------------------------------
      1        8           0.000142068    0.000024338   -0.000000810
      2        7           0.000199419   -0.000255938    0.000003932
      3        8          -0.000570345    0.000132993   -0.000006977
      4        8           0.000156806    0.000075652    0.000000813
      5        1           0.000072053    0.000022955    0.000003042
 -------------------------------------------------------------------
 Cartesian Forces:  Max     0.000570345 RMS     0.000183509

 GradGradGradGradGradGradGradGradGradGradGradGradGradGradGradGradGradGrad
 Berny optimization.
 Using GEDIIS/GDIIS optimizer.
 FormGI is forming the generalized inverse of G from B-inverse, IUseBI=4.
 Internal  Forces:  Max     0.000584675 RMS     0.000206249
 Search for a local minimum.
 Step number   5 out of a maximum of   21
 All quantities printed in internal units (Hartrees-Bohrs-Radians)
 Mixed Optimization -- En-DIIS/RFO-DIIS
 Swapping is turned off.
 Update second derivatives using D2CorX and points    1    2    3    4    5
 DE= -6.20D-06 DEPred=-6.32D-06 R= 9.81D-01
 TightC=F SS=  1.41D+00  RLast= 6.09D-03 DXNew= 5.0454D-01 1.8258D-02
 Trust test= 9.81D-01 RLast= 6.09D-03 DXMaxT set to 3.00D-01
 The second derivative matrix:
                          R1        R2        R3        R4        A1
           R1           0.25517
           R2           0.01581   0.51379
           R3           0.10126   0.03127   0.88543
           R4           0.09213  -0.01115  -0.08737   0.90163
           A1           0.04785   0.00724   0.01173  -0.02340   0.20184
           A2           0.05372   0.00596   0.00584  -0.02515   0.04352
           A3           0.00752  -0.00808  -0.00555   0.01222  -0.01864
           A4          -0.06124   0.00212  -0.00029   0.01293  -0.02488
           D1           0.00003   0.00008  -0.00024  -0.00010   0.00001
           D2           0.00007   0.00007  -0.00024  -0.00011   0.00001
           D3           0.00002   0.00007  -0.00010  -0.00008   0.00002
                          A2        A3        A4        D1        D2
           A2           0.29585
           A3          -0.01546   0.27704
           A4          -0.03039  -0.01158   0.29198
           D1           0.00000   0.00005  -0.00006   0.01632
           D2           0.00001   0.00004  -0.00004  -0.00000   0.01632
           D3           0.00001  -0.00001  -0.00000  -0.00000  -0.00000
                          D3
           D3           0.03859
 ITU=  1  1  1  1  0
     Eigenvalues ---    0.01632   0.03275   0.15651   0.19427   0.29365
     Eigenvalues ---    0.39162   0.51219   0.83916   0.98534
 En-DIIS/RFO-DIIS/Sim-DIIS IScMMF=       -3 using points:     5    4
 RFO step:  Lambda=-7.63248287D-07.
 DidBck=F Rises=F RFO-DIIS coefs:    0.90664    0.09336
 Iteration  1 RMS(Cart)=  0.00045917 RMS(Int)=  0.00000012
 Iteration  2 RMS(Cart)=  0.00000011 RMS(Int)=  0.00000000
 Variable       Old X    -DE/DX   Delta X   Delta X   Delta X     New X
                                 (Linear)    (Quad)   (Total)
    R1        2.67710  -0.00016  -0.00033  -0.00013  -0.00045   2.67665
    R2        1.84649  -0.00006  -0.00022   0.00018  -0.00004   1.84645
    R3        2.28956  -0.00058   0.00021  -0.00081  -0.00060   2.28896
    R4        2.30854  -0.00002   0.00019  -0.00024  -0.00004   2.30850
    A1        1.78139  -0.00009  -0.00014  -0.00013  -0.00026   1.78112
    A2        1.98217  -0.00008  -0.00001  -0.00016  -0.00017   1.98201
    A3        2.02106   0.00024   0.00019   0.00063   0.00082   2.02188
    A4        2.27995  -0.00016  -0.00018  -0.00047  -0.00065   2.27930
    D1       -3.14146  -0.00000   0.00003  -0.00014  -0.00012  -3.14157
    D2        0.00015  -0.00000   0.00003  -0.00016  -0.00013   0.00001
    D3       -3.14158  -0.00000   0.00000  -0.00002  -0.00002   3.14159
         Item               Value     Threshold  Converged?
 Maximum Force            0.000585     0.000450     NO 
 RMS     Force            0.000206     0.000300     YES
 Maximum Displacement     0.001011     0.001800     YES
 RMS     Displacement     0.000459     0.001200     YES
 Predicted change in Energy=-3.816248D-07
 GradGradGradGradGradGradGradGradGradGradGradGradGradGradGradGradGradGrad

                          Input orientation:                          
 ---------------------------------------------------------------------
 Center     Atomic      Atomic             Coordinates (Angstroms)
 Number     Number       Type             X           Y           Z
 ---------------------------------------------------------------------
      1          8           0        0.080740   -1.090156   -0.009867
      2          7           0        0.858600    0.093493    0.002693
      3          8           0        2.052253   -0.111726    0.018194
      4          8           0        0.232388    1.142367   -0.003686
      5          1           0       -0.829765   -0.735794   -0.021339
 ---------------------------------------------------------------------
                    Distance matrix (angstroms):
                    1          2          3          4          5
     1  O    0.000000
     2  N    1.416422   0.000000
     3  O    2.201131   1.211265   0.000000
     4  O    2.237676   1.221605   2.210235   0.000000
     5  H    0.977099   1.881189   2.949076   2.157770   0.000000
 Stoichiometry    HNO3
 Framework group  C1[X(HNO3)]
 Deg. of freedom     9
 Full point group                 C1      NOp   1
 Largest Abelian subgroup         C1      NOp   1
 Largest concise Abelian subgroup C1      NOp   1
                         Standard orientation:                         
 ---------------------------------------------------------------------
 Center     Atomic      Atomic             Coordinates (Angstroms)
 Number     Number       Type             X           Y           Z
 ---------------------------------------------------------------------
      1          8           0       -1.130718   -0.569742    0.000002
      2          7           0        0.147573    0.040358    0.000001
      3          8           0        1.062762   -0.753110   -0.000001
      4          8           0        0.154632    1.261943    0.000000
      5          1           0       -1.726418    0.204767   -0.000014
 ---------------------------------------------------------------------
 Rotational constants (GHZ):          12.7146663          11.9721817           6.1661292
 Standard basis: Aug-CC-pVDZ (5D, 7F)
 There are   109 symmetry adapted cartesian basis functions of A   symmetry.
 There are   101 symmetry adapted basis functions of A   symmetry.
   101 basis functions,   183 primitive gaussians,   109 cartesian basis functions
    16 alpha electrons       16 beta electrons
       nuclear repulsion energy       125.1886578130 Hartrees.
 NAtoms=    5 NActive=    5 NUniq=    5 SFac= 1.00D+00 NAtFMM=   60 NAOKFM=F Big=F
 Integral buffers will be    131072 words long.
 Raffenetti 1 integral format.
 Two-electron integral symmetry is turned on.
 One-electron integrals computed using PRISM.
 NBasis=   101 RedAO= T EigKep=  4.41D-04  NBF=   101
 NBsUse=   101 1.00D-06 EigRej= -1.00D+00 NBFU=   101
 Initial guess from the checkpoint file:  "/scr/Gau-22859.chk"
 B after Tr=    -0.000000    0.000000   -0.000000
         Rot=    0.999998   -0.000000   -0.000000    0.002110 Ang=   0.24 deg.
 Keep R1 ints in memory in canonical form, NReq=21720212.
 Requested convergence on RMS density matrix=1.00D-08 within 128 cycles.
 Requested convergence on MAX density matrix=1.00D-06.
 Requested convergence on             energy=1.00D-06.
 No special actions if energy rises.
 SCF Done:  E(RHF) =  -279.491599495     A.U. after    9 cycles
            NFock=  9  Conv=0.67D-08     -V/T= 2.0025
 ExpMin= 2.97D-02 ExpMax= 1.17D+04 ExpMxC= 4.01D+02 IAcc=3 IRadAn=         5 AccDes= 0.00D+00
 HarFok:  IExCor=  205 AccDes= 0.00D+00 IRadAn=         5 IDoV=-2 UseB2=F ITyADJ=14
 ICtDFT= 12500011 ScaDFX=  1.000000  1.000000  1.000000  1.000000
 Range of M.O.s used for correlation:     5   101
 NBasis=   101 NAE=    16 NBE=    16 NFC=     4 NFV=     0
 NROrb=     97 NOA=    12 NOB=    12 NVA=    85 NVB=    85

 **** Warning!!: The largest alpha MO coefficient is  0.16882904D+02

 Fully direct method using O(ONN) memory.
 JobTyp=1 Pass  1:  I=   5 to  16 NPSUse= 40 ParTrn=T ParDer=T DoDerP=T.
 Spin components of T(2) and E(2):
     alpha-alpha T2 =       0.3369575677D-01 E2=     -0.1107788760D+00
     alpha-beta  T2 =       0.1710806054D+00 E2=     -0.5717283500D+00
     beta-beta   T2 =       0.3369575677D-01 E2=     -0.1107788760D+00
 ANorm=    0.1112866622D+01
 E2 =    -0.7932861021D+00 EUMP2 =    -0.28028488559700D+03
          IDoAtm=11111
          Differentiating once with respect to electric field.
                with respect to dipole field.
          Differentiating once with respect to nuclear coordinates.
 Keep R1 ints in memory in canonical form, NReq=21722787.
          There are     1 degrees of freedom in the 1st order CPHF.  IDoFFX=0 NUNeed=     1.
 LinEq1:  Iter=  0 NonCon=     1 RMS=8.84D-03 Max=1.88D-01 NDo=     1
 AX will form     1 AO Fock derivatives at one time.
 LinEq1:  Iter=  1 NonCon=     1 RMS=2.82D-03 Max=3.10D-02 NDo=     1
 LinEq1:  Iter=  2 NonCon=     1 RMS=1.09D-03 Max=1.83D-02 NDo=     1
 LinEq1:  Iter=  3 NonCon=     1 RMS=2.25D-04 Max=2.20D-03 NDo=     1
 LinEq1:  Iter=  4 NonCon=     1 RMS=9.27D-05 Max=9.60D-04 NDo=     1
 LinEq1:  Iter=  5 NonCon=     1 RMS=3.97D-05 Max=8.43D-04 NDo=     1
 LinEq1:  Iter=  6 NonCon=     1 RMS=1.37D-05 Max=1.51D-04 NDo=     1
 LinEq1:  Iter=  7 NonCon=     1 RMS=7.01D-06 Max=1.53D-04 NDo=     1
 LinEq1:  Iter=  8 NonCon=     1 RMS=3.06D-06 Max=2.17D-05 NDo=     1
 LinEq1:  Iter=  9 NonCon=     1 RMS=9.72D-07 Max=8.06D-06 NDo=     1
 LinEq1:  Iter= 10 NonCon=     1 RMS=1.59D-07 Max=1.22D-06 NDo=     1
 LinEq1:  Iter= 11 NonCon=     1 RMS=3.36D-08 Max=3.45D-07 NDo=     1
 LinEq1:  Iter= 12 NonCon=     1 RMS=7.00D-09 Max=6.30D-08 NDo=     1
 LinEq1:  Iter= 13 NonCon=     1 RMS=1.13D-09 Max=1.76D-08 NDo=     1
 LinEq1:  Iter= 14 NonCon=     1 RMS=1.96D-10 Max=2.82D-09 NDo=     1
 LinEq1:  Iter= 15 NonCon=     0 RMS=4.05D-11 Max=3.86D-10 NDo=     1
 Linear equations converged to 1.000D-10 1.000D-09 after    15 iterations.
 End of Minotr F.D. properties file   721 does not exist.
 End of Minotr F.D. properties file   722 does not exist.
 End of Minotr F.D. properties file   788 does not exist.
 Calling FoFJK, ICntrl=  10002127 FMM=F ISym2X=0 I1Cent= 0 IOpClX= 0 NMat=1 NMatS=1 NMatT=0.
 ***** Axes restored to original set *****
 -------------------------------------------------------------------
 Center     Atomic                   Forces (Hartrees/Bohr)
 Number     Number              X              Y              Z
 -------------------------------------------------------------------
      1        8          -0.000026898    0.000085462   -0.000000309
      2        7           0.000083092   -0.000062264    0.000000308
      3        8          -0.000009551   -0.000007704    0.000000235
      4        8          -0.000062153    0.000004936   -0.000000661
      5        1           0.000015510   -0.000020430    0.000000428
 -------------------------------------------------------------------
 Cartesian Forces:  Max     0.000085462 RMS     0.000039585

 GradGradGradGradGradGradGradGradGradGradGradGradGradGradGradGradGradGrad
 Berny optimization.
 Using GEDIIS/GDIIS optimizer.
 FormGI is forming the generalized inverse of G from B-inverse, IUseBI=4.
 Internal  Forces:  Max     0.000071218 RMS     0.000033850
 Search for a local minimum.
 Step number   6 out of a maximum of   21
 All quantities printed in internal units (Hartrees-Bohrs-Radians)
 Mixed Optimization -- En-DIIS/RFO-DIIS
 Swapping is turned off.
 Update second derivatives using D2CorX and points    1    2    3    4    5
                                                      6
 DE= -3.62D-07 DEPred=-3.82D-07 R= 9.48D-01
 Trust test= 9.48D-01 RLast= 1.34D-03 DXMaxT set to 3.00D-01
 The second derivative matrix:
                          R1        R2        R3        R4        A1
           R1           0.25125
           R2           0.00384   0.52639
           R3           0.05505   0.01574   0.82244
           R4           0.09257  -0.01812  -0.06679   0.91178
           A1           0.04172   0.00671   0.02423  -0.01840   0.20785
           A2           0.04862   0.00412   0.01848  -0.01949   0.04925
           A3           0.02037  -0.00257  -0.04205  -0.00471  -0.03299
           A4          -0.06899  -0.00156   0.02357   0.02420  -0.01626
           D1          -0.00012   0.00005  -0.00079  -0.00012  -0.00001
           D2          -0.00008   0.00001  -0.00039  -0.00003   0.00006
           D3          -0.00002   0.00005   0.00003  -0.00001   0.00007
                          A2        A3        A4        D1        D2
           A2           0.30147
           A3          -0.02967   0.31642
           A4          -0.02180  -0.03675   0.30855
           D1          -0.00002   0.00012  -0.00010   0.01632
           D2           0.00006  -0.00010   0.00005  -0.00000   0.01632
           D3           0.00006  -0.00014   0.00008  -0.00000   0.00000
                          D3
           D3           0.03859
 ITU=  0  1  1  1  1  0
     Eigenvalues ---    0.01632   0.03274   0.16052   0.19380   0.35532
     Eigenvalues ---    0.39838   0.52534   0.80716   0.95563
 En-DIIS/RFO-DIIS/Sim-DIIS IScMMF=       -3 using points:     6    5    4
 RFO step:  Lambda=-3.21941661D-08.
 DidBck=F Rises=F RFO-DIIS coefs:    0.88515    0.09926    0.01559
 Iteration  1 RMS(Cart)=  0.00010646 RMS(Int)=  0.00000001
 Iteration  2 RMS(Cart)=  0.00000001 RMS(Int)=  0.00000000
 Variable       Old X    -DE/DX   Delta X   Delta X   Delta X     New X
                                 (Linear)    (Quad)   (Total)
    R1        2.67665  -0.00005  -0.00000  -0.00021  -0.00021   2.67644
    R2        1.84645  -0.00002  -0.00003  -0.00001  -0.00004   1.84641
    R3        2.28896  -0.00001   0.00010  -0.00011  -0.00001   2.28895
    R4        2.30850   0.00004   0.00004   0.00002   0.00006   2.30856
    A1        1.78112   0.00002   0.00001   0.00012   0.00013   1.78125
    A2        1.98201   0.00003   0.00002   0.00007   0.00009   1.98210
    A3        2.02188  -0.00007  -0.00006  -0.00012  -0.00018   2.02170
    A4        2.27930   0.00005   0.00005   0.00005   0.00009   2.27939
    D1       -3.14157  -0.00000   0.00002  -0.00004  -0.00002   3.14159
    D2        0.00001  -0.00000   0.00002  -0.00003  -0.00001   0.00000
    D3        3.14159   0.00000   0.00000   0.00001   0.00001  -3.14159
         Item               Value     Threshold  Converged?
 Maximum Force            0.000071     0.000450     YES
 RMS     Force            0.000034     0.000300     YES
 Maximum Displacement     0.000198     0.001800     YES
 RMS     Displacement     0.000106     0.001200     YES
 Predicted change in Energy=-1.781278D-08
 Optimization completed.
    -- Stationary point found.
                           ----------------------------
                           !   Optimized Parameters   !
                           ! (Angstroms and Degrees)  !
 --------------------------                            --------------------------
 ! Name  Definition              Value          Derivative Info.                !
 --------------------------------------------------------------------------------
 ! R1    R(1,2)                  1.4164         -DE/DX =    0.0                 !
 ! R2    R(1,5)                  0.9771         -DE/DX =    0.0                 !
 ! R3    R(2,3)                  1.2113         -DE/DX =    0.0                 !
 ! R4    R(2,4)                  1.2216         -DE/DX =    0.0                 !
 ! A1    A(2,1,5)              102.0509         -DE/DX =    0.0                 !
 ! A2    A(1,2,3)              113.5606         -DE/DX =    0.0                 !
 ! A3    A(1,2,4)              115.8452         -DE/DX =   -0.0001              !
 ! A4    A(3,2,4)              130.5942         -DE/DX =    0.0                 !
 ! D1    D(5,1,2,3)            180.001          -DE/DX =    0.0                 !
 ! D2    D(5,1,2,4)              0.0009         -DE/DX =    0.0                 !
 ! D3    D(1,2,3,4)           -180.0002         -DE/DX =    0.0                 !
 --------------------------------------------------------------------------------
 GradGradGradGradGradGradGradGradGradGradGradGradGradGradGradGradGradGrad

                          Input orientation:                          
 ---------------------------------------------------------------------
 Center     Atomic      Atomic             Coordinates (Angstroms)
 Number     Number       Type             X           Y           Z
 ---------------------------------------------------------------------
      1          8           0        0.080740   -1.090156   -0.009867
      2          7           0        0.858600    0.093493    0.002693
      3          8           0        2.052253   -0.111726    0.018194
      4          8           0        0.232388    1.142367   -0.003686
      5          1           0       -0.829765   -0.735794   -0.021339
 ---------------------------------------------------------------------
                    Distance matrix (angstroms):
                    1          2          3          4          5
     1  O    0.000000
     2  N    1.416422   0.000000
     3  O    2.201131   1.211265   0.000000
     4  O    2.237676   1.221605   2.210235   0.000000
     5  H    0.977099   1.881189   2.949076   2.157770   0.000000
 Stoichiometry    HNO3
 Framework group  C1[X(HNO3)]
 Deg. of freedom     9
 Full point group                 C1      NOp   1
 Largest Abelian subgroup         C1      NOp   1
[...]
 76334,-0.00014251,0.01223321,-0.00388696,0.01384843,0.00003136,-0.0242
 4832,-0.01007189,-0.00040610,0.03760887,-0.03233700,0.00061273,-0.0092
 8192,-0.00430925,-0.00033550,-0.00004995,-0.00306356,0.08484942,0.0001
 0836,-0.02142022,0.01596212,-0.00023111,0.02956907,-0.10018840,-0.0000
 0251,0.00019167,-0.00430211,-0.00039306,0.00001513,0.00485295,0.000633
 10,-0.00037642,-0.01295969,-0.00021756,0.00018583,0.01120895,0.0088607
 5,0.02118974,0.00012835,0.01199868,0.00243603,0.00017725,-0.00279228,-
 0.00054800,-0.00002704,-0.00019167,-0.00077604,-0.00001998,-0.01787548
 ,0.01111427,-0.01200283,0.00012132,0.01610965,0.00088817,0.00021802,-0
 .00391357,0.00029375,-0.00004995,-0.00100862,-0.00028764,-0.00001622,-
 0.02230173,0.01110855,0.00010973,0.00025565,0.00222813,0.00020267,0.00
 003588,-0.00096500,-0.00003338,-0.00000522,-0.00083693,-0.00002043,-0.
 00001314,0.00119990,-0.00025858,-0.00027317,-0.00162610,-0.00720691,-0
 .05260906,-0.07527510,-0.00010807,-0.00082848,-0.00644814,0.06278928,0
 .07305379,0.00108466,0.46343691,0.07584029,0.11314830,0.00123623,-0.41
 839698,0.19131420,0.00108966,0.00119916,-0.00844484,0.00611803,-0.0051
 0926,-0.05489813,-0.03010724,-0.01894281,-0.00050435,-0.41395079,0.106
 35903,-0.00572544,0.47432720,-0.01115612,-0.00275006,-0.00016320,0.106
 88620,-0.00028445,0.00136361,-0.12310715,0.00703207,-0.00048969,-0.000
 26684,0.00512274,-0.00572456,0.00135652,0.03115747,0.00670422,-0.00153
 790,-0.04665576,0.00187585,-0.00060825,-0.00005799,-0.12540295,0.22806
 201,-0.00172678,-0.02827981,0.02969087,-0.00044969,0.14998968,-0.00963
 577,-0.03969805,-0.00021367,0.22486317,-0.30888416,0.00234916,0.041077
 99,-0.00210156,0.00052471,-0.25548673,0.35187439,-0.00007481,-0.000093
 61,0.00614562,-0.00173280,0.00239179,0.03627438,-0.00042843,0.00037315
 ,0.00966422,0.00223312,-0.00264426,-0.05356805,-0.02735098,-0.00089367
 ,-0.00041426,0.01312754,0.00813565,0.00024453,-0.00198936,-0.00231380,
 -0.00004027,0.00181723,-0.00081867,0.00000292,0.01439557,-0.00243935,0
 .00457491,-0.00003089,0.01359382,0.00470611,0.00019734,-0.00538706,-0.
 00189600,-0.00007650,-0.00165791,-0.00119061,-0.00002706,-0.00410951,-
 0.00619442,-0.00041709,-0.00001023,0.00362461,0.00025467,0.00012472,-0
 .00408888,-0.00004600,-0.00003566,0.00071132,0.00000134,-0.00001594,0.
 00148383,0.00020709,-0.00006289,-0.00173088,-0.19748821,-0.12454839,0.
 05810089,-0.00351879,-0.00164305,0.04923324,0.00512923,0.00476221,0.00
 044008,0.21058075,0.01434325,0.03083699,0.00029875,0.05140954,-0.12008
 604,0.00045821,0.00017131,-0.02724259,0.00300717,0.00047578,-0.0081067
 9,-0.00375665,-0.00444348,-0.00017976,-0.17367547,0.00540126,-0.002545
 62,0.19227248,-0.00728198,0.00584187,-0.00010297,0.02307402,0.01118137
 ,0.00029365,-0.01718913,-0.00943090,-0.00018539,-0.00006540,0.00914794
 ,-0.00251288,0.00005873,0.01834398,0.00288267,-0.00019650,-0.02671643,
 0.00009329,0.00218315,0.00003601,0.01941191,-0.05653141,0.00027525,-0.
 00598837,0.00664180,-0.00006957,-0.01440212,-0.00838990,0.02447099,-0.
 00006200,-0.05534737,0.07503265,-0.00057957,0.01384492,-0.00321242,0.0
 0017783,0.04468640,-0.08278821,0.00001627,0.00007913,-0.00230848,0.000
 27778,-0.00059573,-0.00919135,-0.00005638,0.00008213,0.00017926,-0.000
 29714,0.00041415,0.01416770,0.19602233,0.12204651,0.00322246,-0.061446
 42,-0.01462263,-0.00119501,-0.00885200,-0.00524472,-0.00011483,0.00088
 529,0.00520595,0.00005946,-0.12660921,0.12587702,-0.11925073,0.0015092
 8,-0.02389839,0.00303502,-0.00036118,0.00238642,-0.00437992,0.00002534
 ,0.00302006,-0.01350301,0.00002032,-0.10738512,0.13409865,0.00322970,0
 .00145802,-0.02883011,-0.00121215,-0.00023753,0.02619675,-0.00010091,-
 0.00007632,-0.00095475,0.00005545,0.00004959,-0.00284713,-0.00197209,-
 0.00119376,0.00643524,0.05792124,0.01814581,-0.00910334,0.00104749,0.0
 0025843,-0.01815346,0.01772803,0.01632074,0.00014505,0.45653255,0.0155
 9309,-0.03016825,0.00013458,0.17507215,-0.48442324,0.00014368,0.000144
 17,0.00911494,0.00637643,0.00142354,0.00189067,-0.00868448,-0.01570700
 ,-0.00013278,-0.63070218,0.09745176,-0.00920712,0.64982859,-0.01175587
 ,0.01013690,-0.00013594,0.11460085,0.04107621,0.00146195,-0.10773533,-
 0.04261359,-0.00012528,-0.00018842,-0.00092185,-0.00917519,0.00123377,
 0.07475076,0.00946793,-0.00136986,-0.07665446,-0.00829861,0.00100654,-
 0.00010007,0.13218882,-0.29528866,0.00219437,-0.01245991,0.00360784,-0
 .00017104,-0.10823123,0.00163709,0.00657035,0.00003531,-0.31829961,0.4
 6205660,-0.00323672,0.02455169,-0.00540573,0.00031490,0.29069512,-0.46
 547956,-0.00009886,0.00002679,-0.00064071,0.00215152,-0.00293052,-0.07
 403173,-0.00013208,0.00003626,0.00089922,-0.00187920,0.00286372,0.0736
 6666,-0.05866619,-0.01976608,-0.00095969,0.02425277,0.00717166,0.00049
 265,0.00201797,0.00128251,0.00000358,-0.00319908,0.00141571,-0.0000413
 8,0.03559453,-0.02362011,0.02256434,-0.00029238,0.01230587,0.01145867,
 0.00020706,0.00143888,-0.00319380,0.00000960,-0.00002084,0.00225833,0.
 00000375,0.00989620,-0.03308754,-0.00096703,-0.00024097,0.01060108,0.0
 0050219,0.00013862,-0.01172464,0.00000405,0.00000760,0.00192633,-0.000
 04405,0.00002278,0.00010655,0.00050484,0.00007197,-0.00090933,1.615245
 65,-0.74136639,0.05338171,0.02358808,-0.00929722,-0.25835353,-0.020720
 67,0.03759378,-0.00017299,0.02560622,-0.00643978,0.01986243,-0.0000442
 9,0.00352090,0.01154218,-0.00025475,0.00054241,-0.00249009,0.00027738,
 0.00005883,0.00528183,0.00316224,0.01301053,0.00008756,0.00783349,-0.0
 0103855,0.00016288,-0.00744662,-0.00377975,0.00436809,-0.00003925,0.00
 316607,-0.00993731,0.00003208,0.00085602,0.00777275,0.00005648,0.00018
 430,-0.00160883,0.00017065,-0.00002398,-0.00454521,-0.00015072,0.00001
 844,0.00400046,-0.00478204,-0.00093615,-0.00006398,-0.00254579,0.00954
 089,0.00000320,0.00084835,-0.00185470,-0.00000528,0.00491448,-0.005417
 40,0.00000140,-0.00007194,0.00661244,-0.00859445,0.00007461,-0.0053761
 8,0.00158827,-0.00007040,-0.00646267,-0.00043995,-0.00007237,-0.000012
 33,-0.00010891,-0.00000228,0.00011378,-0.00144727,-0.00001185,-0.00002
 359,0.00098215,0.00003043,-0.00009008,0.00172591,-1.59290518,0.6916982
 3,-0.02343867,-0.01017326,-0.00558346,-0.00018872,-0.00439747,0.001612
 37,-0.00007112,0.00156500,0.01064381,0.00005607,1.60591090,0.75700332,
 -0.07761363,0.00945269,-0.05089317,-0.01287285,-0.00070793,-0.00745182
 ,-0.00379181,-0.00010836,-0.00028738,0.00744474,0.00001221,-0.69837095
 ,0.08683355,-0.02331744,0.00858283,0.26256135,-0.00027277,-0.00010434,
 0.00320073,-0.00008787,0.00001232,0.00117143,0.00003563,0.00015780,-0.
 00115187,0.02364244,-0.00864862,-0.26578164,-1.15461937,0.52821738,-0.
 09933596,-0.02030392,0.00603101,0.44277678,0.03005838,-0.04094825,0.00
 065592,-0.02675028,-0.00641735,0.00747381,-0.00002626,0.00535412,-0.00
 781706,0.00071966,-0.00048432,-0.02489398,-0.00051846,0.00002352,0.013
 56726,0.01106745,-0.01915458,-0.00001434,-0.00849539,0.00652923,-0.000
 16614,0.00077130,0.00703869,-0.00787569,0.00006134,-0.00556215,0.00553
 046,-0.00007018,0.00168411,-0.00434314,0.00003448,-0.00028750,0.009528
 58,-0.00018759,0.00009302,0.00456869,0.00010982,0.00002489,-0.00703106
 ,-0.00039979,-0.00048428,0.00002253,0.00019141,0.00169597,0.00000247,0
 .00279000,0.00016714,0.00003918,0.00095471,-0.00157887,0.00274191,-0.0
 0001157,0.00908031,0.00462932,0.00013545,-0.00191381,-0.00007995,-0.00
 002731,0.00156470,-0.00235644,0.00002022,0.00000194,-0.00214375,0.0000
 1370,0.00003507,0.00000952,0.00003798,0.00000310,-0.00020593,0.0000437
 4,0.00001582,-0.00182854,1.11389330,-0.46763028,0.01963981,0.00499590,
 -0.00716197,-0.00003754,-0.00613336,-0.00332779,0.00000411,-0.00353632
 ,-0.00715232,-0.00011564,-1.10921952,-0.52725986,0.09699592,-0.0060545
 2,0.03207596,-0.00981652,0.00039552,0.01285504,0.00676832,0.00019690,-
 0.00294352,-0.00493485,-0.00005594,0.48527237,-0.08901286,0.01952956,-
 0.00526113,-0.42526765,0.00003643,-0.00012535,0.00674852,0.00003268,-0
 .00001916,-0.00686027,-0.00010792,-0.00011239,0.00416872,-0.01949075,0
 .00551803,0.42121069,-0.09437798,0.05766850,0.01796040,-0.00124948,0.0
 0078820,0.00736134,0.00687165,0.00153129,0.00006952,-0.02741453,0.0060
 0914,0.00524373,0.00008569,0.00096874,-0.02154971,0.00007757,0.0000279
 0,0.00186376,-0.00032748,-0.00003181,-0.00198151,-0.00584680,-0.007235
 73,-0.00010145,0.02167780,0.00092033,0.00028487,-0.01751851,-0.0034232
 4,-0.00257240,-0.00005214,-0.00259992,-0.00203005,-0.00003653,0.009226
 62,0.00475212,-0.00009362,-0.00010281,0.00077266,0.00027943,0.00001272
 ,0.00006135,-0.00020898,0.00012979,-0.00029000,0.00377975,-0.00426684,
 0.00001248,0.00056565,-0.00890206,-0.00001644,0.00170469,-0.00242671,0
 .00002920,-0.00516183,-0.00315412,-0.01298154,-0.00007003,-0.00812923,
 0.01113039,-0.00008208,-0.00342033,0.00004533,-0.00004590,0.01553121,0
 .00713583,0.00001429,-0.00008584,0.00225898,-0.00001744,-0.00009473,0.
 00030537,0.00002991,-0.00002980,-0.00089802,-0.00001514,0.00021895,-0.
 00157123,0.08957336,-0.04769724,0.00126894,-0.00170057,0.00100385,-0.0
 0001852,-0.00001720,-0.00077676,-0.00000603,-0.00088827,-0.00082753,-0
 .00001163,-0.08696732,-0.05710030,-0.00765019,-0.00075171,0.00822912,0
 .00720565,0.00012251,0.00050910,-0.00019503,0.00000620,0.00006440,-0.0
 0533001,-0.00000858,0.04829767,0.00596958,0.00125124,-0.00062745,-0.01
 225677,-0.00000403,0.00002813,-0.00024897,-0.00000435,-0.00001132,0.00
 035400,-0.00001010,-0.00002095,-0.00009509,-0.00123275,0.00063158,0.01
 224683,0.02531115,0.05548659,0.07840834,0.00058813,0.00090650,-0.01114
 499,-0.02483302,-0.05345500,-0.00054800,0.00144241,-0.05194670,-0.0715
 6861,-0.00084194,0.07291331,0.06181264,-0.00054553,-0.00085999,0.00884
 031,0.00025111,0.00108960,-0.00650704,-0.00985503,0.00142929,-0.000158
 85,0.01414333,-0.01824291,0.00017231,0.00433042,-0.00362105,-0.0007665
 9,-0.00005425,-0.00376801,0.00586009,-0.00003410,0.00636380,-0.0025019
 3,-0.00016743,0.00001301,0.00228442,0.00020041,-0.00022435,-0.00170076
 ,0.00010256,0.00008185,-0.00224722,0.00045113,0.00054467,-0.00001825,0
 .01141735,-0.00211829,0.00015801,-0.00828617,0.00131510,-0.00012605,-0
 .00348498,0.00621336,-0.00564765,0.00006897,-0.01600004,0.00405689,-0.
 00019755,0.00924982,-0.00380888,0.00011144,0.00027263,0.00587677,-0.00
 000796,-0.00000746,0.00191087,0.00012971,-0.00001514,-0.00099674,-0.00
 010868,0.00000871,0.00129907,-0.00001398,0.00001450,-0.00211982,0.0089
 2575,-0.00400557,0.00013697,-0.00217006,-0.00060541,-0.00003589,-0.000
 33256,-0.00028984,-0.00000948,-0.00009734,0.00026425,0.00000091,-0.006
 32579,-0.00613222,-0.00042549,-0.00007928,0.00030975,-0.00016100,0.000
 00204,0.00120000,0.00121730,0.00001805,-0.00001410,-0.00047715,-0.0000
 0061,0.00463657,-0.00015365,0.00013280,-0.00005207,-0.00189062,-0.0000
 3322,-0.00000816,0.00036424,-0.00000733,-0.00000221,0.00036449,0.00000
 026,0.00000263,-0.00009338,-0.00009251,0.00005980,0.00125528,-0.007818
 04,-0.00440160,-0.01396911,-0.00008166,-0.00007954,-0.00234114,0.01273
 371,0.00163108,0.00001714,-0.15381649,0.00473423,0.01621578,0.00007088
 ,0.05007818,-0.09501447,0.00002253,0.00003155,0.01167517,-0.00194745,0
 .00048075,0.00020546,-0.00250177,-0.00196842,0.00001939,0.11180926,-0.
 01153544,0.00153639,-0.10673168,0.00147318,-0.00103696,0.00002519,-0.0
 1892403,0.00394885,-0.00023204,0.01732992,-0.00094647,0.00002666,-0.00
 002057,-0.00422902,0.00152359,-0.00013132,-0.00558737,-0.00162614,0.00
 019264,0.01811813,-0.00162513,0.00274727,0.00004664,0.02547628,-0.0431
 5645,0.00033428,-0.00124084,-0.00017760,0.00008518,-0.02225465,-0.0012
 2691,-0.00392419,-0.00001444,-0.03732058,0.07711579,-0.00033603,-0.003
 12723,-0.00247407,-0.00003396,0.04189703,-0.07174743,0.00003890,0.0000
 3742,-0.00472890,0.00034281,-0.00041600,-0.00592467,0.00008222,0.00000
 817,-0.00773422,-0.00045581,0.00038612,0.01812989,-0.00078877,0.001991
 66,-0.00000152,0.00379724,-0.00012052,0.00005425,-0.00133496,0.0002985
 4,-0.00000929,-0.00035568,-0.00022229,-0.00000812,-0.00131783,-0.00057
 890,0.00271448,-0.00000209,0.00453535,-0.00226596,0.00005577,-0.000698
 82,0.00050865,-0.00000680,-0.00131023,0.00102988,-0.00001572,-0.001947
 40,-0.00198706,-0.00000643,0.00003113,-0.00037615,0.00006391,-0.000004
 31,-0.00036858,-0.00001185,0.00000605,-0.00056753,-0.00001030,-0.00000
 170,0.00025790,-0.00003532,-0.00003117,0.00105436,0.04205570,0.1142396
 3,0.14259405,0.00102567,0.00182284,-0.01904427,-0.06043696,-0.11010006
 ,-0.00126889,0.01531810,-0.10626583,-0.14731987,-0.00172599,0.15180446
 ,0.12280981,-0.00126205,-0.00177510,0.01945071,0.00070979,0.00227125,-
 0.01603052,0.00556356,0.00054358,0.00006400,0.03432570,-0.02159181,0.0
 0044214,-0.03009072,-0.00192934,-0.00195192,-0.00003124,-0.01365491,0.
 00328040,-0.00016946,0.01107442,0.00409305,0.00006016,0.00000173,0.000
 84140,0.00045807,-0.00027270,-0.00226243,-0.00035919,0.00015510,-0.001
 31843,0.00145219,-0.00194095,0.00000565,0.01527334,-0.02069782,0.00019
 494,-0.01089589,0.00394682,-0.00017477,-0.00586684,0.00035026,0.004220
 52,0.00001148,-0.02789197,0.02297343,-0.00031776,0.00850434,-0.0065871
 0,0.00009370,0.01922302,-0.02097911,0.00000960,-0.00002002,0.00077048,
 0.00017914,-0.00022432,-0.00251753,-0.00016371,0.00003589,0.00271859,-
 0.00002877,0.00021410,-0.00073704,0.01136551,-0.00274221,0.00017357,-0
 .00448018,-0.00324900,-0.00008482,0.00109735,0.00056301,0.00001572,0.0
 0003720,-0.00018564,0.00000374,-0.00801988,-0.00639475,0.00245723,-0.0
 0007709,-0.00015752,-0.00174377,-0.00000893,0.00146948,0.00116556,0.00
 002217,-0.00053106,0.00037225,-0.00000565,0.00561384,-0.00225128,0.000
 16663,-0.00002945,-0.00201832,-0.00007812,-0.00004824,0.00135977,0.000
 01676,0.00000970,0.00002087,0.00000295,-0.00000151,-0.00023448,-0.0001
 0821,0.00006950,0.00087217,0.01486567,0.06107248,0.06290966,0.00049583
 ,0.00095696,-0.01388203,-0.02363643,-0.06567084,-0.00061787,0.51608958
 ,-0.04552771,-0.06024469,-0.00074419,-0.36675437,0.30089144,-0.0005809
 0,-0.00101041,0.01359190,0.00765584,-0.00412315,-0.10981461,0.00485703
 ,0.01233695,0.00008094,-0.33193191,0.14718531,-0.00471792,0.33555019,-
 0.00524073,-0.00619153,-0.00008260,0.14656986,0.00887941,0.00188888,-0
 .15019039,0.00264651,0.00004914,0.00015136,0.00050088,-0.00471806,0.00
 189940,0.04285657,0.00480639,-0.00190934,-0.04640592,-0.00172384,-0.00
 612948,-0.00004367,-0.15649807,0.26626479,-0.00228915,-0.00819378,0.00
 966516,-0.00012934,0.16642871,-0.00206058,-0.00409641,-0.00003604,0.28
 039321,-0.25133698,0.00317120,-0.00683245,-0.00523738,-0.00010804,-0.2
 6981749,0.26130914,-0.00003640,-0.00009123,0.00071375,-0.00226519,0.00
 298090,0.05252900,-0.00015755,0.00011432,0.00280641,0.00246966,-0.0030
 0227,-0.05662519,0.00563756,-0.00160911,0.00008477,-0.00402317,-0.0011
 6803,-0.00006788,-0.00028154,-0.00080390,-0.00000812,-0.00001302,-0.00
 168268,-0.00001053,-0.00131984,-0.00824347,0.00762296,-0.00009412,0.00
 546214,0.00181082,0.00007348,-0.00249942,-0.00009701,-0.00003339,0.000
 01702,-0.00063838,-0.00000173,0.00526372,-0.00869840,0.00007233,-0.000
 00669,-0.00092452,-0.00005472,-0.00001297,0.00083715,-0.00001187,-0.00
 001126,0.00024206,-0.00000750,-0.00002484,0.00057602,0.00000176,0.0000
 5577,-0.00073070,-0.91718726,0.54340303,-0.04529275,-0.01207990,0.0070
 3457,0.06509500,0.05524963,-0.06489794,0.00030697,-0.00159357,0.045461
 18,0.03242560,0.00062218,0.01190045,-0.09380895,0.00051120,-0.00084611
 ,0.02317141,0.00058483,0.00005570,-0.04314527,-0.01086855,-0.03266895,
 -0.00023076,-0.02461651,0.00378343,-0.00041628,0.04745259,-0.00181123,
 -0.01536885,-0.00005655,0.00310486,0.01757348,0.00006334,-0.00528762,-
 0.00582311,-0.00017250,-0.00046735,0.00191283,-0.00041678,0.00007476,0
 .00686193,0.00073337,-0.00006849,-0.00815807,0.01301868,-0.00024641,0.
 00017762,0.02335951,-0.02066677,0.00016153,-0.01413348,0.00509575,-0.0
 0017301,-0.01628717,-0.00633314,0.01488891,-0.00005579,-0.00662148,0.0
 0431260,-0.00008911,0.01820829,-0.00112764,0.00023910,0.00481823,0.011
 14938,0.00016608,0.00002458,-0.00033939,0.00018538,-0.00027864,0.00808
 105,-0.00014603,0.00006740,-0.00048851,-0.00010809,0.00009432,-0.00722
 143,0.85978749,-0.44558974,0.01182606,-0.05239905,-0.04047829,-0.00084
 127,0.00216594,-0.00110176,0.00002892,-0.00595754,-0.01007191,-0.00009
 733,-0.80359683,-0.58071985,0.01334709,-0.00754441,0.05651411,0.039497
 27,0.00081618,0.01596485,0.00474611,0.00022198,0.01099920,-0.02922325,
 0.00009234,0.49724169,-0.02836723,0.01157512,-0.00574569,-0.08983986,-
 0.00066039,-0.00047400,0.00503089,0.00005969,-0.00000571,-0.00012819,-
 0.00005804,-0.00018852,-0.00003171,-0.01091638,0.00641391,0.08496887,-
 0.06035093,0.02218012,-0.04720504,-0.00071742,0.00021496,-0.00345415,-
 0.00661055,0.02435043,-0.00013419,0.66074900,0.04198005,0.00409725,0.0
 0055300,-0.19906699,0.30182770,-0.00010178,0.00032005,0.00689284,0.011
 08622,-0.00172298,-0.19945850,0.00823588,-0.02781636,0.00007750,-0.702
 78386,-0.07843579,-0.01080326,0.81266539,-0.00033820,0.00927832,0.0000
 1516,0.09813476,0.09749835,0.00130712,-0.11575986,-0.08033088,0.000129
 52,-0.00035048,-0.00147470,-0.01047334,-0.00103996,0.09766708,0.011940
 57,-0.00150474,-0.10052891,0.02072616,0.00000795,0.00027177,0.06022994
 ,0.24183977,-0.00000147,-0.12345695,0.01815058,-0.00165346,0.04050592,
 -0.02805673,0.01983611,-0.00033676,0.08136542,-0.41563818,0.00013951,0
 .21578474,-0.02664883,0.00281342,-0.26628808,0.43989513,0.00021910,0.0
 0003588,0.00032602,-0.00030264,0.00227228,0.09394354,-0.00128277,0.000
 18649,0.00325835,0.00134039,-0.00254668,-0.09721805,0.03799944,-0.0187
 2215,0.00050234,-0.01158453,-0.00631704,-0.00017971,0.00533955,-0.0001
 8728,0.00005671,0.00199494,-0.00280535,0.00002592,-0.03374940,-0.03576
 525,0.01399335,-0.00044636,-0.00478362,0.01221487,-0.00004369,0.006227
 27,0.00020304,0.00008176,0.00628978,-0.01744423,0.00005203,0.02803182,
 -0.00896704,0.00047057,-0.00022041,-0.00229003,-0.00017605,-0.00006233
 ,0.00095504,0.00006797,-0.00000403,0.00107819,0.00004277,-0.00006948,-
 0.00030985,-0.00040526,0.00035626,0.00056665,5.33278582,-2.66746560,-0
 .23101893,0.08378804,-0.03349853,-1.32725631,0.02440800,0.05266197,0.0
 0047919,-0.02258334,0.00747573,0.03777858,0.00017710,-0.01094866,-0.04
 056901,0.00039491,0.00078074,-0.00422199,-0.00033801,-0.00023282,0.001
 93484,-0.00133358,0.00106485,0.00001670,0.00208881,0.01455633,0.000030
 44,-0.00195052,0.00553561,0.00333422,0.00008401,-0.00381060,0.00811143
 ,-0.00003648,-0.00322015,-0.00463822,0.00002607,0.00002465,-0.00244378
 ,-0.00000266,0.00021021,0.00150529,-0.00001658,-0.00005210,-0.00092964
 ,-0.00211524,0.00167185,-0.00003837,-0.00278085,-0.00878252,-0.0000362
 0,0.00268833,0.00278634,0.00003646,-0.00205541,-0.00844133,-0.00991083
 ,-0.00013240,0.00416471,0.01152137,0.00008563,-0.00211547,-0.00267200,
 -0.00003573,-0.00268191,-0.01205429,-0.00005765,0.00000128,0.00101481,
 -0.00001447,-0.00008906,-0.00152890,0.00002991,0.00003232,0.00026991,-
 0.00006465,-0.00006719,0.00269131,-5.35374500,2.61206693,-0.08424556,-
 0.00113262,-0.00230088,-0.00005114,-0.00149305,-0.00129120,-0.00004328
 ,0.00426316,0.00907401,0.00010686,5.35210750,2.66289558,0.19981697,0.0
 3336982,-0.04206743,-0.01684237,-0.00059707,-0.01028556,-0.00413544,-0
 .00014704,0.00700625,0.01311572,0.00012264,-2.61754885,-0.19195488,-0.
 08415137,0.03269186,1.33290726,-0.00012405,-0.00006544,0.00231076,-0.0
 0006047,-0.00002775,0.00159820,0.00010277,0.00014969,-0.00244712,0.084
 23312,-0.03274835,-1.33436910\\@
 The archive entry for this job was punched.


 KNOWING HOW CONTENTED, FREE, AND JOYFUL IS LIFE IN
 THE REALMS OF SCIENCE, ONE FERVENTLY WISHES THAT
 MANY WOULD ENTER HER PORTALS.
   --  DMITRI IVANOVICH MENDELEEV
 "FIRST PRINCIPLES OF CHEMISTRY", LONGMANS, GREEN,
 AND CO.  LONDON, 1891
 Job cpu time:       0 days  5 hours 35 minutes  7.5 seconds.
 Elapsed time:       0 days  0 hours  8 minutes 37.8 seconds.
 File lengths (MBytes):  RWF=    763 Int=      0 D2E=      0 Chk=     40 Scr=      1
 Normal termination of Gaussian 16 at Sun Mar 23 12:25:48 2025.
