 Entering Gaussian System, Link 0=g16
 Input=hno3_mp2_avtz_opt_anharm.gjf
 Output=hno3_mp2_avtz_opt_anharm.log
 Initial command:
 /sw/contrib/gaussian/g16/A03/g16/l1.exe "/gscratch/scrubbed/gds001/Gau-24060.inp" -scrdir="/gscratch/scrubbed/gds001/"
 Entering Link 1 = /sw/contrib/gaussian/g16/A03/g16/l1.exe PID=     24061.
  
 Copyright (c) 1988,1990,1992,1993,1995,1998,2003,2009,2016,
            Gaussian, Inc.  All Rights Reserved.
  
 This is part of the Gaussian(R) 16 program.  It is based on
 the Gaussian(R) 09 system (copyright 2009, Gaussian, Inc.),
 the Gaussian(R) 03 system (copyright 2003, Gaussian, Inc.),
 the Gaussian(R) 98 system (copyright 1998, Gaussian, Inc.),
 the Gaussian(R) 94 system (copyright 1995, Gaussian, Inc.),
 the Gaussian 92(TM) system (copyright 1992, Gaussian, Inc.),
 the Gaussian 90(TM) system (copyright 1990, Gaussian, Inc.),
 the Gaussian 88(TM) system (copyright 1988, Gaussian, Inc.),
 the Gaussian 86(TM) system (copyright 1986, Carnegie Mellon
 University), and the Gaussian 82(TM) system (copyright 1983,
 Carnegie Mellon University). Gaussian is a federally registered
 trademark of Gaussian, Inc.
  
 This software contains proprietary and confidential information,
 including trade secrets, belonging to Gaussian, Inc.
  
 This software is provided under written license and may be
 used, copied, transmitted, or stored only in accord with that
 written license.
  
 The following legend is applicable only to US Government
 contracts under FAR:
  
                    RESTRICTED RIGHTS LEGEND
  
 Use, reproduction and disclosure by the US Government is
 subject to restrictions as set forth in subparagraphs (a)
 and (c) of the Commercial Computer Software - Restricted
 Rights clause in FAR 52.227-19.
  
 Gaussian, Inc.
 340 Quinnipiac St., Bldg. 40, Wallingford CT 06492
  
  
 ---------------------------------------------------------------
 Warning -- This program may not be used in any manner that
 competes with the business of Gaussian, Inc. or will provide
 assistance to any competitor of Gaussian, Inc.  The licensee
 of this program is prohibited from giving any competitor of
 Gaussian, Inc. access to this program.  By using this program,
 the user acknowledges that Gaussian, Inc. is engaged in the
 business of creating and licensing software in the field of
 computational chemistry and represents and warrants to the
 licensee that it is not a competitor of Gaussian, Inc. and that
 it will not use this program in any manner prohibited above.
 ---------------------------------------------------------------
  

 Cite this work as:
 Gaussian 16, Revision A.03,
 M. J. Frisch, G. W. Trucks, H. B. Schlegel, G. E. Scuseria, 
 M. A. Robb, J. R. Cheeseman, G. Scalmani, V. Barone, 
 G. A. Petersson, H. Nakatsuji, X. Li, M. Caricato, A. V. Marenich, 
 J. Bloino, B. G. Janesko, R. Gomperts, B. Mennucci, H. P. Hratchian, 
 J. V. Ortiz, A. F. Izmaylov, J. L. Sonnenberg, D. Williams-Young, 
 F. Ding, F. Lipparini, F. Egidi, J. Goings, B. Peng, A. Petrone, 
 T. Henderson, D. Ranasinghe, V. G. Zakrzewski, J. Gao, N. Rega, 
 G. Zheng, W. Liang, M. Hada, M. Ehara, K. Toyota, R. Fukuda, 
 J. Hasegawa, M. Ishida, T. Nakajima, Y. Honda, O. Kitao, H. Nakai, 
 T. Vreven, K. Throssell, J. A. Montgomery, Jr., J. E. Peralta, 
 F. Ogliaro, M. J. Bearpark, J. J. Heyd, E. N. Brothers, K. N. Kudin, 
 V. N. Staroverov, T. A. Keith, R. Kobayashi, J. Normand, 
 K. Raghavachari, A. P. Rendell, J. C. Burant, S. S. Iyengar, 
 J. Tomasi, M. Cossi, J. M. Millam, M. Klene, C. Adamo, R. Cammi, 
 J. W. Ochterski, R. L. Martin, K. Morokuma, O. Farkas, 
 J. B. Foresman, and D. J. Fox, Gaussian, Inc., Wallingford CT, 2016.
 
 ******************************************
 Gaussian 16:  ES64L-G16RevA.03 25-Dec-2016
                24-Jun-2021 
 ******************************************
 %nprocshared=28
 Will use up to   28 processors via shared memory.
 %mem=41GB
 %chk=hno3_mp2_avtz_opt_anharm.chk
 ----------------------------------------------
 # mp2/aug-cc-pVTZ opt freq=(vibrot,anharmonic)
 ----------------------------------------------
 1/18=20,19=15,38=1,80=1/1,3;
 2/9=110,12=2,17=6,18=5,40=1/2;
 3/5=16,6=1,7=10,11=9,25=1,30=1,71=1/1,2,3;
 4//1;
 5/5=2,38=5/2;
 8/6=4,10=1/1;
 9/15=2,16=-3/6;
 10/5=1/2;
 6/7=2,8=2,9=2,10=2/1;
 7/12=2/1,2,3,16;
 1/18=20,19=15,80=1/3(2);
 2/9=110/2;
 99//99;
 2/9=110/2;
 3/5=16,6=1,7=10,11=9,25=1,30=1,71=1/1,2,3;
 4/5=5,16=3,69=1/1;
 5/5=2,38=5/2;
 8/6=4,10=1/1;
 9/15=2,16=-3/6;
 10/5=1/2;
 7/12=2/1,2,3,16;
 1/18=20,19=15,80=1/3(-8);
 2/9=110/2;
 6/7=2,8=2,9=2,10=2/1;
 99//99;
 ----
 HNO3
 ----
 Symbolic Z-matrix:
 Charge =  0 Multiplicity = 1
 H                     0.63984  -1.60413   0. 
 O                    -0.25847  -1.22999   0. 
 N                     0.        0.15213   0. 
 O                     1.17116   0.46777   0. 
 O                    -0.99267   0.82962   0. 
 

 GradGradGradGradGradGradGradGradGradGradGradGradGradGradGradGradGradGrad
 Berny optimization.
 Initialization pass.
                           ----------------------------
                           !    Initial Parameters    !
                           ! (Angstroms and Degrees)  !
 --------------------------                            --------------------------
 ! Name  Definition              Value          Derivative Info.                !
 --------------------------------------------------------------------------------
 ! R1    R(1,2)                  0.9731         estimate D2E/DX2                !
 ! R2    R(2,3)                  1.4061         estimate D2E/DX2                !
 ! R3    R(3,4)                  1.213          estimate D2E/DX2                !
 ! R4    R(3,5)                  1.2018         estimate D2E/DX2                !
 ! A1    A(1,2,3)              102.0191         estimate D2E/DX2                !
 ! A2    A(2,3,4)              115.6764         estimate D2E/DX2                !
 ! A3    A(2,3,5)              113.7205         estimate D2E/DX2                !
 ! A4    A(4,3,5)              130.6031         estimate D2E/DX2                !
 ! D1    D(1,2,3,4)              0.0            estimate D2E/DX2                !
 ! D2    D(1,2,3,5)            180.0            estimate D2E/DX2                !
 ! D3    D(2,3,4,5)            180.0            estimate D2E/DX2                !
 --------------------------------------------------------------------------------
 Trust Radius=3.00D-01 FncErr=1.00D-07 GrdErr=1.00D-07 EigMax=2.50D+02 EigMin=1.00D-04
 Number of steps in this run=     21 maximum allowed number of steps=    100.
 GradGradGradGradGradGradGradGradGradGradGradGradGradGradGradGradGradGrad

                          Input orientation:                          
 ---------------------------------------------------------------------
 Center     Atomic      Atomic             Coordinates (Angstroms)
 Number     Number       Type             X           Y           Z
 ---------------------------------------------------------------------
      1          1           0        0.639838   -1.604133    0.000000
      2          8           0       -0.258474   -1.229985    0.000000
      3          7           0        0.000000    0.152128    0.000000
      4          8           0        1.171162    0.467774    0.000000
      5          8           0       -0.992668    0.829615    0.000000
 ---------------------------------------------------------------------
                    Distance matrix (angstroms):
                    1          2          3          4          5
     1  H    0.000000
     2  O    0.973114   0.000000
     3  N    1.869183   1.406074   0.000000
     4  O    2.138949   2.219515   1.212952   0.000000
     5  O    2.930564   2.186548   1.201823   2.193875   0.000000
 Stoichiometry    HNO3
 Framework group  CS[SG(HNO3)]
 Deg. of freedom     7
 Full point group                 CS      NOp   2
 Largest Abelian subgroup         CS      NOp   2
 Largest concise Abelian subgroup C1      NOp   1
                         Standard orientation:                         
 ---------------------------------------------------------------------
 Center     Atomic      Atomic             Coordinates (Angstroms)
 Number     Number       Type             X           Y           Z
 ---------------------------------------------------------------------
      1          1           0        0.639839   -1.604133    0.000000
      2          8           0       -0.258473   -1.229985    0.000000
      3          7           0        0.000000    0.152128    0.000000
      4          8           0        1.171162    0.467775    0.000000
      5          8           0       -0.992668    0.829615    0.000000
 ---------------------------------------------------------------------
 Rotational constants (GHZ):          12.9163414          12.1392553           6.2578740
 Standard basis: Aug-CC-pVTZ (5D, 7F)
 There are   166 symmetry adapted cartesian basis functions of A'  symmetry.
 There are    79 symmetry adapted cartesian basis functions of A"  symmetry.
 There are   136 symmetry adapted basis functions of A'  symmetry.
 There are    71 symmetry adapted basis functions of A"  symmetry.
   207 basis functions,   315 primitive gaussians,   245 cartesian basis functions
    16 alpha electrons       16 beta electrons
       nuclear repulsion energy       126.1053370991 Hartrees.
 NAtoms=    5 NActive=    5 NUniq=    5 SFac= 1.00D+00 NAtFMM=   60 NAOKFM=F Big=F
 Integral buffers will be    131072 words long.
 Raffenetti 1 integral format.
 Two-electron integral symmetry is turned on.
 One-electron integrals computed using PRISM.
 NBasis=   207 RedAO= T EigKep=  1.05D-04  NBF=   136    71
 NBsUse=   207 1.00D-06 EigRej= -1.00D+00 NBFU=   136    71
 ExpMin= 2.53D-02 ExpMax= 1.53D+04 ExpMxC= 5.22D+02 IAcc=3 IRadAn=         5 AccDes= 0.00D+00
 Harris functional with IExCor=  205 and IRadAn=       5 diagonalized for initial guess.
 HarFok:  IExCor=  205 AccDes= 0.00D+00 IRadAn=         5 IDoV= 1 UseB2=F ITyADJ=14
 ICtDFT=  3500011 ScaDFX=  1.000000  1.000000  1.000000  1.000000
 FoFCou: FMM=F IPFlag=           0 FMFlag=      100000 FMFlg1=           0
         NFxFlg=           0 DoJE=T BraDBF=F KetDBF=T FulRan=T
         wScrn=  0.000000 ICntrl=       500 IOpCl=  0 I1Cent=   200000004 NGrid=           0
         NMat0=    1 NMatS0=      1 NMatT0=    0 NMatD0=    1 NMtDS0=    0 NMtDT0=    0
 Petite list used in FoFCou.
 Initial guess orbital symmetries:
       Occupied  (A') (A') (A') (A') (A') (A') (A') (A') (A') (A')
                 (A") (A') (A") (A') (A") (A')
       Virtual   (A") (A') (A') (A') (A') (A") (A') (A') (A') (A')
                 (A") (A") (A') (A') (A') (A') (A") (A') (A") (A')
                 (A') (A') (A') (A') (A") (A') (A') (A') (A") (A')
                 (A") (A') (A') (A") (A') (A") (A') (A') (A") (A")
                 (A') (A") (A") (A') (A') (A") (A') (A') (A') (A')
                 (A') (A') (A") (A') (A") (A") (A') (A') (A") (A')
                 (A') (A') (A') (A') (A") (A') (A") (A") (A') (A")
                 (A') (A") (A') (A") (A') (A') (A') (A') (A') (A")
                 (A') (A") (A") (A') (A") (A') (A") (A') (A") (A')
                 (A') (A') (A') (A') (A") (A") (A") (A') (A') (A")
                 (A') (A') (A') (A") (A') (A') (A') (A") (A') (A")
                 (A') (A") (A') (A') (A") (A') (A') (A") (A') (A')
                 (A') (A') (A") (A") (A") (A') (A") (A') (A") (A')
                 (A') (A") (A') (A") (A') (A') (A') (A") (A') (A')
                 (A") (A') (A") (A') (A") (A') (A') (A') (A') (A')
                 (A') (A") (A') (A") (A') (A") (A") (A") (A') (A')
                 (A') (A") (A") (A') (A') (A') (A") (A") (A') (A")
                 (A') (A") (A") (A") (A') (A') (A") (A") (A') (A')
                 (A') (A') (A') (A') (A') (A') (A') (A') (A') (A')
                 (A')
 The electronic state of the initial guess is 1-A'.
 Keep R1 ints in memory in symmetry-blocked form, NReq=348887747.
 Requested convergence on RMS density matrix=1.00D-08 within 128 cycles.
 Requested convergence on MAX density matrix=1.00D-06.
 Requested convergence on             energy=1.00D-06.
 No special actions if energy rises.
 SCF Done:  E(RHF) =  -279.561079947     A.U. after   14 cycles
            NFock= 14  Conv=0.39D-08     -V/T= 2.0023
 ExpMin= 2.53D-02 ExpMax= 1.53D+04 ExpMxC= 5.22D+02 IAcc=3 IRadAn=         5 AccDes= 0.00D+00
 HarFok:  IExCor=  205 AccDes= 0.00D+00 IRadAn=         5 IDoV=-2 UseB2=F ITyADJ=14
 ICtDFT= 12500011 ScaDFX=  1.000000  1.000000  1.000000  1.000000
 Range of M.O.s used for correlation:     5   207
 NBasis=   207 NAE=    16 NBE=    16 NFC=     4 NFV=     0
 NROrb=    203 NOA=    12 NOB=    12 NVA=   191 NVB=   191

 **** Warning!!: The largest alpha MO coefficient is  0.23735245D+02

 Fully direct method using O(ONN) memory.
 JobTyp=1 Pass  1:  I=   5 to  16 NPSUse= 28 ParTrn=T ParDer=T DoDerP=T.
 Spin components of T(2) and E(2):
     alpha-alpha T2 =       0.3475988328D-01 E2=     -0.1272574416D+00
     alpha-beta  T2 =       0.1800682783D+00 E2=     -0.6987337427D+00
     beta-beta   T2 =       0.3475988328D-01 E2=     -0.1272574416D+00
 ANorm=    0.1117849742D+01
 E2 =    -0.9532486259D+00 EUMP2 =    -0.28051432857259D+03
          IDoAtm=11111
          Differentiating once with respect to electric field.
                with respect to dipole field.
          Differentiating once with respect to nuclear coordinates.
 Keep R1 ints in memory in symmetry-blocked form, NReq=348888953.
          There are     1 degrees of freedom in the 1st order CPHF.  IDoFFX=0 NUNeed=     1.
 LinEq1:  Iter=  0 NonCon=     1 RMS=5.70D-03 Max=1.77D-01 NDo=     1
 AX will form     1 AO Fock derivatives at one time.
 LinEq1:  Iter=  1 NonCon=     1 RMS=1.85D-03 Max=2.70D-02 NDo=     1
 LinEq1:  Iter=  2 NonCon=     1 RMS=7.09D-04 Max=1.71D-02 NDo=     1
 LinEq1:  Iter=  3 NonCon=     1 RMS=2.55D-04 Max=2.71D-03 NDo=     1
 LinEq1:  Iter=  4 NonCon=     1 RMS=7.29D-05 Max=9.63D-04 NDo=     1
 LinEq1:  Iter=  5 NonCon=     1 RMS=2.36D-05 Max=7.59D-04 NDo=     1
 LinEq1:  Iter=  6 NonCon=     1 RMS=1.04D-05 Max=1.18D-04 NDo=     1
 LinEq1:  Iter=  7 NonCon=     1 RMS=4.28D-06 Max=1.28D-04 NDo=     1
 LinEq1:  Iter=  8 NonCon=     1 RMS=1.78D-06 Max=1.97D-05 NDo=     1
 LinEq1:  Iter=  9 NonCon=     1 RMS=7.71D-07 Max=1.10D-05 NDo=     1
 LinEq1:  Iter= 10 NonCon=     1 RMS=1.48D-07 Max=1.45D-06 NDo=     1
 LinEq1:  Iter= 11 NonCon=     1 RMS=3.00D-08 Max=3.52D-07 NDo=     1
 LinEq1:  Iter= 12 NonCon=     1 RMS=6.36D-09 Max=6.48D-08 NDo=     1
 LinEq1:  Iter= 13 NonCon=     1 RMS=1.05D-09 Max=2.05D-08 NDo=     1
 LinEq1:  Iter= 14 NonCon=     1 RMS=1.83D-10 Max=3.92D-09 NDo=     1
 LinEq1:  Iter= 15 NonCon=     0 RMS=4.07D-11 Max=7.03D-10 NDo=     1
 Linear equations converged to 1.000D-10 1.000D-09 after    15 iterations.
 End of Minotr F.D. properties file   721 does not exist.
 End of Minotr F.D. properties file   722 does not exist.
 End of Minotr F.D. properties file   788 does not exist.

 **********************************************************************

            Population analysis using the SCF density.

 **********************************************************************

 Orbital symmetries:
       Occupied  (A') (A') (A') (A') (A') (A') (A') (A') (A') (A")
                 (A') (A') (A") (A') (A') (A")
       Virtual   (A') (A") (A') (A') (A") (A') (A') (A') (A") (A')
                 (A") (A') (A') (A') (A') (A") (A') (A") (A') (A')
                 (A') (A') (A') (A') (A") (A') (A") (A') (A') (A")
                 (A') (A') (A') (A") (A') (A") (A') (A') (A") (A")
                 (A') (A") (A") (A') (A') (A") (A') (A') (A') (A')
                 (A') (A') (A") (A') (A") (A') (A") (A') (A") (A')
                 (A') (A') (A') (A') (A') (A") (A") (A") (A') (A")
                 (A') (A") (A') (A") (A') (A') (A') (A') (A') (A")
                 (A') (A") (A") (A') (A") (A') (A") (A') (A") (A')
                 (A') (A') (A') (A') (A") (A') (A") (A") (A') (A")
                 (A') (A') (A') (A") (A') (A') (A') (A") (A') (A")
                 (A") (A') (A') (A") (A') (A') (A') (A') (A") (A')
                 (A") (A') (A') (A") (A") (A') (A') (A") (A") (A')
                 (A') (A") (A") (A') (A') (A') (A") (A') (A') (A")
                 (A') (A') (A") (A') (A") (A') (A') (A') (A') (A')
                 (A') (A") (A') (A") (A') (A") (A") (A") (A') (A')
                 (A') (A") (A') (A") (A") (A') (A') (A") (A") (A')
                 (A') (A") (A") (A") (A') (A") (A') (A") (A') (A')
                 (A') (A') (A') (A') (A') (A') (A') (A') (A') (A')
                 (A')
 The electronic state is 1-A'.
 Alpha  occ. eigenvalues --  -20.69369 -20.64863 -20.64574 -15.94195  -1.68631
 Alpha  occ. eigenvalues --   -1.46558  -1.44406  -0.95646  -0.82870  -0.79171
 Alpha  occ. eigenvalues --   -0.78848  -0.70268  -0.58647  -0.54938  -0.53451
 Alpha  occ. eigenvalues --   -0.50019
 Alpha virt. eigenvalues --    0.02420   0.07411   0.09027   0.09685   0.12938
 Alpha virt. eigenvalues --    0.12991   0.13924   0.15817   0.17804   0.18147
 Alpha virt. eigenvalues --    0.18473   0.22530   0.23059   0.24758   0.25510
 Alpha virt. eigenvalues --    0.26164   0.27862   0.29162   0.32776   0.35301
 Alpha virt. eigenvalues --    0.37253   0.39609   0.41796   0.49579   0.51209
 Alpha virt. eigenvalues --    0.53953   0.57839   0.59820   0.62338   0.64119
 Alpha virt. eigenvalues --    0.64273   0.68026   0.72671   0.73341   0.73802
 Alpha virt. eigenvalues --    0.73932   0.76045   0.78756   0.78770   0.84107
 Alpha virt. eigenvalues --    0.84387   0.86291   0.88327   0.89435   0.91995
 Alpha virt. eigenvalues --    0.94848   0.95637   0.97535   0.99269   1.00842
 Alpha virt. eigenvalues --    1.05656   1.06056   1.10509   1.15956   1.19909
 Alpha virt. eigenvalues --    1.24629   1.25908   1.26082   1.32342   1.32758
 Alpha virt. eigenvalues --    1.33490   1.42086   1.46650   1.49761   1.50692
 Alpha virt. eigenvalues --    1.51526   1.53517   1.63396   1.64912   1.75985
 Alpha virt. eigenvalues --    1.79492   1.83363   1.87000   1.89053   1.94320
 Alpha virt. eigenvalues --    1.97469   2.02328   2.07946   2.12771   2.13368
 Alpha virt. eigenvalues --    2.15398   2.19297   2.22018   2.26072   2.29564
 Alpha virt. eigenvalues --    2.30828   2.33506   2.35436   2.41608   2.41927
 Alpha virt. eigenvalues --    2.43371   2.45270   2.47926   2.50241   2.52451
 Alpha virt. eigenvalues --    2.59016   2.59041   2.60410   2.62367   2.65625
 Alpha virt. eigenvalues --    2.66591   2.74002   2.79114   2.81476   2.95120
 Alpha virt. eigenvalues --    2.96964   3.02237   3.03993   3.08069   3.11441
 Alpha virt. eigenvalues --    3.18947   3.19647   3.29394   3.30780   3.30918
 Alpha virt. eigenvalues --    3.50816   3.55717   3.89490   3.93541   4.03982
 Alpha virt. eigenvalues --    4.16275   4.19922   4.23834   4.30935   4.36434
 Alpha virt. eigenvalues --    4.44615   4.60568   4.68476   4.72830   4.77927
 Alpha virt. eigenvalues --    4.83144   4.94638   4.97099   4.99587   5.09893
 Alpha virt. eigenvalues --    5.16353   5.16549   5.20901   5.26037   5.32502
 Alpha virt. eigenvalues --    5.35770   5.39719   5.46638   5.51950   5.52271
 Alpha virt. eigenvalues --    5.57688   5.72268   5.93540   6.16935   6.39335
 Alpha virt. eigenvalues --    6.50999   6.52523   6.53333   6.55165   6.61221
 Alpha virt. eigenvalues --    6.62713   6.68657   6.75334   6.76528   6.79636
 Alpha virt. eigenvalues --    6.85394   6.90368   7.01308   7.08650   7.15015
 Alpha virt. eigenvalues --    7.15764   7.22807   7.27758   7.28755   7.29784
 Alpha virt. eigenvalues --    7.32930   7.34666   7.39841   7.44999   7.48679
 Alpha virt. eigenvalues --    7.54222   7.54876   7.60288   7.65340   7.75967
 Alpha virt. eigenvalues --    7.90176   7.95059   8.06359   8.22941   8.31622
 Alpha virt. eigenvalues --    8.36436   8.51055  15.04643  15.12356  16.13507
 Alpha virt. eigenvalues --   18.83688
          Condensed to atoms (all electrons):
               1          2          3          4          5
     1  H    0.439277   0.259276   0.030312  -0.004929  -0.000478
     2  O    0.259276   8.011154   0.189352  -0.063936  -0.070584
     3  N    0.030312   0.189352   5.185255   0.260060   0.273812
     4  O   -0.004929  -0.063936   0.260060   8.449683  -0.129980
     5  O   -0.000478  -0.070584   0.273812  -0.129980   8.428823
 Mulliken charges:
               1
     1  H    0.276543
     2  O   -0.325262
     3  N    1.061209
     4  O   -0.510898
     5  O   -0.501593
 Sum of Mulliken charges =  -0.00000
 Mulliken charges with hydrogens summed into heavy atoms:
               1
     2  O   -0.048719
     3  N    1.061209
     4  O   -0.510898
     5  O   -0.501593
 Electronic spatial extent (au):  <R**2>=            198.8116
 Charge=             -0.0000 electrons
 Dipole moment (field-independent basis, Debye):
    X=              1.1261    Y=             -2.3570    Z=              0.0000  Tot=              2.6122
 Quadrupole moment (field-independent basis, Debye-Ang):
   XX=            -24.5091   YY=            -20.5181   ZZ=            -21.1525
   XY=             -2.5635   XZ=              0.0000   YZ=              0.0000
 Traceless Quadrupole moment (field-independent basis, Debye-Ang):
   XX=             -2.4492   YY=              1.5418   ZZ=              0.9074
   XY=             -2.5635   XZ=              0.0000   YZ=              0.0000
 Octapole moment (field-independent basis, Debye-Ang**2):
  XXX=             -0.1977  YYY=             -8.4434  ZZZ=              0.0000  XYY=              4.9252
  XXY=             -3.2143  XXZ=              0.0000  XZZ=              0.0383  YZZ=              0.1859
  YYZ=              0.0000  XYZ=              0.0000
 Hexadecapole moment (field-independent basis, Debye-Ang**3):
 XXXX=            -98.9230 YYYY=            -91.8019 ZZZZ=            -16.1218 XXXY=             -0.8957
 XXXZ=              0.0000 YYYX=             -6.7809 YYYZ=              0.0000 ZZZX=              0.0000
 ZZZY=              0.0000 XXYY=            -31.5732 XXZZ=            -19.0870 YYZZ=            -20.4513
 XXYZ=              0.0000 YYXZ=              0.0000 ZZXY=             -0.0132
 N-N= 1.261053370991D+02 E-N=-9.127127347078D+02  KE= 2.789090048181D+02
 Symmetry A'   KE= 2.657897818716D+02
 Symmetry A"   KE= 1.311922294651D+01
 Calling FoFJK, ICntrl=  10002127 FMM=F ISym2X=1 I1Cent= 0 IOpClX= 0 NMat=1 NMatS=1 NMatT=0.
 ***** Axes restored to original set *****
 -------------------------------------------------------------------
 Center     Atomic                   Forces (Hartrees/Bohr)
 Number     Number              X              Y              Z
 -------------------------------------------------------------------
      1        1           0.000000015   -0.000000386   -0.000000000
      2        8          -0.000005591   -0.000004343   -0.000000000
      3        7           0.000020503    0.000009543   -0.000000000
      4        8          -0.000006892   -0.000002581   -0.000000000
      5        8          -0.000008034   -0.000002233   -0.000000000
 -------------------------------------------------------------------
 Cartesian Forces:  Max     0.000020503 RMS     0.000006760

 GradGradGradGradGradGradGradGradGradGradGradGradGradGradGradGradGradGrad
 Berny optimization.
 FormGI is forming the generalized inverse of G from B-inverse, IUseBI=4.
 Internal  Forces:  Max     0.000009122 RMS     0.000004684
 Search for a local minimum.
 Step number   1 out of a maximum of   21
 All quantities printed in internal units (Hartrees-Bohrs-Radians)
 Mixed Optimization -- En-DIIS/RFO-DIIS
 Second derivative matrix not updated -- first step.
 The second derivative matrix:
                          R1        R2        R3        R4        A1
           R1           0.52746
           R2           0.00000   0.44629
           R3           0.00000   0.00000   0.98575
           R4           0.00000   0.00000   0.00000   1.03912
           A1           0.00000   0.00000   0.00000   0.00000   0.16000
           A2           0.00000   0.00000   0.00000   0.00000   0.00000
           A3           0.00000   0.00000   0.00000   0.00000   0.00000
           A4           0.00000   0.00000   0.00000   0.00000   0.00000
           D1           0.00000   0.00000   0.00000   0.00000   0.00000
           D2           0.00000   0.00000   0.00000   0.00000   0.00000
           D3           0.00000   0.00000   0.00000   0.00000   0.00000
                          A2        A3        A4        D1        D2
           A2           0.25000
           A3           0.00000   0.25000
           A4           0.00000   0.00000   0.25000
           D1           0.00000   0.00000   0.00000   0.01214
           D2           0.00000   0.00000   0.00000   0.00000   0.01214
           D3           0.00000   0.00000   0.00000   0.00000   0.00000
                          D3
           D3           0.03769
 ITU=  0
     Eigenvalues ---    0.01214   0.03115   0.16000   0.25000   0.25000
     Eigenvalues ---    0.44629   0.52746   0.98575   1.03912
 RFO step:  Lambda= 0.00000000D+00 EMin= 1.21445260D-02
 Linear search not attempted -- first point.
 Iteration  1 RMS(Cart)=  0.00001726 RMS(Int)=  0.00000000
 Iteration  2 RMS(Cart)=  0.00000000 RMS(Int)=  0.00000000
 ClnCor:  largest displacement from symmetrization is 4.34D-14 for atom     3.
 Variable       Old X    -DE/DX   Delta X   Delta X   Delta X     New X
                                 (Linear)    (Quad)   (Total)
    R1        1.83892   0.00000   0.00000   0.00000   0.00000   1.83892
    R2        2.65710   0.00001   0.00000   0.00001   0.00001   2.65711
    R3        2.29215  -0.00001   0.00000  -0.00001  -0.00001   2.29214
    R4        2.27112   0.00001   0.00000   0.00001   0.00001   2.27112
    A1        1.78057   0.00000   0.00000   0.00000   0.00000   1.78057
    A2        2.01893   0.00000   0.00000   0.00002   0.00002   2.01895
    A3        1.98480  -0.00001   0.00000  -0.00004  -0.00004   1.98476
    A4        2.27945   0.00001   0.00000   0.00002   0.00002   2.27948
    D1        0.00000   0.00000   0.00000   0.00000   0.00000   0.00000
    D2        3.14159  -0.00000   0.00000   0.00000   0.00000   3.14159
    D3        3.14159  -0.00000   0.00000  -0.00000   0.00000   3.14159
         Item               Value     Threshold  Converged?
 Maximum Force            0.000009     0.000450     YES
 RMS     Force            0.000005     0.000300     YES
 Maximum Displacement     0.000028     0.001800     YES
 RMS     Displacement     0.000017     0.001200     YES
 Predicted change in Energy=-3.306953D-10
 Optimization completed.
    -- Stationary point found.
                           ----------------------------
                           !   Optimized Parameters   !
                           ! (Angstroms and Degrees)  !
 --------------------------                            --------------------------
 ! Name  Definition              Value          Derivative Info.                !
 --------------------------------------------------------------------------------
 ! R1    R(1,2)                  0.9731         -DE/DX =    0.0                 !
 ! R2    R(2,3)                  1.4061         -DE/DX =    0.0                 !
 ! R3    R(3,4)                  1.213          -DE/DX =    0.0                 !
 ! R4    R(3,5)                  1.2018         -DE/DX =    0.0                 !
 ! A1    A(1,2,3)              102.0191         -DE/DX =    0.0                 !
 ! A2    A(2,3,4)              115.6764         -DE/DX =    0.0                 !
 ! A3    A(2,3,5)              113.7205         -DE/DX =    0.0                 !
 ! A4    A(4,3,5)              130.6031         -DE/DX =    0.0                 !
 ! D1    D(1,2,3,4)              0.0            -DE/DX =    0.0                 !
 ! D2    D(1,2,3,5)            180.0            -DE/DX =    0.0                 !
 ! D3    D(2,3,4,5)            180.0            -DE/DX =    0.0                 !
 --------------------------------------------------------------------------------
 GradGradGradGradGradGradGradGradGradGradGradGradGradGradGradGradGradGrad

                          Input orientation:                          
 ---------------------------------------------------------------------
 Center     Atomic      Atomic             Coordinates (Angstroms)
 Number     Number       Type             X           Y           Z
 ---------------------------------------------------------------------
      1          1           0        0.639838   -1.604133    0.000000
      2          8           0       -0.258474   -1.229985    0.000000
      3          7           0        0.000000    0.152128    0.000000
      4          8           0        1.171162    0.467774    0.000000
      5          8           0       -0.992668    0.829615    0.000000
 ---------------------------------------------------------------------
                    Distance matrix (angstroms):
                    1          2          3          4          5
     1  H    0.000000
     2  O    0.973114   0.000000
     3  N    1.869183   1.406074   0.000000
     4  O    2.138949   2.219515   1.212952   0.000000
     5  O    2.930564   2.186548   1.201823   2.193875   0.000000
 Stoichiometry    HNO3
 Framework group  CS[SG(HNO3)]
 Deg. of freedom     7
 Full point group                 CS      NOp   2
 Largest Abelian subgroup         CS      NOp   2
 Largest concise Abelian subgroup C1      NOp   1
                         Standard orientation:                         
 ---------------------------------------------------------------------
 Center     Atomic      Atomic             Coordinates (Angstroms)
 Number     Number       Type             X           Y           Z
 ---------------------------------------------------------------------
      1          1           0        0.639839   -1.604133    0.000000
      2          8           0       -0.258473   -1.229985    0.000000
      3          7           0        0.000000    0.152128    0.000000
      4          8           0        1.171162    0.467775    0.000000
      5          8           0       -0.992668    0.829615    0.000000
 ---------------------------------------------------------------------
 Rotational constants (GHZ):          12.9163414          12.1392553           6.2578740
 1\1\GINC-N2280\FOpt\RMP2-FC\Aug-CC-pVTZ\H1N1O3\GDS001\24-Jun-2021\0\\#
  mp2/aug-cc-pVTZ opt freq=(vibrot,anharmonic)\\HNO3\\0,1\H,0.639838,-1
 .604133,0.\O,-0.258474,-1.229985,0.\N,0.,0.152128,0.\O,1.171162,0.4677
 74,0.\O,-0.992668,0.829615,0.\\Version=ES64L-G16RevA.03\State=1-A'\HF=
 -279.5610799\MP2=-280.5143286\RMSD=3.873e-09\RMSF=6.760e-06\Dipole=0.4
 467957,-0.7246444,0.\PG=CS [SG(H1N1O3)]\\@


 There are more things in heaven and earth, Horatio,
 than are dreamt of in your philosophy.
                   -- Hamlet, Act I, Scene 5
 Job cpu time:       0 days  0 hours 15 minutes 57.0 seconds.
 Elapsed time:       0 days  0 hours  0 minutes 41.1 seconds.
 File lengths (MBytes):  RWF=     80 Int=      0 D2E=      0 Chk=     12 Scr=      8
 Normal termination of Gaussian 16 at Thu Jun 24 14:45:05 2021.
 Link1:  Proceeding to internal job step number  2.
 ----------------------------------------------------------------------
 #N Geom=AllCheck Guess=TCheck SCRF=Check GenChk RMP2(FC)/Aug-CC-pVTZ F
 req
 ----------------------------------------------------------------------
 1/10=4,29=7,30=1,38=21,40=1,80=1/1,6,3;
 2/12=2,40=1/2;
 3/5=16,6=1,7=10,11=1,14=-4,25=1,30=1,70=2,71=2,116=1,140=1/1,2,3;
 4/5=101,69=2/1;
 5/5=2,38=6,98=1/2;
 8/6=3,8=1,10=1,19=11,30=-1/1;
 9/15=3,16=-3/6;
 11/6=1,8=1,15=11,17=12,24=-1,27=1,28=-2,29=300,32=6,42=3/1,2,10;
 10/6=2,21=1,60=-2/2;
 8/6=4,8=1,10=1,19=11,30=-1/11,4;
 10/5=1,20=4,60=-2/2;
 11/12=2,14=11,16=1,17=2,28=-2,42=3/2,10,12;
 6/7=2,8=2,9=2,10=2,22=-1/1;
 7/10=1,12=2,25=1,44=2,70=1,71=2/1,2,3,16;
 1/38=20,80=1/6(3);
 7/8=1,25=202,44=-1,70=1,71=1,92=10/16,17;
 1/10=4,30=1,38=20,80=1/3;
 99//99;
 3/5=16,6=1,7=10,11=1,14=-2,25=1,30=1,70=5,71=2,116=1,140=1/1,2,3;
 4/5=5,16=3,69=2/1;
 5/5=2,38=5,98=1/2;
 8/6=3,8=1,10=1,19=11,30=-1/1;
 9/15=3,16=-3/6;
 11/6=1,8=1,15=11,17=12,24=-1,27=1,28=-2,29=300,32=6,42=3/1,2,10;
 10/6=2,21=1,60=-2/2;
 8/6=4,8=1,10=1,19=11,30=-1/11,4;
 10/5=1,20=4,60=-2/2;
 11/12=2,14=11,16=1,17=2,28=-2,42=3/2,10,12;
 6/7=2,8=2,9=2,10=2,22=-1/1;
 7/7=1,10=1,12=2,25=1,44=2,70=1,71=1/1,2,3,16;
 1/38=20,80=1/6(-12);
 7/8=1,25=202,44=-1,70=1,71=1,92=10/16,17;
 1/10=4,30=1,38=20,80=1/3;
 99//99;
 Structure from the checkpoint file:  "hno3_mp2_avtz_opt_anharm.chk"
 ----
 HNO3
 ----
 Charge =  0 Multiplicity = 1
 Redundant internal coordinates found in file.  (old form).
 H,0,0.639838,-1.604133,0.
 O,0,-0.258474,-1.229985,0.
 N,0,0.,0.152128,0.
 O,0,1.171162,0.467774,0.
 O,0,-0.992668,0.829615,0.
 Recover connectivity data from disk.
 Numerical evaluation of third derivatives.
 Nuclear step= 0.010000 Angstroms, electric field step= 0.000333 atomic units, NStep=1.

 GradGradGradGradGradGradGradGradGradGradGradGradGradGradGradGradGradGrad
 Berny optimization.
 Initialization pass.
                           ----------------------------
                           !    Initial Parameters    !
                           ! (Angstroms and Degrees)  !
 --------------------------                            --------------------------
 ! Name  Definition              Value          Derivative Info.                !
 --------------------------------------------------------------------------------
 ! R1    R(1,2)                  0.9731         calculate D2E/DX2 analytically  !
 ! R2    R(2,3)                  1.4061         calculate D2E/DX2 analytically  !
 ! R3    R(3,4)                  1.213          calculate D2E/DX2 analytically  !
 ! R4    R(3,5)                  1.2018         calculate D2E/DX2 analytically  !
 ! A1    A(1,2,3)              102.0191         calculate D2E/DX2 analytically  !
 ! A2    A(2,3,4)              115.6764         calculate D2E/DX2 analytically  !
 ! A3    A(2,3,5)              113.7205         calculate D2E/DX2 analytically  !
 ! A4    A(4,3,5)              130.6031         calculate D2E/DX2 analytically  !
 ! D1    D(1,2,3,4)              0.0            calculate D2E/DX2 analytically  !
 ! D2    D(1,2,3,5)            180.0            calculate D2E/DX2 analytically  !
 ! D3    D(2,3,4,5)            180.0            calculate D2E/DX2 analytically  !
 --------------------------------------------------------------------------------
 Trust Radius=3.00D-01 FncErr=1.00D-07 GrdErr=1.00D-07 EigMax=2.50D+02 EigMin=1.00D-04
 Number of steps in this run=      2 maximum allowed number of steps=      2.
 GradGradGradGradGradGradGradGradGradGradGradGradGradGradGradGradGradGrad

                          Input orientation:                          
 ---------------------------------------------------------------------
 Center     Atomic      Atomic             Coordinates (Angstroms)
 Number     Number       Type             X           Y           Z
 ---------------------------------------------------------------------
      1          1           0        0.639838   -1.604133    0.000000
      2          8           0       -0.258474   -1.229985    0.000000
      3          7           0        0.000000    0.152128    0.000000
      4          8           0        1.171162    0.467774    0.000000
      5          8           0       -0.992668    0.829615    0.000000
 ---------------------------------------------------------------------
                    Distance matrix (angstroms):
                    1          2          3          4          5
     1  H    0.000000
     2  O    0.973114   0.000000
     3  N    1.869183   1.406074   0.000000
     4  O    2.138949   2.219515   1.212952   0.000000
     5  O    2.930564   2.186548   1.201823   2.193875   0.000000
 Stoichiometry    HNO3
 Framework group  CS[SG(HNO3)]
 Deg. of freedom     7
 Full point group                 CS      NOp   2
 Largest Abelian subgroup         CS      NOp   2
 Largest concise Abelian subgroup C1      NOp   1
                         Standard orientation:                         
 ---------------------------------------------------------------------
 Center     Atomic      Atomic             Coordinates (Angstroms)
 Number     Number       Type             X           Y           Z
 ---------------------------------------------------------------------
      1          1           0        0.639839   -1.604133    0.000000
      2          8           0       -0.258473   -1.229985    0.000000
      3          7           0        0.000000    0.152128    0.000000
      4          8           0        1.171162    0.467775    0.000000
      5          8           0       -0.992668    0.829615    0.000000
 ---------------------------------------------------------------------
 Rotational constants (GHZ):          12.9163414          12.1392553           6.2578740
 Standard basis: Aug-CC-pVTZ (5D, 7F)
 There are   166 symmetry adapted cartesian basis functions of A'  symmetry.
 There are    79 symmetry adapted cartesian basis functions of A"  symmetry.
 There are   136 symmetry adapted basis functions of A'  symmetry.
 There are    71 symmetry adapted basis functions of A"  symmetry.
   207 basis functions,   315 primitive gaussians,   245 cartesian basis functions
    16 alpha electrons       16 beta electrons
       nuclear repulsion energy       126.1053370991 Hartrees.
 NAtoms=    5 NActive=    5 NUniq=    5 SFac= 1.00D+00 NAtFMM=   60 NAOKFM=F Big=F
 Integral buffers will be    131072 words long.
 Raffenetti 1 integral format.
 Two-electron integral symmetry is turned on.
 One-electron integrals computed using PRISM.
 NBasis=   207 RedAO= T EigKep=  1.05D-04  NBF=   136    71
 NBsUse=   207 1.00D-06 EigRej= -1.00D+00 NBFU=   136    71
 Initial guess from the checkpoint file:  "hno3_mp2_avtz_opt_anharm.chk"
 B after Tr=    -0.000000    0.000000    0.000000
         Rot=    1.000000   -0.000000   -0.000000   -0.000000 Ang=   0.00 deg.
 Initial guess orbital symmetries:
       Occupied  (A') (A') (A') (A') (A') (A') (A') (A') (A') (A")
                 (A') (A') (A") (A') (A') (A")
       Virtual   (A') (A") (A') (A') (A") (A') (A') (A') (A") (A')
                 (A") (A') (A') (A') (A') (A") (A') (A") (A') (A')
                 (A') (A') (A') (A') (A") (A') (A") (A') (A') (A")
                 (A') (A') (A') (A") (A') (A") (A') (A') (A") (A")
                 (A') (A") (A") (A') (A') (A") (A') (A') (A') (A')
                 (A') (A') (A") (A') (A") (A') (A") (A') (A") (A')
                 (A') (A') (A') (A') (A') (A") (A") (A") (A') (A")
                 (A') (A") (A') (A") (A') (A') (A') (A') (A') (A")
                 (A') (A") (A") (A') (A") (A') (A") (A') (A") (A')
                 (A') (A') (A') (A') (A") (A') (A") (A") (A') (A")
                 (A') (A') (A') (A") (A') (A') (A') (A") (A') (A")
                 (A") (A') (A') (A") (A') (A') (A') (A') (A") (A')
                 (A") (A') (A') (A") (A") (A') (A') (A") (A") (A')
                 (A') (A") (A") (A') (A') (A') (A") (A') (A') (A")
                 (A') (A') (A") (A') (A") (A') (A') (A') (A') (A')
                 (A') (A") (A') (A") (A') (A") (A") (A") (A') (A')
                 (A') (A") (A') (A") (A") (A') (A') (A") (A") (A')
                 (A') (A") (A") (A") (A') (A") (A') (A") (A') (A')
                 (A') (A') (A') (A') (A') (A') (A') (A') (A') (A')
                 (A')
 Keep R1 ints in memory in symmetry-blocked form, NReq=348887747.
 Requested convergence on RMS density matrix=1.00D-08 within 128 cycles.
 Requested convergence on MAX density matrix=1.00D-06.
 Requested convergence on             energy=1.00D-06.
 No special actions if energy rises.
 SCF Done:  E(RHF) =  -279.561079947     A.U. after    1 cycles
            NFock=  1  Conv=0.58D-09     -V/T= 2.0023
 ExpMin= 2.53D-02 ExpMax= 1.53D+04 ExpMxC= 5.22D+02 IAcc=3 IRadAn=         5 AccDes= 0.00D+00
 HarFok:  IExCor=  205 AccDes= 0.00D+00 IRadAn=         5 IDoV=-2 UseB2=F ITyADJ=14
 ICtDFT= 12500011 ScaDFX=  1.000000  1.000000  1.000000  1.000000
 Range of M.O.s used for correlation:     5   207
 NBasis=   207 NAE=    16 NBE=    16 NFC=     4 NFV=     0
 NROrb=    203 NOA=    12 NOB=    12 NVA=   191 NVB=   191

 **** Warning!!: The largest alpha MO coefficient is  0.23735244D+02

 Disk-based method using ON**2 memory for 12 occupieds at a time.
 Permanent disk used for amplitudes=    11516536 words.
 Estimated scratch disk usage=   317626431 words.
 Actual    scratch disk usage=   310286399 words.
 JobTyp=1 Pass  1:  I=   5 to  16 NPSUse= 28 ParTrn=T ParDer=T DoDerP=T.
 (rs|ai) integrals will be sorted in core.
 Spin components of T(2) and E(2):
     alpha-alpha T2 =       0.3475988331D-01 E2=     -0.1272574415D+00
     alpha-beta  T2 =       0.1800682754D+00 E2=     -0.6987337396D+00
     beta-beta   T2 =       0.3475988331D-01 E2=     -0.1272574415D+00
 ANorm=    0.1117849740D+01
 E2 =    -0.9532486226D+00 EUMP2 =    -0.28051432856936D+03
 G2DrvN: will do     6 centers at a time, making    1 passes.
 Calling FoFCou, ICntrl=  3107 FMM=F I1Cent=   0 AccDes= 0.00D+00.
 End of G2Drv F.D. properties file   721 does not exist.
 End of G2Drv F.D. properties file   722 does not exist.
 End of G2Drv F.D. properties file   788 does not exist.
          IDoAtm=11111
          Differentiating once with respect to electric field.
                with respect to dipole field.
          Differentiating once with respect to nuclear coordinates.
 Keep R1 ints in memory in symmetry-blocked form, NReq=348888953.
          There are    18 degrees of freedom in the 1st order CPHF.  IDoFFX=6 NUNeed=    18.
     15 vectors produced by pass  0 Test12= 1.70D-14 5.56D-09 XBig12= 9.45D+00 2.28D+00.
 AX will form    15 AO Fock derivatives at one time.
     15 vectors produced by pass  1 Test12= 1.70D-14 5.56D-09 XBig12= 1.53D+00 2.53D-01.
     15 vectors produced by pass  2 Test12= 1.70D-14 5.56D-09 XBig12= 6.06D-02 7.14D-02.
     15 vectors produced by pass  3 Test12= 1.70D-14 5.56D-09 XBig12= 2.09D-03 1.02D-02.
     15 vectors produced by pass  4 Test12= 1.70D-14 5.56D-09 XBig12= 3.91D-05 1.05D-03.
     15 vectors produced by pass  5 Test12= 1.70D-14 5.56D-09 XBig12= 6.12D-07 2.10D-04.
     15 vectors produced by pass  6 Test12= 1.70D-14 5.56D-09 XBig12= 5.33D-09 1.59D-05.
     11 vectors produced by pass  7 Test12= 1.70D-14 5.56D-09 XBig12= 3.65D-11 9.54D-07.
      3 vectors produced by pass  8 Test12= 1.70D-14 5.56D-09 XBig12= 2.62D-13 8.08D-08.
      2 vectors produced by pass  9 Test12= 1.70D-14 5.56D-09 XBig12= 2.26D-15 1.14D-08.
 InvSVY:  IOpt=1 It=  1 EMax= 1.67D-15
 Solved reduced A of dimension   121 with    15 vectors.
 End of Minotr F.D. properties file   721 does not exist.
 End of Minotr F.D. properties file   722 does not exist.
 End of Minotr F.D. properties file   788 does not exist.
 MDV=  5502926848.
 Form MO integral derivatives with frozen-active canonical formalism.
 Discarding MO integrals.
 Reordered first order wavefunction length =     18678272
 In DefCFB: NBatch=  1 ICI= 16 ICA=191 LFMax= 64
            Large arrays: LIAPS=   619940160 LIARS=   288257200 words.
 Semi-Direct transformation.
 ModeAB=           2 MOrb=            16 LenV=    5501719162
 LASXX=     67341636 LTotXX=    67341636 LenRXX=    67341636
 LTotAB=    68301760 MaxLAS=    99807120 LenRXY=    99807120
 NonZer=   134683272 LenScr=   202375168 LnRSAI=           0
 LnScr1=           0 LExtra=           0 Total=    369523924
 MaxDsk=          -1 SrtSym=           F ITran=            4
 JobTyp=0 Pass  1:  I=   1 to  16.
 (rs|ai) integrals will be sorted in core.
 Spin components of T(2) and E(2):
     alpha-alpha T2 =       0.3475988331D-01 E2=     -0.1272574415D+00
     alpha-beta  T2 =       0.1800682754D+00 E2=     -0.6987337396D+00
     beta-beta   T2 =       0.3475988331D-01 E2=     -0.1272574415D+00
 ANorm=    0.1580878264D+01
 E2 =    -0.9532486226D+00 EUMP2 =    -0.28051432856936D+03
          IDoAtm=11111
          Differentiating once with respect to electric field.
                with respect to dipole field.
          Differentiating once with respect to nuclear coordinates.
          There are     1 degrees of freedom in the 1st order CPHF.  IDoFFX=0 NUNeed=     1.
 LinEq1:  Iter=  0 NonCon=     1 RMS=5.70D-03 Max=1.77D-01 NDo=     1
 LinEq1:  Iter=  1 NonCon=     1 RMS=1.85D-03 Max=2.70D-02 NDo=     1
 LinEq1:  Iter=  2 NonCon=     1 RMS=7.09D-04 Max=1.71D-02 NDo=     1
 LinEq1:  Iter=  3 NonCon=     1 RMS=2.55D-04 Max=2.71D-03 NDo=     1
 LinEq1:  Iter=  4 NonCon=     1 RMS=7.29D-05 Max=9.63D-04 NDo=     1
 LinEq1:  Iter=  5 NonCon=     1 RMS=2.36D-05 Max=7.59D-04 NDo=     1
 LinEq1:  Iter=  6 NonCon=     1 RMS=1.04D-05 Max=1.18D-04 NDo=     1
 LinEq1:  Iter=  7 NonCon=     1 RMS=4.28D-06 Max=1.28D-04 NDo=     1
 LinEq1:  Iter=  8 NonCon=     1 RMS=1.78D-06 Max=1.97D-05 NDo=     1
 LinEq1:  Iter=  9 NonCon=     1 RMS=7.71D-07 Max=1.10D-05 NDo=     1
 LinEq1:  Iter= 10 NonCon=     1 RMS=1.48D-07 Max=1.45D-06 NDo=     1
 LinEq1:  Iter= 11 NonCon=     1 RMS=3.00D-08 Max=3.52D-07 NDo=     1
 LinEq1:  Iter= 12 NonCon=     1 RMS=6.36D-09 Max=6.48D-08 NDo=     1
 LinEq1:  Iter= 13 NonCon=     1 RMS=1.05D-09 Max=2.05D-08 NDo=     1
 LinEq1:  Iter= 14 NonCon=     1 RMS=1.83D-10 Max=3.92D-09 NDo=     1
 LinEq1:  Iter= 15 NonCon=     0 RMS=4.07D-11 Max=7.03D-10 NDo=     1
 Linear equations converged to 1.000D-10 1.000D-09 after    15 iterations.
 End of Minotr F.D. properties file   721 does not exist.
 End of Minotr F.D. properties file   722 does not exist.
 End of Minotr F.D. properties file   788 does not exist.
 Symmetrizing basis deriv contribution to polar:
 IMax=3 JMax=2 DiffMx= 0.00D+00
 G2DrvN: will do     6 centers at a time, making    1 passes.
 Calling FoFCou, ICntrl=  3107 FMM=F I1Cent=   0 AccDes= 0.00D+00.
 End of G2Drv F.D. properties file   721 does not exist.
 End of G2Drv F.D. properties file   722 does not exist.
 End of G2Drv F.D. properties file   788 does not exist.
 R2 and R3 integrals will be kept in memory, NReq=   915591705.
 DD1Dir will call FoFMem   1 times, MxPair=       272
 NAB=   136 NAA=     0 NBB=     0.
 Discarding MO integrals.

 **********************************************************************

            Population analysis using the MP2 density.

 **********************************************************************

 Orbital symmetries:
       Occupied  (A') (A') (A') (A') (A') (A') (A') (A') (A') (A")
                 (A') (A') (A") (A') (A') (A")
       Virtual   (A') (A") (A') (A') (A") (A') (A') (A') (A") (A')
                 (A") (A') (A') (A') (A') (A") (A') (A") (A') (A')
                 (A') (A') (A') (A') (A") (A') (A") (A') (A') (A")
                 (A') (A') (A') (A") (A') (A") (A') (A') (A") (A")
                 (A') (A") (A") (A') (A') (A") (A') (A') (A') (A')
                 (A') (A') (A") (A') (A") (A') (A") (A') (A") (A')
                 (A') (A') (A') (A') (A') (A") (A") (A") (A') (A")
                 (A') (A") (A') (A") (A') (A') (A') (A') (A') (A")
                 (A') (A") (A") (A') (A") (A') (A") (A') (A") (A')
                 (A') (A') (A') (A') (A") (A') (A") (A") (A') (A")
                 (A') (A') (A') (A") (A') (A') (A') (A") (A') (A")
                 (A") (A') (A') (A") (A') (A') (A') (A') (A") (A')
                 (A") (A') (A') (A") (A") (A') (A') (A") (A") (A')
                 (A') (A") (A") (A') (A') (A') (A") (A') (A') (A")
                 (A') (A') (A") (A') (A") (A') (A') (A') (A') (A')
                 (A') (A") (A') (A") (A') (A") (A") (A") (A') (A')
                 (A') (A") (A') (A") (A") (A') (A') (A") (A") (A')
                 (A') (A") (A") (A") (A') (A") (A') (A") (A') (A')
                 (A') (A') (A') (A') (A') (A') (A') (A') (A') (A')
                 (A')
 The electronic state is 1-A'.
 Alpha  occ. eigenvalues --  -20.69369 -20.64863 -20.64574 -15.94195  -1.68631
 Alpha  occ. eigenvalues --   -1.46558  -1.44406  -0.95646  -0.82870  -0.79171
 Alpha  occ. eigenvalues --   -0.78848  -0.70268  -0.58647  -0.54938  -0.53451
 Alpha  occ. eigenvalues --   -0.50019
 Alpha virt. eigenvalues --    0.02420   0.07411   0.09027   0.09685   0.12938
 Alpha virt. eigenvalues --    0.12991   0.13924   0.15817   0.17804   0.18147
 Alpha virt. eigenvalues --    0.18473   0.22530   0.23059   0.24758   0.25510
 Alpha virt. eigenvalues --    0.26164   0.27862   0.29162   0.32776   0.35301
 Alpha virt. eigenvalues --    0.37253   0.39609   0.41796   0.49579   0.51209
 Alpha virt. eigenvalues --    0.53953   0.57839   0.59820   0.62338   0.64119
 Alpha virt. eigenvalues --    0.64273   0.68026   0.72671   0.73341   0.73802
 Alpha virt. eigenvalues --    0.73932   0.76045   0.78756   0.78770   0.84107
 Alpha virt. eigenvalues --    0.84387   0.86291   0.88327   0.89435   0.91995
 Alpha virt. eigenvalues --    0.94848   0.95637   0.97535   0.99269   1.00842
 Alpha virt. eigenvalues --    1.05656   1.06056   1.10509   1.15956   1.19909
 Alpha virt. eigenvalues --    1.24629   1.25908   1.26082   1.32342   1.32758
 Alpha virt. eigenvalues --    1.33490   1.42086   1.46650   1.49761   1.50692
 Alpha virt. eigenvalues --    1.51526   1.53517   1.63396   1.64912   1.75985
 Alpha virt. eigenvalues --    1.79492   1.83363   1.87000   1.89053   1.94320
 Alpha virt. eigenvalues --    1.97469   2.02328   2.07946   2.12771   2.13368
 Alpha virt. eigenvalues --    2.15398   2.19297   2.22018   2.26072   2.29564
 Alpha virt. eigenvalues --    2.30828   2.33506   2.35436   2.41608   2.41927
 Alpha virt. eigenvalues --    2.43371   2.45270   2.47926   2.50241   2.52451
 Alpha virt. eigenvalues --    2.59016   2.59041   2.60410   2.62367   2.65625
 Alpha virt. eigenvalues --    2.66591   2.74002   2.79114   2.81476   2.95120
 Alpha virt. eigenvalues --    2.96964   3.02237   3.03993   3.08069   3.11441
 Alpha virt. eigenvalues --    3.18947   3.19647   3.29394   3.30780   3.30918
 Alpha virt. eigenvalues --    3.50816   3.55717   3.89490   3.93541   4.03982
 Alpha virt. eigenvalues --    4.16275   4.19922   4.23834   4.30935   4.36434
 Alpha virt. eigenvalues --    4.44615   4.60568   4.68476   4.72830   4.77927
 Alpha virt. eigenvalues --    4.83144   4.94638   4.97099   4.99587   5.09893
 Alpha virt. eigenvalues --    5.16353   5.16549   5.20901   5.26037   5.32502
 Alpha virt. eigenvalues --    5.35770   5.39719   5.46638   5.51950   5.52271
 Alpha virt. eigenvalues --    5.57688   5.72268   5.93540   6.16935   6.39335
 Alpha virt. eigenvalues --    6.50999   6.52523   6.53333   6.55165   6.61221
 Alpha virt. eigenvalues --    6.62713   6.68657   6.75334   6.76528   6.79636
 Alpha virt. eigenvalues --    6.85394   6.90368   7.01308   7.08650   7.15015
 Alpha virt. eigenvalues --    7.15764   7.22807   7.27758   7.28755   7.29784
 Alpha virt. eigenvalues --    7.32930   7.34666   7.39841   7.44999   7.48679
 Alpha virt. eigenvalues --    7.54222   7.54876   7.60288   7.65340   7.75967
 Alpha virt. eigenvalues --    7.90176   7.95059   8.06359   8.22941   8.31622
 Alpha virt. eigenvalues --    8.36436   8.51055  15.04643  15.12356  16.13507
 Alpha virt. eigenvalues --   18.83688
          Condensed to atoms (all electrons):
               1          2          3          4          5
     1  H    0.559392   0.146207   0.047180  -0.010038   0.001879
     2  O    0.146207   8.264326   0.043250  -0.058022  -0.084032
     3  N    0.047180   0.043250   5.774973   0.113618   0.151481
     4  O   -0.010038  -0.058022   0.113618   8.513102  -0.151402
     5  O    0.001879  -0.084032   0.151481  -0.151402   8.487963
 Mulliken charges:
               1
     1  H    0.255380
     2  O   -0.311730
     3  N    0.869498
     4  O   -0.407259
     5  O   -0.405889
 Sum of Mulliken charges =  -0.00000
 Mulliken charges with hydrogens summed into heavy atoms:
               1
     2  O   -0.056350
     3  N    0.869498
     4  O   -0.407259
     5  O   -0.405889
 APT charges:
               1
     1  H    0.296147
     2  O   -0.617479
     3  N    1.338457
     4  O   -0.536366
     5  O   -0.480760
 Sum of APT charges =  -0.00000
 APT charges with hydrogens summed into heavy atoms:
               1
     2  O   -0.321332
     3  N    1.338457
     4  O   -0.536366
     5  O   -0.480760
 Electronic spatial extent (au):  <R**2>=            199.1363
 Charge=              0.0000 electrons
 Dipole moment (field-independent basis, Debye):
    X=              1.1356    Y=             -1.8419    Z=              0.0000  Tot=              2.1638
 Quadrupole moment (field-independent basis, Debye-Ang):
   XX=            -24.1738   YY=            -21.0289   ZZ=            -21.4137
   XY=             -2.4927   XZ=              0.0000   YZ=              0.0000
 Traceless Quadrupole moment (field-independent basis, Debye-Ang):
   XX=             -1.9683   YY=              1.1766   ZZ=              0.7917
   XY=             -2.4927   XZ=              0.0000   YZ=              0.0000
 Octapole moment (field-independent basis, Debye-Ang**2):
  XXX=              0.0074  YYY=             -7.2492  ZZZ=              0.0000  XYY=              4.5918
  XXY=             -2.4415  XXZ=              0.0000  XZZ=              0.0725  YZZ=              0.5858
  YYZ=              0.0000  XYZ=              0.0000
 Hexadecapole moment (field-independent basis, Debye-Ang**3):
 XXXX=           -100.4580 YYYY=            -96.6905 ZZZZ=            -17.0823 XXXY=             -0.7231
 XXXZ=              0.0000 YYYX=             -6.6478 YYYZ=              0.0000 ZZZX=              0.0000
 ZZZY=              0.0000 XXYY=            -32.5045 XXZZ=            -19.3122 YYZZ=            -21.2624
 XXYZ=              0.0000 YYXZ=              0.0000 ZZXY=             -0.0316
 N-N= 1.261053370991D+02 E-N=-9.136564391222D+02  KE= 2.802662174935D+02
 Symmetry A'   KE= 2.665835072536D+02
 Symmetry A"   KE= 1.368271023990D+01
  Exact polarizability:  32.792  -1.655  29.826   0.000   0.000  16.705
 Approx polarizability:  30.209  -1.998  23.139  -0.000  -0.000  15.181
 Calling FoFJK, ICntrl=  10100127 FMM=F ISym2X=1 I1Cent= 0 IOpClX= 0 NMat=1 NMatS=1 NMatT=0.
 Full mass-weighted force constant matrix:
 Low frequencies ---   -1.2152   -0.9340   -0.4123   -0.0016   -0.0014   -0.0001
 Low frequencies ---  484.8652  589.6681  665.8213
 Diagonal vibrational polarizability:
        2.6459814      12.7408109      13.2944995
 Harmonic frequencies (cm**-1), IR intensities (KM/Mole), Raman scattering
 activities (A**4/AMU), depolarization ratios for plane and unpolarized
 incident light, reduced masses (AMU), force constants (mDyne/A),
 and normal coordinates:
                      1                      2                      3
                     A"                     A'                     A'
 Frequencies --    484.8652               589.6681               665.8213
 Red. masses --      1.1044                 5.4503                13.0842
 Frc consts  --      0.1530                 1.1166                 3.4175
 IR Inten    --    114.0703                 8.8075                12.3750
  Atom  AN      X      Y      Z        X      Y      Z        X      Y      Z
     1   1    -0.00  -0.00   1.00     0.58   0.60   0.00    -0.03   0.44  -0.00
     2   8    -0.00   0.00  -0.07     0.31  -0.04  -0.00     0.07   0.66  -0.00
     3   7     0.00  -0.00   0.00    -0.20   0.01  -0.00     0.02   0.02   0.00
     4   8     0.00   0.00  -0.02    -0.13  -0.27   0.00     0.19  -0.36  -0.00
     5   8     0.00  -0.00   0.03    -0.04   0.27   0.00    -0.29  -0.35  -0.00
                      4                      5                      6
                     A"                     A'                     A'
 Frequencies --    775.4867               894.5508              1315.9250
 Red. masses --     13.9327                14.9027                13.4480
 Frc consts  --      4.9367                 7.0263                13.7205
 IR Inten    --      5.2937               202.7588               188.1731
  Atom  AN      X      Y      Z        X      Y      Z        X      Y      Z
     1   1     0.00  -0.00  -0.19     0.06  -0.12  -0.00    -0.13  -0.32   0.00
     2   8     0.00   0.00  -0.19    -0.06  -0.41  -0.00     0.04   0.01  -0.00
     3   7    -0.00  -0.00   0.88     0.10   0.63   0.00     0.13   0.59   0.00
     4   8    -0.00  -0.00  -0.28     0.42  -0.16  -0.00    -0.50  -0.21  -0.00
     5   8     0.00   0.00  -0.29    -0.45   0.02  -0.00     0.35  -0.30  -0.00
                      7                      8                      9
                     A'                     A'                     A'
 Frequencies --   1343.4341              1846.2253              3718.0704
 Red. masses --      1.2539                 9.2515                 1.0656
 Frc consts  --      1.3334                18.5794                 8.6790
 IR Inten    --    123.7758               275.5432                97.4881
  Atom  AN      X      Y      Z        X      Y      Z        X      Y      Z
     1   1     0.34   0.93  -0.00     0.22   0.58  -0.00     0.91  -0.40  -0.00
     2   8    -0.09  -0.03  -0.00    -0.06  -0.01  -0.00    -0.06   0.03   0.00
     3   7    -0.02   0.01   0.00     0.65  -0.14   0.00    -0.00   0.00   0.00
     4   8     0.03   0.02  -0.00    -0.27  -0.06  -0.00    -0.00  -0.00   0.00
     5   8     0.06  -0.06  -0.00    -0.25   0.16  -0.00     0.00  -0.00  -0.00

 -------------------
 - Thermochemistry -
 -------------------
 Temperature   298.150 Kelvin.  Pressure   1.00000 Atm.
 Atom     1 has atomic number  1 and mass   1.00783
 Atom     2 has atomic number  8 and mass  15.99491
 Atom     3 has atomic number  7 and mass  14.00307
 Atom     4 has atomic number  8 and mass  15.99491
 Atom     5 has atomic number  8 and mass  15.99491
 Molecular mass:    62.99564 amu.
 Principal axes and moments of inertia in atomic units:
                           1         2         3
     Eigenvalues --   139.72542 148.66984 288.39526
           X           -0.13827   0.99040   0.00000
           Y            0.99040   0.13827   0.00000
           Z           -0.00000   0.00000   1.00000
 This molecule is an asymmetric top.
 Rotational symmetry number  1.
 Rotational temperatures (Kelvin)      0.61989     0.58259     0.30033
 Rotational constants (GHZ):          12.91634    12.13926     6.25787
 Zero-point vibrational energy      69587.1 (Joules/Mol)
                                   16.63171 (Kcal/Mol)
 Warning -- explicit consideration of   2 degrees of freedom as
           vibrations may cause significant error
 Vibrational temperatures:    697.61   848.40   957.97  1115.75  1287.06
          (Kelvin)           1893.32  1932.90  2656.31  5349.47
 
 Zero-point correction=                           0.026504 (Hartree/Particle)
 Thermal correction to Energy=                    0.030027
 Thermal correction to Enthalpy=                  0.030971
 Thermal correction to Gibbs Free Energy=         0.000760
 Sum of electronic and zero-point Energies=           -280.487824
 Sum of electronic and thermal Energies=              -280.484301
 Sum of electronic and thermal Enthalpies=            -280.483357
 Sum of electronic and thermal Free Energies=         -280.513569
 
                     E (Thermal)             CV                S
                      KCal/Mol        Cal/Mol-Kelvin    Cal/Mol-Kelvin
 Total                   18.842             10.685             63.585
 Electronic               0.000              0.000              0.000
 Translational            0.889              2.981             38.341
 Rotational               0.889              2.981             23.309
 Vibrational             17.065              4.723              1.936
 Vibration     1          0.841              1.284              0.697
 Vibration     2          0.947              1.054              0.468
                       Q            Log10(Q)             Ln(Q)
 Total Bot       0.447142D+00         -0.349555         -0.804880
 Total V=0       0.694337D+12         11.841570         27.266223
 Vib (Bot)       0.821177D-12        -12.085563        -27.828038
 Vib (Bot)    1  0.343491D+00         -0.464084         -1.068593
 Vib (Bot)    2  0.255913D+00         -0.591907         -1.362917
 Vib (V=0)       0.127515D+01          0.105562          0.243065
 Vib (V=0)    1  0.110662D+01          0.043998          0.101309
 Vib (V=0)    2  0.106169D+01          0.025996          0.059859
 Electronic      0.100000D+01          0.000000          0.000000
 Translational   0.196526D+08          7.293420         16.793719
 Rotational      0.277070D+05          4.442589         10.229439

     ==================================================
      Anharmonic Data: Displacement Vectors Definition
     ==================================================

 Framework definition based on atomic masses: CS  

 **********************************************************************

                  Harmonic vibro-rotational analysis

 **********************************************************************


     ==================================================
               Analysis of the Rotor Symmetry
     ==================================================

 Framework Group : CS  
 Rotor Type      : Asymmetric Top
 Asymm. param.   : Kappa =  0.766587
 Inertia moments : X=    41.63180 , Y=    39.12710 , Z=    80.75890
 Representation  : IIIl Representation, Iy < Ix < Iz

 Axes Definition for the Symmetric-Top Representation
 ----------------------------------------------------
 Axis Z automatically chosen to be collinear with Z from Eckart orient.
 NOTE: In Vibro-rotational analysis, this will be referred to as the
       spectroscopic orientation.

     ==================================================
        Vibro-Rotational Analysis Based on Symmetry
     ==================================================

 Representation A'  
 ------------------
    X Translation
    Y Translation
    Z Rotation
    7 Vibrations with frequencies:
   3718.07   1846.23   1343.43   1315.93    894.55    665.82
    589.67

 Representation A"  
 ------------------
    Z Translation
    X Rotation
    Y Rotation
    2 Vibrations with frequencies:
    775.49    484.87

 Input/Output information
 ------------------------
 Normal modes will be PRINTED in DESCENDING order (imag. freq. first)
   and sorted by irreducible representation
 The connection between this new numbering (A) and the one used before
   (H) is reported in the present equivalency table:
 ----+------+------+------+------+------+------+------+------+------+
 (H) |     1|     2|     3|     4|     5|     6|     7|     8|     9|
 (A) |     9|     7|     6|     8|     5|     4|     3|     2|     1|
 ----+------+------+------+------+------+------+------+------+------+

 Normal modes will be READ in ASCENDING order (imag. freq. first)

 Analysis of symmetry-allowed terms
 ----------------------------------

     ==================================================
                   Coriolis Couplings
     ==================================================

 Coriolis Couplings along the X axis
 -----------------------------------
                1             2             3             4             5 
      1   0.000000D+00
      2   0.000000D+00  0.000000D+00
      3   0.000000D+00  0.000000D+00  0.000000D+00
      4   0.000000D+00  0.000000D+00  0.000000D+00  0.000000D+00
      5   0.000000D+00  0.000000D+00  0.000000D+00  0.000000D+00  0.000000D+00
      6   0.000000D+00  0.000000D+00  0.000000D+00  0.000000D+00  0.000000D+00
      7   0.000000D+00  0.000000D+00  0.000000D+00  0.000000D+00  0.000000D+00
      8   0.766879D-02 -0.193139D+00  0.671555D-01  0.704566D+00  0.671214D+00
      9  -0.395821D+00  0.219014D+00  0.797087D+00 -0.102139D+00  0.102679D+00
                6             7             8             9 
      6   0.000000D+00
      7   0.000000D+00  0.000000D+00
      8  -0.105216D+00 -0.108301D-01  0.000000D+00
      9  -0.862778D-01  0.362755D+00  0.000000D+00  0.000000D+00

 Coriolis Couplings along the Y axis
 -----------------------------------
                1             2             3             4             5 
      1   0.000000D+00
      2   0.000000D+00  0.000000D+00
      3   0.000000D+00  0.000000D+00  0.000000D+00
      4   0.000000D+00  0.000000D+00  0.000000D+00  0.000000D+00
      5   0.000000D+00  0.000000D+00  0.000000D+00  0.000000D+00  0.000000D+00
      6   0.000000D+00  0.000000D+00  0.000000D+00  0.000000D+00  0.000000D+00
      7   0.000000D+00  0.000000D+00  0.000000D+00  0.000000D+00  0.000000D+00
      8   0.585859D-02 -0.922865D+00  0.102695D+00 -0.157927D+00 -0.109227D+00
      9  -0.906402D+00 -0.874441D-01 -0.382299D+00 -0.473062D-01  0.614882D-01
                6             7             8             9 
      6   0.000000D+00
      7   0.000000D+00  0.000000D+00
      8   0.381373D-01 -0.315300D+00  0.000000D+00
      9   0.850607D-01 -0.106690D+00  0.000000D+00  0.000000D+00

 Coriolis Couplings along the Z axis
 -----------------------------------
                1             2             3             4             5 
      1   0.000000D+00
      2   0.206314D+00  0.000000D+00
      3   0.916401D+00  0.457722D-01  0.000000D+00
      4  -0.104166D+00  0.577681D+00 -0.114735D-01  0.000000D+00
      5   0.734322D-01  0.715760D+00 -0.867280D-01  0.527710D-01  0.000000D+00
      6  -0.631868D-01  0.327300D+00 -0.364831D+00  0.313469D-01  0.292537D-01
      7   0.295333D+00 -0.467390D-01  0.161247D-01  0.560152D+00 -0.159564D-01
      8   0.000000D+00  0.000000D+00  0.000000D+00  0.000000D+00  0.000000D+00
      9   0.000000D+00  0.000000D+00  0.000000D+00  0.000000D+00  0.000000D+00
                6             7             8             9 
      6   0.000000D+00
      7  -0.770124D+00  0.000000D+00
      8   0.000000D+00  0.000000D+00  0.000000D+00
      9   0.000000D+00  0.000000D+00  0.000000D+00  0.000000D+00

   14 Coriolis couplings larger than .100D-02 along the X axis
   14 Coriolis couplings larger than .100D-02 along the Y axis
   21 Coriolis couplings larger than .100D-02 along the Z axis

     ==================================================
      Inertia Moments Derivatives w.r.t. Normal Modes
     ==================================================

 Units: amu^1/2.Ang

                 Ixx        Ixy        Iyy        Ixz        Iyz        Izz
 Q(     1)     0.26204    0.69674    1.55196    0.00000    0.00000    1.81400
 Q(     2)     0.43732    2.07153   -0.40996    0.00000    0.00000    0.02736
 Q(     3)    -2.63483   -3.61620    0.28459    0.00000    0.00000   -2.35024
 Q(     4)    -2.17512   -0.33076   -8.27046    0.00000    0.00000  -10.44558
 Q(     5)     4.45881    0.85489    7.87449    0.00000    0.00000   12.33330
 Q(     6)   -11.53655    2.03830    4.32816    0.00000    0.00000   -7.20839
 Q(     7)     1.19307    7.60517   -2.21256    0.00000    0.00000   -1.01949
 Q(     8)    -0.00000    0.00000   -0.00000    0.00000    0.00000   -0.00000
 Q(     9)    -0.00000   -0.00000    0.00000    0.00000    0.00000    0.00000

     ==================================================
               Vibro-rotational Alpha Matrix
     ==================================================

 Vibro-Rot alpha Matrix (in cm^-1)
 ---------------------------------
                 A(y)           B(x)           C(z)
 Q(     1)       -0.00026       -0.00004       -0.00008
 Q(     2)       -0.00068       -0.00007       -0.00023
 Q(     3)       -0.00023       -0.00066        0.00004
 Q(     4)       -0.00041       -0.00067       -0.00004
 Q(     5)       -0.00058       -0.00265       -0.00002
 Q(     6)       -0.00026       -0.00118       -0.00136
 Q(     7)       -0.00039       -0.00146        0.00147
 Q(     8)        0.00047        0.00312       -0.00000
 Q(     9)        0.00098        0.00173       -0.00000

 Vibro-Rot alpha Matrix (in MHz)
 -------------------------------
                 A(y)           B(x)           C(z)
 Q(     1)       -7.71281       -1.29982       -2.51356
 Q(     2)      -20.43993       -2.06440       -6.87111
 Q(     3)       -6.75914      -19.64767        1.30557
 Q(     4)      -12.25633      -19.95363       -1.09258
 Q(     5)      -17.41232      -79.38197       -0.67004
 Q(     6)       -7.86546      -35.40639      -40.80708
 Q(     7)      -11.71214      -43.79994       44.04473
 Q(     8)       14.11469       93.53440       -0.00000
 Q(     9)       29.42992       51.95073       -0.00000

     ==================================================
          Quartic Centrifugal Distortion Constants
     ==================================================

 NOTE: Values in Cartesian coords. refer to the structure in Eckart orientation.

 Quartic Centrifugal Distortion Constants Tau Prime
 --------------------------------------------------
                      cm^-1                    MHz
 TauP aaaa     -0.1419280075D-05        -0.4254894623D-01
 TauP bbaa     -0.2195863611D-05        -0.6583033493D-01
 TauP bbbb     -0.2142023183D-05        -0.6421623952D-01
 TauP ccaa     -0.2057227466D-06        -0.6167412788D-02
 TauP ccbb     -0.4566801358D-06        -0.1369092604D-01
 TauP cccc     -0.1696516670D-06        -0.5086029026D-02

 Asymmetric Top Reduction
 ------------------------
       Asymmetry parameter     | Reference formula
  Kappa :         0.7665870969 |    [2B-A-C]/[A-C]
  Delta :         0.8832935484 |       [B-C]/[A-C]
  Sigma :        16.1371422076 | [2A'-B'-C']/[B'-C']

 (A,B,C)   : equilibrium rotational constants
 (A',B',C'): effective rotational constants

 Constants in the Asymmetrically reduced Hamiltonian
 ---------------------------------------------------
                        cm^-1                   MHz
  DELTA J  :    0.4451629073D-06         0.1334564822D-01
  DELTA K  :    0.2181721080D-06         0.6540635252D-02
  DELTA JK :   -0.6209220985D-06        -0.1861477621D-01
  delta J  :    0.4517144426D-07         0.1354205831D-02
  delta K  :   -0.8513436200D-06        -0.2552263964D-01

 Effective Rotational Constants
 (Include Terms due to Quartic Centrifugal Distortion Constants)
 ---------------------------------------------------------------
           Be in cm^-1             B(A) in cm^-1            B(A) in MHz
 a          0.430842774             0.430844345              12916.38853
 b          0.404921972             0.404920193              12139.20199
 c          0.208740206             0.208740414               6257.88018

 Nielsen Centrifugal Distortion Constants
 ----------------------------------------
                cm^-1                    MHz
 DJ     0.4711136561D-06         0.1412363210D-01
 DJK   -0.7766265916D-06        -0.2328267949D-01
 DK     0.3479258523D-06         0.1043055465D-01
 dJ     0.4517144426D-07         0.1354205831D-02
 R5     0.6900885309D-08         0.2068833369D-03
 R6     0.1297537443D-07         0.3889919393D-03

 Constants in the Symmetrically Reduced Hamiltonian
 --------------------------------------------------
                    cm^-1                     MHz
  D J  :    0.4715412960D-06         0.1413645242D-01
  D JK :   -0.7791924308D-06        -0.2335960141D-01
  D K  :    0.3500640516D-06         0.1049465625D-01
  d 1  :   -0.4517144426D-07        -0.1354205831D-02
  d 2  :    0.1318919436D-07         0.3954020996D-03


 Effective Rotational Constants
 (Include Terms due to Quartic Centrifugal Distortion Constants)
 ---------------------------------------------------------------
           Be in cm^-1             B(S) in cm^-1            B(S) in MHz
 a          0.430842774             0.430842695              12916.33907
 b          0.404921972             0.404921948              12139.25461
 c          0.208740206             0.208740282               6257.87623

 Wilson Centrifugal Distortion Constants
 ---------------------------------------
                cm^-1                    MHz
 DJ     0.5355057958D-06         0.1605405988D-01
 DJK   -0.8426715237D-06        -0.2526265674D-01
 DK     0.3495786447D-06         0.1048010411D-01

 Nielsen Centrifugal Distortion Constants
 ----------------------------------------
                cm^-1                    MHz
 DJ     0.4711136561D-06         0.1412363210D-01
 DJK   -0.7766265916D-06        -0.2328267949D-01
 DK     0.3479258523D-06         0.1043055465D-01
 dJ     0.4517144426D-07         0.1354205831D-02
 R5     0.6900885309D-08         0.2068833369D-03
 R6     0.1297537443D-07         0.3889919393D-03

     ==================================================
       Average Coordinates and Mean Square Amplitudes
     ==================================================

 NOTE: Temperature is given in K between parentheses
       For Cartesian and internal coords., units are given between
       parentheses next to each label

 Mean Square Amplitudes of Normal Coordinates (in amu.bohr^2)
 -----------------------------------------------------------
 Mode    <Q^2> (0)    <Q^2> (298.15)    <Q^2> (298.15) class.
    1     0.016191       0.016191          0.071251
    2     0.032607       0.032616          0.288972
    3     0.044810       0.044948          0.545749
    4     0.045747       0.045907          0.568804
    5     0.067296       0.069116          1.230879
    6     0.090414       0.097995          2.221826
    7     0.102091       0.114686          2.832762
    8     0.077628       0.081397          1.637859
    9     0.124158       0.150633          4.189703

 Mean Square Amplitudes of Cartesian Coordinates
 -----------------------------------------------
    Label        <(S-Se)^2>^1/2 (0)    <(S-Se)^2>^1/2 (298.15)
 X(1)  (Angs)        0.080702              0.082054
 Y(1)  (Angs)        0.110136              0.111465
 Z(1)  (Angs)        0.177012              0.194950
 X(2)  (Angs)        0.024445              0.025680
 Y(2)  (Angs)        0.032668              0.033823
 Z(2)  (Angs)        0.014540              0.015725
 X(3)  (Angs)        0.025725              0.026237
 Y(3)  (Angs)        0.029459              0.029715
 Z(3)  (Angs)        0.034624              0.035455
 X(4)  (Angs)        0.026246              0.026681
 Y(4)  (Angs)        0.026963              0.028246
 Z(4)  (Angs)        0.011801              0.012206
 X(5)  (Angs)        0.025168              0.025596
 Y(5)  (Angs)        0.027575              0.028767
 Z(5)  (Angs)        0.012580              0.013068
 ***** Axes restored to original set *****
 -------------------------------------------------------------------
 Center     Atomic                   Forces (Hartrees/Bohr)
 Number     Number              X              Y              Z
 -------------------------------------------------------------------
      1        1           0.000000011   -0.000000382   -0.000000000
      2        8          -0.000005601   -0.000004368   -0.000000000
      3        7           0.000020543    0.000009562   -0.000000000
      4        8          -0.000006897   -0.000002579   -0.000000000
      5        8          -0.000008056   -0.000002234   -0.000000000
 -------------------------------------------------------------------
 Cartesian Forces:  Max     0.000020543 RMS     0.000006773
 FormGI is forming the generalized inverse of G from B-inverse, IUseBI=4.
 NDeriv=      9 NFrqRd=  0 NDerD0=      0 MskFDP=       0 MskDFD=       0 MskDF0=       0
 At 1st pt F.D. properties file   721 does not exist.
 At 1st pt F.D. properties file   722 does not exist.
 D2Numr ... symmetry will not be used.
 Standard basis: Aug-CC-pVTZ (5D, 7F)
   207 basis functions,   315 primitive gaussians,   245 cartesian basis functions
    16 alpha electrons       16 beta electrons
       nuclear repulsion energy       126.1050415186 Hartrees.
 NAtoms=    5 NActive=    5 NUniq=    5 SFac= 1.00D+00 NAtFMM=   60 NAOKFM=F Big=F
 Integral buffers will be    131072 words long.
 Raffenetti 1 integral format.
 Two-electron integral symmetry is turned off.
 One-electron integrals computed using PRISM.
 NBasis=   207 RedAO= T EigKep=  1.05D-04  NBF=   207
 NBsUse=   207 1.00D-06 EigRej= -1.00D+00 NBFU=   207
 Initial guess from the checkpoint file:  "hno3_mp2_avtz_opt_anharm.chk"
 B after Tr=     0.000000   -0.000000    0.000278
         Rot=    1.000000    0.000169    0.000070   -0.000000 Ang=   0.02 deg.
 Keep R1 ints in memory in canonical form, NReq=245625006.
 Requested convergence on RMS density matrix=1.00D-08 within 128 cycles.
 Requested convergence on MAX density matrix=1.00D-06.
 Requested convergence on             energy=1.00D-06.
 No special actions if energy rises.
 SCF Done:  E(RHF) =  -279.561075891     A.U. after   10 cycles
            NFock= 10  Conv=0.32D-08     -V/T= 2.0023
 ExpMin= 2.53D-02 ExpMax= 1.53D+04 ExpMxC= 5.22D+02 IAcc=3 IRadAn=         5 AccDes= 0.00D+00
 HarFok:  IExCor=  205 AccDes= 0.00D+00 IRadAn=         5 IDoV=-2 UseB2=F ITyADJ=14
 ICtDFT= 12500011 ScaDFX=  1.000000  1.000000  1.000000  1.000000
 Range of M.O.s used for correlation:     5   207
 NBasis=   207 NAE=    16 NBE=    16 NFC=     4 NFV=     0
 NROrb=    203 NOA=    12 NOB=    12 NVA=   191 NVB=   191

 **** Warning!!: The largest alpha MO coefficient is  0.23715235D+02

 Disk-based method using ON**2 memory for 12 occupieds at a time.
 Permanent disk used for amplitudes=    11516536 words.
 Estimated scratch disk usage=   317626431 words.
 Actual    scratch disk usage=   310286399 words.
 JobTyp=1 Pass  1:  I=   5 to  16 NPSUse= 28 ParTrn=T ParDer=T DoDerP=T.
 (rs|ai) integrals will be sorted in core.
 Spin components of T(2) and E(2):
     alpha-alpha T2 =       0.3476011748D-01 E2=     -0.1272577536D+00
     alpha-beta  T2 =       0.1800697744D+00 E2=     -0.6987355661D+00
     beta-beta   T2 =       0.3476011748D-01 E2=     -0.1272577536D+00
 ANorm=    0.1117850620D+01
 E2 =    -0.9532510734D+00 EUMP2 =    -0.28051432696437D+03
 G2DrvN: will do     6 centers at a time, making    1 passes.
 Calling FoFCou, ICntrl=  3107 FMM=F I1Cent=   0 AccDes= 0.00D+00.
 End of G2Drv F.D. properties file   721 does not exist.
 End of G2Drv F.D. properties file   722 does not exist.
 End of G2Drv F.D. properties file   788 does not exist.
          IDoAtm=11111
          Differentiating once with respect to electric field.
                with respect to dipole field.
          Differentiating once with respect to nuclear coordinates.
 Keep R1 ints in memory in canonical form, NReq=245626207.
          There are    18 degrees of freedom in the 1st order CPHF.  IDoFFX=6 NUNeed=    18.
     15 vectors produced by pass  0 Test12= 1.70D-14 5.56D-09 XBig12= 9.45D+00 2.28D+00.
 AX will form    15 AO Fock derivatives at one time.
     15 vectors produced by pass  1 Test12= 1.70D-14 5.56D-09 XBig12= 1.53D+00 2.53D-01.
     15 vectors produced by pass  2 Test12= 1.70D-14 5.56D-09 XBig12= 6.06D-02 7.14D-02.
     15 vectors produced by pass  3 Test12= 1.70D-14 5.56D-09 XBig12= 2.09D-03 1.02D-02.
     15 vectors produced by pass  4 Test12= 1.70D-14 5.56D-09 XBig12= 3.91D-05 1.05D-03.
     15 vectors produced by pass  5 Test12= 1.70D-14 5.56D-09 XBig12= 6.12D-07 2.10D-04.
     15 vectors produced by pass  6 Test12= 1.70D-14 5.56D-09 XBig12= 5.33D-09 1.59D-05.
     11 vectors produced by pass  7 Test12= 1.70D-14 5.56D-09 XBig12= 3.65D-11 9.54D-07.
      3 vectors produced by pass  8 Test12= 1.70D-14 5.56D-09 XBig12= 2.62D-13 7.73D-08.
      2 vectors produced by pass  9 Test12= 1.70D-14 5.56D-09 XBig12= 2.27D-15 1.14D-08.
 InvSVY:  IOpt=1 It=  1 EMax= 1.89D-15
 Solved reduced A of dimension   121 with    15 vectors.
 End of Minotr F.D. properties file   721 does not exist.
 End of Minotr F.D. properties file   722 does not exist.
 End of Minotr F.D. properties file   788 does not exist.
 MDV=  5502926848.
 Form MO integral derivatives with frozen-active canonical formalism.
[...]
   zy         0.108529D+01      0.160823D+00      0.178940D+00
   zz         0.321216D+02      0.475993D+01      0.529613D+01

 ----------------------------------------------------------------------
 1\1\GINC-N2280\Freq\RMP2-FC\Aug-CC-pVTZ\H1N1O3\GDS001\24-Jun-2021\0\\#
 N Geom=AllCheck Guess=TCheck SCRF=Check GenChk RMP2(FC)/Aug-CC-pVTZ Fr
 eq\\HNO3\\0,1\H,0.639838,-1.604133,0.\O,-0.258474,-1.229985,0.\N,0.,0.
 152128,0.\O,1.171162,0.467774,0.\O,-0.992668,0.829615,0.\\Version=ES64
 L-G16RevA.03\State=1-A'\HF=-279.5610799\MP2=-280.5143286\RMSD=5.829e-1
 0\RMSF=6.773e-06\ZeroPoint=0.0265043\Thermal=0.0300272\Dipole=0.446795
 8,-0.7246444,0.\DipoleDeriv=0.2146349,-0.0769904,0.,-0.0659796,0.33160
 65,0.,0.,0.,0.3421996,-0.2387392,-0.0295581,0.,-0.0683288,-1.3485701,0
 .,0.,0.,-0.265127,1.6896332,0.051123,0.,-0.0159144,2.0949956,0.,0.,0.,
 0.2307435,-0.9254398,-0.1605931,0.,-0.1309533,-0.5188537,0.,0.,0.,-0.1
 64803,-0.740089,0.2160186,0.,0.2811762,-0.5591782,0.,0.,0.,-0.1430131\
 Polar=32.7917313,-1.6546916,29.8263436,0.,0.,16.70491\Quadrupole=-1.46
 33805,0.8747575,0.588623,-1.8532448,0.,0.\PG=CS [SG(H1N1O3)]\NImag=0\\
 0.42517749,-0.16184769,0.13412262,0.,0.,0.00818841,-0.43208319,0.10831
 837,0.,0.58077517,0.16997775,-0.10156968,0.,-0.11771923,0.32398536,0.,
 0.,-0.00815548,0.,0.,0.02516667,0.00856280,0.05706132,0.,-0.12191546,-
 0.03247835,0.,1.19847435,0.00521634,-0.02524722,0.,0.01164286,-0.10103
 891,0.,-0.14536660,0.55164975,0.,0.,-0.00371002,0.,0.,-0.06085012,0.,0
 .,0.24610328,-0.00631840,-0.00288675,0.,-0.02519565,-0.04941282,0.,-0.
 59122885,-0.08422244,0.,0.68978399,-0.00652957,0.00640913,0.,-0.071554
 36,-0.04764666,0.,-0.13529899,-0.15709797,0.,0.15843332,0.17472219,0.,
 0.,-0.00170859,0.,0.,0.02553043,0.,0.,-0.08946060,0.,0.,0.03366883,0.0
 0466129,-0.00064525,0.,-0.00158087,0.02963265,0.,-0.49389285,0.2127298
 4,0.,-0.06704110,0.05494960,0.,0.55785353,-0.00681683,-0.01371486,0.,0
 .06931235,-0.07373011,0.,0.25608262,-0.26826565,0.,-0.02191130,0.02361
 331,0.,-0.29666684,0.33209731,0.,0.,0.00538567,0.,0.,0.01830850,0.,0.,
 -0.09208255,0.,0.,0.03196992,0.,0.,0.03641846\\-0.00000001,0.00000038,
 0.,0.00000560,0.00000437,0.,-0.00002054,-0.00000956,0.,0.00000690,0.00
 000258,0.,0.00000806,0.00000223,0.\\0.,0.,0.,0.24723025,-0.09841865,0.
 ,0.,0.,-0.24604014,0.,0.,0.,0.11293786,0.,0.,-0.25197385,0.07573315,0.
 ,0.27045271,-0.10019456,0.,0.,0.,-0.00714859,0.,0.,-0.01419076,0.,0.,0
 .,-0.00238102,0.,0.,0.01102388,0.,0.,0.00695039,0.02755831,0.,-0.02699
 324,-0.01389881,0.,0.01212715,-0.01197126,0.,0.,0.,0.00124316,0.,0.,-0
 .00047434,0.,0.,0.00373157,0.,0.,0.,-0.00482662,0.,0.,0.00230421,0.,0.
 ,0.00287030,0.,0.,-0.00059248,-0.00335523,0.,-0.00099065,-0.00302447,0
 .,0.00860491,0.00652328,0.,-0.00717872,0.00068122,0.,0.,0.,0.00471532,
 0.,0.,-0.00381375,0.,0.,0.00418413,0.,0.,0.00015693,0.,0.,0.,-0.007311
 56,0.,0.,0.01113332,0.,0.,-0.00455854,0.,0.,-0.00082479,0.,0.,-0.00161
 430,-0.00151758,0.,0.00357131,0.00417998,0.,0.00060729,-0.00319487,0.,
 0.00267833,-0.00102911,0.,-0.00524264,0.00156158,0.,0.04616304,0.04701
 482,-0.04370943,0.,0.,0.00157189,-0.03714943,-0.05336947,0.,0.04918461
 ,-0.05148457,0.04897079,0.,0.08831792,-0.04614415,0.,0.,-0.00278866,0.
 ,0.,0.00328383,-0.00267169,0.01028823,0.,-0.00919290,-0.01344880,0.,-0
 .00841893,0.00928800,-0.00620318,0.,-0.00268023,-0.01142478,0.,-0.0205
 0151,0.03444724,0.,0.,0.00321097,0.,0.,-0.00451953,0.,0.,0.00239393,-0
 .00414270,-0.00159555,0.,-0.00725265,-0.01570059,0.,-0.00880951,0.0119
 1958,0.,0.01719916,-0.00472450,-0.00097877,0.,-0.02092952,-0.02244421,
 0.,0.02089996,0.00713742,0.,-0.00200295,0.01835909,0.,0.,-0.00122057,0
 .,0.,0.00863897,0.,0.,-0.00009038,0.,0.,-0.00674872,-0.00219921,-0.002
 33803,0.,0.00441037,-0.00768396,0.,0.02909303,0.00197416,0.,0.00300569
 ,0.00675702,0.,-0.03430988,-0.00009375,0.00192058,0.,-0.01133870,0.031
 04234,0.,0.00276212,-0.02395670,0.,0.00737951,-0.00207354,0.,0.0012908
 2,-0.00693268,0.,0.,-0.00077363,0.,0.,-0.00461462,0.,0.,-0.00099498,0.
 ,0.,-0.00057931,0.,0.,0.00696255,-0.01176021,-0.01258457,0.01980745,0.
 ,0.,0.00231256,0.01271575,0.00512376,0.,0.01779040,0.01222765,-0.01246
 579,0.,0.01326355,0.17451005,0.,0.,-0.00345996,0.,0.,-0.00978253,-0.00
 025764,0.00620415,0.,-0.00756480,-0.02346113,0.,-0.00794798,0.00090210
 ,-0.00665213,0.,-0.01888444,-0.13084223,0.,0.01664883,0.13106071,0.,0.
 ,0.00020827,0.,0.,-0.00084294,0.,0.,0.00904724,-0.00219221,0.00015579,
 0.,-0.01507829,-0.01369946,0.,0.01975165,0.00797362,0.,-0.03664500,-0.
 00169196,0.00023912,0.,-0.02152796,-0.00734821,0.,0.03188597,-0.005946
 29,0.,0.00454027,0.01012559,0.,0.,-0.00051057,0.,0.,0.00762152,0.,0.,-
 0.00434721,0.,0.,0.00348421,0.00149431,0.00110088,0.,-0.00786306,0.011
 66939,0.,-0.00398122,-0.00664011,0.,0.03416385,-0.01320632,0.,-0.02381
 389,0.00114678,-0.00092866,0.,0.02202509,-0.02385383,0.,-0.03127782,0.
 01237993,0.,0.00102978,0.00292979,0.,0.00707617,0.00947276,0.,0.,0.001
 44970,0.,0.,0.00646391,0.,0.,-0.00406536,0.,0.,-0.00624796,0.,0.,0.002
 39971,0.,0.,0.,0.00203568,0.00787676,0.,0.,0.,-0.00778312,0.,0.,0.,-0.
 00389913,0.,0.,-0.00257772,-0.00791625,0.,0.00724420,0.00382193,0.,0.,
 0.,0.00672206,0.,0.,-0.00622743,0.00000001,0.,0.,-0.00501782,0.,0.,-0.
 00717997,0.,0.,-0.00132711,-0.00011406,0.,0.00482155,0.01112249,0.,-0.
 00924412,-0.04054319,0.,0.,0.,-0.00019116,0.,0.,0.00616545,0.,0.,0.032
 73655,0.,0.,0.,0.00072844,0.,0.,0.00489231,0.,0.,0.00923467,0.,0.,0.00
 086425,0.00079067,0.,-0.00266777,-0.00561486,0.,0.07331088,0.01379952,
 0.,-0.05521610,-0.01717589,0.,0.,0.,-0.00078347,0.,0.,-0.00460451,0.,0
 .,-0.02698687,0.,0.,-0.01629125,0.,0.,0.,0.00031175,0.,0.,0.00638197,0
 .,0.,0.02030008,0.,0.,0.00820056,0.,0.,0.00100489,-0.00063712,0.,-0.00
 161486,-0.00543043,0.,-0.06456140,0.03894145,0.,0.01650526,0.00232046,
 0.,0.04866610,-0.03519436,0.,0.01893167,0.01553051,-0.02560380,0.,0.,-
 0.00187503,-0.01808116,-0.00571286,0.,-0.00095059,-0.01568790,0.013839
 64,0.,-0.02366567,-0.23946791,0.,0.,0.00258576,0.,0.,0.00844390,-0.002
 47418,-0.01317353,0.,0.03237955,0.03742813,0.,-0.07862281,0.00040594,0
 .01629510,0.,0.02586189,0.21293432,0.,-0.02603578,-0.31679357,0.,0.,-0
 .00100867,0.,0.,-0.00288464,0.,0.,-0.00541077,0.00080796,-0.00001454,0
 .,-0.00601160,-0.00680573,0.,0.03834766,0.05883394,0.,-0.08856170,-0.0
 0018784,-0.00121303,0.,0.01159203,0.00334195,0.,0.05036026,0.02438222,
 0.,-0.04670353,-0.02565167,0.,0.,0.00128401,0.,0.,-0.00486098,0.,0.,0.
 00486057,0.,0.,0.01188343,0.00081570,0.00337042,0.,-0.00733621,0.00873
 118,0.,0.01036978,-0.05906600,0.,0.05541767,-0.01506091,0.,-0.05926695
 ,-0.00006071,-0.00331791,0.,-0.00807539,0.00935201,0.,-0.04857908,0.06
 318194,0.,-0.00531014,-0.00085947,0.,0.06202532,-0.06835657,0.,0.,-0.0
 0098607,0.,0.,-0.00328403,0.,0.,0.00444351,0.,0.,-0.01316703,0.,0.,0.0
 1299362,0.00473949,-0.01585708,0.00399061,0.,0.,-0.00215607,-0.0075319
 3,0.02381196,0.,0.01177170,0.02292140,-0.01965387,0.,-0.03839436,-0.08
 928699,0.,0.,0.00501608,0.,0.,-0.00825463,-0.00130177,-0.00887029,0.,0
 .01235889,0.02369815,0.,0.74299457,-0.00355809,0.02217024,0.,0.0222507
 2,0.16731644,0.,-0.11447803,-0.10726148,0.,0.,-0.00520454,0.,0.,-0.008
 10288,0.,0.,-0.05043729,0.00192266,-0.00088369,0.,-0.01398545,-0.02625
 566,0.,-0.44114541,-0.09811285,0.,0.50319682,-0.00191389,-0.00092550,0
 .,-0.01777311,-0.02670664,0.,-0.09752004,0.00615942,0.,0.10938668,0.00
 160364,0.,0.,0.00166478,0.,0.,0.00641247,0.,0.,0.03510430,0.,0.,-0.053
 35117,0.00217155,0.00179910,0.,-0.00261321,0.01803047,0.,-0.31290628,0
 .19389825,0.,-0.04998862,0.00782036,0.,0.36333656,-0.00159234,-0.00558
 148,0.,0.01010478,-0.03166894,0.,0.19717022,-0.08838462,0.,0.01586552,
 0.01986907,0.,-0.22154817,0.10576597,0.,0.,0.00067976,0.,0.,0.00492896
 ,0.,0.,0.02864042,0.,0.,0.01016962,0.,0.,-0.04441876,0.10676667,0.1352
 8100,-0.10236403,0.,0.,0.00646446,-0.08015188,-0.16226158,0.,0.0469847
 1,-0.16302757,0.15796884,0.,0.13236064,-0.19703026,0.,0.,-0.02881710,0
 .,0.,0.04956841,-0.01154260,0.03469355,0.,0.01303603,0.01936460,0.,0.0
 2737694,0.03019659,-0.04499880,0.,0.00611630,0.03598885,0.,-0.17580709
 ,0.08631895,0.,0.,0.02640821,0.,0.,-0.02847730,0.,0.,-0.00952195,-0.01
 023028,-0.00647096,0.,0.01438641,0.00662382,0.,0.08716618,0.02703850,0
 .,-0.07411440,-0.00834035,-0.00343139,0.,0.01823712,0.01002561,0.,0.02
 471097,-0.00733308,0.,-0.03237311,-0.00622713,0.,0.,-0.00299832,0.,0.,
 -0.00188125,0.,0.,-0.00829171,0.,0.,0.01246263,-0.00484192,-0.00124200
 ,0.,0.00574473,0.00467851,0.,-0.11603656,0.11245570,0.,-0.01720791,-0.
 00223463,0.,0.13234166,0.00589033,-0.00717462,0.,0.00554752,-0.0069530
 5,0.,0.09703798,-0.06997593,0.,0.00518175,0.00696599,0.,-0.11365758,0.
 07713762,0.,0.,-0.00105726,0.,0.,0.00960723,0.,0.,0.01988275,0.,0.,0.0
 0070865,0.,0.,-0.02914138,0.00872350,0.03596839,-0.01186547,0.,0.,0.00
 082122,-0.00304194,-0.04353622,0.,-0.00923439,-0.04181569,0.04049955,0
 .,0.03665647,-0.04367844,0.,0.,-0.01087639,0.,0.,0.01876233,-0.0083753
 8,0.00802784,0.,0.02388880,0.02480346,0.,0.15974178,0.00507945,-0.0275
 9163,0.,0.02260459,-0.00988561,0.,0.47262176,-0.14426538,0.,0.,0.01232
 723,0.,0.,-0.00967137,0.,0.,-0.00144014,0.00091005,-0.00346168,0.,0.00
 240056,-0.00752556,0.,-0.58783972,-0.16112587,0.,0.56174941,-0.0021876
 0,-0.00082133,0.,-0.00608932,-0.00042078,0.,-0.18379678,0.00362095,0.,
 0.18499904,0.00266479,0.,0.,-0.00016953,0.,0.,0.00055660,0.,0.,0.07209
 744,0.,0.,-0.07153788,0.00178378,0.00300166,0.,-0.01401303,-0.01211868
 ,0.,0.41258452,-0.33917993,0.,0.02277969,0.00707466,0.,-0.42313496,0.0
 0295544,-0.00022111,0.,-0.00963552,0.01348528,0.,-0.32165628,0.1781216
 8,0.,-0.01288593,-0.00504362,0.,0.34122229,-0.18634223,0.,0.,-0.002102
 53,0.,0.,0.00122882,0.,0.,-0.07331316,0.,0.,-0.00094663,0.,0.,0.075133
 50,-1.54894146,0.72400042,-0.11343116,0.,0.,0.27006071,1.56343647,-0.6
 8875387,0.,-1.57832393,-0.75270995,0.07391045,0.,0.74372914,-0.0562744
 7,0.,0.,-0.26654070,0.,0.,0.26255543,-0.01651824,-0.02210949,0.,0.0155
 4968,0.00135766,0.,-0.01312144,0.02099829,0.04270425,0.,-0.03989764,-0
 .01490691,0.,0.00722085,-0.02484361,0.,0.,-0.00352516,0.,0.,0.00201862
 ,0.,0.,-0.00387865,0.00051142,-0.00829189,0.,-0.00096545,-0.00067563,0
 .,0.01284677,0.00481936,0.,-0.00765205,0.00314195,-0.00956982,0.,-0.00
 609938,0.00562731,0.,0.00172370,-0.00330138,0.,0.00332483,0.00503009,0
 .,0.,0.00083249,0.,0.,0.00068329,0.,0.,0.00117472,0.,0.,-0.00171212,0.
 00151181,-0.00484517,0.,0.00030322,0.00829878,0.,0.00124323,0.00685916
 ,0.,-0.00474069,-0.00209111,0.,0.00168244,0.00456930,0.00638628,0.,-0.
 00897825,-0.00835638,0.,0.01180728,0.00034765,0.,0.00082333,0.00221380
 ,0.,-0.00822166,-0.00059134,0.,0.,-0.00082733,0.,0.,0.00128336,0.,0.,0
 .00421047,0.,0.,-0.00097838,0.,0.,-0.00368811,-1.09754951,0.49122872,-
 0.09352146,0.,0.,0.43249808,1.11270471,-0.45800440,0.,-1.16062982,-0.5
 1750541,0.08623215,0.,0.50580930,-0.07443428,0.,0.,-0.43687225,0.,0.,0
 .45532562,-0.01208106,-0.02895914,0.,0.03908260,0.00699613,0.,-0.02230
 819,0.01087637,0.01020362,0.,-0.02569988,-0.00647798,0.,0.00816302,-0.
 01082856,0.,0.,0.00771742,0.,0.,-0.02729335,0.,0.,0.01665330,0.0016692
 4,-0.00262674,0.,0.00082499,0.00068834,0.,-0.00226315,0.00575165,0.,-0
 .00208713,0.00292199,-0.00899523,0.,-0.00132595,0.00003148,0.,0.000299
 04,0.00669688,0.,-0.00134280,0.00220656,0.,0.,0.00265308,0.,0.,0.00037
 172,0.,0.,-0.00155139,0.,0.,-0.00121563,-0.00474339,-0.00163844,0.,0.0
 0801753,0.00401163,0.,-0.00243021,0.00090885,0.,0.00185605,-0.00055230
 ,0.,-0.00270000,0.01247832,0.00608092,0.,-0.02077908,-0.00535135,0.,0.
 01350095,0.00040604,0.,-0.00247045,0.00006031,0.,-0.00272974,-0.001195
 90,0.,0.,-0.00599633,0.,0.,0.00846827,0.,0.,0.00447403,0.,0.,-0.000257
 78,0.,0.,-0.00668816,-0.09311806,0.04645957,0.01112993,0.,0.,0.0130241
 7,0.09759026,-0.04376212,0.,-0.10336052,-0.05303726,-0.01428439,0.,0.0
 5678103,0.02118894,0.,0.,-0.01291161,0.,0.,0.00756526,-0.00149912,0.00
 112273,0.,0.00533644,0.00001990,0.,-0.02957907,0.00817170,0.00758332,0
 .,-0.00496841,0.01133232,0.,0.00410886,-0.02752931,0.,0.,-0.00040668,0
 .,0.,0.00217982,0.,0.,-0.00277450,-0.00288000,-0.00294534,0.,-0.000313
 03,-0.00793624,0.,0.01404116,0.00601310,0.,-0.01481640,-0.00191407,-0.
 00417783,0.,-0.00645477,-0.00914656,0.,0.00247734,-0.00033864,0.,0.006
 11710,0.01508305,0.,0.,-0.00012005,0.,0.,0.00243509,0.,0.,0.00067227,0
 .,0.,-0.00192053,-0.00009309,-0.00087484,0.,0.00074684,0.00417257,0.,0
 .01170062,-0.01332524,0.,0.00396828,-0.00022560,0.,-0.01632264,0.00032
 007,-0.00025102,0.,-0.00159574,-0.00909029,0.,-0.00772883,0.00895233,0
 .,-0.00124862,-0.00142001,0.,0.01025312,0.00180900,0.,0.,0.00041417,0.
 ,0.,0.00073146,0.,0.,0.00032908,0.,0.,-0.00106676,0.,0.,-0.00040793,-0
 .00651178,0.00228161,0.00154733,0.,0.,0.00115315,0.00793830,-0.0028311
 4,0.,-0.00288401,-0.00482807,-0.00072178,0.,0.02157882,0.09449772,0.,0
 .,-0.00174398,0.,0.,-0.01071846,-0.00082422,0.00063742,0.,0.00618890,-
 0.01840375,0.,-0.04638187,0.00165919,-0.00128498,0.,-0.01950185,-0.088
 17705,0.,0.02570295,0.09315622,0.,0.,0.00032054,0.,0.,0.00802462,0.,0.
 ,-0.00521702,-0.00056145,-0.00003108,0.,-0.00653250,-0.00091670,0.,0.0
 1876481,-0.00967247,0.,0.00069121,-0.00041172,-0.00035603,0.,-0.006002
 46,0.00033436,0.,0.00287449,-0.00234288,0.,0.00480873,0.00225565,0.,0.
 ,-0.00010746,0.,0.,0.00215193,0.,0.,-0.00125892,0.,0.,-0.00235872,-0.0
 0004085,-0.00005681,0.,-0.00471069,0.00256969,0.,0.02225240,0.00181219
 ,0.,-0.01236206,-0.00126904,0.,-0.00513880,0.00129899,0.00081546,0.,0.
 00675663,-0.00593325,0.,-0.01081112,-0.00135132,0.,0.00581152,0.000108
 91,0.,-0.00305603,0.00636020,0.,0.,0.00037775,0.,0.,0.00228589,0.,0.,-
 0.00186922,0.,0.,0.00157320,0.,0.,-0.00236761,0.00035905,-0.00024965,-
 0.00382131,0.,0.,0.00136560,-0.00016098,0.00302381,0.,-0.00597494,0.00
 067423,0.00206249,0.,-0.00328803,-0.01531086,0.,0.,-0.00084431,0.,0.,-
 0.00150684,-0.00108442,-0.00525672,0.,0.01145066,0.00348432,0.,-0.1780
 1409,-0.00110873,0.00237425,0.,0.00116318,0.01846429,0.,0.02765938,-0.
 07346111,0.,0.,-0.00013827,0.,0.,0.01096303,0.,0.,-0.00067615,0.001132
 70,0.00119025,0.,-0.00349861,-0.00356890,0.,0.09067374,0.02966754,0.,-
 0.08703087,0.00037677,-0.00017034,0.,0.00035477,-0.00260237,0.,0.02416
 072,0.01135776,0.,-0.02587343,-0.00558570,0.,0.,0.00016313,0.,0.,-0.00
 443967,0.,0.,-0.00548931,0.,0.,0.01763003,-0.00024635,0.00129231,0.,-0
 .00181613,0.00269838,0.,0.07697412,-0.05738138,0.,-0.00127696,0.000981
 17,0.,-0.07363469,0.00030738,-0.00044508,0.,-0.00125375,-0.00261354,0.
 ,-0.05004770,0.04126484,0.,-0.00141546,-0.00299934,0.,0.05240952,-0.03
 520688,0.,0.,-0.00054615,0.,0.,-0.00417221,0.,0.,-0.00465930,0.,0.,-0.
 00786416,0.,0.,0.01724182,-0.01069198,0.00226733,0.00066684,0.,0.,0.00
 105200,0.01130528,-0.00212889,0.,-0.02488036,-0.00613154,0.00255952,0.
 ,0.04515298,0.20519322,0.,0.,-0.00228478,0.,0.,-0.01999791,-0.00113808
 ,-0.00003519,0.,0.00783367,-0.03649073,0.,-0.08450099,0.00357720,-0.00
 557373,0.,-0.04098077,-0.20936235,0.,0.04765600,0.22483578,0.,0.,0.001
 38797,0.,0.,0.02018005,0.,0.,-0.01630988,0.00030668,0.00032560,0.,0.00
 329857,0.00246842,0.,0.04186678,-0.00037157,0.,-0.02927132,0.00010400,
 0.00003093,0.,0.00011984,0.00170244,0.,0.00597793,-0.00729520,0.,-0.00
 659492,0.00652196,0.,0.,-0.00030624,0.,0.,0.00115982,0.,0.,-0.00277009
 ,0.,0.,-0.00100422,0.00021809,-0.00042885,0.,0.00244283,-0.00499913,0.
 ,0.03593862,-0.00988086,0.,-0.01620071,0.00039315,0.,-0.02239884,0.000
 18300,0.00231645,0.,-0.00216316,-0.00009282,0.,-0.01710801,-0.00260449
 ,0.,0.00417247,-0.00096013,0.,0.01491570,0.00134099,0.,0.,0.00015106,0
 .,0.,0.00094282,0.,0.,-0.00248805,0.,0.,0.00292075,0.,0.,-0.00152658,-
 0.01760126,-0.00342186,0.00140236,0.,0.,-0.00013419,0.01880655,0.00344
 560,0.,-0.03044500,-0.00587577,-0.00015002,0.,0.02573829,0.09971760,0.
 ,0.,-0.00185775,0.,0.,-0.01377687,-0.00329105,0.00027486,0.,0.01439703
 ,-0.00447881,0.,0.76518211,0.00918170,0.00148575,0.,-0.02784848,-0.093
 60011,0.,-0.08197628,0.03182601,0.,0.,0.00110149,0.,0.,0.01459825,0.,0
 .,-0.10790896,0.00038199,-0.00142127,0.,0.00130545,-0.00138183,0.,-0.4
 8200399,-0.05051334,0.,0.49003254,0.00126561,-0.00084878,0.,-0.0042485
 7,-0.00833781,0.,-0.06402088,0.06536868,0.,0.05775936,-0.05295415,0.,0
 .,0.00051423,0.,0.,0.00087352,0.,0.,0.05266563,0.,0.,-0.05713908,0.001
 70376,0.00112267,0.,-0.00406404,-0.01400188,0.,-0.29428410,0.15115640,
 0.,-0.00971600,0.00924448,0.,0.30636036,-0.00114968,-0.00188932,0.,0.0
 0291316,0.00237037,0.,0.15020110,-0.00508033,0.,-0.00444291,-0.0032279
 4,0.,-0.14752167,0.00782722,0.,0.,0.00037622,0.,0.,0.00016288,0.,0.,0.
 03954359,0.,0.,0.00308572,0.,0.,-0.04316840,-0.90991019,0.36685069,0.0
 9826992,0.,0.,0.08616599,0.94157504,-0.33187400,0.,-1.00545716,-0.4641
 9378,-0.09657374,0.,0.40649512,0.08629173,0.,0.,-0.09014517,0.,0.,0.06
 485940,-0.00873966,-0.00442980,0.,0.04106708,0.04563020,0.,-0.03759188
 ,0.08918221,0.00710245,0.,-0.05682144,0.03188570,0.,-0.06391274,-0.031
 12398,0.,0.,0.00479844,0.,0.,0.02306488,0.,0.,-0.04497087,-0.01773344,
 -0.02202350,0.,0.01650728,-0.00192316,0.,0.03177507,-0.00154824,0.,-0.
 01148967,0.00100864,-0.02003063,0.,-0.00341045,0.01118079,0.,-0.011327
 14,-0.00586674,0.,0.01396038,0.01086439,0.,0.,-0.00038778,0.,0.,0.0003
 9231,0.,0.,0.00683289,0.,0.,-0.00633848,-0.00519176,-0.00852339,0.,0.0
 0630778,0.01399161,0.,-0.02651061,0.03310022,0.,-0.01905924,-0.0002314
 3,0.,0.04445383,0.00715225,0.01123201,0.,-0.01438923,-0.03278445,0.,0.
 03403947,-0.00199741,0.,0.01153452,0.00385220,0.,-0.03833701,0.0196976
 6,0.,0.,-0.00043148,0.,0.,0.00182860,0.,0.,0.01027466,0.,0.,-0.0004989
 5,0.,0.,-0.01117282,-0.05242618,0.01366577,0.00783071,0.,0.,0.00094213
 ,0.05418811,-0.00531685,0.,-0.07314693,-0.02178151,-0.00179364,0.,0.00
 750888,-0.03327028,0.,0.,-0.00259398,0.,0.,-0.00361353,0.00753476,0.01
 125008,0.,-0.03530772,0.01316108,0.,0.70955360,0.01285160,-0.00575456,
 0.,-0.00266760,0.03487394,0.,-0.18241897,0.27592454,0.,0.,0.00089637,0
 .,0.,0.00772776,0.,0.,-0.20053683,-0.00865263,-0.01393847,0.,0.0320794
 1,-0.01347530,0.,-0.34316341,-0.31559271,0.,0.49977819,-0.00448853,-0.
 00569048,0.,0.01180112,0.00607437,0.,-0.16529244,-0.02522530,0.,0.2093
 5214,-0.01654927,0.,0.,-0.00035368,0.,0.,0.00036003,0.,0.,0.09276208,0
 .,0.,-0.09577787,-0.00064407,-0.00566053,0.,0.02218710,0.01458685,0.,-
 0.33861722,0.48782769,0.,-0.18004155,-0.05137230,0.,0.49711573,-0.0002
 4733,0.00540797,0.,-0.01132555,-0.00588438,0.,0.32330024,-0.27981860,0
 .,0.13365434,0.04139068,0.,-0.44538170,0.23890433,0.,0.,0.00110915,0.,
 0.,-0.00188028,0.,0.,0.09915062,0.,0.,0.00300946,0.,0.,-0.10138896,5.2
 4742386,-2.63076841,-0.15919910,0.,0.,-1.32973941,-5.26851296,2.611378
 61,0.,5.27638063,2.66634878,0.18321407,0.,-2.64810431,-0.23934576,0.,0
 .,1.32736019,0.,0.,-1.32162781,0.01407881,0.01308666,0.,0.00047383,-0.
 01618508,0.,-0.02273328,-0.03441593,-0.03342126,0.,0.03881495,0.060708
 80,0.,-0.01297387,-0.04068255,0.,0.,0.00339124,0.,0.,-0.00390137,0.,0.
 ,-0.00052752,0.00404617,0.00339251,0.,-0.00565189,-0.00635126,0.,0.007
 92804,0.01353643,0.,-0.00573564,0.00377119,0.01851171,0.,-0.00075388,-
 0.01006039,0.,0.00304653,0.00166772,0.,-0.00556993,-0.01027182,0.,0.,-
 0.00239368,0.,0.,0.00080499,0.,0.,-0.00113740,0.,0.,0.00261950,0.00296
 412,0.00291062,0.,-0.00268960,0.00429188,0.,0.00025263,-0.00496157,0.,
 -0.00058668,-0.00049392,0.,0.00005951,-0.00493562,-0.00910542,0.,-0.00
 133537,0.00548329,0.,0.01302576,0.01172730,0.,-0.00500775,0.00015277,0
 .,-0.00174701,-0.00825794,0.,0.,0.00138165,0.,0.,-0.00263598,0.,0.,0.0
 0217505,0.,0.,0.00010659,0.,0.,-0.00102731\\@


 Sometimes the fool who rushes in gets the job done.
                                    -- Al Bernstein
 Job cpu time:       2 days  6 hours  7 minutes 49.2 seconds.
 Elapsed time:       0 days  1 hours 58 minutes  4.8 seconds.
 File lengths (MBytes):  RWF=   7344 Int=      0 D2E=      0 Chk=     52 Scr=      8
 Normal termination of Gaussian 16 at Thu Jun 24 16:43:39 2021.
