 Entering Gaussian System, Link 0=g16
 Input=ho2_mp2_opt_anharm.gjf
 Output=ho2_mp2_opt_anharm.log
 Initial command:
 /sw/contrib/gaussian/g16/A03/g16/l1.exe "/gscratch/scrubbed/gds001/Gau-20033.inp" -scrdir="/gscratch/scrubbed/gds001/"
 Entering Link 1 = /sw/contrib/gaussian/g16/A03/g16/l1.exe PID=     20034.
  
 Copyright (c) 1988,1990,1992,1993,1995,1998,2003,2009,2016,
            Gaussian, Inc.  All Rights Reserved.
  
 This is part of the Gaussian(R) 16 program.  It is based on
 the Gaussian(R) 09 system (copyright 2009, Gaussian, Inc.),
 the Gaussian(R) 03 system (copyright 2003, Gaussian, Inc.),
 the Gaussian(R) 98 system (copyright 1998, Gaussian, Inc.),
 the Gaussian(R) 94 system (copyright 1995, Gaussian, Inc.),
 the Gaussian 92(TM) system (copyright 1992, Gaussian, Inc.),
 the Gaussian 90(TM) system (copyright 1990, Gaussian, Inc.),
 the Gaussian 88(TM) system (copyright 1988, Gaussian, Inc.),
 the Gaussian 86(TM) system (copyright 1986, Carnegie Mellon
 University), and the Gaussian 82(TM) system (copyright 1983,
 Carnegie Mellon University). Gaussian is a federally registered
 trademark of Gaussian, Inc.
  
 This software contains proprietary and confidential information,
 including trade secrets, belonging to Gaussian, Inc.
  
 This software is provided under written license and may be
 used, copied, transmitted, or stored only in accord with that
 written license.
  
 The following legend is applicable only to US Government
 contracts under FAR:
  
                    RESTRICTED RIGHTS LEGEND
  
 Use, reproduction and disclosure by the US Government is
 subject to restrictions as set forth in subparagraphs (a)
 and (c) of the Commercial Computer Software - Restricted
 Rights clause in FAR 52.227-19.
  
 Gaussian, Inc.
 340 Quinnipiac St., Bldg. 40, Wallingford CT 06492
  
  
 ---------------------------------------------------------------
 Warning -- This program may not be used in any manner that
 competes with the business of Gaussian, Inc. or will provide
 assistance to any competitor of Gaussian, Inc.  The licensee
 of this program is prohibited from giving any competitor of
 Gaussian, Inc. access to this program.  By using this program,
 the user acknowledges that Gaussian, Inc. is engaged in the
 business of creating and licensing software in the field of
 computational chemistry and represents and warrants to the
 licensee that it is not a competitor of Gaussian, Inc. and that
 it will not use this program in any manner prohibited above.
 ---------------------------------------------------------------
  

 Cite this work as:
 Gaussian 16, Revision A.03,
 M. J. Frisch, G. W. Trucks, H. B. Schlegel, G. E. Scuseria, 
 M. A. Robb, J. R. Cheeseman, G. Scalmani, V. Barone, 
 G. A. Petersson, H. Nakatsuji, X. Li, M. Caricato, A. V. Marenich, 
 J. Bloino, B. G. Janesko, R. Gomperts, B. Mennucci, H. P. Hratchian, 
 J. V. Ortiz, A. F. Izmaylov, J. L. Sonnenberg, D. Williams-Young, 
 F. Ding, F. Lipparini, F. Egidi, J. Goings, B. Peng, A. Petrone, 
 T. Henderson, D. Ranasinghe, V. G. Zakrzewski, J. Gao, N. Rega, 
 G. Zheng, W. Liang, M. Hada, M. Ehara, K. Toyota, R. Fukuda, 
 J. Hasegawa, M. Ishida, T. Nakajima, Y. Honda, O. Kitao, H. Nakai, 
 T. Vreven, K. Throssell, J. A. Montgomery, Jr., J. E. Peralta, 
 F. Ogliaro, M. J. Bearpark, J. J. Heyd, E. N. Brothers, K. N. Kudin, 
 V. N. Staroverov, T. A. Keith, R. Kobayashi, J. Normand, 
 K. Raghavachari, A. P. Rendell, J. C. Burant, S. S. Iyengar, 
 J. Tomasi, M. Cossi, J. M. Millam, M. Klene, C. Adamo, R. Cammi, 
 J. W. Ochterski, R. L. Martin, K. Morokuma, O. Farkas, 
 J. B. Foresman, and D. J. Fox, Gaussian, Inc., Wallingford CT, 2016.
 
 ******************************************
 Gaussian 16:  ES64L-G16RevA.03 25-Dec-2016
                15-Aug-2020 
 ******************************************
 %nprocshared=28
 Will use up to   28 processors via shared memory.
 %mem=41GB
 %chk=ho2.chk
 ---------------------------------------------
 # MP2/aug-cc-pVDZ Opt Freq(vibrot,anharmonic)
 ---------------------------------------------
 1/18=20,19=15,38=1,80=1/1,3;
 2/9=110,12=2,17=6,18=5,40=1/2;
 3/5=16,7=10,11=9,25=1,30=1,71=1/1,2,3;
 4//1;
 5/5=2,38=5/2;
 8/6=4,10=1/1;
 9/15=2,16=-3/6;
 10/5=1/2;
 6/7=2,8=2,9=2,10=2/1;
 7/12=2/1,2,3,16;
 1/18=20,19=15,80=1/3(2);
 2/9=110/2;
 99//99;
 2/9=110/2;
 3/5=16,7=10,11=9,25=1,30=1,71=1/1,2,3;
 4/5=5,16=3,69=1/1;
 5/5=2,38=5/2;
 8/6=4,10=1/1;
 9/15=2,16=-3/6;
 10/5=1/2;
 7/12=2/1,2,3,16;
 1/18=20,19=15,80=1/3(-8);
 2/9=110/2;
 6/7=2,8=2,9=2,10=2/1;
 99//99;
 ---
 ho2
 ---
 Symbolic Z-matrix:
 Charge =  0 Multiplicity = 2
 O                     0.37722   1.13871  -0.99977 
 O                     0.14293   2.04079  -0.87895 
 H                     0.15135   2.55873  -0.58763 
 

 GradGradGradGradGradGradGradGradGradGradGradGradGradGradGradGradGradGrad
 Berny optimization.
 Initialization pass.
                           ----------------------------
                           !    Initial Parameters    !
                           ! (Angstroms and Degrees)  !
 --------------------------                            --------------------------
 ! Name  Definition              Value          Derivative Info.                !
 --------------------------------------------------------------------------------
 ! R1    R(1,2)                  0.9398         estimate D2E/DX2                !
 ! R2    R(2,3)                  0.5943         estimate D2E/DX2                !
 ! A1    A(1,2,3)              153.6374         estimate D2E/DX2                !
 --------------------------------------------------------------------------------
 Trust Radius=3.00D-01 FncErr=1.00D-07 GrdErr=1.00D-07 EigMax=2.50D+02 EigMin=1.00D-04
 Number of steps in this run=     20 maximum allowed number of steps=    100.
 GradGradGradGradGradGradGradGradGradGradGradGradGradGradGradGradGradGrad

                          Input orientation:                          
 ---------------------------------------------------------------------
 Center     Atomic      Atomic             Coordinates (Angstroms)
 Number     Number       Type             X           Y           Z
 ---------------------------------------------------------------------
      1          8           0        0.377219    1.138712   -0.999773
      2          8           0        0.142932    2.040793   -0.878952
      3          1           0        0.151348    2.558732   -0.587626
 ---------------------------------------------------------------------
                    Distance matrix (angstroms):
                    1          2          3
     1  O    0.000000
     2  O    0.939808   0.000000
     3  H    1.495774   0.594309   0.000000
 Stoichiometry    HO2(2)
 Framework group  CS[SG(HO2)]
 Deg. of freedom     3
 Full point group                 CS      NOp   2
 Largest Abelian subgroup         CS      NOp   2
 Largest concise Abelian subgroup C1      NOp   1
                         Standard orientation:                         
 ---------------------------------------------------------------------
 Center     Atomic      Atomic             Coordinates (Angstroms)
 Number     Number       Type             X           Y           Z
 ---------------------------------------------------------------------
      1          8           0        0.015524   -0.528869   -0.000000
      2          8           0        0.015524    0.410939    0.000000
      3          1           0       -0.248379    0.943441    0.000000
 ---------------------------------------------------------------------
 Rotational constants (GHZ):        8468.0900293          62.7505473          62.2889713
 Standard basis: Aug-CC-pVDZ (5D, 7F)
 There are    43 symmetry adapted cartesian basis functions of A'  symmetry.
 There are    16 symmetry adapted cartesian basis functions of A"  symmetry.
 There are    39 symmetry adapted basis functions of A'  symmetry.
 There are    16 symmetry adapted basis functions of A"  symmetry.
    55 basis functions,    97 primitive gaussians,    59 cartesian basis functions
     9 alpha electrons        8 beta electrons
       nuclear repulsion energy        45.9899738729 Hartrees.
 NAtoms=    3 NActive=    3 NUniq=    3 SFac= 1.00D+00 NAtFMM=   60 NAOKFM=F Big=F
 Integral buffers will be    131072 words long.
 Raffenetti 2 integral format.
 Two-electron integral symmetry is turned on.
 One-electron integrals computed using PRISM.
 NBasis=    55 RedAO= T EigKep=  2.25D-04  NBF=    39    16
 NBsUse=    55 1.00D-06 EigRej= -1.00D+00 NBFU=    39    16
 ExpMin= 2.97D-02 ExpMax= 1.17D+04 ExpMxC= 4.01D+02 IAcc=3 IRadAn=         5 AccDes= 0.00D+00
 Harris functional with IExCor=  205 and IRadAn=       5 diagonalized for initial guess.
 HarFok:  IExCor=  205 AccDes= 0.00D+00 IRadAn=         5 IDoV= 1 UseB2=F ITyADJ=14
 ICtDFT=  3500011 ScaDFX=  1.000000  1.000000  1.000000  1.000000
 FoFCou: FMM=F IPFlag=           0 FMFlag=      100000 FMFlg1=           0
         NFxFlg=           0 DoJE=T BraDBF=F KetDBF=T FulRan=T
         wScrn=  0.000000 ICntrl=       500 IOpCl=  0 I1Cent=   200000004 NGrid=           0
         NMat0=    1 NMatS0=      1 NMatT0=    0 NMatD0=    1 NMtDS0=    0 NMtDT0=    0
 Petite list used in FoFCou.
 Initial guess orbital symmetries:
 Alpha Orbitals:
       Occupied  (A') (A') (A') (A') (A') (A") (A') (A') (A")
       Virtual   (A') (A') (A') (A") (A') (A') (A') (A") (A') (A')
                 (A') (A") (A') (A') (A") (A') (A') (A') (A") (A')
                 (A") (A') (A") (A') (A') (A") (A') (A') (A") (A')
                 (A') (A') (A") (A') (A") (A') (A') (A") (A') (A")
                 (A') (A') (A") (A') (A') (A')
 Beta  Orbitals:
       Occupied  (A') (A') (A') (A') (A') (A") (A') (A')
       Virtual   (A") (A') (A') (A') (A") (A') (A') (A') (A") (A')
                 (A') (A') (A") (A') (A') (A") (A') (A') (A') (A")
                 (A') (A") (A') (A") (A') (A') (A") (A') (A') (A")
                 (A') (A') (A') (A") (A') (A") (A') (A') (A") (A')
                 (A") (A') (A') (A") (A') (A') (A')
 The electronic state of the initial guess is 2-A".
 Initial guess <Sx>= 0.0000 <Sy>= 0.0000 <Sz>= 0.5000 <S**2>= 0.7500 S= 0.5000
 Keep R1 and R2 ints in memory in symmetry-blocked form, NReq=7043244.
 Requested convergence on RMS density matrix=1.00D-08 within 128 cycles.
 Requested convergence on MAX density matrix=1.00D-06.
 Requested convergence on             energy=1.00D-06.
 No special actions if energy rises.
 SCF Done:  E(UHF) =  -149.485736040     A.U. after   14 cycles
            NFock= 14  Conv=0.25D-08     -V/T= 1.9727
 <Sx>= 0.0000 <Sy>= 0.0000 <Sz>= 0.5000 <S**2>= 0.7587 S= 0.5043
 <L.S>= 0.000000000000E+00
 Annihilation of the first spin contaminant:
 S**2 before annihilation     0.7587,   after     0.7501
 ExpMin= 2.97D-02 ExpMax= 1.17D+04 ExpMxC= 4.01D+02 IAcc=3 IRadAn=         5 AccDes= 0.00D+00
 HarFok:  IExCor=  205 AccDes= 0.00D+00 IRadAn=         5 IDoV=-2 UseB2=F ITyADJ=14
 ICtDFT= 12500011 ScaDFX=  1.000000  1.000000  1.000000  1.000000
 Range of M.O.s used for correlation:     3    55
 NBasis=    55 NAE=     9 NBE=     8 NFC=     2 NFV=     0
 NROrb=     53 NOA=     7 NOB=     6 NVA=    46 NVB=    47

 **** Warning!!: The largest alpha MO coefficient is  0.22687146D+02


 **** Warning!!: The largest beta MO coefficient is  0.22626820D+02

 Fully direct method using O(ONN) memory.
 JobTyp=2 Pass  1:  I=   3 to   9 NPSUse= 28 ParTrn=T ParDer=T DoDerP=T.
 JobTyp=3 Pass  1:  I=   3 to   8 NPSUse= 28 ParTrn=T ParDer=T DoDerP=T.
 Spin components of T(2) and E(2):
     alpha-alpha T2 =       0.1012461990D-01 E2=     -0.4842181409D-01
     alpha-beta  T2 =       0.5088815643D-01 E2=     -0.2390674047D+00
     beta-beta   T2 =       0.9688467819D-02 E2=     -0.4271589318D-01
 (S**2,0)=  0.75866D+00           (S**2,1)=  0.75066D+00
 E(PUHF)=      -0.14948985192D+03        E(PMP2)=      -0.14981816370D+03
 ANorm=    0.1034746947D+01
 E2 =    -0.3302051120D+00 EUMP2 =    -0.14981594115247D+03
          IDoAtm=111
          Differentiating once with respect to electric field.
                with respect to dipole field.
          Differentiating once with respect to nuclear coordinates.
 Keep R1 and R2 ints in memory in symmetry-blocked form, NReq=7044247.
          There are     1 degrees of freedom in the 1st order CPHF.  IDoFFX=0 NUNeed=     1.
 LinEq1:  Iter=  0 NonCon=     1 RMS=3.22D-03 Max=3.31D-02 NDo=     1
 AX will form     1 AO Fock derivatives at one time.
 LinEq1:  Iter=  1 NonCon=     1 RMS=7.63D-04 Max=8.31D-03 NDo=     1
 LinEq1:  Iter=  2 NonCon=     1 RMS=2.70D-04 Max=2.74D-03 NDo=     1
 LinEq1:  Iter=  3 NonCon=     1 RMS=4.95D-05 Max=4.91D-04 NDo=     1
 LinEq1:  Iter=  4 NonCon=     1 RMS=8.35D-06 Max=6.87D-05 NDo=     1
 LinEq1:  Iter=  5 NonCon=     1 RMS=2.01D-06 Max=2.14D-05 NDo=     1
 LinEq1:  Iter=  6 NonCon=     1 RMS=6.68D-07 Max=4.74D-06 NDo=     1
 LinEq1:  Iter=  7 NonCon=     1 RMS=2.33D-07 Max=2.46D-06 NDo=     1
 LinEq1:  Iter=  8 NonCon=     1 RMS=4.55D-08 Max=3.22D-07 NDo=     1
 LinEq1:  Iter=  9 NonCon=     1 RMS=7.44D-09 Max=5.36D-08 NDo=     1
 LinEq1:  Iter= 10 NonCon=     1 RMS=1.23D-09 Max=1.19D-08 NDo=     1
 LinEq1:  Iter= 11 NonCon=     1 RMS=3.16D-10 Max=2.84D-09 NDo=     1
 LinEq1:  Iter= 12 NonCon=     0 RMS=7.39D-11 Max=4.81D-10 NDo=     1
 Linear equations converged to 1.000D-10 1.000D-09 after    12 iterations.
 End of Minotr F.D. properties file   721 does not exist.
 End of Minotr F.D. properties file   722 does not exist.
 End of Minotr F.D. properties file   788 does not exist.

 **********************************************************************

            Population analysis using the SCF density.

 **********************************************************************

 Orbital symmetries:
 Alpha Orbitals:
       Occupied  (A') (A') (A') (A') (A") (A') (A') (A") (A')
       Virtual   (A') (A') (A') (A") (A') (A') (A") (A') (A') (A')
                 (A") (A') (A') (A") (A') (A') (A') (A") (A') (A')
                 (A") (A') (A") (A') (A') (A") (A") (A') (A') (A')
                 (A') (A') (A") (A') (A") (A') (A') (A") (A') (A')
                 (A") (A') (A") (A') (A') (A')
 Beta  Orbitals:
       Occupied  (A') (A') (A') (A') (A') (A') (A") (A')
       Virtual   (A') (A') (A') (A") (A") (A') (A') (A') (A") (A')
                 (A') (A') (A") (A') (A') (A") (A') (A') (A') (A")
                 (A') (A') (A") (A") (A') (A') (A") (A') (A") (A')
                 (A') (A') (A') (A") (A') (A') (A") (A') (A") (A')
                 (A") (A') (A') (A") (A') (A') (A')
 The electronic state is 2-A".
 Alpha  occ. eigenvalues --  -20.68528 -20.62276  -1.98144  -1.42933  -0.95912
 Alpha  occ. eigenvalues --   -0.91796  -0.85579  -0.39145  -0.35390
 Alpha virt. eigenvalues --    0.03501   0.12147   0.15878   0.15945   0.20020
 Alpha virt. eigenvalues --    0.23435   0.23900   0.24610   0.41245   0.45419
 Alpha virt. eigenvalues --    0.47649   0.48112   0.62412   0.85004   0.85034
 Alpha virt. eigenvalues --    0.93110   0.99449   1.14471   1.15472   1.20379
 Alpha virt. eigenvalues --    1.22127   1.22443   1.30314   1.35733   1.45295
 Alpha virt. eigenvalues --    1.45562   1.62779   1.63442   1.77697   1.92574
 Alpha virt. eigenvalues --    2.29007   2.71169   2.72618   2.98734   3.15635
 Alpha virt. eigenvalues --    3.16894   3.28042   3.28514   3.61617   3.74642
 Alpha virt. eigenvalues --    3.74754   4.41264   4.57790   4.71578   4.93985
 Alpha virt. eigenvalues --    6.50252
  Beta  occ. eigenvalues --  -20.66849 -20.59080  -1.93426  -1.37560  -0.88800
  Beta  occ. eigenvalues --   -0.78671  -0.77295  -0.31993
  Beta virt. eigenvalues --    0.03567   0.12280   0.15922   0.16164   0.17436
  Beta virt. eigenvalues --    0.20209   0.23406   0.24822   0.31238   0.41870
  Beta virt. eigenvalues --    0.45663   0.48306   0.49879   0.62843   0.85903
  Beta virt. eigenvalues --    0.86116   0.96054   0.99878   1.16071   1.18373
  Beta virt. eigenvalues --    1.22327   1.23940   1.25113   1.36739   1.36920
  Beta virt. eigenvalues --    1.46241   1.54840   1.63568   1.64418   1.79264
  Beta virt. eigenvalues --    1.94563   2.29582   2.71787   2.74834   2.99834
  Beta virt. eigenvalues --    3.19110   3.20823   3.31170   3.33664   3.63623
  Beta virt. eigenvalues --    3.80871   3.80880   4.42381   4.63613   4.73574
  Beta virt. eigenvalues --    4.95678   6.51162
          Condensed to atoms (all electrons):
               1          2          3
     1  O    9.749253  -1.341708   0.060668
     2  O   -1.341708   8.602599   0.022931
     3  H    0.060668   0.022931   1.164366
          Atomic-Atomic Spin Densities.
               1          2          3
     1  O    1.151118  -0.386299  -0.055865
     2  O   -0.386299   0.627785   0.084622
     3  H   -0.055865   0.084622  -0.063820
 Mulliken charges and spin densities:
               1          2
     1  O   -0.468214   0.708955
     2  O    0.716178   0.326108
     3  H   -0.247965  -0.035063
 Sum of Mulliken charges =  -0.00000   1.00000
 Mulliken charges and spin densities with hydrogens summed into heavy atoms:
               1          2
     1  O   -0.468214   0.708955
     2  O    0.468214   0.291045
 Electronic spatial extent (au):  <R**2>=             39.3878
 Charge=             -0.0000 electrons
 Dipole moment (field-independent basis, Debye):
    X=             -0.8795    Y=              2.2072    Z=              0.0000  Tot=              2.3759
 Quadrupole moment (field-independent basis, Debye-Ang):
   XX=            -10.8339   YY=            -10.4301   ZZ=             -9.8871
   XY=             -1.0666   XZ=              0.0000   YZ=             -0.0000
 Traceless Quadrupole moment (field-independent basis, Debye-Ang):
   XX=             -0.4502   YY=             -0.0464   ZZ=              0.4966
   XY=             -1.0666   XZ=              0.0000   YZ=             -0.0000
 Octapole moment (field-independent basis, Debye-Ang**2):
  XXX=             -0.6879  YYY=              4.0184  ZZZ=              0.0000  XYY=             -1.0131
  XXY=              0.9187  XXZ=              0.0000  XZZ=             -0.2257  YZZ=              0.4884
  YYZ=              0.0000  XYZ=             -0.0000
 Hexadecapole moment (field-independent basis, Debye-Ang**3):
 XXXX=             -8.9515 YYYY=            -22.8580 ZZZZ=             -7.1160 XXXY=             -0.6507
 XXXZ=              0.0000 YYYX=             -1.2972 YYYZ=             -0.0000 ZZZX=              0.0000
 ZZZY=             -0.0000 XXYY=             -6.6427 XXZZ=             -2.6761 YYZZ=             -5.5770
 XXYZ=             -0.0000 YYXZ=              0.0000 ZZXY=             -0.2432
 N-N= 4.598997387289D+01 E-N=-4.490994392048D+02  KE= 1.536817841559D+02
 Symmetry A'   KE= 1.459842943330D+02
 Symmetry A"   KE= 7.697489822894D+00
 Symmetry A'   SP=-2.245928188436D-14
 Symmetry A"   SP= 1.000000000000D+00
                          Isotropic Fermi Contact Couplings
        Atom                 a.u.       MegaHertz       Gauss      10(-4) cm-1
     1  O(17)              0.16639    -100.86426     -35.99088     -33.64470
     2  O(17)              0.07833     -47.48061     -16.94226     -15.83783
     3  H(1)              -0.01185     -52.96221     -18.89823     -17.66629
 --------------------------------------------------------
       Center         ----  Spin Dipole Couplings  ----
                      3XX-RR        3YY-RR        3ZZ-RR
 --------------------------------------------------------
     1   Atom       -1.271121     -1.366647      2.637769
     2   Atom       -0.838047     -0.771214      1.609261
     3   Atom       -0.137489      0.059349      0.078140
 --------------------------------------------------------
                        XY            XZ            YZ
 --------------------------------------------------------
     1   Atom        0.013972     -0.000000      0.000000
     2   Atom        0.005010      0.000000      0.000000
     3   Atom       -0.119352      0.000000     -0.000000
 --------------------------------------------------------


 ---------------------------------------------------------------------------------
              Anisotropic Spin Dipole Couplings in Principal Axis System
 ---------------------------------------------------------------------------------

       Atom             a.u.   MegaHertz   Gauss  10(-4) cm-1        Axes

              Baa    -1.3686    99.034    35.338    33.034 -0.1418  0.9899 -0.0000
     1 O(17)  Bbb    -1.2691    91.833    32.768    30.632  0.9899  0.1418 -0.0000
              Bcc     2.6378  -190.867   -68.106   -63.666  0.0000  0.0000  1.0000
 
              Baa    -0.8384    60.668    21.648    20.237  0.9972 -0.0743 -0.0000
     2 O(17)  Bbb    -0.7708    55.777    19.903    18.605  0.0743  0.9972 -0.0000
              Bcc     1.6093  -116.445   -41.550   -38.842  0.0000  0.0000  1.0000
 
              Baa    -0.1938  -103.385   -36.890   -34.486  0.9045  0.4265 -0.0000
     3 H(1)   Bbb     0.0781    41.692    14.877    13.907 -0.0000  0.0000  1.0000
              Bcc     0.1156    61.693    22.014    20.579 -0.4265  0.9045 -0.0000
 

 ---------------------------------------------------------------------------------

 Calling FoFJK, ICntrl=  10002127 FMM=F ISym2X=1 I1Cent= 0 IOpClX= 1 NMat=1 NMatS=1 NMatT=0.
 ***** Axes restored to original set *****
 -------------------------------------------------------------------
 Center     Atomic                   Forces (Hartrees/Bohr)
 Number     Number              X              Y              Z
 -------------------------------------------------------------------
      1        8           0.390720238   -1.376957198   -0.133026070
      2        8          -0.471489389   -0.045926329   -0.756821795
      3        1           0.080769151    1.422883527    0.889847865
 -------------------------------------------------------------------
 Cartesian Forces:  Max     1.422883527 RMS     0.794880178

 GradGradGradGradGradGradGradGradGradGradGradGradGradGradGradGradGradGrad
 Berny optimization.
 FormGI is forming the generalized inverse of G from B-inverse, IUseBI=4.
 Internal  Forces:  Max     1.677382464 RMS     1.276456763
 Search for a local minimum.
 Step number   1 out of a maximum of   20
 All quantities printed in internal units (Hartrees-Bohrs-Radians)
 Mixed Optimization -- RFO/linear search
 Second derivative matrix not updated -- first step.
 The second derivative matrix:
                          R1        R2        A1
           R1           5.25599
           R2           0.00000   3.78225
           A1           0.00000   0.00000   0.16000
 ITU=  0
     Eigenvalues ---    0.16000   3.78225   5.25599
 RFO step:  Lambda=-9.39518632D-01 EMin= 1.60000000D-01
 Linear search not attempted -- first point.
 Maximum step size (   0.300) exceeded in Quadratic search.
    -- Step size scaled by   0.689
 Iteration  1 RMS(Cart)=  0.14061526 RMS(Int)=  0.02585581
 Iteration  2 RMS(Cart)=  0.01983535 RMS(Int)=  0.00004764
 Iteration  3 RMS(Cart)=  0.00003794 RMS(Int)=  0.00000000
 Iteration  4 RMS(Cart)=  0.00000000 RMS(Int)=  0.00000000
 ClnCor:  largest displacement from symmetrization is 2.78D-15 for atom     3.
 Variable       Old X    -DE/DX   Delta X   Delta X   Delta X     New X
                                 (Linear)    (Quad)   (Total)
    R1        1.77598   1.43619   0.00000   0.15968   0.15968   1.93566
    R2        1.12308   1.67738   0.00000   0.24470   0.24470   1.36778
    A1        2.68148  -0.10853   0.00000  -0.06799  -0.06799   2.61349
         Item               Value     Threshold  Converged?
 Maximum Force            1.677382     0.000450     NO 
 RMS     Force            1.276457     0.000300     NO 
 Maximum Displacement     0.179137     0.001800     NO 
 RMS     Displacement     0.158209     0.001200     NO 
 Predicted change in Energy=-4.665525D-01
 GradGradGradGradGradGradGradGradGradGradGradGradGradGradGradGradGradGrad

                          Input orientation:                          
 ---------------------------------------------------------------------
 Center     Atomic      Atomic             Coordinates (Angstroms)
 Number     Number       Type             X           Y           Z
 ---------------------------------------------------------------------
      1          8           0        0.397783    1.051474   -1.014707
      2          8           0        0.124330    2.033235   -0.911898
      3          1           0        0.149386    2.653527   -0.539746
 ---------------------------------------------------------------------
                    Distance matrix (angstroms):
                    1          2          3
     1  O    0.000000
     2  O    1.024306   0.000000
     3  H    1.689339   0.723800   0.000000
 Stoichiometry    HO2(2)
 Framework group  CS[SG(HO2)]
 Deg. of freedom     3
 Full point group                 CS      NOp   2
 Largest Abelian subgroup         CS      NOp   2
 Largest concise Abelian subgroup C1      NOp   1
                         Standard orientation:                         
 ---------------------------------------------------------------------
 Center     Atomic      Atomic             Coordinates (Angstroms)
 Number     Number       Type             X           Y           Z
 ---------------------------------------------------------------------
      1          8           0        0.021454   -0.579056   -0.000000
      2          8           0        0.021454    0.445250    0.000000
      3          1           0       -0.343267    1.070442    0.000000
 ---------------------------------------------------------------------
 Rotational constants (GHZ):        4482.1541304          52.2516076          51.6494933
 Standard basis: Aug-CC-pVDZ (5D, 7F)
 There are    43 symmetry adapted cartesian basis functions of A'  symmetry.
 There are    16 symmetry adapted cartesian basis functions of A"  symmetry.
 There are    39 symmetry adapted basis functions of A'  symmetry.
 There are    16 symmetry adapted basis functions of A"  symmetry.
    55 basis functions,    97 primitive gaussians,    59 cartesian basis functions
     9 alpha electrons        8 beta electrons
       nuclear repulsion energy        41.4185317240 Hartrees.
 NAtoms=    3 NActive=    3 NUniq=    3 SFac= 1.00D+00 NAtFMM=   60 NAOKFM=F Big=F
 Integral buffers will be    131072 words long.
 Raffenetti 2 integral format.
 Two-electron integral symmetry is turned on.
 One-electron integrals computed using PRISM.
 NBasis=    55 RedAO= T EigKep=  2.96D-04  NBF=    39    16
 NBsUse=    55 1.00D-06 EigRej= -1.00D+00 NBFU=    39    16
 Initial guess from the checkpoint file:  "ho2.chk"
 B after Tr=     0.000000    0.000000    0.000000
         Rot=    0.999981   -0.000000    0.000000   -0.006142 Ang=  -0.70 deg.
 Initial guess orbital symmetries:
 Alpha Orbitals:
       Occupied  (A') (A') (A') (A') (A") (A') (A') (A") (A')
       Virtual   (A') (A') (A') (A") (A') (A') (A") (A') (A') (A')
                 (A") (A') (A') (A") (A') (A') (A') (A") (A') (A')
                 (A") (A') (A") (A') (A') (A") (A") (A') (A') (A')
                 (A') (A') (A") (A') (A") (A') (A') (A") (A') (A')
                 (A") (A') (A") (A') (A') (A')
 Beta  Orbitals:
       Occupied  (A') (A') (A') (A') (A') (A') (A") (A')
       Virtual   (A') (A') (A') (A") (A") (A') (A') (A') (A") (A')
                 (A') (A') (A") (A') (A') (A") (A') (A') (A') (A")
                 (A') (A') (A") (A") (A') (A') (A") (A') (A") (A')
                 (A') (A') (A') (A") (A') (A') (A") (A') (A") (A')
                 (A") (A') (A') (A") (A') (A') (A')
 Initial guess <Sx>= 0.0000 <Sy>= 0.0000 <Sz>= 0.5000 <S**2>= 0.7594 S= 0.5047
 ExpMin= 2.97D-02 ExpMax= 1.17D+04 ExpMxC= 4.01D+02 IAcc=3 IRadAn=         5 AccDes= 0.00D+00
 Harris functional with IExCor=  205 and IRadAn=       5 diagonalized for initial guess.
 HarFok:  IExCor=  205 AccDes= 0.00D+00 IRadAn=         5 IDoV= 1 UseB2=F ITyADJ=14
 ICtDFT=  3500011 ScaDFX=  1.000000  1.000000  1.000000  1.000000
 FoFCou: FMM=F IPFlag=           0 FMFlag=      100000 FMFlg1=           0
         NFxFlg=           0 DoJE=T BraDBF=F KetDBF=T FulRan=T
         wScrn=  0.000000 ICntrl=       500 IOpCl=  0 I1Cent=   200000004 NGrid=           0
         NMat0=    1 NMatS0=      1 NMatT0=    0 NMatD0=    1 NMtDS0=    0 NMtDT0=    0
 Petite list used in FoFCou.
 Keep R1 and R2 ints in memory in symmetry-blocked form, NReq=7042804.
 Requested convergence on RMS density matrix=1.00D-08 within 128 cycles.
 Requested convergence on MAX density matrix=1.00D-06.
 Requested convergence on             energy=1.00D-06.
 No special actions if energy rises.
 SCF Done:  E(UHF) =  -149.915574463     A.U. after   15 cycles
            NFock= 15  Conv=0.46D-08     -V/T= 1.9855
 <Sx>= 0.0000 <Sy>= 0.0000 <Sz>= 0.5000 <S**2>= 0.7604 S= 0.5052
 <L.S>= 0.000000000000E+00
 Annihilation of the first spin contaminant:
 S**2 before annihilation     0.7604,   after     0.7501
 ExpMin= 2.97D-02 ExpMax= 1.17D+04 ExpMxC= 4.01D+02 IAcc=3 IRadAn=         5 AccDes= 0.00D+00
 HarFok:  IExCor=  205 AccDes= 0.00D+00 IRadAn=         5 IDoV=-2 UseB2=F ITyADJ=14
 ICtDFT= 12500011 ScaDFX=  1.000000  1.000000  1.000000  1.000000
 Range of M.O.s used for correlation:     3    55
 NBasis=    55 NAE=     9 NBE=     8 NFC=     2 NFV=     0
 NROrb=     53 NOA=     7 NOB=     6 NVA=    46 NVB=    47

 **** Warning!!: The largest alpha MO coefficient is  0.18596957D+02


 **** Warning!!: The largest beta MO coefficient is  0.19135502D+02

 Fully direct method using O(ONN) memory.
 JobTyp=2 Pass  1:  I=   3 to   9 NPSUse= 28 ParTrn=T ParDer=T DoDerP=T.
 JobTyp=3 Pass  1:  I=   3 to   8 NPSUse= 28 ParTrn=T ParDer=T DoDerP=T.
 Spin components of T(2) and E(2):
     alpha-alpha T2 =       0.1074409836D-01 E2=     -0.4899604586D-01
     alpha-beta  T2 =       0.5567823227D-01 E2=     -0.2479010940D+00
     beta-beta   T2 =       0.1093989069D-01 E2=     -0.4446350738D-01
 (S**2,0)=  0.76039D+00           (S**2,1)=  0.75105D+00
 E(PUHF)=      -0.14992013754D+03        E(PMP2)=      -0.15025945538D+03
 ANorm=    0.1037960607D+01
 E2 =    -0.3413606473D+00 EUMP2 =    -0.15025693511038D+03
          IDoAtm=111
          Differentiating once with respect to electric field.
                with respect to dipole field.
          Differentiating once with respect to nuclear coordinates.
 Keep R1 and R2 ints in memory in symmetry-blocked form, NReq=7043719.
          There are     1 degrees of freedom in the 1st order CPHF.  IDoFFX=0 NUNeed=     1.
 LinEq1:  Iter=  0 NonCon=     1 RMS=3.50D-03 Max=3.07D-02 NDo=     1
 AX will form     1 AO Fock derivatives at one time.
 LinEq1:  Iter=  1 NonCon=     1 RMS=8.60D-04 Max=1.03D-02 NDo=     1
 LinEq1:  Iter=  2 NonCon=     1 RMS=3.57D-04 Max=4.65D-03 NDo=     1
 LinEq1:  Iter=  3 NonCon=     1 RMS=7.26D-05 Max=7.93D-04 NDo=     1
 LinEq1:  Iter=  4 NonCon=     1 RMS=2.54D-05 Max=1.76D-04 NDo=     1
 LinEq1:  Iter=  5 NonCon=     1 RMS=7.74D-06 Max=5.37D-05 NDo=     1
 LinEq1:  Iter=  6 NonCon=     1 RMS=1.60D-06 Max=1.32D-05 NDo=     1
 LinEq1:  Iter=  7 NonCon=     1 RMS=3.42D-07 Max=1.94D-06 NDo=     1
 LinEq1:  Iter=  8 NonCon=     1 RMS=6.62D-08 Max=4.95D-07 NDo=     1
 LinEq1:  Iter=  9 NonCon=     1 RMS=1.06D-08 Max=6.87D-08 NDo=     1
 LinEq1:  Iter= 10 NonCon=     1 RMS=2.04D-09 Max=1.54D-08 NDo=     1
 LinEq1:  Iter= 11 NonCon=     1 RMS=5.23D-10 Max=3.77D-09 NDo=     1
 LinEq1:  Iter= 12 NonCon=     0 RMS=9.53D-11 Max=6.12D-10 NDo=     1
 Linear equations converged to 1.000D-10 1.000D-09 after    12 iterations.
 End of Minotr F.D. properties file   721 does not exist.
 End of Minotr F.D. properties file   722 does not exist.
 End of Minotr F.D. properties file   788 does not exist.
 Calling FoFJK, ICntrl=  10002127 FMM=F ISym2X=1 I1Cent= 0 IOpClX= 1 NMat=1 NMatS=1 NMatT=0.
 ***** Axes restored to original set *****
 -------------------------------------------------------------------
 Center     Atomic                   Forces (Hartrees/Bohr)
 Number     Number              X              Y              Z
 -------------------------------------------------------------------
      1        8           0.238547312   -0.741490835   -0.027930307
      2        8          -0.309086889    0.249724101   -0.345801948
      3        1           0.070539577    0.491766734    0.373732255
 -------------------------------------------------------------------
 Cartesian Forces:  Max     0.741490835 RMS     0.375862793

 GradGradGradGradGradGradGradGradGradGradGradGradGradGradGradGradGradGrad
 Berny optimization.
 Using GEDIIS/GDIIS optimizer.
 FormGI is forming the generalized inverse of G from B-inverse, IUseBI=4.
 Internal  Forces:  Max     0.777180318 RMS     0.576359907
 Search for a local minimum.
 Step number   2 out of a maximum of   20
 All quantities printed in internal units (Hartrees-Bohrs-Radians)
 Mixed Optimization -- RFO/linear search
 Update second derivatives using D2CorX and points    1    2
 DE= -4.41D-01 DEPred=-4.67D-01 R= 9.45D-01
 TightC=F SS=  1.41D+00  RLast= 3.00D-01 DXNew= 5.0454D-01 9.0000D-01
 Trust test= 9.45D-01 RLast= 3.00D-01 DXMaxT set to 5.05D-01
 The second derivative matrix:
                          R1        R2        A1
           R1           4.49737
           R2          -0.23173   4.50084
           A1           0.03563   0.04455   0.15976
 ITU=  1  0
 Use linear search instead of GDIIS.
 Linear search step of   0.600 exceeds DXMaxT=   0.505 but not scaled.
 Quartic linear search produced a step of  2.00000.
 Iteration  1 RMS(Cart)=  0.15353184 RMS(Int)=  0.17831540
 Iteration  2 RMS(Cart)=  0.12403112 RMS(Int)=  0.04941033
 Iteration  3 RMS(Cart)=  0.03930641 RMS(Int)=  0.00012642
 Iteration  4 RMS(Cart)=  0.00011053 RMS(Int)=  0.00000001
 Iteration  5 RMS(Cart)=  0.00000001 RMS(Int)=  0.00000000
 ClnCor:  largest displacement from symmetrization is 3.18D-15 for atom     3.
 Variable       Old X    -DE/DX   Delta X   Delta X   Delta X     New X
                                 (Linear)    (Quad)   (Total)
    R1        1.93566   0.77718   0.31936   0.00000   0.31936   2.25502
    R2        1.36778   0.61604   0.48941   0.00000   0.48941   1.85719
    A1        2.61349  -0.11426  -0.13598   0.00000  -0.13598   2.47750
         Item               Value     Threshold  Converged?
 Maximum Force            0.777180     0.000450     NO 
 RMS     Force            0.576360     0.000300     NO 
 Maximum Displacement     0.338543     0.001800     NO 
 RMS     Displacement     0.309447     0.001200     NO 
 Predicted change in Energy=-1.638762D-01
 GradGradGradGradGradGradGradGradGradGradGradGradGradGradGradGradGradGrad

                          Input orientation:                          
 ---------------------------------------------------------------------
 Center     Atomic      Atomic             Coordinates (Angstroms)
 Number     Number       Type             X           Y           Z
 ---------------------------------------------------------------------
      1          8           0        0.440200    0.884629   -1.038475
      2          8           0        0.079231    2.020930   -0.988540
      3          1           0        0.152068    2.832677   -0.439336
 ---------------------------------------------------------------------
                    Distance matrix (angstroms):
                    1          2          3
     1  O    0.000000
     2  O    1.193303   0.000000
     3  H    2.058367   0.982783   0.000000
 Stoichiometry    HO2(2)
 Framework group  CS[SG(HO2)]
 Deg. of freedom     3
 Full point group                 CS      NOp   2
 Largest Abelian subgroup         CS      NOp   2
 Largest concise Abelian subgroup C1      NOp   1
                         Standard orientation:                         
 ---------------------------------------------------------------------
 Center     Atomic      Atomic             Coordinates (Angstroms)
 Number     Number       Type             X           Y           Z
 ---------------------------------------------------------------------
      1          8           0        0.035631   -0.677273   -0.000000
      2          8           0        0.035631    0.516029    0.000000
      3          1           0       -0.570100    1.289950    0.000000
 ---------------------------------------------------------------------
 Rotational constants (GHZ):        1643.2591881          38.0716067          37.2095234
 Standard basis: Aug-CC-pVDZ (5D, 7F)
 There are    43 symmetry adapted cartesian basis functions of A'  symmetry.
 There are    16 symmetry adapted cartesian basis functions of A"  symmetry.
 There are    39 symmetry adapted basis functions of A'  symmetry.
 There are    16 symmetry adapted basis functions of A"  symmetry.
    55 basis functions,    97 primitive gaussians,    59 cartesian basis functions
     9 alpha electrons        8 beta electrons
       nuclear repulsion energy        34.7454510844 Hartrees.
 NAtoms=    3 NActive=    3 NUniq=    3 SFac= 1.00D+00 NAtFMM=   60 NAOKFM=F Big=F
 Integral buffers will be    131072 words long.
 Raffenetti 2 integral format.
 Two-electron integral symmetry is turned on.
 One-electron integrals computed using PRISM.
 NBasis=    55 RedAO= T EigKep=  5.56D-04  NBF=    39    16
 NBsUse=    55 1.00D-06 EigRej= -1.00D+00 NBFU=    39    16
 Initial guess from the checkpoint file:  "ho2.chk"
 B after Tr=    -0.000000   -0.000000    0.000000
         Rot=    0.999908   -0.000000    0.000000   -0.013549 Ang=  -1.55 deg.
 Initial guess orbital symmetries:
 Alpha Orbitals:
       Occupied  (A') (A') (A') (A') (A") (A') (A') (A") (A')
       Virtual   (A') (A') (A') (A") (A') (A") (A') (A') (A') (A')
                 (A") (A') (A') (A') (A") (A') (A') (A') (A") (A')
                 (A") (A') (A") (A') (A") (A') (A') (A") (A') (A')
                 (A') (A") (A') (A') (A') (A") (A') (A") (A') (A')
                 (A") (A') (A') (A") (A') (A')
 Beta  Orbitals:
       Occupied  (A') (A') (A') (A') (A') (A') (A") (A')
       Virtual   (A') (A') (A") (A') (A") (A') (A') (A') (A") (A')
                 (A') (A') (A") (A') (A') (A") (A') (A') (A') (A")
                 (A') (A") (A') (A') (A") (A') (A") (A') (A") (A')
                 (A') (A') (A") (A') (A') (A') (A") (A') (A") (A')
                 (A') (A") (A') (A') (A") (A') (A')
 Initial guess <Sx>= 0.0000 <Sy>= 0.0000 <Sz>= 0.5000 <S**2>= 0.7618 S= 0.5059
 ExpMin= 2.97D-02 ExpMax= 1.17D+04 ExpMxC= 4.01D+02 IAcc=3 IRadAn=         5 AccDes= 0.00D+00
 Harris functional with IExCor=  205 and IRadAn=       5 diagonalized for initial guess.
 HarFok:  IExCor=  205 AccDes= 0.00D+00 IRadAn=         5 IDoV= 1 UseB2=F ITyADJ=14
 ICtDFT=  3500011 ScaDFX=  1.000000  1.000000  1.000000  1.000000
 FoFCou: FMM=F IPFlag=           0 FMFlag=      100000 FMFlg1=           0
         NFxFlg=           0 DoJE=T BraDBF=F KetDBF=T FulRan=T
         wScrn=  0.000000 ICntrl=       500 IOpCl=  0 I1Cent=   200000004 NGrid=           0
         NMat0=    1 NMatS0=      1 NMatT0=    0 NMatD0=    1 NMtDS0=    0 NMtDT0=    0
 Petite list used in FoFCou.
 Keep R1 and R2 ints in memory in symmetry-blocked form, NReq=7041924.
 Requested convergence on RMS density matrix=1.00D-08 within 128 cycles.
 Requested convergence on MAX density matrix=1.00D-06.
 Requested convergence on             energy=1.00D-06.
 No special actions if energy rises.
 SCF Done:  E(UHF) =  -150.149847735     A.U. after   17 cycles
            NFock= 17  Conv=0.64D-08     -V/T= 1.9984
 <Sx>= 0.0000 <Sy>= 0.0000 <Sz>= 0.5000 <S**2>= 0.7637 S= 0.5068
 <L.S>= 0.000000000000E+00
 Annihilation of the first spin contaminant:
 S**2 before annihilation     0.7637,   after     0.7501
 ExpMin= 2.97D-02 ExpMax= 1.17D+04 ExpMxC= 4.01D+02 IAcc=3 IRadAn=         5 AccDes= 0.00D+00
 HarFok:  IExCor=  205 AccDes= 0.00D+00 IRadAn=         5 IDoV=-2 UseB2=F ITyADJ=14
 ICtDFT= 12500011 ScaDFX=  1.000000  1.000000  1.000000  1.000000
 Range of M.O.s used for correlation:     3    55
 NBasis=    55 NAE=     9 NBE=     8 NFC=     2 NFV=     0
 NROrb=     53 NOA=     7 NOB=     6 NVA=    46 NVB=    47

 **** Warning!!: The largest alpha MO coefficient is  0.14842952D+02


 **** Warning!!: The largest beta MO coefficient is  0.15798146D+02

 Fully direct method using O(ONN) memory.
 JobTyp=2 Pass  1:  I=   3 to   9 NPSUse= 28 ParTrn=T ParDer=T DoDerP=T.
 JobTyp=3 Pass  1:  I=   3 to   8 NPSUse= 28 ParTrn=T ParDer=T DoDerP=T.
 Spin components of T(2) and E(2):
     alpha-alpha T2 =       0.1244212465D-01 E2=     -0.5058573475D-01
     alpha-beta  T2 =       0.6827295949D-01 E2=     -0.2651952199D+00
     beta-beta   T2 =       0.1397807092D-01 E2=     -0.4778207459D-01
 (S**2,0)=  0.76367D+00           (S**2,1)=  0.75253D+00
 E(PUHF)=      -0.15015490394D+03        E(PMP2)=      -0.15051641662D+03
 ANorm=    0.1046275850D+01
 E2 =    -0.3635630293D+00 EUMP2 =    -0.15051341076431D+03
          IDoAtm=111
          Differentiating once with respect to electric field.
                with respect to dipole field.
          Differentiating once with respect to nuclear coordinates.
 Keep R1 and R2 ints in memory in symmetry-blocked form, NReq=7042839.
          There are     1 degrees of freedom in the 1st order CPHF.  IDoFFX=0 NUNeed=     1.
 LinEq1:  Iter=  0 NonCon=     1 RMS=5.00D-03 Max=7.36D-02 NDo=     1
 AX will form     1 AO Fock derivatives at one time.
 LinEq1:  Iter=  1 NonCon=     1 RMS=1.31D-03 Max=1.50D-02 NDo=     1
 LinEq1:  Iter=  2 NonCon=     1 RMS=7.17D-04 Max=1.04D-02 NDo=     1
 LinEq1:  Iter=  3 NonCon=     1 RMS=1.97D-04 Max=2.40D-03 NDo=     1
 LinEq1:  Iter=  4 NonCon=     1 RMS=7.71D-05 Max=5.40D-04 NDo=     1
 LinEq1:  Iter=  5 NonCon=     1 RMS=1.94D-05 Max=1.33D-04 NDo=     1
 LinEq1:  Iter=  6 NonCon=     1 RMS=4.38D-06 Max=3.00D-05 NDo=     1
 LinEq1:  Iter=  7 NonCon=     1 RMS=1.16D-06 Max=7.44D-06 NDo=     1
 LinEq1:  Iter=  8 NonCon=     1 RMS=3.01D-07 Max=1.70D-06 NDo=     1
 LinEq1:  Iter=  9 NonCon=     1 RMS=6.77D-08 Max=4.03D-07 NDo=     1
 LinEq1:  Iter= 10 NonCon=     1 RMS=1.24D-08 Max=8.58D-08 NDo=     1
 LinEq1:  Iter= 11 NonCon=     1 RMS=2.44D-09 Max=1.45D-08 NDo=     1
 LinEq1:  Iter= 12 NonCon=     1 RMS=4.73D-10 Max=2.98D-09 NDo=     1
 LinEq1:  Iter= 13 NonCon=     0 RMS=9.37D-11 Max=5.86D-10 NDo=     1
 Linear equations converged to 1.000D-10 1.000D-09 after    13 iterations.
 End of Minotr F.D. properties file   721 does not exist.
 End of Minotr F.D. properties file   722 does not exist.
 End of Minotr F.D. properties file   788 does not exist.
 Calling FoFJK, ICntrl=  10002127 FMM=F ISym2X=1 I1Cent= 0 IOpClX= 1 NMat=1 NMatS=1 NMatT=0.
 ***** Axes restored to original set *****
 -------------------------------------------------------------------
 Center     Atomic                   Forces (Hartrees/Bohr)
 Number     Number              X              Y              Z
 -------------------------------------------------------------------
      1        8           0.071488017   -0.137947359    0.036899114
      2        8          -0.107780897    0.165083945   -0.078677430
      3        1           0.036292880   -0.027136585    0.041778316
 -------------------------------------------------------------------
 Cartesian Forces:  Max     0.165083945 RMS     0.090896839

 GradGradGradGradGradGradGradGradGradGradGradGradGradGradGradGradGradGrad
 Berny optimization.
 Using GEDIIS/GDIIS optimizer.
 FormGI is forming the generalized inverse of G from B-inverse, IUseBI=4.
 Internal  Forces:  Max     0.151438586 RMS     0.109551872
 Search for a local minimum.
 Step number   3 out of a maximum of   20
 All quantities printed in internal units (Hartrees-Bohrs-Radians)
 Mixed Optimization -- RFO/linear search
 Update second derivatives using D2CorX and points    2    3
 The second derivative matrix:
                          R1        R2        A1
           R1           4.08988
           R2          -1.38321   2.16170
           A1           0.02529   0.02789   0.15967
 ITU=  0  1  0
 Use linear search instead of GDIIS.
 Linear search step of   0.820 exceeds DXMaxT=   0.505 but not scaled.
 Quartic linear search produced a step of  1.36619.
 Iteration  1 RMS(Cart)=  0.15450481 RMS(Int)=  0.29736218
 Iteration  2 RMS(Cart)=  0.15018275 RMS(Int)=  0.15134402
 Iteration  3 RMS(Cart)=  0.09735976 RMS(Int)=  0.03489461
 Iteration  4 RMS(Cart)=  0.02777702 RMS(Int)=  0.00005355
 Iteration  5 RMS(Cart)=  0.00006331 RMS(Int)=  0.00000000
 Iteration  6 RMS(Cart)=  0.00000000 RMS(Int)=  0.00000000
 ClnCor:  largest displacement from symmetrization is 2.16D-15 for atom     3.
 Variable       Old X    -DE/DX   Delta X   Delta X   Delta X     New X
                                 (Linear)    (Quad)   (Total)
    R1        2.25502   0.15144   0.43630   0.00000   0.43630   2.69132
    R2        1.85719   0.00362   0.66862   0.00000   0.66862   2.52582
    A1        2.47750  -0.11427  -0.18578   0.00000  -0.18578   2.29172
         Item               Value     Threshold  Converged?
 Maximum Force            0.151439     0.000450     NO 
 RMS     Force            0.109552     0.000300     NO 
 Maximum Displacement     0.414448     0.001800     NO 
 RMS     Displacement     0.405734     0.001200     NO 
 Predicted change in Energy=-3.764811D-01
 GradGradGradGradGradGradGradGradGradGradGradGradGradGradGradGradGradGrad

                          Input orientation:                          
 ---------------------------------------------------------------------
 Center     Atomic      Atomic             Coordinates (Angstroms)
 Number     Number       Type             X           Y           Z
 ---------------------------------------------------------------------
      1          8           0        0.501319    0.676976   -1.055127
      2          8           0        0.001636    2.009267   -1.115299
      3          1           0        0.168545    3.051993   -0.295925
 ---------------------------------------------------------------------
                    Distance matrix (angstroms):
                    1          2          3
     1  O    0.000000
     2  O    1.424185   0.000000
     3  H    2.515518   1.336604   0.000000
 Stoichiometry    HO2(2)
 Framework group  CS[SG(HO2)]
 Deg. of freedom     3
 Full point group                 CS      NOp   2
 Largest Abelian subgroup         CS      NOp   2
 Largest concise Abelian subgroup C1      NOp   1
                         Standard orientation:                         
 ---------------------------------------------------------------------
 Center     Atomic      Atomic             Coordinates (Angstroms)
 Number     Number       Type             X           Y           Z
 ---------------------------------------------------------------------
      1          8           0        0.059062   -0.805878   -0.000000
      2          8           0        0.059062    0.618307    0.000000
      3          1           0       -0.944988    1.500572    0.000000
 ---------------------------------------------------------------------
 Rotational constants (GHZ):         595.9804358          26.8221193          25.6669762
 Standard basis: Aug-CC-pVDZ (5D, 7F)
 There are    43 symmetry adapted cartesian basis functions of A'  symmetry.
 There are    16 symmetry adapted cartesian basis functions of A"  symmetry.
 There are    39 symmetry adapted basis functions of A'  symmetry.
 There are    16 symmetry adapted basis functions of A"  symmetry.
    55 basis functions,    97 primitive gaussians,    59 cartesian basis functions
     9 alpha electrons        8 beta electrons
       nuclear repulsion energy        28.6303784372 Hartrees.
 NAtoms=    3 NActive=    3 NUniq=    3 SFac= 1.00D+00 NAtFMM=   60 NAOKFM=F Big=F
 Integral buffers will be    131072 words long.
 Raffenetti 2 integral format.
 Two-electron integral symmetry is turned on.
 One-electron integrals computed using PRISM.
 NBasis=    55 RedAO= T EigKep=  1.40D-03  NBF=    39    16
 NBsUse=    55 1.00D-06 EigRej= -1.00D+00 NBFU=    39    16
 Initial guess from the checkpoint file:  "ho2.chk"
 B after Tr=    -0.000000    0.000000   -0.000000
         Rot=    0.999790    0.000000   -0.000000   -0.020472 Ang=  -2.35 deg.
 Initial guess orbital symmetries:
 Alpha Orbitals:
       Occupied  (A') (A') (A') (A') (A') (A") (A') (A") (A')
       Virtual   (A') (A') (A') (A") (A') (A") (A') (A') (A') (A')
                 (A") (A') (A') (A') (A') (A") (A') (A') (A") (A')
                 (A") (A') (A") (A') (A") (A') (A') (A') (A") (A')
                 (A') (A") (A') (A') (A') (A") (A') (A") (A') (A')
                 (A") (A') (A') (A") (A') (A')
 Beta  Orbitals:
       Occupied  (A') (A') (A') (A') (A') (A') (A") (A')
       Virtual   (A') (A') (A") (A') (A") (A') (A') (A') (A") (A')
                 (A') (A') (A") (A') (A') (A') (A") (A') (A') (A")
                 (A') (A") (A') (A') (A") (A') (A") (A') (A') (A")
                 (A') (A') (A") (A') (A') (A') (A") (A') (A') (A")
                 (A') (A") (A') (A') (A") (A') (A')
 Initial guess <Sx>= 0.0000 <Sy>= 0.0000 <Sz>= 0.5000 <S**2>= 0.7653 S= 0.5076
 ExpMin= 2.97D-02 ExpMax= 1.17D+04 ExpMxC= 4.01D+02 IAcc=3 IRadAn=         5 AccDes= 0.00D+00
 Harris functional with IExCor=  205 and IRadAn=       5 diagonalized for initial guess.
 HarFok:  IExCor=  205 AccDes= 0.00D+00 IRadAn=         5 IDoV= 1 UseB2=F ITyADJ=14
 ICtDFT=  3500011 ScaDFX=  1.000000  1.000000  1.000000  1.000000
 FoFCou: FMM=F IPFlag=           0 FMFlag=      100000 FMFlg1=           0
         NFxFlg=           0 DoJE=T BraDBF=F KetDBF=T FulRan=T
         wScrn=  0.000000 ICntrl=       500 IOpCl=  0 I1Cent=   200000004 NGrid=           0
         NMat0=    1 NMatS0=      1 NMatT0=    0 NMatD0=    1 NMtDS0=    0 NMtDT0=    0
 Petite list used in FoFCou.
 Keep R1 and R2 ints in memory in symmetry-blocked form, NReq=7039988.
 Requested convergence on RMS density matrix=1.00D-08 within 128 cycles.
 Requested convergence on MAX density matrix=1.00D-06.
 Requested convergence on             energy=1.00D-06.
 No special actions if energy rises.
 Rare condition: small coef for last iteration:  0.000D+00
 Rare condition: small coef for last iteration:  0.000D+00
 Rare condition: small coef for last iteration:  0.000D+00
 Rare condition: small coef for last iteration:  0.000D+00
 Rare condition: small coef for last iteration:  0.000D+00
 Rare condition: small coef for last iteration:  0.000D+00
 Rare condition: small coef for last iteration:  0.000D+00
 Rare condition: small coef for last iteration:  0.000D+00
 Rare condition: small coef for last iteration:  0.000D+00
 Rare condition: small coef for last iteration:  0.000D+00
 Rare condition: small coef for last iteration:  0.000D+00
 Rare condition: small coef for last iteration:  0.000D+00
 Rare condition: small coef for last iteration:  0.000D+00
 Rare condition: small coef for last iteration:  0.000D+00
 Rare condition: small coef for last iteration:  0.000D+00
 Rare condition: small coef for last iteration:  0.000D+00
 Rare condition: small coef for last iteration:  0.000D+00
 Rare condition: small coef for last iteration:  0.000D+00
 Rare condition: small coef for last iteration:  0.000D+00
 Rare condition: small coef for last iteration:  0.000D+00
 Rare condition: small coef for last iteration:  0.000D+00
 Rare condition: small coef for last iteration:  0.000D+00
 Rare condition: small coef for last iteration:  0.000D+00
 SCF Done:  E(UHF) =  -150.095493223     A.U. after   75 cycles
            NFock= 75  Conv=0.24D-08     -V/T= 2.0041
 <Sx>= 0.0000 <Sy>= 0.0000 <Sz>= 0.5000 <S**2>= 0.7924 S= 0.5210
 <L.S>= 0.000000000000E+00
 Annihilation of the first spin contaminant:
 S**2 before annihilation     0.7924,   after     0.7507
 ExpMin= 2.97D-02 ExpMax= 1.17D+04 ExpMxC= 4.01D+02 IAcc=3 IRadAn=         5 AccDes= 0.00D+00
 HarFok:  IExCor=  205 AccDes= 0.00D+00 IRadAn=         5 IDoV=-2 UseB2=F ITyADJ=14
 ICtDFT= 12500011 ScaDFX=  1.000000  1.000000  1.000000  1.000000
 Range of M.O.s used for correlation:     3    55
 NBasis=    55 NAE=     9 NBE=     8 NFC=     2 NFV=     0
 NROrb=     53 NOA=     7 NOB=     6 NVA=    46 NVB=    47

 **** Warning!!: The largest alpha MO coefficient is  0.10787126D+02


 **** Warning!!: The largest beta MO coefficient is  0.10889302D+02

 Fully direct method using O(ONN) memory.
 JobTyp=2 Pass  1:  I=   3 to   9 NPSUse= 28 ParTrn=T ParDer=T DoDerP=T.
 JobTyp=3 Pass  1:  I=   3 to   8 NPSUse= 28 ParTrn=T ParDer=T DoDerP=T.
 Spin components of T(2) and E(2):
     alpha-alpha T2 =       0.1556875962D-01 E2=     -0.5363029356D-01
     alpha-beta  T2 =       0.9148135257D-01 E2=     -0.2864113711D+00
     beta-beta   T2 =       0.1631083283D-01 E2=     -0.4762502292D-01
 (S**2,0)=  0.79244D+00           (S**2,1)=  0.77646D+00
 E(PUHF)=      -0.15010207307D+03        E(PMP2)=      -0.15048851255D+03
 ANorm=    0.1059887232D+01
 E2 =    -0.3876666876D+00 EUMP2 =    -0.15048315991074D+03
          IDoAtm=111
          Differentiating once with respect to electric field.
                with respect to dipole field.
          Differentiating once with respect to nuclear coordinates.
 Keep R1 and R2 ints in memory in symmetry-blocked form, NReq=7041387.
          There are     1 degrees of freedom in the 1st order CPHF.  IDoFFX=0 NUNeed=     1.
 LinEq1:  Iter=  0 NonCon=     1 RMS=7.83D-03 Max=1.36D-01 NDo=     1
 AX will form     1 AO Fock derivatives at one time.
 LinEq1:  Iter=  1 NonCon=     1 RMS=2.27D-03 Max=1.82D-02 NDo=     1
 LinEq1:  Iter=  2 NonCon=     1 RMS=1.33D-03 Max=9.06D-03 NDo=     1
 LinEq1:  Iter=  3 NonCon=     1 RMS=6.39D-04 Max=6.87D-03 NDo=     1
 LinEq1:  Iter=  4 NonCon=     1 RMS=2.35D-04 Max=1.51D-03 NDo=     1
 LinEq1:  Iter=  5 NonCon=     1 RMS=1.15D-04 Max=1.17D-03 NDo=     1
 LinEq1:  Iter=  6 NonCon=     1 RMS=3.64D-05 Max=2.57D-04 NDo=     1
 LinEq1:  Iter=  7 NonCon=     1 RMS=1.15D-05 Max=9.22D-05 NDo=     1
 LinEq1:  Iter=  8 NonCon=     1 RMS=3.03D-06 Max=2.01D-05 NDo=     1
 LinEq1:  Iter=  9 NonCon=     1 RMS=6.26D-07 Max=4.00D-06 NDo=     1
 LinEq1:  Iter= 10 NonCon=     1 RMS=1.43D-07 Max=1.26D-06 NDo=     1
 LinEq1:  Iter= 11 NonCon=     1 RMS=2.52D-08 Max=2.22D-07 NDo=     1
 LinEq1:  Iter= 12 NonCon=     1 RMS=6.01D-09 Max=3.94D-08 NDo=     1
 LinEq1:  Iter= 13 NonCon=     1 RMS=1.18D-09 Max=7.92D-09 NDo=     1
 LinEq1:  Iter= 14 NonCon=     1 RMS=2.57D-10 Max=1.61D-09 NDo=     1
 LinEq1:  Iter= 15 NonCon=     0 RMS=5.44D-11 Max=3.95D-10 NDo=     1
 Linear equations converged to 1.000D-10 1.000D-09 after    15 iterations.
 End of Minotr F.D. properties file   721 does not exist.
 End of Minotr F.D. properties file   722 does not exist.
 End of Minotr F.D. properties file   788 does not exist.
 Calling FoFJK, ICntrl=  10002127 FMM=F ISym2X=1 I1Cent= 0 IOpClX= 1 NMat=1 NMatS=1 NMatT=0.
 ***** Axes restored to original set *****
 -------------------------------------------------------------------
 Center     Atomic                   Forces (Hartrees/Bohr)
 Number     Number              X              Y              Z
 -------------------------------------------------------------------
      1        8          -0.025132949    0.113675077    0.022042999
      2        8           0.017861081   -0.019415784    0.017304550
      3        1           0.007271869   -0.094259293   -0.039347549
 -------------------------------------------------------------------
 Cartesian Forces:  Max     0.113675077 RMS     0.053250920

 GradGradGradGradGradGradGradGradGradGradGradGradGradGradGradGradGradGrad
 Berny optimization.
 Using GEDIIS/GDIIS optimizer.
 FormGI is forming the generalized inverse of G from B-inverse, IUseBI=4.
 Internal  Forces:  Max     0.114227372 RMS     0.099315846
 Search for a local minimum.
 Step number   4 out of a maximum of   20
 All quantities printed in internal units (Hartrees-Bohrs-Radians)
 Mixed Optimization -- RFO/linear search
 Update second derivatives using D2CorX and points    4    3
 The second derivative matrix:
                          R1        R2        A1
           R1           3.68049
           R2          -2.00887   1.46436
           A1          -0.01633   0.01216   0.16430
 ITU=  0  0  1  0
 Use linear search instead of GDIIS.
     Eigenvalues ---    0.16417   0.27826   4.86671
 RFO step:  Lambda=-4.65774035D-02 EMin= 1.64166823D-01
 Quartic linear search produced a step of -0.70456.
 Iteration  1 RMS(Cart)=  0.24747829 RMS(Int)=  0.23230451
 Iteration  2 RMS(Cart)=  0.17673858 RMS(Int)=  0.09447223
 Iteration  3 RMS(Cart)=  0.07159068 RMS(Int)=  0.00052043
 Iteration  4 RMS(Cart)=  0.00046086 RMS(Int)=  0.00000016
 Iteration  5 RMS(Cart)=  0.00000016 RMS(Int)=  0.00000000
 ClnCor:  largest displacement from symmetrization is 2.15D-15 for atom     3.
 Variable       Old X    -DE/DX   Delta X   Delta X   Delta X     New X
                                 (Linear)    (Quad)   (Total)
    R1        2.69132  -0.11423  -0.30740  -0.02732  -0.33473   2.35659
    R2        2.52582  -0.09675  -0.47109  -0.07232  -0.54341   1.98241
    A1        2.29172  -0.08475   0.13089  -0.45387  -0.32297   1.96875
         Item               Value     Threshold  Converged?
 Maximum Force            0.114227     0.000450     NO 
 RMS     Force            0.099316     0.000300     NO 
 Maximum Displacement     0.575012     0.001800     NO 
 RMS     Displacement     0.469984     0.001200     NO 
 Predicted change in Energy=-2.200121D-02
 GradGradGradGradGradGradGradGradGradGradGradGradGradGradGradGradGradGrad

                          Input orientation:                          
 ---------------------------------------------------------------------
 Center     Atomic      Atomic             Coordinates (Angstroms)
 Number     Number       Type             X           Y           Z
 ---------------------------------------------------------------------
      1          8           0        0.483703    0.934791   -0.943974
      2          8           0       -0.027864    2.055735   -1.136143
      3          1           0        0.215660    2.747710   -0.386234
 ---------------------------------------------------------------------
                    Distance matrix (angstroms):
                    1          2          3
     1  O    0.000000
     2  O    1.247055   0.000000
     3  H    1.915618   1.049046   0.000000
 Stoichiometry    HO2(2)
 Framework group  CS[SG(HO2)]
 Deg. of freedom     3
 Full point group                 CS      NOp   2
 Largest Abelian subgroup         CS      NOp   2
 Largest concise Abelian subgroup C1      NOp   1
                         Standard orientation:                         
 ---------------------------------------------------------------------
 Center     Atomic      Atomic             Coordinates (Angstroms)
 Number     Number       Type             X           Y           Z
 ---------------------------------------------------------------------
      1          8           0        0.056886   -0.684119    0.000000
      2          8           0        0.056886    0.562935   -0.000000
      3          1           0       -0.910183    0.969474   -0.000000
 ---------------------------------------------------------------------
 Rotational constants (GHZ):         602.5149180          37.3004872          35.1259125
 Standard basis: Aug-CC-pVDZ (5D, 7F)
 There are    43 symmetry adapted cartesian basis functions of A'  symmetry.
 There are    16 symmetry adapted cartesian basis functions of A"  symmetry.
 There are    39 symmetry adapted basis functions of A'  symmetry.
 There are    16 symmetry adapted basis functions of A"  symmetry.
    55 basis functions,    97 primitive gaussians,    59 cartesian basis functions
     9 alpha electrons        8 beta electrons
       nuclear repulsion energy        33.4033072584 Hartrees.
 NAtoms=    3 NActive=    3 NUniq=    3 SFac= 1.00D+00 NAtFMM=   60 NAOKFM=F Big=F
 Integral buffers will be    131072 words long.
 Raffenetti 2 integral format.
 Two-electron integral symmetry is turned on.
 One-electron integrals computed using PRISM.
 NBasis=    55 RedAO= T EigKep=  7.61D-04  NBF=    39    16
 NBsUse=    55 1.00D-06 EigRej= -1.00D+00 NBFU=    39    16
 Lowest energy guess from the checkpoint file:  "ho2.chk"
 B after Tr=     0.000000    0.000000    0.000000
         Rot=    0.999116    0.000000    0.000000   -0.042035 Ang=  -4.82 deg.
 B after Tr=     0.000000   -0.000000    0.000000
         Rot=    0.999689    0.000000    0.000000   -0.024954 Ang=  -2.86 deg.
 Initial guess orbital symmetries:
 Alpha Orbitals:
       Occupied  (A') (A') (A') (A") (A') (A") (A') (A') (A')
       Virtual   (A') (A') (A') (A") (A') (A") (A') (A') (A') (A")
                 (A") (A") (A") (A") (A") (A") (A") (A") (A") (A")
                 (A") (A") (A") (A") (A") (A") (A") (A") (A") (A")
                 (A") (A") (A") (A") (A") (A") (A") (A") (A") (A")
                 (A") (A") (A") (A") (A") (A")
 Beta  Orbitals:
       Occupied  (A") (A') (A') (A') (A') (A') (A') (A')
       Virtual   (A") (A') (A') (A') (A') (A') (A') (A') (A") (A")
                 (A") (A") (A") (A") (A") (A") (A") (A") (A") (A")
                 (A") (A") (A") (A") (A") (A") (A") (A") (A") (A")
                 (A") (A") (A") (A") (A") (A") (A") (A") (A") (A")
                 (A") (A") (A") (A") (A") (A") (A")
 Initial guess <Sx>= 0.0000 <Sy>= 0.0000 <Sz>= 0.5000 <S**2>= 0.7651 S= 0.5075
 Keep R1 and R2 ints in memory in symmetry-blocked form, NReq=7041704.
 Requested convergence on RMS density matrix=1.00D-08 within 128 cycles.
 Requested convergence on MAX density matrix=1.00D-06.
 Requested convergence on             energy=1.00D-06.
 No special actions if energy rises.
 An orbital has undefined symmetry, so N**3 symmetry is turned off.
 SCF Done:  E(UHF) =  -150.191829038     A.U. after   16 cycles
            NFock= 16  Conv=0.46D-08     -V/T= 2.0003
 <Sx>= 0.0000 <Sy>= 0.0000 <Sz>= 0.5000 <S**2>= 0.7634 S= 0.5067
 <L.S>= 0.000000000000E+00
 Annihilation of the first spin contaminant:
 S**2 before annihilation     0.7634,   after     0.7501
 ExpMin= 2.97D-02 ExpMax= 1.17D+04 ExpMxC= 4.01D+02 IAcc=3 IRadAn=         5 AccDes= 0.00D+00
 HarFok:  IExCor=  205 AccDes= 0.00D+00 IRadAn=         5 IDoV=-2 UseB2=F ITyADJ=14
 ICtDFT= 12500011 ScaDFX=  1.000000  1.000000  1.000000  1.000000
 Range of M.O.s used for correlation:     3    55
 NBasis=    55 NAE=     9 NBE=     8 NFC=     2 NFV=     0
 NROrb=     53 NOA=     7 NOB=     6 NVA=    46 NVB=    47

 **** Warning!!: The largest alpha MO coefficient is  0.10937670D+02


 **** Warning!!: The largest beta MO coefficient is  0.11708797D+02

 Fully direct method using O(ONN) memory.
 JobTyp=2 Pass  1:  I=   3 to   9 NPSUse= 28 ParTrn=T ParDer=T DoDerP=T.
 JobTyp=3 Pass  1:  I=   3 to   8 NPSUse= 28 ParTrn=T ParDer=T DoDerP=T.
 Spin components of T(2) and E(2):
     alpha-alpha T2 =       0.1283485578D-01 E2=     -0.5080291658D-01
     alpha-beta  T2 =       0.7171652209D-01 E2=     -0.2690975423D+00
     beta-beta   T2 =       0.1440031128D-01 E2=     -0.4757416438D-01
 (S**2,0)=  0.76337D+00           (S**2,1)=  0.75271D+00
 E(PUHF)=      -0.15019668479D+03        E(PMP2)=      -0.15056223452D+03
 ANorm=    0.1048308966D+01
 E2 =    -0.3674746232D+00 EUMP2 =    -0.15055930366147D+03
          IDoAtm=111
          Differentiating once with respect to electric field.
                with respect to dipole field.
          Differentiating once with respect to nuclear coordinates.
 Keep R1 and R2 ints in memory in symmetry-blocked form, NReq=7042883.
          There are     1 degrees of freedom in the 1st order CPHF.  IDoFFX=0 NUNeed=     1.
 LinEq1:  Iter=  0 NonCon=     1 RMS=5.46D-03 Max=9.40D-02 NDo=     1
 AX will form     1 AO Fock derivatives at one time.
 LinEq1:  Iter=  1 NonCon=     1 RMS=1.41D-03 Max=1.46D-02 NDo=     1
 LinEq1:  Iter=  2 NonCon=     1 RMS=7.82D-04 Max=1.06D-02 NDo=     1
 LinEq1:  Iter=  3 NonCon=     1 RMS=2.17D-04 Max=2.65D-03 NDo=     1
 LinEq1:  Iter=  4 NonCon=     1 RMS=7.18D-05 Max=5.42D-04 NDo=     1
 LinEq1:  Iter=  5 NonCon=     1 RMS=2.19D-05 Max=1.55D-04 NDo=     1
 LinEq1:  Iter=  6 NonCon=     1 RMS=5.74D-06 Max=4.29D-05 NDo=     1
 LinEq1:  Iter=  7 NonCon=     1 RMS=1.26D-06 Max=6.71D-06 NDo=     1
 LinEq1:  Iter=  8 NonCon=     1 RMS=3.01D-07 Max=2.34D-06 NDo=     1
 LinEq1:  Iter=  9 NonCon=     1 RMS=7.34D-08 Max=5.25D-07 NDo=     1
 LinEq1:  Iter= 10 NonCon=     1 RMS=1.53D-08 Max=1.23D-07 NDo=     1
 LinEq1:  Iter= 11 NonCon=     1 RMS=3.01D-09 Max=1.56D-08 NDo=     1
 LinEq1:  Iter= 12 NonCon=     1 RMS=5.65D-10 Max=5.42D-09 NDo=     1
 LinEq1:  Iter= 13 NonCon=     1 RMS=1.43D-10 Max=1.48D-09 NDo=     1
 LinEq1:  Iter= 14 NonCon=     0 RMS=3.20D-11 Max=1.94D-10 NDo=     1
 Linear equations converged to 1.000D-10 1.000D-09 after    14 iterations.
 End of Minotr F.D. properties file   721 does not exist.
 End of Minotr F.D. properties file   722 does not exist.
 End of Minotr F.D. properties file   788 does not exist.
 Calling FoFJK, ICntrl=  10002127 FMM=F ISym2X=1 I1Cent= 0 IOpClX= 1 NMat=1 NMatS=1 NMatT=0.
 ***** Axes restored to original set *****
 -------------------------------------------------------------------
 Center     Atomic                   Forces (Hartrees/Bohr)
 Number     Number              X              Y              Z
 -------------------------------------------------------------------
      1        8           0.031692812   -0.057003917    0.018589293
      2        8          -0.027925489    0.093843885    0.007052571
      3        1          -0.003767324   -0.036839967   -0.025641864
 -------------------------------------------------------------------
 Cartesian Forces:  Max     0.093843885 RMS     0.042510875

 GradGradGradGradGradGradGradGradGradGradGradGradGradGradGradGradGradGrad
 Berny optimization.
 Using GEDIIS/GDIIS optimizer.
 FormGI is forming the generalized inverse of G from B-inverse, IUseBI=4.
 Internal  Forces:  Max     0.067104909 RMS     0.048065838
 Search for a local minimum.
 Step number   5 out of a maximum of   20
 All quantities printed in internal units (Hartrees-Bohrs-Radians)
 Mixed Optimization -- RFO/linear search
 Update second derivatives using D2CorX and points    3    5
 DE= -4.59D-02 DEPred=-2.20D-02 R= 2.09D+00
 TightC=F SS=  1.41D+00  RLast= 5.34D-01 DXNew= 8.4853D-01 1.6011D+00
 Trust test= 2.09D+00 RLast= 5.34D-01 DXMaxT set to 8.49D-01
 The second derivative matrix:
                          R1        R2        A1
           R1           3.47243
           R2          -1.87667   1.48711
           A1           0.06563  -0.10131   0.16731
 ITU=  1  0  0  1
 Use linear search instead of GDIIS.
     Eigenvalues ---    0.15105   0.37034   4.60545
 RFO step:  Lambda=-2.36452976D-03 EMin= 1.51049540D-01
 Quartic linear search produced a step of  0.16831.
 Iteration  1 RMS(Cart)=  0.09029866 RMS(Int)=  0.00403298
 Iteration  2 RMS(Cart)=  0.00307179 RMS(Int)=  0.00000142
 Iteration  3 RMS(Cart)=  0.00000173 RMS(Int)=  0.00000000
 Iteration  4 RMS(Cart)=  0.00000000 RMS(Int)=  0.00000000
 ClnCor:  largest displacement from symmetrization is 1.21D-15 for atom     3.
 Variable       Old X    -DE/DX   Delta X   Delta X   Delta X     New X
                                 (Linear)    (Quad)   (Total)
    R1        2.35659   0.06710   0.01710  -0.01555   0.00154   2.35814
    R2        1.98241  -0.04351   0.02107  -0.05798  -0.03690   1.94550
    A1        1.96875  -0.02313  -0.08563  -0.04402  -0.12965   1.83910
         Item               Value     Threshold  Converged?
 Maximum Force            0.067105     0.000450     NO 
 RMS     Force            0.048066     0.000300     NO 
 Maximum Displacement     0.104055     0.001800     NO 
 RMS     Displacement     0.091328     0.001200     NO 
 Predicted change in Energy=-2.676504D-03
 GradGradGradGradGradGradGradGradGradGradGradGradGradGradGradGradGradGrad

                          Input orientation:                          
 ---------------------------------------------------------------------
 Center     Atomic      Atomic             Coordinates (Angstroms)
 Number     Number       Type             X           Y           Z
 ---------------------------------------------------------------------
      1          8           0        0.488533    0.973392   -0.915735
      2          8           0       -0.049623    2.072198   -1.161088
      3          1           0        0.232590    2.692646   -0.389528
 ---------------------------------------------------------------------
                    Distance matrix (angstroms):
                    1          2          3
     1  O    0.000000
     2  O    1.247872   0.000000
     3  H    1.816104   1.029517   0.000000
 Stoichiometry    HO2(2)
 Framework group  CS[SG(HO2)]
 Deg. of freedom     3
 Full point group                 CS      NOp   2
 Largest Abelian subgroup         CS      NOp   2
 Largest concise Abelian subgroup C1      NOp   1
                         Standard orientation:                         
 ---------------------------------------------------------------------
 Center     Atomic      Atomic             Coordinates (Angstroms)
 Number     Number       Type             X           Y           Z
 ---------------------------------------------------------------------
      1          8           0        0.058393   -0.676692   -0.000000
      2          8           0        0.058393    0.571179    0.000000
      3          1           0       -0.934289    0.844103   -0.000000
 ---------------------------------------------------------------------
 Rotational constants (GHZ):         560.6173912          37.9963497          35.5845731
 Standard basis: Aug-CC-pVDZ (5D, 7F)
 There are    43 symmetry adapted cartesian basis functions of A'  symmetry.
 There are    16 symmetry adapted cartesian basis functions of A"  symmetry.
 There are    39 symmetry adapted basis functions of A'  symmetry.
 There are    16 symmetry adapted basis functions of A"  symmetry.
    55 basis functions,    97 primitive gaussians,    59 cartesian basis functions
     9 alpha electrons        8 beta electrons
       nuclear repulsion energy        33.5831744730 Hartrees.
 NAtoms=    3 NActive=    3 NUniq=    3 SFac= 1.00D+00 NAtFMM=   60 NAOKFM=F Big=F
 Integral buffers will be    131072 words long.
 Raffenetti 2 integral format.
 Two-electron integral symmetry is turned on.
 One-electron integrals computed using PRISM.
 NBasis=    55 RedAO= T EigKep=  7.64D-04  NBF=    39    16
 NBsUse=    55 1.00D-06 EigRej= -1.00D+00 NBFU=    39    16
 Initial guess from the checkpoint file:  "ho2.chk"
 B after Tr=     0.000000   -0.000000   -0.000000
         Rot=    0.999958   -0.000000    0.000000   -0.009131 Ang=  -1.05 deg.
 Initial guess orbital symmetries:
 Alpha Orbitals:
       Occupied  (A') (A') (A') (A') (A') (A") (A') (A") (A')
       Virtual   (A') (A') (A') (A") (A') (A') (A") (A') (A') (A")
                 (A') (A') (A') (A') (A') (A") (A') (A') (A") (A')
                 (A") (A') (A") (A') (A") (A') (A') (A') (A') (A")
                 (A") (A') (A') (A') (A') (A") (A') (A') (A") (A')
                 (A") (A') (A') (A") (A') (A')
 Beta  Orbitals:
       Occupied  (A') (A') (A') (A') (A') (A') (A") (A')
       Virtual   (A') (A") (A') (A') (A") (A') (A') (A') (A") (A')
                 (A") (A') (A') (A') (A') (A') (A") (A') (A') (A")
                 (A') (A") (A') (A') (A") (A') (A") (A') (A') (A')
                 (A") (A") (A') (A') (A') (A') (A") (A') (A') (A")
                 (A') (A") (A') (A') (A") (A') (A')
 Initial guess <Sx>= 0.0000 <Sy>= 0.0000 <Sz>= 0.5000 <S**2>= 0.7634 S= 0.5067
 ExpMin= 2.97D-02 ExpMax= 1.17D+04 ExpMxC= 4.01D+02 IAcc=3 IRadAn=         5 AccDes= 0.00D+00
 Harris functional with IExCor=  205 and IRadAn=       5 diagonalized for initial guess.
 HarFok:  IExCor=  205 AccDes= 0.00D+00 IRadAn=         5 IDoV= 1 UseB2=F ITyADJ=14
 ICtDFT=  3500011 ScaDFX=  1.000000  1.000000  1.000000  1.000000
 FoFCou: FMM=F IPFlag=           0 FMFlag=      100000 FMFlg1=           0
         NFxFlg=           0 DoJE=T BraDBF=F KetDBF=T FulRan=T
         wScrn=  0.000000 ICntrl=       500 IOpCl=  0 I1Cent=   200000004 NGrid=           0
         NMat0=    1 NMatS0=      1 NMatT0=    0 NMatD0=    1 NMtDS0=    0 NMtDT0=    0
 Petite list used in FoFCou.
 Keep R1 and R2 ints in memory in symmetry-blocked form, NReq=7041792.
 Requested convergence on RMS density matrix=1.00D-08 within 128 cycles.
 Requested convergence on MAX density matrix=1.00D-06.
 Requested convergence on             energy=1.00D-06.
 No special actions if energy rises.
 SCF Done:  E(UHF) =  -150.195357956     A.U. after   14 cycles
            NFock= 14  Conv=0.48D-08     -V/T= 2.0000
 <Sx>= 0.0000 <Sy>= 0.0000 <Sz>= 0.5000 <S**2>= 0.7632 S= 0.5066
 <L.S>= 0.000000000000E+00
 Annihilation of the first spin contaminant:
 S**2 before annihilation     0.7632,   after     0.7501
 ExpMin= 2.97D-02 ExpMax= 1.17D+04 ExpMxC= 4.01D+02 IAcc=3 IRadAn=         5 AccDes= 0.00D+00
 HarFok:  IExCor=  205 AccDes= 0.00D+00 IRadAn=         5 IDoV=-2 UseB2=F ITyADJ=14
 ICtDFT= 12500011 ScaDFX=  1.000000  1.000000  1.000000  1.000000
 Range of M.O.s used for correlation:     3    55
 NBasis=    55 NAE=     9 NBE=     8 NFC=     2 NFV=     0
 NROrb=     53 NOA=     7 NOB=     6 NVA=    46 NVB=    47

 **** Warning!!: The largest alpha MO coefficient is  0.11491230D+02


 **** Warning!!: The largest beta MO coefficient is  0.12270463D+02

 Fully direct method using O(ONN) memory.
 JobTyp=2 Pass  1:  I=   3 to   9 NPSUse= 28 ParTrn=T ParDer=T DoDerP=T.
 JobTyp=3 Pass  1:  I=   3 to   8 NPSUse= 28 ParTrn=T ParDer=T DoDerP=T.
 Spin components of T(2) and E(2):
     alpha-alpha T2 =       0.1273386946D-01 E2=     -0.5066487522D-01
     alpha-beta  T2 =       0.7104516130D-01 E2=     -0.2683341388D+00
     beta-beta   T2 =       0.1425719144D-01 E2=     -0.4736698928D-01
 (S**2,0)=  0.76317D+00           (S**2,1)=  0.75260D+00
 E(PUHF)=      -0.15020018191D+03        E(PMP2)=      -0.15056462317D+03
 ANorm=    0.1047872236D+01
 E2 =    -0.3663660033D+00 EUMP2 =    -0.15056172395936D+03
          IDoAtm=111
          Differentiating once with respect to electric field.
                with respect to dipole field.
          Differentiating once with respect to nuclear coordinates.
 Keep R1 and R2 ints in memory in symmetry-blocked form, NReq=7042927.
          There are     1 degrees of freedom in the 1st order CPHF.  IDoFFX=0 NUNeed=     1.
 LinEq1:  Iter=  0 NonCon=     1 RMS=5.36D-03 Max=9.40D-02 NDo=     1
 AX will form     1 AO Fock derivatives at one time.
 LinEq1:  Iter=  1 NonCon=     1 RMS=1.39D-03 Max=1.38D-02 NDo=     1
 LinEq1:  Iter=  2 NonCon=     1 RMS=7.69D-04 Max=1.03D-02 NDo=     1
 LinEq1:  Iter=  3 NonCon=     1 RMS=2.08D-04 Max=2.60D-03 NDo=     1
 LinEq1:  Iter=  4 NonCon=     1 RMS=6.70D-05 Max=5.15D-04 NDo=     1
 LinEq1:  Iter=  5 NonCon=     1 RMS=2.13D-05 Max=1.52D-04 NDo=     1
 LinEq1:  Iter=  6 NonCon=     1 RMS=5.38D-06 Max=4.41D-05 NDo=     1
 LinEq1:  Iter=  7 NonCon=     1 RMS=1.10D-06 Max=5.39D-06 NDo=     1
 LinEq1:  Iter=  8 NonCon=     1 RMS=2.47D-07 Max=1.84D-06 NDo=     1
 LinEq1:  Iter=  9 NonCon=     1 RMS=5.95D-08 Max=4.60D-07 NDo=     1
 LinEq1:  Iter= 10 NonCon=     1 RMS=1.30D-08 Max=1.04D-07 NDo=     1
 LinEq1:  Iter= 11 NonCon=     1 RMS=2.76D-09 Max=1.79D-08 NDo=     1
 LinEq1:  Iter= 12 NonCon=     1 RMS=5.01D-10 Max=4.84D-09 NDo=     1
 LinEq1:  Iter= 13 NonCon=     1 RMS=1.21D-10 Max=1.29D-09 NDo=     1
 LinEq1:  Iter= 14 NonCon=     0 RMS=2.84D-11 Max=1.96D-10 NDo=     1
 Linear equations converged to 1.000D-10 1.000D-09 after    14 iterations.
 End of Minotr F.D. properties file   721 does not exist.
 End of Minotr F.D. properties file   722 does not exist.
 End of Minotr F.D. properties file   788 does not exist.
 Calling FoFJK, ICntrl=  10002127 FMM=F ISym2X=1 I1Cent= 0 IOpClX= 1 NMat=1 NMatS=1 NMatT=0.
 ***** Axes restored to original set *****
 -------------------------------------------------------------------
 Center     Atomic                   Forces (Hartrees/Bohr)
 Number     Number              X              Y              Z
 -------------------------------------------------------------------
      1        8           0.032487252   -0.071580860    0.011991654
      2        8          -0.020363745    0.088226012    0.015776632
      3        1          -0.012123507   -0.016645152   -0.027768286
 -------------------------------------------------------------------
 Cartesian Forces:  Max     0.088226012 RMS     0.042118316

 GradGradGradGradGradGradGradGradGradGradGradGradGradGradGradGradGradGrad
 Berny optimization.
 Using GEDIIS/GDIIS optimizer.
 FormGI is forming the generalized inverse of G from B-inverse, IUseBI=4.
 Internal  Forces:  Max     0.079398266 RMS     0.050255228
 Search for a local minimum.
 Step number   6 out of a maximum of   20
 All quantities printed in internal units (Hartrees-Bohrs-Radians)
 Mixed Optimization -- RFO/linear search
 Update second derivatives using D2CorX and points    5    6
 DE= -2.42D-03 DEPred=-2.68D-03 R= 9.04D-01
 TightC=F SS=  1.41D+00  RLast= 1.35D-01 DXNew= 1.4270D+00 4.0442D-01
 Trust test= 9.04D-01 RLast= 1.35D-01 DXMaxT set to 8.49D-01
 The second derivative matrix:
                          R1        R2        A1
           R1           2.42950
           R2          -1.12580   1.01543
           A1           0.44421  -0.23041   0.32851
 ITU=  1  1  0  0
 Use linear search instead of GDIIS.
     Eigenvalues ---    0.23843   0.39416   3.14085
 RFO step:  Lambda=-2.67213176D-03 EMin= 2.38429964D-01
 Quartic linear search produced a step of  0.01068.
 Iteration  1 RMS(Cart)=  0.01617844 RMS(Int)=  0.00010237
 Iteration  2 RMS(Cart)=  0.00010860 RMS(Int)=  0.00000000
 Iteration  3 RMS(Cart)=  0.00000000 RMS(Int)=  0.00000000
 ClnCor:  largest displacement from symmetrization is 2.98D-15 for atom     3.
 Variable       Old X    -DE/DX   Delta X   Delta X   Delta X     New X
                                 (Linear)    (Quad)   (Total)
    R1        2.35814   0.07940   0.00002   0.03766   0.03768   2.39582
    R2        1.94550  -0.03417  -0.00039   0.00479   0.00439   1.94990
    A1        1.83910   0.01027  -0.00138  -0.01505  -0.01644   1.82266
         Item               Value     Threshold  Converged?
 Maximum Force            0.079398     0.000450     NO 
 RMS     Force            0.050255     0.000300     NO 
 Maximum Displacement     0.015083     0.001800     NO 
 RMS     Displacement     0.016174     0.001200     NO 
 Predicted change in Energy=-1.338855D-03
 GradGradGradGradGradGradGradGradGradGradGradGradGradGradGradGradGradGrad

                          Input orientation:                          
 ---------------------------------------------------------------------
 Center     Atomic      Atomic             Coordinates (Angstroms)
 Number     Number       Type             X           Y           Z
 ---------------------------------------------------------------------
      1          8           0        0.493145    0.965730   -0.912691
      2          8           0       -0.055611    2.080179   -1.166097
      3          1           0        0.233965    2.692327   -0.387563
 ---------------------------------------------------------------------
                    Distance matrix (angstroms):
                    1          2          3
     1  O    0.000000
     2  O    1.267811   0.000000
     3  H    1.823204   1.031841   0.000000
 Stoichiometry    HO2(2)
 Framework group  CS[SG(HO2)]
 Deg. of freedom     3
 Full point group                 CS      NOp   2
 Largest Abelian subgroup         CS      NOp   2
 Largest concise Abelian subgroup C1      NOp   1
                         Standard orientation:                         
 ---------------------------------------------------------------------
 Center     Atomic      Atomic             Coordinates (Angstroms)
[...]

 Anharmonic Zero Point Energy
 ----------------------------
 Harmonic       : cm-1 =  3145.87944 ; Kcal/mol =   8.995 ; KJ/mol =  37.633
 Anharmonic Pot.: cm-1 =   -38.47850 ; Kcal/mol =  -0.110 ; KJ/mol =  -0.460
 Watson+Coriolis: cm-1 =    -5.41221 ; Kcal/mol =  -0.015 ; KJ/mol =  -0.065
 Total Anharm   : cm-1 =  3101.98873 ; Kcal/mol =   8.869 ; KJ/mol =  37.108

     ==================================================
          Vibrational Energies at Anharmonic Level
     ==================================================

 Units: Vibrational energies and rotational constants in cm^-1.
 NOTE: Transition energies are given with respect to the ground state.

 Reference Data
 --------------
                              E(harm)  E(anharm)     Aa(x)      Ba(y)      Ca(z)
 Equilibrium Geometry                             20.411963   1.137289   1.077226
 Ground State                 3145.879  3101.989  20.305122   1.132780   1.069145

 Fundamental Bands
 -----------------
     Mode(n)      Status      E(harm)  E(anharm)     Aa(x)      Ba(y)      Ca(z)
        1(1)      active      3643.928  3436.534  19.529305   1.135466   1.069826
        2(1)      active      1450.298  1408.918  20.881364   1.131560   1.064156
        3(1)      active      1197.532  1197.112  20.291017   1.122293   1.057290

 Overtones
 ---------
     Mode(n)                  E(harm)  E(anharm)     Aa(x)      Ba(y)      Ca(z)
        1(2)                  7287.857  6678.610  18.753488   1.138152   1.070508
        2(2)                  2900.596  2792.805  21.457606   1.130341   1.059166
        3(2)                  2395.065  2401.147  20.276911   1.111806   1.045435

 Combination Bands
 -----------------
     Mode(n)     Mode(n)      E(harm)  E(anharm)     Aa(x)      Ba(y)      Ca(z)
        2(1)        1(1)      5094.227  4823.509  20.105547   1.134246   1.064837
        3(1)        1(1)      4841.461  4629.713  19.515200   1.124979   1.057971
        3(1)        2(1)      2647.830  2595.273  20.867259   1.121073   1.052301

     ==================================================
      Thermodynamic properties and Partition Functions
     ==================================================

 ZPE(harm) = 0.37633D+02 kJ/mol        ZPE(anh)= 0.37108D+02 kJ/mol

 Input values of T(K) and P(atm): 298.15   1.00
                    Harmonic value     SPT anharmonic value
 Qvib               0.25628D-06          0.31680D-06
 QZvib              0.10040D+01          0.10042D+01
 Energy             0.45130D+02          0.44608D+02         kJ/mol
 Enthalpy           0.47609D+02          0.47087D+02         kJ/mol
 Entropy            0.22872D+03          0.22873D+03         J/(mol K)
 Sp.Heat(V)         0.26180D+02          0.26238D+02         J/(mol K)
 Sp.Heat(P)         0.34494D+02          0.34553D+02         J/(mol K)

 T =  298.15 K;  P =   1.00 atm
                    Harmonic value     SPT anharmonic value
 Qvib               0.25628D-06          0.31680D-06
 QZvib              0.10040D+01          0.10042D+01
 Energy             0.45130D+02          0.44608D+02         kJ/mol
 Enthalpy           0.47609D+02          0.47087D+02         kJ/mol
 Entropy            0.22872D+03          0.22873D+03         J/(mol K)
 Sp.Heat(V)         0.26180D+02          0.26238D+02         J/(mol K)
 Sp.Heat(P)         0.34494D+02          0.34553D+02         J/(mol K)

 T =  500.00 K;  P =   1.00 atm
                    Harmonic value     SPT anharmonic value
 Qvib               0.12286D-03          0.13968D-03
 QZvib              0.10491D+01          0.10513D+01
 Energy             0.50849D+02          0.50351D+02         kJ/mol
 Enthalpy           0.55006D+02          0.54509D+02         kJ/mol
 Entropy            0.24757D+03          0.24764D+03         J/(mol K)
 Sp.Heat(V)         0.30627D+02          0.30800D+02         J/(mol K)
 Sp.Heat(P)         0.38942D+02          0.39114D+02         J/(mol K)

 T = 1000.00 K;  P =   1.00 atm
                    Harmonic value     SPT anharmonic value
 Qvib               0.15120D-01          0.16279D-01
 QZvib              0.13972D+01          0.14122D+01
 Energy             0.68380D+02          0.68018D+02         kJ/mol
 Enthalpy           0.76694D+02          0.76332D+02         kJ/mol
 Entropy            0.27732D+03          0.27757D+03         J/(mol K)
 Sp.Heat(V)         0.38551D+02          0.38913D+02         J/(mol K)
 Sp.Heat(P)         0.46865D+02          0.47227D+02         J/(mol K)

 T = 1500.00 K;  P =   1.00 atm
                    Harmonic value     SPT anharmonic value
 Qvib               0.98349D-01          0.10471D+00
 QZvib              0.20102D+01          0.20521D+01
 Energy             0.88809D+02          0.88643D+02         kJ/mol
 Enthalpy           0.10128D+03          0.10111D+03         kJ/mol
 Entropy            0.29720D+03          0.29761D+03         J/(mol K)
 Sp.Heat(V)         0.42773D+02          0.43165D+02         J/(mol K)
 Sp.Heat(P)         0.51087D+02          0.51479D+02         J/(mol K)

 T = 2000.00 K;  P =   1.00 atm
                    Harmonic value     SPT anharmonic value
 Qvib               0.29992D+00          0.31881D+00
 QZvib              0.28831D+01          0.29694D+01
 Energy             0.11086D+03          0.11087D+03         kJ/mol
 Enthalpy           0.12748D+03          0.12750D+03         kJ/mol
 Entropy            0.31226D+03          0.31277D+03         J/(mol K)
 Sp.Heat(V)         0.45192D+02          0.45516D+02         J/(mol K)
 Sp.Heat(P)         0.53507D+02          0.53831D+02         J/(mol K)

     ==================================================
               Anharmonic Transition Moments
     ==================================================

 Electric dipole : Fundamental Bands
 ------------------------------------------------------------------------
   Mode(n)                            X               Y               Z
      1(1)                      -0.121864D-01    0.194649D-01   -0.234973D-12
      2(1)                      -0.345130D-01   -0.928717D-02   -0.380115D-13
      3(1)                       0.694412D-01    0.568042D-02    0.121678D-11

 Electric dipole : Overtones
 ------------------------------------------------------------------------
   Mode(n)                            X               Y               Z
      1(2)                       0.536089D-02   -0.516837D-02    0.141809D-14
      2(2)                       0.146782D-02   -0.613673D-02   -0.122458D-14
      3(2)                       0.182512D-02   -0.225370D-02   -0.260744D-13

 Electric dipole : Combination Bands
 ------------------------------------------------------------------------
   Mode(n)     Mode(n)                X               Y               Z
      2(1)        1(1)          -0.168358D-02   -0.301216D-02    0.273544D-14
      3(1)        1(1)          -0.242689D-02    0.310522D-02    0.432999D-14
      3(1)        2(1)           0.501923D-03    0.345801D-02   -0.892654D-14

     ==================================================
              Anharmonic Infrared Spectroscopy
     ==================================================

 Units: Transition energies (E) in cm^-1
        Integrated intensity (I) in km.mol^-1

 Fundamental Bands
 -----------------
   Mode(n)                  E(harm)   E(anharm)        I(harm)       I(anharm)
      1(1)                  3643.928   3436.534     42.06537665     29.35009476
      2(1)                  1450.298   1408.918     32.03053863     29.14540514
      3(1)                  1197.532   1197.112     94.21073076     94.10716470

 Overtones
 ---------
   Mode(n)                  E(harm)   E(anharm)                      I(anharm)
      1(2)                  7287.857   6678.610                      5.99727438
      2(2)                  2900.596   2792.805                      1.80066324
      3(2)                  2395.065   2401.147                      0.32702722

 Combination Bands
 -----------------
   Mode(n)     Mode(n)      E(harm)   E(anharm)                      I(anharm)
      2(1)        1(1)      5094.227   4823.509                      0.93012894
      3(1)        1(1)      4841.461   4629.713                      1.16451052
      3(1)        2(1)      2647.830   2595.273                      0.51315375

 Units: Transition energies (E) in cm^-1
        Dipole strengths (DS) in 10^-40 esu^2.cm^2

 Fundamental Bands
 -----------------
   Mode(n)                  E(harm)   E(anharm)       DS(harm)      DS(anharm)
      1(1)                  3643.928   3436.534     46.05346912     34.07189684
      2(1)                  1450.298   1408.918     88.10779686     82.52618490
      3(1)                  1197.532   1197.112    313.84884827    313.61400982

 Overtones
 ---------
   Mode(n)                  E(harm)   E(anharm)                     DS(anharm)
      1(2)                  7287.857   6678.610                      3.58240980
      2(2)                  2900.596   2792.805                      2.57216729
      3(2)                  2395.065   2401.147                      0.54334117

 Combination Bands
 -----------------
   Mode(n)     Mode(n)      E(harm)   E(anharm)                     DS(anharm)
      2(1)        1(1)      5094.227   4823.509                      0.76928533
      3(1)        1(1)      4841.461   4629.713                      1.00345224
      3(1)        2(1)      2647.830   2595.273                      0.78880902


 GradGradGradGradGradGradGradGradGradGradGradGradGradGradGradGradGradGrad
 Berny optimization.
 Internal  Forces:  Max     0.000080595 RMS     0.000055608
 Search for a local minimum.
 Step number   1 out of a maximum of    2
 All quantities printed in internal units (Hartrees-Bohrs-Radians)
 Second derivative matrix not updated -- analytic derivatives used.
 The second derivative matrix:
                          R1        R2        A1
           R1           0.46865
           R2           0.01576   0.47621
           A1           0.08469  -0.00522   0.24227
 ITU=  0
     Eigenvalues ---    0.21372   0.47000   0.50342
 Angle between quadratic step and forces=  14.08 degrees.
 Linear search not attempted -- first point.
 Iteration  1 RMS(Cart)=  0.00013407 RMS(Int)=  0.00000001
 Iteration  2 RMS(Cart)=  0.00000000 RMS(Int)=  0.00000000
 ClnCor:  largest displacement from symmetrization is 6.29D-16 for atom     2.
 Variable       Old X    -DE/DX   Delta X   Delta X   Delta X     New X
                                 (Linear)    (Quad)   (Total)
    R1        2.49763  -0.00008   0.00000  -0.00015  -0.00015   2.49749
    R2        1.84862   0.00002   0.00000   0.00004   0.00004   1.84866
    A1        1.82413  -0.00005   0.00000  -0.00015  -0.00015   1.82398
         Item               Value     Threshold  Converged?
 Maximum Force            0.000081     0.000450     YES
 RMS     Force            0.000056     0.000300     YES
 Maximum Displacement     0.000159     0.001800     YES
 RMS     Displacement     0.000134     0.001200     YES
 Predicted change in Energy=-1.000176D-08
 Optimization completed.
    -- Stationary point found.
                           ----------------------------
                           !   Optimized Parameters   !
                           ! (Angstroms and Degrees)  !
 --------------------------                            --------------------------
 ! Name  Definition              Value          Derivative Info.                !
 --------------------------------------------------------------------------------
 ! R1    R(1,2)                  1.3217         -DE/DX =   -0.0001              !
 ! R2    R(2,3)                  0.9782         -DE/DX =    0.0                 !
 ! A1    A(1,2,3)              104.515          -DE/DX =    0.0                 !
 --------------------------------------------------------------------------------
 GradGradGradGradGradGradGradGradGradGradGradGradGradGradGradGradGradGrad


 ----------------------------------------------------------------------

 Electric dipole moment (input orientation):
 (Debye = 10**-18 statcoulomb cm , SI units = C m)
                  (au)            (Debye)         (10**-30 SI)
   Tot        0.850222D+00      0.216105D+01      0.720848D+01
   x          0.518102D-01      0.131688D+00      0.439265D+00
   y          0.711433D+00      0.180828D+01      0.603178D+01
   z          0.462661D+00      0.117597D+01      0.392261D+01

 Dipole polarizability, Alpha (input orientation).
 (esu units = cm**3 , SI units = C**2 m**2 J**-1)
 Alpha(0;0):
               (au)            (10**-24 esu)      (10**-40 SI)
   iso        0.128941D+02      0.191071D+01      0.212595D+01
   aniso      0.879639D+01      0.130349D+01      0.145033D+01
   xx         0.106868D+02      0.158361D+01      0.176201D+01
   yx        -0.287971D+01     -0.426729D+00     -0.474800D+00
   yy         0.176539D+02      0.261604D+01      0.291074D+01
   zx         0.689751D+00      0.102211D+00      0.113725D+00
   zy         0.451651D-01      0.669277D-02      0.744671D-02
   zz         0.103416D+02      0.153247D+01      0.170510D+01

 ----------------------------------------------------------------------

 Dipole orientation:
     8          0.99528597          2.37922999          0.61420263
     8         -0.10855112          4.00800121          2.15265078
     1          0.30510497          3.39762933          3.84785454

 Electric dipole moment (dipole orientation):
 (Debye = 10**-18 statcoulomb cm , SI units = C m)
                  (au)            (Debye)         (10**-30 SI)
   Tot        0.850222D+00      0.216105D+01      0.720848D+01
   x          0.000000D+00      0.000000D+00      0.000000D+00
   y          0.000000D+00      0.000000D+00      0.000000D+00
   z          0.850222D+00      0.216105D+01      0.720848D+01

 Dipole polarizability, Alpha (dipole orientation).
 (esu units = cm**3 , SI units = C**2 m**2 J**-1)
 Alpha(0;0):
               (au)            (10**-24 esu)      (10**-40 SI)
   iso        0.128941D+02      0.191071D+01      0.212595D+01
   aniso      0.879639D+01      0.130349D+01      0.145033D+01
   xx         0.107991D+02      0.160026D+01      0.178053D+01
   yx        -0.229130D+01     -0.339536D+00     -0.377784D+00
   yy         0.126272D+02      0.187116D+01      0.208195D+01
   zx        -0.221034D+01     -0.327539D+00     -0.364436D+00
   zy         0.326148D+01      0.483301D+00      0.537745D+00
   zz         0.152560D+02      0.226070D+01      0.251537D+01

 ----------------------------------------------------------------------
 1\1\GINC-N2288\Freq\UMP2-FC\Aug-CC-pVDZ\H1O2(2)\GDS001\15-Aug-2020\0\\
 #N Geom=AllCheck Guess=TCheck SCRF=Check GenChk UMP2(FC)/Aug-CC-pVDZ F
 req\\ho2\\0,2\O,0.5036474047,0.942725352,-0.9087406086\O,-0.0579247136
 ,2.1143251752,-1.151346137\H,0.2257765199,2.6811857141,-0.4062643455\\
 Version=ES64L-G16RevA.03\State=2-A"\HF=-150.2025089\MP2=-150.5685628\P
 UHF=-150.2070245\PMP2-0=-150.5713579\S2=0.762687\S2-1=0.752966\S2A=0.7
 50118\RMSD=1.429e-09\RMSF=3.889e-05\ZeroPoint=0.0143337\Thermal=0.0171
 892\Dipole=0.0518102,0.711433,0.4626614\DipoleDeriv=-0.0214218,-0.2798
 563,0.0341761,-0.3112444,0.5271261,-0.1247725,0.0173133,-0.0760318,-0.
 1542149,-0.29572,0.2517606,0.0394284,0.3000178,-0.7922055,0.1659964,0.
 0653539,0.0910606,-0.083604,0.3171419,0.0280957,-0.0736045,0.0112266,0
 .2650793,-0.0412239,-0.0826672,-0.0150288,0.2378189\Polar=10.6867578,-
 2.8797075,17.6539129,0.6897514,0.0451651,10.3416169\Quadrupole=-0.6184
 6,0.7705263,-0.1520663,0.2843191,-0.2207557,1.0584971\PG=CS [SG(H1O2)]
 \NImag=0\\0.07934713,-0.16363819,0.39573560,0.03525397,-0.04151656,0.0
 3246989,-0.08257057,0.13664016,-0.05478079,0.14540755,0.16081660,-0.34
 216674,0.06590840,-0.08147426,0.48753515,-0.04179230,0.02836621,-0.049
 67681,0.18203395,0.13540892,0.35541020,0.00322344,0.02699803,0.0195268
 2,-0.06283698,-0.07934234,-0.14024165,0.05961354,0.00282159,-0.0535688
 6,-0.02439184,-0.05516590,-0.14536841,-0.16377512,0.05234431,0.1989372
 7,0.00653833,0.01315036,0.01720692,-0.12725316,-0.20131731,-0.30573339
 ,0.12071483,0.18816696,0.28852647\\0.00002622,-0.00007867,-0.00000156,
 -0.00000690,0.00006986,0.00002681,-0.00001931,0.00000881,-0.00002526\\
 -0.04222315,0.20988803,-0.40205163,-0.04537809,0.07789864,0.03099957,0
 .04465965,-0.20547268,0.05706748,-0.02604416,-0.20335969,0.37931696,-0
 .07806054,0.21558870,-0.40639720,0.05820266,-0.08134167,-0.01649843,-0
 .03119024,0.07957331,0.06294530,-0.00243650,-0.00441536,-0.01168940,-0
 .01861549,-0.01222901,-0.02701242,0.02105199,-0.00652834,0.02273467,0.
 00016190,-0.01011602,0.02708024,0.00176836,0.01664436,-0.04981490,-0.0
 1282457,0.00344303,-0.01450114,-0.02587724,-0.00151277,-0.04644688,0.0
 3870181,-0.00193025,0.06094802,0.00335438,0.06845046,-0.18427000,0.004
 71082,-0.00559905,0.02830967,0.00648197,-0.03763332,-0.02061854,-0.078
 91086,-0.04941595,0.12044831,-0.01564674,0.01096254,0.05861253,-0.0269
 4860,0.00264981,-0.03368345,-0.04683630,0.07266423,-0.07864790,-0.0098
 3634,-0.03081713,0.01590772,0.07242889,0.03845340,0.07378490,-0.062592
 55,-0.01903451,0.06382170,0.02124579,0.02667078,-0.17906084,-0.0753140
 4,-0.00763627,0.11523914,0.02223779,0.00294924,0.00537378,0.06745483,-
 0.05701749,0.11233136,-0.08969262,0.05406825,-0.11770514,-0.00727341,0
 .02092807,-0.04197265,-0.00564813,0.00801230,-0.00086178,0.00099738,0.
 00560622,0.01524195,0.07004960,-0.04321635,0.05258854,-0.03516021,-0.3
 1126591,-0.57207815,-0.01098736,0.04065351,-0.00209960,-0.48721478,-0.
 93902919,-0.98493137,0.00627603,-0.02653429,-0.00959382,-0.07104698,0.
 35448226,0.49820214,0.06477095,0.02228828,-0.01061588,0.02714791,0.305
 65969,0.51948962,0.89837567,-0.32794797,-0.50887373,0.01663549,-0.0486
 6582,0.00296137,0.47197283,0.97418940,0.98703097,-0.48860832,-0.925523
 59,-0.98999235,0.13471870,-0.45791104,0.87839094,0.09894540,-0.1921916
 5,-0.03702985,-0.14152672,0.46875500,-0.10601460,0.15406230,0.44947678
 ,-0.85836191,0.18905115,-0.49556832,0.78914368,-0.11637159,0.21898719,
 0.02586141,0.10247634,-0.30078561,-0.08584616,0.00680802,-0.01084397,0
 .00706920,-0.01253558,0.04609154,0.01389524,0.00572757,0.00843426,-0.0
 2002903,0.00314050,0.02681331,0.06921822,0.08179842,-0.03524758,-0.049
 18920,0.01742618,-0.02679555,0.01116844,0.00353826,0.11173446,0.059984
 74,-0.02096444,-0.08493892,-0.07115317,-0.02471105,-0.07477621,0.11500
 920,0.00345985,-0.02595716,-0.06138204,0.03005027,0.11051382,0.0355140
 9,-0.03822581,0.03490089,-0.07877101,-0.01252148,-0.28071039,-0.167957
 56,-0.00510800,0.10489345,0.09383516,-0.27225500,-0.54761261,-0.676983
 26,-0.00533922,-0.03573761,-0.03897394,0.00817553,0.24580949,0.2773630
 1,-0.00283631,0.03987532,-0.03623819,0.03847864,0.17019656,0.24672856,
 0.44271916,-0.21007188,-0.21049037,0.00164815,-0.07893628,-0.03245311,
 0.23674092,0.56013409,0.58314810,-0.23838907,-0.48119781,-0.55069498,-
 0.01753859,0.07805147,-0.12095635,-0.02452064,0.04265100,0.01009276,0.
 01499554,-0.09488057,0.00960036,-0.68155367,-0.08597712,0.15721842,-0.
 03614471,1.33913421,1.15109438,0.01438363,-0.04997035,-0.02852321,1.70
 920416,3.40646216,3.16525524,0.00254307,0.01682910,0.01492027,0.666558
 11,-1.25315709,-1.72358779,-0.66910118,0.00792565,-0.03626205,-0.00650
 630,-1.24425364,-1.30831282,-3.35649181,1.23632799,1.34457487,0.010137
 01,0.00731935,0.01843047,-1.71880453,-3.37031746,-3.13673205,1.7086675
 2,3.36299811,3.11830158\\@


 The earth never tires,
 The earth is rude, silent, incomprehensible at first,
 Nature is rude and incomprehensible at first,
 Be not discouraged, keep on,
 There are divine things well envelop'd,
 I swear to you there are divine things more beautiful than words can tell.
                                 -- Walt Whitman
 Job cpu time:       0 days  0 hours 38 minutes  1.3 seconds.
 Elapsed time:       0 days  0 hours  1 minutes 27.9 seconds.
 File lengths (MBytes):  RWF=    264 Int=      0 D2E=      0 Chk=     44 Scr=      8
 Normal termination of Gaussian 16 at Sat Aug 15 13:44:46 2020.
