 Entering Gaussian System, Link 0=g16
 Input=ho2_mp2_avtz_opt_freq.gjf
 Output=ho2_mp2_avtz_opt_freq.log
 Initial command:
 /sw/contrib/gaussian/g16/A03/g16/l1.exe "/gscratch/scrubbed/gds001/Gau-2860.inp" -scrdir="/gscratch/scrubbed/gds001/"
 Entering Link 1 = /sw/contrib/gaussian/g16/A03/g16/l1.exe PID=      2861.
  
 Copyright (c) 1988,1990,1992,1993,1995,1998,2003,2009,2016,
            Gaussian, Inc.  All Rights Reserved.
  
 This is part of the Gaussian(R) 16 program.  It is based on
 the Gaussian(R) 09 system (copyright 2009, Gaussian, Inc.),
 the Gaussian(R) 03 system (copyright 2003, Gaussian, Inc.),
 the Gaussian(R) 98 system (copyright 1998, Gaussian, Inc.),
 the Gaussian(R) 94 system (copyright 1995, Gaussian, Inc.),
 the Gaussian 92(TM) system (copyright 1992, Gaussian, Inc.),
 the Gaussian 90(TM) system (copyright 1990, Gaussian, Inc.),
 the Gaussian 88(TM) system (copyright 1988, Gaussian, Inc.),
 the Gaussian 86(TM) system (copyright 1986, Carnegie Mellon
 University), and the Gaussian 82(TM) system (copyright 1983,
 Carnegie Mellon University). Gaussian is a federally registered
 trademark of Gaussian, Inc.
  
 This software contains proprietary and confidential information,
 including trade secrets, belonging to Gaussian, Inc.
  
 This software is provided under written license and may be
 used, copied, transmitted, or stored only in accord with that
 written license.
  
 The following legend is applicable only to US Government
 contracts under FAR:
  
                    RESTRICTED RIGHTS LEGEND
  
 Use, reproduction and disclosure by the US Government is
 subject to restrictions as set forth in subparagraphs (a)
 and (c) of the Commercial Computer Software - Restricted
 Rights clause in FAR 52.227-19.
  
 Gaussian, Inc.
 340 Quinnipiac St., Bldg. 40, Wallingford CT 06492
  
  
 ---------------------------------------------------------------
 Warning -- This program may not be used in any manner that
 competes with the business of Gaussian, Inc. or will provide
 assistance to any competitor of Gaussian, Inc.  The licensee
 of this program is prohibited from giving any competitor of
 Gaussian, Inc. access to this program.  By using this program,
 the user acknowledges that Gaussian, Inc. is engaged in the
 business of creating and licensing software in the field of
 computational chemistry and represents and warrants to the
 licensee that it is not a competitor of Gaussian, Inc. and that
 it will not use this program in any manner prohibited above.
 ---------------------------------------------------------------
  

 Cite this work as:
 Gaussian 16, Revision A.03,
 M. J. Frisch, G. W. Trucks, H. B. Schlegel, G. E. Scuseria, 
 M. A. Robb, J. R. Cheeseman, G. Scalmani, V. Barone, 
 G. A. Petersson, H. Nakatsuji, X. Li, M. Caricato, A. V. Marenich, 
 J. Bloino, B. G. Janesko, R. Gomperts, B. Mennucci, H. P. Hratchian, 
 J. V. Ortiz, A. F. Izmaylov, J. L. Sonnenberg, D. Williams-Young, 
 F. Ding, F. Lipparini, F. Egidi, J. Goings, B. Peng, A. Petrone, 
 T. Henderson, D. Ranasinghe, V. G. Zakrzewski, J. Gao, N. Rega, 
 G. Zheng, W. Liang, M. Hada, M. Ehara, K. Toyota, R. Fukuda, 
 J. Hasegawa, M. Ishida, T. Nakajima, Y. Honda, O. Kitao, H. Nakai, 
 T. Vreven, K. Throssell, J. A. Montgomery, Jr., J. E. Peralta, 
 F. Ogliaro, M. J. Bearpark, J. J. Heyd, E. N. Brothers, K. N. Kudin, 
 V. N. Staroverov, T. A. Keith, R. Kobayashi, J. Normand, 
 K. Raghavachari, A. P. Rendell, J. C. Burant, S. S. Iyengar, 
 J. Tomasi, M. Cossi, J. M. Millam, M. Klene, C. Adamo, R. Cammi, 
 J. W. Ochterski, R. L. Martin, K. Morokuma, O. Farkas, 
 J. B. Foresman, and D. J. Fox, Gaussian, Inc., Wallingford CT, 2016.
 
 ******************************************
 Gaussian 16:  ES64L-G16RevA.03 25-Dec-2016
                24-Jun-2021 
 ******************************************
 %nprocshared=28
 Will use up to   28 processors via shared memory.
 %mem=41GB
 %chk=ho2_mp2_avtz_opt_anharm.chk
 ----------------------------------------------
 # mp2/aug-cc-pVTZ opt freq=(vibrot,anharmonic)
 ----------------------------------------------
 1/18=20,19=15,38=1,80=1/1,3;
 2/9=110,12=2,17=6,18=5,40=1/2;
 3/5=16,6=1,7=10,11=9,25=1,30=1,71=1/1,2,3;
 4//1;
 5/5=2,38=5/2;
 8/6=4,10=1/1;
 9/15=2,16=-3/6;
 10/5=1/2;
 6/7=2,8=2,9=2,10=2/1;
 7/12=2/1,2,3,16;
 1/18=20,19=15,80=1/3(2);
 2/9=110/2;
 99//99;
 2/9=110/2;
 3/5=16,6=1,7=10,11=9,25=1,30=1,71=1/1,2,3;
 4/5=5,16=3,69=1/1;
 5/5=2,38=5/2;
 8/6=4,10=1/1;
 9/15=2,16=-3/6;
 10/5=1/2;
 7/12=2/1,2,3,16;
 1/18=20,19=15,80=1/3(-8);
 2/9=110/2;
 6/7=2,8=2,9=2,10=2/1;
 99//99;
 ----
 HO2*
 ----
 Symbolic Z-matrix:
 Charge =  0 Multiplicity = 2
 O                     0.        0.        0. 
 O                     0.        0.        1.48 
 H                     0.89567   0.        1.79667 
 

 GradGradGradGradGradGradGradGradGradGradGradGradGradGradGradGradGradGrad
 Berny optimization.
 Initialization pass.
                           ----------------------------
                           !    Initial Parameters    !
                           ! (Angstroms and Degrees)  !
 --------------------------                            --------------------------
 ! Name  Definition              Value          Derivative Info.                !
 --------------------------------------------------------------------------------
 ! R1    R(1,2)                  1.48           estimate D2E/DX2                !
 ! R2    R(2,3)                  0.95           estimate D2E/DX2                !
 ! A1    A(1,2,3)              109.4712         estimate D2E/DX2                !
 --------------------------------------------------------------------------------
 Trust Radius=3.00D-01 FncErr=1.00D-07 GrdErr=1.00D-07 EigMax=2.50D+02 EigMin=1.00D-04
 Number of steps in this run=     20 maximum allowed number of steps=    100.
 GradGradGradGradGradGradGradGradGradGradGradGradGradGradGradGradGradGrad

                          Input orientation:                          
 ---------------------------------------------------------------------
 Center     Atomic      Atomic             Coordinates (Angstroms)
 Number     Number       Type             X           Y           Z
 ---------------------------------------------------------------------
      1          8           0        0.000000    0.000000    0.000000
      2          8           0        0.000000    0.000000    1.480000
      3          1           0        0.895669    0.000000    1.796667
 ---------------------------------------------------------------------
                    Distance matrix (angstroms):
                    1          2          3
     1  O    0.000000
     2  O    1.480000   0.000000
     3  H    2.007545   0.950000   0.000000
 Stoichiometry    HO2(2)
 Framework group  CS[SG(HO2)]
 Deg. of freedom     3
 Full point group                 CS      NOp   2
 Largest Abelian subgroup         CS      NOp   2
 Largest concise Abelian subgroup C1      NOp   1
                         Standard orientation:                         
 ---------------------------------------------------------------------
 Center     Atomic      Atomic             Coordinates (Angstroms)
 Number     Number       Type             X           Y           Z
 ---------------------------------------------------------------------
      1          8           0        0.052686    0.802157    0.000000
      2          8           0        0.052686   -0.677843   -0.000000
      3          1           0       -0.842983   -0.994510   -0.000000
 ---------------------------------------------------------------------
 Rotational constants (GHZ):         686.6892981          27.0887943          26.0607398
 Standard basis: Aug-CC-pVTZ (5D, 7F)
 There are    92 symmetry adapted cartesian basis functions of A'  symmetry.
 There are    43 symmetry adapted cartesian basis functions of A"  symmetry.
 There are    76 symmetry adapted basis functions of A'  symmetry.
 There are    39 symmetry adapted basis functions of A"  symmetry.
   115 basis functions,   171 primitive gaussians,   135 cartesian basis functions
     9 alpha electrons        8 beta electrons
       nuclear repulsion energy        29.4483196638 Hartrees.
 NAtoms=    3 NActive=    3 NUniq=    3 SFac= 1.00D+00 NAtFMM=   60 NAOKFM=F Big=F
 Integral buffers will be    131072 words long.
 Raffenetti 2 integral format.
 Two-electron integral symmetry is turned on.
 One-electron integrals computed using PRISM.
 NBasis=   115 RedAO= T EigKep=  3.07D-04  NBF=    76    39
 NBsUse=   115 1.00D-06 EigRej= -1.00D+00 NBFU=    76    39
 ExpMin= 2.53D-02 ExpMax= 1.53D+04 ExpMxC= 5.22D+02 IAcc=3 IRadAn=         5 AccDes= 0.00D+00
 Harris functional with IExCor=  205 and IRadAn=       5 diagonalized for initial guess.
 HarFok:  IExCor=  205 AccDes= 0.00D+00 IRadAn=         5 IDoV= 1 UseB2=F ITyADJ=14
 ICtDFT=  3500011 ScaDFX=  1.000000  1.000000  1.000000  1.000000
 FoFCou: FMM=F IPFlag=           0 FMFlag=      100000 FMFlg1=           0
         NFxFlg=           0 DoJE=T BraDBF=F KetDBF=T FulRan=T
         wScrn=  0.000000 ICntrl=       500 IOpCl=  0 I1Cent=   200000004 NGrid=           0
         NMat0=    1 NMatS0=      1 NMatT0=    0 NMatD0=    1 NMtDS0=    0 NMtDT0=    0
 Petite list used in FoFCou.
 Initial guess orbital symmetries:
 Alpha Orbitals:
       Occupied  (A') (A') (A') (A') (A') (A') (A") (A') (A")
       Virtual   (A') (A') (A') (A') (A") (A') (A') (A') (A") (A')
                 (A") (A') (A') (A') (A') (A") (A') (A") (A') (A')
                 (A") (A') (A") (A') (A") (A') (A') (A") (A') (A')
                 (A') (A') (A") (A") (A') (A') (A") (A') (A') (A")
                 (A') (A") (A') (A') (A") (A') (A') (A") (A') (A')
                 (A") (A") (A') (A') (A') (A") (A') (A') (A") (A")
                 (A') (A') (A') (A') (A") (A') (A") (A') (A') (A")
                 (A") (A") (A') (A') (A') (A') (A') (A") (A') (A')
                 (A") (A') (A") (A') (A") (A') (A') (A") (A') (A")
                 (A') (A") (A") (A') (A') (A") (A") (A') (A') (A")
                 (A') (A') (A') (A') (A') (A')
 Beta  Orbitals:
       Occupied  (A') (A') (A') (A') (A') (A') (A") (A')
       Virtual   (A") (A') (A') (A') (A') (A") (A') (A') (A') (A")
                 (A') (A") (A') (A') (A') (A') (A") (A') (A") (A')
                 (A') (A") (A') (A") (A') (A") (A') (A') (A") (A')
                 (A') (A') (A') (A") (A") (A') (A') (A") (A') (A')
                 (A") (A') (A") (A') (A') (A") (A') (A') (A") (A')
                 (A') (A") (A") (A') (A') (A') (A") (A') (A') (A")
                 (A") (A') (A') (A') (A') (A") (A') (A") (A') (A')
                 (A") (A") (A") (A') (A') (A') (A') (A') (A") (A')
                 (A') (A") (A') (A") (A') (A") (A') (A') (A") (A')
                 (A") (A') (A") (A") (A') (A') (A") (A") (A') (A')
                 (A") (A') (A') (A') (A') (A') (A')
 The electronic state of the initial guess is 2-A".
 Initial guess <Sx>= 0.0000 <Sy>= 0.0000 <Sz>= 0.5000 <S**2>= 0.7500 S= 0.5000
 Keep R1 and R2 ints in memory in symmetry-blocked form, NReq=36226742.
 Requested convergence on RMS density matrix=1.00D-08 within 128 cycles.
 Requested convergence on MAX density matrix=1.00D-06.
 Requested convergence on             energy=1.00D-06.
 No special actions if energy rises.
 Rare condition: small coef for last iteration:  0.000D+00
 SCF Done:  E(UHF) =  -150.221103855     A.U. after   22 cycles
            NFock= 22  Conv=0.31D-08     -V/T= 2.0019
 <Sx>= 0.0000 <Sy>= 0.0000 <Sz>= 0.5000 <S**2>= 0.8602 S= 0.5537
 <L.S>= 0.000000000000E+00
 Annihilation of the first spin contaminant:
 S**2 before annihilation     0.8602,   after     0.7518
 ExpMin= 2.53D-02 ExpMax= 1.53D+04 ExpMxC= 5.22D+02 IAcc=3 IRadAn=         5 AccDes= 0.00D+00
 HarFok:  IExCor=  205 AccDes= 0.00D+00 IRadAn=         5 IDoV=-2 UseB2=F ITyADJ=14
 ICtDFT= 12500011 ScaDFX=  1.000000  1.000000  1.000000  1.000000
 Range of M.O.s used for correlation:     3   115
 NBasis=   115 NAE=     9 NBE=     8 NFC=     2 NFV=     0
 NROrb=    113 NOA=     7 NOB=     6 NVA=   106 NVB=   107

 **** Warning!!: The largest alpha MO coefficient is  0.15059561D+02


 **** Warning!!: The largest beta MO coefficient is  0.14372779D+02

 Fully direct method using O(ONN) memory.
 JobTyp=2 Pass  1:  I=   3 to   9 NPSUse= 28 ParTrn=T ParDer=T DoDerP=T.
 JobTyp=3 Pass  1:  I=   3 to   8 NPSUse= 28 ParTrn=T ParDer=T DoDerP=T.
 Spin components of T(2) and E(2):
     alpha-alpha T2 =       0.1456843599D-01 E2=     -0.6116937580D-01
     alpha-beta  T2 =       0.8098222522D-01 E2=     -0.3323030245D+00
     beta-beta   T2 =       0.1386734001D-01 E2=     -0.4986512343D-01
 (S**2,0)=  0.86022D+00           (S**2,1)=  0.82997D+00
 E(PUHF)=      -0.15023290824D+03        E(PMP2)=      -0.15067464119D+03
 ANorm=    0.1053289135D+01
 E2 =    -0.4433375237D+00 EUMP2 =    -0.15066444137856D+03
          IDoAtm=111
          Differentiating once with respect to electric field.
                with respect to dipole field.
          Differentiating once with respect to nuclear coordinates.
 Keep R1 and R2 ints in memory in symmetry-blocked form, NReq=36228205.
          There are     1 degrees of freedom in the 1st order CPHF.  IDoFFX=0 NUNeed=     1.
 LinEq1:  Iter=  0 NonCon=     1 RMS=4.48D-03 Max=1.08D-01 NDo=     1
 AX will form     1 AO Fock derivatives at one time.
 LinEq1:  Iter=  1 NonCon=     1 RMS=1.22D-03 Max=2.03D-02 NDo=     1
 LinEq1:  Iter=  2 NonCon=     1 RMS=4.28D-04 Max=7.92D-03 NDo=     1
 LinEq1:  Iter=  3 NonCon=     1 RMS=2.34D-04 Max=5.47D-03 NDo=     1
 LinEq1:  Iter=  4 NonCon=     1 RMS=8.02D-05 Max=9.34D-04 NDo=     1
 LinEq1:  Iter=  5 NonCon=     1 RMS=3.89D-05 Max=5.15D-04 NDo=     1
 LinEq1:  Iter=  6 NonCon=     1 RMS=8.86D-06 Max=1.26D-04 NDo=     1
 LinEq1:  Iter=  7 NonCon=     1 RMS=2.48D-06 Max=5.23D-05 NDo=     1
 LinEq1:  Iter=  8 NonCon=     1 RMS=7.68D-07 Max=8.82D-06 NDo=     1
 LinEq1:  Iter=  9 NonCon=     1 RMS=1.65D-07 Max=1.16D-06 NDo=     1
 LinEq1:  Iter= 10 NonCon=     1 RMS=2.88D-08 Max=2.54D-07 NDo=     1
 LinEq1:  Iter= 11 NonCon=     1 RMS=7.28D-09 Max=5.73D-08 NDo=     1
 LinEq1:  Iter= 12 NonCon=     1 RMS=1.78D-09 Max=1.45D-08 NDo=     1
 LinEq1:  Iter= 13 NonCon=     1 RMS=4.28D-10 Max=3.62D-09 NDo=     1
 LinEq1:  Iter= 14 NonCon=     0 RMS=7.45D-11 Max=8.58D-10 NDo=     1
 Linear equations converged to 1.000D-10 1.000D-09 after    14 iterations.
 End of Minotr F.D. properties file   721 does not exist.
 End of Minotr F.D. properties file   722 does not exist.
 End of Minotr F.D. properties file   788 does not exist.

 **********************************************************************

            Population analysis using the SCF density.

 **********************************************************************

 Orbital symmetries:
 Alpha Orbitals:
       Occupied  (A') (A') (A') (A') (A') (A") (A') (A') (A")
       Virtual   (A') (A') (A') (A") (A') (A') (A") (A') (A') (A")
                 (A') (A') (A') (A') (A') (A") (A') (A") (A') (A")
                 (A') (A') (A") (A') (A") (A') (A') (A") (A') (A')
                 (A') (A') (A") (A") (A') (A') (A") (A') (A') (A")
                 (A') (A") (A') (A') (A") (A') (A') (A") (A') (A")
                 (A') (A") (A') (A') (A') (A") (A') (A') (A") (A")
                 (A') (A') (A') (A") (A') (A') (A") (A") (A') (A")
                 (A') (A") (A') (A') (A') (A') (A') (A") (A') (A')
                 (A") (A') (A") (A') (A") (A') (A') (A") (A') (A")
                 (A') (A") (A") (A') (A') (A") (A") (A') (A') (A")
                 (A') (A') (A') (A') (A') (A')
 Beta  Orbitals:
       Occupied  (A') (A') (A') (A') (A') (A') (A") (A')
       Virtual   (A') (A") (A') (A') (A") (A') (A') (A') (A") (A')
                 (A") (A') (A') (A') (A') (A') (A") (A') (A") (A')
                 (A") (A') (A') (A') (A") (A") (A') (A') (A') (A')
                 (A") (A') (A") (A') (A") (A') (A') (A") (A') (A')
                 (A") (A') (A') (A") (A') (A") (A') (A') (A") (A')
                 (A") (A') (A") (A') (A') (A') (A') (A") (A') (A")
                 (A") (A') (A') (A') (A') (A") (A') (A") (A") (A')
                 (A') (A") (A") (A') (A') (A') (A') (A') (A") (A')
                 (A') (A") (A') (A") (A') (A") (A') (A') (A") (A')
                 (A") (A") (A') (A") (A') (A') (A") (A") (A') (A')
                 (A') (A") (A') (A') (A') (A') (A')
 The electronic state is 2-A".
 Alpha  occ. eigenvalues --  -20.71388 -20.65566  -1.49675  -1.24590  -0.74671
 Alpha  occ. eigenvalues --   -0.73369  -0.63413  -0.55081  -0.53978
 Alpha virt. eigenvalues --    0.03082   0.09184   0.13321   0.15577   0.17447
 Alpha virt. eigenvalues --    0.19651   0.19767   0.19864   0.22145   0.27244
 Alpha virt. eigenvalues --    0.27904   0.33289   0.36664   0.43208   0.62838
 Alpha virt. eigenvalues --    0.64912   0.66713   0.71113   0.72622   0.75054
 Alpha virt. eigenvalues --    0.76256   0.80521   0.81235   0.82117   0.86524
 Alpha virt. eigenvalues --    0.92186   0.95149   0.96809   0.97546   1.00834
 Alpha virt. eigenvalues --    1.03117   1.04408   1.04726   1.18709   1.31106
 Alpha virt. eigenvalues --    1.41234   1.51697   1.59168   1.63612   1.86934
 Alpha virt. eigenvalues --    1.92384   1.98153   1.99825   2.03158   2.05734
 Alpha virt. eigenvalues --    2.11895   2.14668   2.22195   2.23151   2.25581
 Alpha virt. eigenvalues --    2.27754   2.32198   2.39114   2.45771   2.53862
 Alpha virt. eigenvalues --    2.55168   2.56590   2.65069   2.67408   2.77105
 Alpha virt. eigenvalues --    2.95034   2.98511   3.13531   3.20244   3.20745
 Alpha virt. eigenvalues --    3.76814   4.08100   4.18256   4.18700   4.27585
 Alpha virt. eigenvalues --    4.29163   4.38734   4.47256   4.55165   4.86919
 Alpha virt. eigenvalues --    5.22454   5.32885   5.35093   5.65209   6.11774
 Alpha virt. eigenvalues --    6.28085   6.33485   6.43162   6.44008   6.48860
 Alpha virt. eigenvalues --    6.52139   6.55599   6.68247   6.83676   6.93926
 Alpha virt. eigenvalues --    6.94576   6.98473   7.01400   7.06891   7.11125
 Alpha virt. eigenvalues --    7.17933   7.24414   7.30937   7.36401   7.48690
 Alpha virt. eigenvalues --    7.51422   7.81760   8.14537   8.35477  11.71720
 Alpha virt. eigenvalues --   14.82191
  Beta  occ. eigenvalues --  -20.66339 -20.66180  -1.44797  -1.12679  -0.72522
  Beta  occ. eigenvalues --   -0.62037  -0.56690  -0.51099
  Beta virt. eigenvalues --    0.03143   0.08336   0.09601   0.13249   0.17107
  Beta virt. eigenvalues --    0.17867   0.19666   0.20127   0.23520   0.24731
  Beta virt. eigenvalues --    0.27287   0.28076   0.33107   0.37101   0.43159
  Beta virt. eigenvalues --    0.62850   0.65782   0.67144   0.72136   0.73435
  Beta virt. eigenvalues --    0.75859   0.76256   0.81249   0.82789   0.83571
  Beta virt. eigenvalues --    0.91272   0.92101   0.94893   0.97651   1.00841
  Beta virt. eigenvalues --    1.01016   1.03921   1.05298   1.06393   1.21714
  Beta virt. eigenvalues --    1.31040   1.40927   1.51918   1.59056   1.64736
  Beta virt. eigenvalues --    1.90104   1.93423   2.00893   2.01096   2.05786
  Beta virt. eigenvalues --    2.08028   2.13381   2.17457   2.26075   2.26296
  Beta virt. eigenvalues --    2.28592   2.29101   2.32748   2.39532   2.45875
  Beta virt. eigenvalues --    2.54630   2.56602   2.56710   2.65372   2.68146
  Beta virt. eigenvalues --    2.77493   2.95191   3.00045   3.15401   3.21456
  Beta virt. eigenvalues --    3.23539   3.76945   4.13643   4.18257   4.20182
  Beta virt. eigenvalues --    4.30013   4.31919   4.44538   4.48185   4.55109
  Beta virt. eigenvalues --    4.87148   5.22023   5.33178   5.35330   5.66230
  Beta virt. eigenvalues --    6.13326   6.30710   6.34193   6.48423   6.49135
  Beta virt. eigenvalues --    6.52457   6.53687   6.58487   6.68911   6.84975
  Beta virt. eigenvalues --    7.02482   7.03353   7.03569   7.05119   7.09723
  Beta virt. eigenvalues --    7.13104   7.19548   7.24946   7.30890   7.38061
  Beta virt. eigenvalues --    7.51129   7.51937   7.82910   8.14863   8.34886
  Beta virt. eigenvalues --   11.76010  14.81970
          Condensed to atoms (all electrons):
               1          2          3
     1  O    8.087716  -0.042054  -0.000345
     2  O   -0.042054   8.014230   0.244698
     3  H   -0.000345   0.244698   0.493459
          Atomic-Atomic Spin Densities.
               1          2          3
     1  O    1.355229  -0.055696   0.000897
     2  O   -0.055696  -0.231334  -0.014105
     3  H    0.000897  -0.014105   0.013915
 Mulliken charges and spin densities:
               1          2
     1  O   -0.045316   1.300429
     2  O   -0.216873  -0.301136
     3  H    0.262189   0.000706
 Sum of Mulliken charges =  -0.00000   1.00000
 Mulliken charges and spin densities with hydrogens summed into heavy atoms:
               1          2
     1  O   -0.045316   1.300429
     2  O    0.045316  -0.300429
 Electronic spatial extent (au):  <R**2>=             61.0749
 Charge=             -0.0000 electrons
 Dipole moment (field-independent basis, Debye):
    X=             -1.6814    Y=             -0.7887    Z=             -0.0000  Tot=              1.8572
 Quadrupole moment (field-independent basis, Debye-Ang):
   XX=            -10.0793   YY=            -10.2746   ZZ=            -11.0362
   XY=              1.9791   XZ=              0.0000   YZ=             -0.0000
 Traceless Quadrupole moment (field-independent basis, Debye-Ang):
   XX=              0.3840   YY=              0.1888   ZZ=             -0.5728
   XY=              1.9791   XZ=              0.0000   YZ=             -0.0000
 Octapole moment (field-independent basis, Debye-Ang**2):
  XXX=             -2.0345  YYY=             -1.7211  ZZZ=             -0.0000  XYY=             -2.1270
  XXY=             -2.0249  XXZ=             -0.0000  XZZ=             -0.1538  YZZ=              0.7981
  YYZ=             -0.0000  XYZ=             -0.0000
 Hexadecapole moment (field-independent basis, Debye-Ang**3):
 XXXX=             -9.2624 YYYY=            -42.1531 ZZZZ=             -8.3012 XXXY=              0.5016
 XXXZ=             -0.0000 YYYX=              1.2849 YYYZ=             -0.0000 ZZZX=             -0.0000
 ZZZY=             -0.0000 XXYY=             -8.4274 XXZZ=             -3.1667 YYZZ=             -9.0598
 XXYZ=             -0.0000 YYXZ=              0.0000 ZZXY=             -0.2795
 N-N= 2.944831966383D+01 E-N=-4.156400438760D+02  KE= 1.499419421492D+02
 Symmetry A'   KE= 1.425833826746D+02
 Symmetry A"   KE= 7.358559474607D+00
 Symmetry A'   SP= 6.981083767977D-15
 Symmetry A"   SP= 1.000000000000D+00
                          Isotropic Fermi Contact Couplings
        Atom                 a.u.       MegaHertz       Gauss      10(-4) cm-1
     1  O(17)              0.17192    -104.21897     -37.18792     -34.76371
     2  O(17)             -0.01930      11.70085       4.17515       3.90298
     3  H(1)              -0.01635     -73.08543     -26.07870     -24.37868
 --------------------------------------------------------
       Center         ----  Spin Dipole Couplings  ----
                      3XX-RR        3YY-RR        3ZZ-RR
 --------------------------------------------------------
     1   Atom       -0.808672     -4.172747      4.981419
     2   Atom       -1.333532      1.461411     -0.127880
     3   Atom        0.120049     -0.029722     -0.090327
 --------------------------------------------------------
                        XY            XZ            YZ
 --------------------------------------------------------
     1   Atom        0.219391     -0.000000      0.000000
     2   Atom       -0.650199      0.000000     -0.000000
     3   Atom        0.056140      0.000000      0.000000
 --------------------------------------------------------


 ---------------------------------------------------------------------------------
              Anisotropic Spin Dipole Couplings in Principal Axis System
 ---------------------------------------------------------------------------------

       Atom             a.u.   MegaHertz   Gauss  10(-4) cm-1        Axes

              Baa    -4.1870   302.968   108.107   101.059 -0.0648  0.9979 -0.0000
     1 O(17)  Bbb    -0.7944    57.484    20.512    19.175  0.9979  0.0648  0.0000
              Bcc     4.9814  -360.452  -128.618  -120.234  0.0000  0.0000  1.0000
 
              Baa    -1.4774   106.903    38.146    35.659  0.9764  0.2160 -0.0000
     2 O(17)  Bbb    -0.1279     9.253     3.302     3.087  0.0000  0.0000  1.0000
              Bcc     1.6053  -116.156   -41.447   -38.745 -0.2160  0.9764 -0.0000
 
              Baa    -0.0903   -48.194   -17.197   -16.076  0.0000  0.0000  1.0000
     3 H(1)   Bbb    -0.0484   -25.839    -9.220    -8.619 -0.3161  0.9487  0.0000
              Bcc     0.1388    74.033    26.417    24.695  0.9487  0.3161 -0.0000
 

 ---------------------------------------------------------------------------------

 Calling FoFJK, ICntrl=  10002127 FMM=F ISym2X=1 I1Cent= 0 IOpClX= 1 NMat=1 NMatS=1 NMatT=0.
 ***** Axes restored to original set *****
 -------------------------------------------------------------------
 Center     Atomic                   Forces (Hartrees/Bohr)
 Number     Number              X              Y              Z
 -------------------------------------------------------------------
      1        8           0.013720441    0.000000000    0.225350756
      2        8          -0.039063138   -0.000000000   -0.211639604
      3        1           0.025342697   -0.000000000   -0.013711152
 -------------------------------------------------------------------
 Cartesian Forces:  Max     0.225350756 RMS     0.104413022

 GradGradGradGradGradGradGradGradGradGradGradGradGradGradGradGradGradGrad
 Berny optimization.
 FormGI is forming the generalized inverse of G from B-inverse, IUseBI=4.
 Internal  Forces:  Max     0.225350806 RMS     0.132449779
 Search for a local minimum.
 Step number   1 out of a maximum of   20
 All quantities printed in internal units (Hartrees-Bohrs-Radians)
 Mixed Optimization -- RFO/linear search
 Second derivative matrix not updated -- first step.
 The second derivative matrix:
                          R1        R2        A1
           R1           0.34570
           R2           0.00000   0.57681
           A1           0.00000   0.00000   0.16000
 ITU=  0
     Eigenvalues ---    0.16000   0.34570   0.57681
 RFO step:  Lambda=-1.15893733D-01 EMin= 1.60000000D-01
 Linear search not attempted -- first point.
 Maximum step size (   0.300) exceeded in Quadratic search.
    -- Step size scaled by   0.590
 Iteration  1 RMS(Cart)=  0.12207879 RMS(Int)=  0.05236326
 Iteration  2 RMS(Cart)=  0.04066162 RMS(Int)=  0.00012970
 Iteration  3 RMS(Cart)=  0.00012132 RMS(Int)=  0.00000001
 Iteration  4 RMS(Cart)=  0.00000001 RMS(Int)=  0.00000000
 ClnCor:  largest displacement from symmetrization is 1.73D-15 for atom     3.
 Variable       Old X    -DE/DX   Delta X   Delta X   Delta X     New X
                                 (Linear)    (Quad)   (Total)
    R1        2.79679  -0.22535   0.00000  -0.28809  -0.28809   2.50871
    R2        1.79524   0.01932   0.00000   0.01646   0.01646   1.81170
    A1        1.91063  -0.03837   0.00000  -0.08207  -0.08207   1.82856
         Item               Value     Threshold  Converged?
 Maximum Force            0.225351     0.000450     NO 
 RMS     Force            0.132450     0.000300     NO 
 Maximum Displacement     0.210456     0.001800     NO 
 RMS     Displacement     0.159388     0.001200     NO 
 Predicted change in Energy=-5.342547D-02
 GradGradGradGradGradGradGradGradGradGradGradGradGradGradGradGradGradGrad

                          Input orientation:                          
 ---------------------------------------------------------------------
 Center     Atomic      Atomic             Coordinates (Angstroms)
 Number     Number       Type             X           Y           Z
 ---------------------------------------------------------------------
      1          8           0        0.038681   -0.000000    0.111369
      2          8           0       -0.028272    0.000000    1.437231
      3          1           0        0.885260    0.000000    1.728067
 ---------------------------------------------------------------------
                    Distance matrix (angstroms):
                    1          2          3
     1  O    0.000000
     2  O    1.327552   0.000000
     3  H    1.824942   0.958711   0.000000
 Stoichiometry    HO2(2)
 Framework group  CS[SG(HO2)]
 Deg. of freedom     3
 Full point group                 CS      NOp   2
 Largest Abelian subgroup         CS      NOp   2
 Largest concise Abelian subgroup C1      NOp   1
                         Standard orientation:                         
 ---------------------------------------------------------------------
 Center     Atomic      Atomic             Coordinates (Angstroms)
 Number     Number       Type             X           Y           Z
 ---------------------------------------------------------------------
      1          8           0        0.054532    0.717198    0.000000
      2          8           0        0.054532   -0.610354   -0.000000
      3          1           0       -0.872506   -0.854748    0.000000
 ---------------------------------------------------------------------
 Rotational constants (GHZ):         638.3375701          33.8080812          32.1075773
 Standard basis: Aug-CC-pVTZ (5D, 7F)
 There are    92 symmetry adapted cartesian basis functions of A'  symmetry.
 There are    43 symmetry adapted cartesian basis functions of A"  symmetry.
 There are    76 symmetry adapted basis functions of A'  symmetry.
 There are    39 symmetry adapted basis functions of A"  symmetry.
   115 basis functions,   171 primitive gaussians,   135 cartesian basis functions
     9 alpha electrons        8 beta electrons
       nuclear repulsion energy        32.2466191380 Hartrees.
 NAtoms=    3 NActive=    3 NUniq=    3 SFac= 1.00D+00 NAtFMM=   60 NAOKFM=F Big=F
 Integral buffers will be    131072 words long.
 Raffenetti 2 integral format.
 Two-electron integral symmetry is turned on.
 One-electron integrals computed using PRISM.
 NBasis=   115 RedAO= T EigKep=  2.47D-04  NBF=    76    39
 NBsUse=   115 1.00D-06 EigRej= -1.00D+00 NBFU=    76    39
 Initial guess from the checkpoint file:  "ho2_mp2_avtz_opt_anharm.chk"
 B after Tr=     0.000000   -0.000000   -0.000000
         Rot=    0.999966   -0.000000   -0.000000    0.008192 Ang=   0.94 deg.
 Initial guess orbital symmetries:
 Alpha Orbitals:
       Occupied  (A') (A') (A') (A') (A') (A") (A') (A') (A")
       Virtual   (A') (A') (A') (A") (A') (A') (A") (A') (A') (A")
                 (A') (A') (A') (A') (A') (A") (A') (A") (A') (A")
                 (A') (A') (A") (A') (A") (A') (A') (A") (A') (A')
                 (A') (A') (A") (A") (A') (A') (A") (A') (A') (A")
                 (A') (A") (A') (A') (A") (A') (A') (A") (A') (A")
                 (A') (A") (A') (A') (A') (A") (A') (A') (A") (A")
                 (A') (A') (A') (A") (A') (A') (A") (A") (A') (A")
                 (A') (A") (A') (A') (A') (A') (A') (A") (A') (A')
                 (A") (A') (A") (A') (A") (A') (A') (A") (A') (A")
                 (A') (A") (A") (A') (A') (A") (A") (A') (A') (A")
                 (A') (A') (A') (A') (A') (A')
 Beta  Orbitals:
       Occupied  (A') (A') (A') (A') (A') (A') (A") (A')
       Virtual   (A') (A") (A') (A') (A") (A') (A') (A') (A") (A')
                 (A") (A') (A') (A') (A') (A') (A") (A') (A") (A')
                 (A") (A') (A') (A') (A") (A") (A') (A') (A') (A')
                 (A") (A') (A") (A') (A") (A') (A') (A") (A') (A')
                 (A") (A') (A') (A") (A') (A") (A') (A') (A") (A')
                 (A") (A') (A") (A') (A') (A') (A') (A") (A') (A")
                 (A") (A') (A') (A') (A') (A") (A') (A") (A") (A')
                 (A') (A") (A") (A') (A') (A') (A') (A') (A") (A')
                 (A') (A") (A') (A") (A') (A") (A') (A') (A") (A')
                 (A") (A") (A') (A") (A') (A') (A") (A") (A') (A')
                 (A') (A") (A') (A') (A') (A') (A')
 Initial guess <Sx>= 0.0000 <Sy>= 0.0000 <Sz>= 0.5000 <S**2>= 0.8461 S= 0.5470
 ExpMin= 2.53D-02 ExpMax= 1.53D+04 ExpMxC= 5.22D+02 IAcc=3 IRadAn=         5 AccDes= 0.00D+00
 Harris functional with IExCor=  205 and IRadAn=       5 diagonalized for initial guess.
 HarFok:  IExCor=  205 AccDes= 0.00D+00 IRadAn=         5 IDoV= 1 UseB2=F ITyADJ=14
 ICtDFT=  3500011 ScaDFX=  1.000000  1.000000  1.000000  1.000000
 FoFCou: FMM=F IPFlag=           0 FMFlag=      100000 FMFlg1=           0
         NFxFlg=           0 DoJE=T BraDBF=F KetDBF=T FulRan=T
         wScrn=  0.000000 ICntrl=       500 IOpCl=  0 I1Cent=   200000004 NGrid=           0
         NMat0=    1 NMatS0=      1 NMatT0=    0 NMatD0=    1 NMtDS0=    0 NMtDT0=    0
 Petite list used in FoFCou.
 Keep R1 and R2 ints in memory in symmetry-blocked form, NReq=36227710.
 Requested convergence on RMS density matrix=1.00D-08 within 128 cycles.
 Requested convergence on MAX density matrix=1.00D-06.
 Requested convergence on             energy=1.00D-06.
 No special actions if energy rises.
 SCF Done:  E(UHF) =  -150.240244959     A.U. after   16 cycles
            NFock= 16  Conv=0.23D-08     -V/T= 2.0011
 <Sx>= 0.0000 <Sy>= 0.0000 <Sz>= 0.5000 <S**2>= 0.7633 S= 0.5066
 <L.S>= 0.000000000000E+00
 Annihilation of the first spin contaminant:
 S**2 before annihilation     0.7633,   after     0.7501
 ExpMin= 2.53D-02 ExpMax= 1.53D+04 ExpMxC= 5.22D+02 IAcc=3 IRadAn=         5 AccDes= 0.00D+00
 HarFok:  IExCor=  205 AccDes= 0.00D+00 IRadAn=         5 IDoV=-2 UseB2=F ITyADJ=14
 ICtDFT= 12500011 ScaDFX=  1.000000  1.000000  1.000000  1.000000
 Range of M.O.s used for correlation:     3   115
 NBasis=   115 NAE=     9 NBE=     8 NFC=     2 NFV=     0
 NROrb=    113 NOA=     7 NOB=     6 NVA=   106 NVB=   107

 **** Warning!!: The largest alpha MO coefficient is  0.15859724D+02


 **** Warning!!: The largest beta MO coefficient is  0.15964974D+02

 Fully direct method using O(ONN) memory.
 JobTyp=2 Pass  1:  I=   3 to   9 NPSUse= 28 ParTrn=T ParDer=T DoDerP=T.
 JobTyp=3 Pass  1:  I=   3 to   8 NPSUse= 28 ParTrn=T ParDer=T DoDerP=T.
 Spin components of T(2) and E(2):
     alpha-alpha T2 =       0.1390558317D-01 E2=     -0.6170278180D-01
     alpha-beta  T2 =       0.7820441427D-01 E2=     -0.3374002708D+00
     beta-beta   T2 =       0.1466093590D-01 E2=     -0.5289952459D-01
 (S**2,0)=  0.76328D+00           (S**2,1)=  0.75316D+00
 E(PUHF)=      -0.15024511982D+03        E(PMP2)=      -0.15069527485D+03
 ANorm=    0.1052031812D+01
 E2 =    -0.4520025772D+00 EUMP2 =    -0.15069224753603D+03
          IDoAtm=111
          Differentiating once with respect to electric field.
                with respect to dipole field.
          Differentiating once with respect to nuclear coordinates.
 Keep R1 and R2 ints in memory in symmetry-blocked form, NReq=36229261.
          There are     1 degrees of freedom in the 1st order CPHF.  IDoFFX=0 NUNeed=     1.
 LinEq1:  Iter=  0 NonCon=     1 RMS=3.75D-03 Max=1.06D-01 NDo=     1
 AX will form     1 AO Fock derivatives at one time.
 LinEq1:  Iter=  1 NonCon=     1 RMS=8.70D-04 Max=1.10D-02 NDo=     1
 LinEq1:  Iter=  2 NonCon=     1 RMS=4.72D-04 Max=8.12D-03 NDo=     1
 LinEq1:  Iter=  3 NonCon=     1 RMS=1.47D-04 Max=1.54D-03 NDo=     1
 LinEq1:  Iter=  4 NonCon=     1 RMS=7.09D-05 Max=9.61D-04 NDo=     1
 LinEq1:  Iter=  5 NonCon=     1 RMS=2.58D-05 Max=3.26D-04 NDo=     1
 LinEq1:  Iter=  6 NonCon=     1 RMS=6.96D-06 Max=7.02D-05 NDo=     1
 LinEq1:  Iter=  7 NonCon=     1 RMS=1.60D-06 Max=1.78D-05 NDo=     1
 LinEq1:  Iter=  8 NonCon=     1 RMS=3.70D-07 Max=3.03D-06 NDo=     1
 LinEq1:  Iter=  9 NonCon=     1 RMS=8.25D-08 Max=1.06D-06 NDo=     1
 LinEq1:  Iter= 10 NonCon=     1 RMS=1.60D-08 Max=1.91D-07 NDo=     1
 LinEq1:  Iter= 11 NonCon=     1 RMS=3.46D-09 Max=3.54D-08 NDo=     1
 LinEq1:  Iter= 12 NonCon=     1 RMS=5.93D-10 Max=6.76D-09 NDo=     1
 LinEq1:  Iter= 13 NonCon=     1 RMS=1.38D-10 Max=1.83D-09 NDo=     1
 LinEq1:  Iter= 14 NonCon=     0 RMS=3.05D-11 Max=3.80D-10 NDo=     1
 Linear equations converged to 1.000D-10 1.000D-09 after    14 iterations.
 End of Minotr F.D. properties file   721 does not exist.
 End of Minotr F.D. properties file   722 does not exist.
 End of Minotr F.D. properties file   788 does not exist.
 Calling FoFJK, ICntrl=  10002127 FMM=F ISym2X=1 I1Cent= 0 IOpClX= 1 NMat=1 NMatS=1 NMatT=0.
 ***** Axes restored to original set *****
 -------------------------------------------------------------------
 Center     Atomic                   Forces (Hartrees/Bohr)
 Number     Number              X              Y              Z
 -------------------------------------------------------------------
      1        8           0.000410123    0.000000000    0.012418171
      2        8          -0.014318540   -0.000000000   -0.015340853
      3        1           0.013908417    0.000000000    0.002922683
 -------------------------------------------------------------------
 Cartesian Forces:  Max     0.015340853 RMS     0.009408788

 GradGradGradGradGradGradGradGradGradGradGradGradGradGradGradGradGradGrad
 Berny optimization.
 Using GEDIIS/GDIIS optimizer.
 FormGI is forming the generalized inverse of G from B-inverse, IUseBI=4.
 Internal  Forces:  Max     0.014139637 RMS     0.010954279
 Search for a local minimum.
 Step number   2 out of a maximum of   20
 All quantities printed in internal units (Hartrees-Bohrs-Radians)
 Mixed Optimization -- RFO/linear search
 Update second derivatives using D2CorX and points    1    2
 DE= -2.78D-02 DEPred=-5.34D-02 R= 5.20D-01
 TightC=F SS=  1.41D+00  RLast= 3.00D-01 DXNew= 5.0454D-01 9.0000D-01
 Trust test= 5.20D-01 RLast= 3.00D-01 DXMaxT set to 5.05D-01
 The second derivative matrix:
                          R1        R2        A1
           R1           0.71882
           R2           0.01445   0.57421
           A1           0.07465   0.00129   0.17412
 ITU=  1  0
 Use linear search instead of GDIIS.
     Eigenvalues ---    0.16407   0.57287   0.73021
 RFO step:  Lambda=-6.42557339D-04 EMin= 1.64071895D-01
 Quartic linear search produced a step of  0.30164.
 Iteration  1 RMS(Cart)=  0.06077337 RMS(Int)=  0.00094296
 Iteration  2 RMS(Cart)=  0.00065818 RMS(Int)=  0.00000016
 Iteration  3 RMS(Cart)=  0.00000020 RMS(Int)=  0.00000000
 ClnCor:  largest displacement from symmetrization is 1.26D-15 for atom     3.
 Variable       Old X    -DE/DX   Delta X   Delta X   Delta X     New X
                                 (Linear)    (Quad)   (Total)
    R1        2.50871  -0.01238  -0.08690   0.00680  -0.08009   2.42861
    R2        1.81170   0.01414   0.00497   0.02669   0.03165   1.84336
    A1        1.82856  -0.00260  -0.02476  -0.03661  -0.06137   1.76719
         Item               Value     Threshold  Converged?
 Maximum Force            0.014140     0.000450     NO 
 RMS     Force            0.010954     0.000300     NO 
 Maximum Displacement     0.070354     0.001800     NO 
 RMS     Displacement     0.061010     0.001200     NO 
 Predicted change in Energy=-1.650195D-03
 GradGradGradGradGradGradGradGradGradGradGradGradGradGradGradGradGradGrad

                          Input orientation:                          
 ---------------------------------------------------------------------
 Center     Atomic      Atomic             Coordinates (Angstroms)
 Number     Number       Type             X           Y           Z
 ---------------------------------------------------------------------
      1          8           0        0.057532   -0.000000    0.148598
      2          8           0       -0.049679   -0.000000    1.429286
      3          1           0        0.887816    0.000000    1.698782
 ---------------------------------------------------------------------
                    Distance matrix (angstroms):
                    1          2          3
     1  O    0.000000
     2  O    1.285168   0.000000
     3  H    1.758534   0.975462   0.000000
 Stoichiometry    HO2(2)
 Framework group  CS[SG(HO2)]
 Deg. of freedom     3
 Full point group                 CS      NOp   2
 Largest Abelian subgroup         CS      NOp   2
 Largest concise Abelian subgroup C1      NOp   1
                         Standard orientation:                         
 ---------------------------------------------------------------------
 Center     Atomic      Atomic             Coordinates (Angstroms)
 Number     Number       Type             X           Y           Z
 ---------------------------------------------------------------------
      1          8           0        0.056277    0.691580   -0.000000
      2          8           0        0.056277   -0.593588   -0.000000
      3          1           0       -0.900432   -0.783937    0.000000
 ---------------------------------------------------------------------
 Rotational constants (GHZ):         596.1126772          36.2710754          34.1907074
 Standard basis: Aug-CC-pVTZ (5D, 7F)
 There are    92 symmetry adapted cartesian basis functions of A'  symmetry.
 There are    43 symmetry adapted cartesian basis functions of A"  symmetry.
 There are    76 symmetry adapted basis functions of A'  symmetry.
 There are    39 symmetry adapted basis functions of A"  symmetry.
   115 basis functions,   171 primitive gaussians,   135 cartesian basis functions
     9 alpha electrons        8 beta electrons
       nuclear repulsion energy        33.0997361064 Hartrees.
 NAtoms=    3 NActive=    3 NUniq=    3 SFac= 1.00D+00 NAtFMM=   60 NAOKFM=F Big=F
 Integral buffers will be    131072 words long.
 Raffenetti 2 integral format.
 Two-electron integral symmetry is turned on.
 One-electron integrals computed using PRISM.
 NBasis=   115 RedAO= T EigKep=  2.30D-04  NBF=    76    39
 NBsUse=   115 1.00D-06 EigRej= -1.00D+00 NBFU=    76    39
 Initial guess from the checkpoint file:  "ho2_mp2_avtz_opt_anharm.chk"
 B after Tr=    -0.000000    0.000000    0.000000
         Rot=    0.999985   -0.000000    0.000000    0.005435 Ang=   0.62 deg.
 Initial guess orbital symmetries:
 Alpha Orbitals:
       Occupied  (A') (A') (A') (A') (A') (A") (A') (A") (A')
       Virtual   (A') (A') (A') (A") (A') (A') (A") (A') (A") (A')
                 (A') (A') (A') (A') (A') (A") (A') (A') (A") (A")
                 (A') (A") (A') (A') (A") (A') (A') (A") (A') (A')
                 (A') (A") (A') (A") (A') (A') (A") (A') (A') (A")
                 (A') (A") (A') (A') (A") (A') (A') (A") (A') (A")
                 (A') (A") (A') (A') (A') (A") (A') (A') (A") (A")
                 (A') (A') (A") (A') (A') (A') (A") (A") (A') (A')
                 (A") (A') (A") (A') (A') (A') (A') (A") (A') (A")
                 (A') (A') (A") (A') (A") (A') (A') (A") (A") (A')
                 (A') (A") (A") (A') (A") (A') (A") (A') (A') (A")
                 (A') (A') (A') (A') (A') (A')
 Beta  Orbitals:
       Occupied  (A') (A') (A') (A') (A') (A') (A") (A')
       Virtual   (A') (A") (A') (A') (A") (A') (A') (A') (A") (A")
                 (A') (A') (A') (A') (A') (A') (A") (A') (A') (A")
                 (A") (A') (A') (A") (A') (A") (A') (A') (A') (A')
                 (A") (A') (A") (A') (A") (A') (A') (A") (A') (A')
                 (A') (A") (A") (A') (A') (A") (A') (A') (A") (A')
                 (A") (A') (A") (A') (A') (A') (A") (A') (A') (A")
                 (A") (A') (A') (A') (A") (A') (A') (A") (A") (A')
                 (A') (A") (A') (A') (A") (A') (A') (A') (A") (A')
                 (A") (A') (A') (A") (A') (A") (A') (A') (A") (A')
                 (A") (A') (A") (A") (A') (A") (A') (A') (A") (A')
                 (A") (A') (A') (A') (A') (A') (A')
 Initial guess <Sx>= 0.0000 <Sy>= 0.0000 <Sz>= 0.5000 <S**2>= 0.7631 S= 0.5065
 ExpMin= 2.53D-02 ExpMax= 1.53D+04 ExpMxC= 5.22D+02 IAcc=3 IRadAn=         5 AccDes= 0.00D+00
 Harris functional with IExCor=  205 and IRadAn=       5 diagonalized for initial guess.
 HarFok:  IExCor=  205 AccDes= 0.00D+00 IRadAn=         5 IDoV= 1 UseB2=F ITyADJ=14
 ICtDFT=  3500011 ScaDFX=  1.000000  1.000000  1.000000  1.000000
 FoFCou: FMM=F IPFlag=           0 FMFlag=      100000 FMFlg1=           0
         NFxFlg=           0 DoJE=T BraDBF=F KetDBF=T FulRan=T
         wScrn=  0.000000 ICntrl=       500 IOpCl=  0 I1Cent=   200000004 NGrid=           0
         NMat0=    1 NMatS0=      1 NMatT0=    0 NMatD0=    1 NMtDS0=    0 NMtDT0=    0
 Petite list used in FoFCou.
 Keep R1 and R2 ints in memory in symmetry-blocked form, NReq=36227842.
 Requested convergence on RMS density matrix=1.00D-08 within 128 cycles.
 Requested convergence on MAX density matrix=1.00D-06.
 Requested convergence on             energy=1.00D-06.
 No special actions if energy rises.
 SCF Done:  E(UHF) =  -150.238685582     A.U. after   14 cycles
            NFock= 14  Conv=0.75D-08     -V/T= 2.0005
 <Sx>= 0.0000 <Sy>= 0.0000 <Sz>= 0.5000 <S**2>= 0.7633 S= 0.5066
 <L.S>= 0.000000000000E+00
 Annihilation of the first spin contaminant:
 S**2 before annihilation     0.7633,   after     0.7501
 ExpMin= 2.53D-02 ExpMax= 1.53D+04 ExpMxC= 5.22D+02 IAcc=3 IRadAn=         5 AccDes= 0.00D+00
 HarFok:  IExCor=  205 AccDes= 0.00D+00 IRadAn=         5 IDoV=-2 UseB2=F ITyADJ=14
 ICtDFT= 12500011 ScaDFX=  1.000000  1.000000  1.000000  1.000000
 Range of M.O.s used for correlation:     3   115
 NBasis=   115 NAE=     9 NBE=     8 NFC=     2 NFV=     0
 NROrb=    113 NOA=     7 NOB=     6 NVA=   106 NVB=   107

 **** Warning!!: The largest alpha MO coefficient is  0.14744930D+02


 **** Warning!!: The largest beta MO coefficient is  0.14846898D+02

 Fully direct method using O(ONN) memory.
 JobTyp=2 Pass  1:  I=   3 to   9 NPSUse= 28 ParTrn=T ParDer=T DoDerP=T.
 JobTyp=3 Pass  1:  I=   3 to   8 NPSUse= 28 ParTrn=T ParDer=T DoDerP=T.
 Spin components of T(2) and E(2):
     alpha-alpha T2 =       0.1365142119D-01 E2=     -0.6165583082D-01
     alpha-beta  T2 =       0.7693392399D-01 E2=     -0.3371604855D+00
     beta-beta   T2 =       0.1470474562D-01 E2=     -0.5364087799D-01
 (S**2,0)=  0.76327D+00           (S**2,1)=  0.75274D+00
 E(PUHF)=      -0.15024370503D+03        E(PMP2)=      -0.15069418104D+03
 ANorm=    0.1051327775D+01
 E2 =    -0.4524571943D+00 EUMP2 =    -0.15069114277581D+03
          IDoAtm=111
          Differentiating once with respect to electric field.
                with respect to dipole field.
          Differentiating once with respect to nuclear coordinates.
 Keep R1 and R2 ints in memory in symmetry-blocked form, NReq=36229569.
          There are     1 degrees of freedom in the 1st order CPHF.  IDoFFX=0 NUNeed=     1.
 LinEq1:  Iter=  0 NonCon=     1 RMS=3.56D-03 Max=9.69D-02 NDo=     1
 AX will form     1 AO Fock derivatives at one time.
 LinEq1:  Iter=  1 NonCon=     1 RMS=8.36D-04 Max=1.10D-02 NDo=     1
 LinEq1:  Iter=  2 NonCon=     1 RMS=4.58D-04 Max=8.22D-03 NDo=     1
 LinEq1:  Iter=  3 NonCon=     1 RMS=1.37D-04 Max=1.54D-03 NDo=     1
 LinEq1:  Iter=  4 NonCon=     1 RMS=6.36D-05 Max=9.25D-04 NDo=     1
 LinEq1:  Iter=  5 NonCon=     1 RMS=2.03D-05 Max=2.74D-04 NDo=     1
 LinEq1:  Iter=  6 NonCon=     1 RMS=5.71D-06 Max=7.47D-05 NDo=     1
 LinEq1:  Iter=  7 NonCon=     1 RMS=1.42D-06 Max=1.40D-05 NDo=     1
 LinEq1:  Iter=  8 NonCon=     1 RMS=3.06D-07 Max=2.53D-06 NDo=     1
 LinEq1:  Iter=  9 NonCon=     1 RMS=5.72D-08 Max=8.60D-07 NDo=     1
 LinEq1:  Iter= 10 NonCon=     1 RMS=1.21D-08 Max=1.75D-07 NDo=     1
 LinEq1:  Iter= 11 NonCon=     1 RMS=2.97D-09 Max=3.09D-08 NDo=     1
 LinEq1:  Iter= 12 NonCon=     1 RMS=5.23D-10 Max=4.80D-09 NDo=     1
 LinEq1:  Iter= 13 NonCon=     1 RMS=1.03D-10 Max=7.69D-10 NDo=     1
 LinEq1:  Iter= 14 NonCon=     0 RMS=2.32D-11 Max=1.96D-10 NDo=     1
 Linear equations converged to 1.000D-10 1.000D-09 after    14 iterations.
 End of Minotr F.D. properties file   721 does not exist.
 End of Minotr F.D. properties file   722 does not exist.
 End of Minotr F.D. properties file   788 does not exist.
 Calling FoFJK, ICntrl=  10002127 FMM=F ISym2X=1 I1Cent= 0 IOpClX= 1 NMat=1 NMatS=1 NMatT=0.
 ***** Axes restored to original set *****
 -------------------------------------------------------------------
 Center     Atomic                   Forces (Hartrees/Bohr)
 Number     Number              X              Y              Z
 -------------------------------------------------------------------
      1        8          -0.005398156   -0.000000000   -0.034950855
      2        8           0.009100489    0.000000000    0.024643912
      3        1          -0.003702332   -0.000000000    0.010306943
 -------------------------------------------------------------------
 Cartesian Forces:  Max     0.034950855 RMS     0.015131953

 GradGradGradGradGradGradGradGradGradGradGradGradGradGradGradGradGradGrad
 Berny optimization.
 Using GEDIIS/GDIIS optimizer.
 FormGI is forming the generalized inverse of G from B-inverse, IUseBI=4.
 Internal  Forces:  Max     0.034378703 RMS     0.023008956
 Search for a local minimum.
 Step number   3 out of a maximum of   20
 All quantities printed in internal units (Hartrees-Bohrs-Radians)
 Mixed Optimization -- RFO/linear search
 Update second derivatives using D2CorX and points    1    3    2
 DE=  1.10D-03 DEPred=-1.65D-03 R=-6.69D-01
 Trust test=-6.69D-01 RLast= 1.06D-01 DXMaxT set to 2.52D-01
 The second derivative matrix:
                          R1        R2        A1
           R1           0.52270
           R2           0.05154   0.56936
           A1           0.10635  -0.01557   0.22378
 ITU= -1  1  0
 Use linear search instead of GDIIS.
     Eigenvalues ---    0.18733   0.51940   0.60910
 RFO step:  Lambda=-2.49907648D-04 EMin= 1.87332917D-01
 Quartic linear search produced a step of -0.69198.
 Iteration  1 RMS(Cart)=  0.05426311 RMS(Int)=  0.00086817
 Iteration  2 RMS(Cart)=  0.00059867 RMS(Int)=  0.00000021
 Iteration  3 RMS(Cart)=  0.00000026 RMS(Int)=  0.00000000
 ClnCor:  largest displacement from symmetrization is 1.26D-15 for atom     3.
 Variable       Old X    -DE/DX   Delta X   Delta X   Delta X     New X
                                 (Linear)    (Quad)   (Total)
    R1        2.42861   0.03438   0.05542  -0.00368   0.05174   2.48036
    R2        1.84336  -0.00071  -0.02190   0.01830  -0.00360   1.83976
    A1        1.76719   0.02015   0.04246   0.01952   0.06198   1.82918
         Item               Value     Threshold  Converged?
 Maximum Force            0.034379     0.000450     NO 
 RMS     Force            0.023009     0.000300     NO 
 Maximum Displacement     0.057949     0.001800     NO 
 RMS     Displacement     0.054222     0.001200     NO 
 Predicted change in Energy=-4.570735D-04
 GradGradGradGradGradGradGradGradGradGradGradGradGradGradGradGradGradGrad

                          Input orientation:                          
 ---------------------------------------------------------------------
 Center     Atomic      Atomic             Coordinates (Angstroms)
 Number     Number       Type             X           Y           Z
 ---------------------------------------------------------------------
      1          8           0        0.038418   -0.000000    0.118346
      2          8           0       -0.034372   -0.000000    1.428874
      3          1           0        0.891623    0.000000    1.729448
 ---------------------------------------------------------------------
                    Distance matrix (angstroms):
                    1          2          3
     1  O    0.000000
     2  O    1.312548   0.000000
     3  H    1.823077   0.973556   0.000000
 Stoichiometry    HO2(2)
 Framework group  CS[SG(HO2)]
 Deg. of freedom     3
 Full point group                 CS      NOp   2
 Largest Abelian subgroup         CS      NOp   2
 Largest concise Abelian subgroup C1      NOp   1
                         Standard orientation:                         
 ---------------------------------------------------------------------
 Center     Atomic      Atomic             Coordinates (Angstroms)
 Number     Number       Type             X           Y           Z
 ---------------------------------------------------------------------
      1          8           0        0.055367    0.709511   -0.000000
      2          8           0        0.055367   -0.603037    0.000000
      3          1           0       -0.885872   -0.851795   -0.000000
 ---------------------------------------------------------------------
 Rotational constants (GHZ):         619.8979925          34.5475725          32.7238383
 Standard basis: Aug-CC-pVTZ (5D, 7F)
 There are    92 symmetry adapted cartesian basis functions of A'  symmetry.
 There are    43 symmetry adapted cartesian basis functions of A"  symmetry.
 There are    76 symmetry adapted basis functions of A'  symmetry.
 There are    39 symmetry adapted basis functions of A"  symmetry.
   115 basis functions,   171 primitive gaussians,   135 cartesian basis functions
     9 alpha electrons        8 beta electrons
       nuclear repulsion energy        32.4732729473 Hartrees.
 NAtoms=    3 NActive=    3 NUniq=    3 SFac= 1.00D+00 NAtFMM=   60 NAOKFM=F Big=F
 Integral buffers will be    131072 words long.
 Raffenetti 2 integral format.
 Two-electron integral symmetry is turned on.
 One-electron integrals computed using PRISM.
 NBasis=   115 RedAO= T EigKep=  2.43D-04  NBF=    76    39
 NBsUse=   115 1.00D-06 EigRej= -1.00D+00 NBFU=    76    39
 Lowest energy guess from the checkpoint file:  "ho2_mp2_avtz_opt_anharm.chk"
 B after Tr=    -0.000000    0.000000    0.000000
         Rot=    1.000000   -0.000000    0.000000    0.000868 Ang=   0.10 deg.
 B after Tr=     0.000000    0.000000   -0.000000
         Rot=    0.999989    0.000000   -0.000000   -0.004639 Ang=  -0.53 deg.
 Initial guess orbital symmetries:
 Alpha Orbitals:
       Occupied  (A') (A') (A') (A") (A') (A") (A') (A') (A')
       Virtual   (A') (A') (A') (A") (A') (A") (A') (A') (A') (A")
                 (A") (A") (A") (A") (A") (A") (A") (A") (A") (A")
                 (A") (A") (A") (A") (A") (A") (A") (A") (A") (A")
                 (A") (A") (A") (A") (A") (A") (A") (A") (A") (A")
                 (A") (A") (A") (A") (A") (A") (A") (A") (A") (A")
                 (A") (A") (A") (A") (A") (A") (A") (A") (A") (A")
                 (A") (A") (A") (A") (A") (A") (A") (A") (A") (A")
                 (A") (A") (A") (A") (A") (A") (A") (A") (A") (A")
                 (A") (A") (A") (A") (A") (A") (A") (A") (A") (A')
                 (A") (A") (A") (A") (A") (A") (A") (A") (A") (A")
                 (A") (A") (A") (A") (A") (A")
 Beta  Orbitals:
       Occupied  (A") (A') (A') (A') (A') (A') (A') (A')
       Virtual   (A") (A') (A') (A') (A') (A') (A') (A') (A") (A")
                 (A") (A") (A") (A") (A") (A") (A") (A") (A") (A")
                 (A") (A") (A") (A") (A") (A") (A") (A") (A") (A")
                 (A") (A") (A") (A") (A") (A") (A") (A") (A") (A")
                 (A") (A") (A") (A") (A") (A") (A") (A") (A") (A")
                 (A") (A") (A") (A") (A") (A") (A") (A") (A") (A")
                 (A") (A") (A") (A") (A") (A") (A") (A") (A") (A")
                 (A") (A") (A") (A") (A") (A") (A") (A") (A") (A")
                 (A") (A") (A") (A") (A") (A") (A") (A') (A") (A")
                 (A") (A') (A") (A") (A") (A") (A") (A') (A") (A")
                 (A") (A") (A") (A") (A") (A") (A")
 Initial guess <Sx>= 0.0000 <Sy>= 0.0000 <Sz>= 0.5000 <S**2>= 0.7632 S= 0.5066
 Keep R1 and R2 ints in memory in symmetry-blocked form, NReq=36227798.
 Requested convergence on RMS density matrix=1.00D-08 within 128 cycles.
 Requested convergence on MAX density matrix=1.00D-06.
 Requested convergence on             energy=1.00D-06.
 No special actions if energy rises.
 An orbital has undefined symmetry, so N**3 symmetry is turned off.
 SCF Done:  E(UHF) =  -150.240116795     A.U. after   13 cycles
            NFock= 13  Conv=0.32D-08     -V/T= 2.0010
 <Sx>= 0.0000 <Sy>= 0.0000 <Sz>= 0.5000 <S**2>= 0.7632 S= 0.5066
 <L.S>= 0.000000000000E+00
 Annihilation of the first spin contaminant:
 S**2 before annihilation     0.7632,   after     0.7501
 ExpMin= 2.53D-02 ExpMax= 1.53D+04 ExpMxC= 5.22D+02 IAcc=3 IRadAn=         5 AccDes= 0.00D+00
 HarFok:  IExCor=  205 AccDes= 0.00D+00 IRadAn=         5 IDoV=-2 UseB2=F ITyADJ=14
 ICtDFT= 12500011 ScaDFX=  1.000000  1.000000  1.000000  1.000000
 Range of M.O.s used for correlation:     3   115
 NBasis=   115 NAE=     9 NBE=     8 NFC=     2 NFV=     0
 NROrb=    113 NOA=     7 NOB=     6 NVA=   106 NVB=   107

 **** Warning!!: The largest alpha MO coefficient is  0.15881381D+02


 **** Warning!!: The largest beta MO coefficient is  0.15960989D+02

 Fully direct method using O(ONN) memory.
 JobTyp=2 Pass  1:  I=   3 to   9 NPSUse= 28 ParTrn=T ParDer=T DoDerP=T.
 JobTyp=3 Pass  1:  I=   3 to   8 NPSUse= 28 ParTrn=T ParDer=T DoDerP=T.
 Spin components of T(2) and E(2):
     alpha-alpha T2 =       0.1384950791D-01 E2=     -0.6172167781D-01
     alpha-beta  T2 =       0.7798885311D-01 E2=     -0.3375681345D+00
     beta-beta   T2 =       0.1472470606D-01 E2=     -0.5321078294D-01
 (S**2,0)=  0.76320D+00           (S**2,1)=  0.75295D+00
 E(PUHF)=      -0.15024503445D+03        E(PMP2)=      -0.15069563637D+03
 ANorm=    0.1051933015D+01
 E2 =    -0.4525005953D+00 EUMP2 =    -0.15069261739029D+03
          IDoAtm=111
          Differentiating once with respect to electric field.
                with respect to dipole field.
          Differentiating once with respect to nuclear coordinates.
 Keep R1 and R2 ints in memory in symmetry-blocked form, NReq=36229349.
          There are     1 degrees of freedom in the 1st order CPHF.  IDoFFX=0 NUNeed=     1.
 LinEq1:  Iter=  0 NonCon=     1 RMS=3.70D-03 Max=1.03D-01 NDo=     1
 AX will form     1 AO Fock derivatives at one time.
 LinEq1:  Iter=  1 NonCon=     1 RMS=8.62D-04 Max=1.11D-02 NDo=     1
 LinEq1:  Iter=  2 NonCon=     1 RMS=4.70D-04 Max=8.24D-03 NDo=     1
 LinEq1:  Iter=  3 NonCon=     1 RMS=1.44D-04 Max=1.55D-03 NDo=     1
 LinEq1:  Iter=  4 NonCon=     1 RMS=6.83D-05 Max=9.67D-04 NDo=     1
 LinEq1:  Iter=  5 NonCon=     1 RMS=2.35D-05 Max=3.24D-04 NDo=     1
 LinEq1:  Iter=  6 NonCon=     1 RMS=6.58D-06 Max=6.89D-05 NDo=     1
 LinEq1:  Iter=  7 NonCon=     1 RMS=1.56D-06 Max=1.70D-05 NDo=     1
 LinEq1:  Iter=  8 NonCon=     1 RMS=3.50D-07 Max=2.98D-06 NDo=     1
 LinEq1:  Iter=  9 NonCon=     1 RMS=7.48D-08 Max=1.08D-06 NDo=     1
 LinEq1:  Iter= 10 NonCon=     1 RMS=1.52D-08 Max=2.00D-07 NDo=     1
 LinEq1:  Iter= 11 NonCon=     1 RMS=3.33D-09 Max=2.81D-08 NDo=     1
 LinEq1:  Iter= 12 NonCon=     1 RMS=5.22D-10 Max=4.50D-09 NDo=     1
 LinEq1:  Iter= 13 NonCon=     1 RMS=9.74D-11 Max=1.23D-09 NDo=     1
 LinEq1:  Iter= 14 NonCon=     0 RMS=2.33D-11 Max=2.52D-10 NDo=     1
 Linear equations converged to 1.000D-10 1.000D-09 after    14 iterations.
 End of Minotr F.D. properties file   721 does not exist.
 End of Minotr F.D. properties file   722 does not exist.
 End of Minotr F.D. properties file   788 does not exist.
 Calling FoFJK, ICntrl=  10002127 FMM=F ISym2X=1 I1Cent= 0 IOpClX= 1 NMat=1 NMatS=1 NMatT=0.
 ***** Axes restored to original set *****
 -------------------------------------------------------------------
 Center     Atomic                   Forces (Hartrees/Bohr)
 Number     Number              X              Y              Z
 -------------------------------------------------------------------
      1        8           0.000134669   -0.000000000   -0.000432424
      2        8          -0.000482347    0.000000000    0.000476157
      3        1           0.000347678   -0.000000000   -0.000043733
 -------------------------------------------------------------------
 Cartesian Forces:  Max     0.000482347 RMS     0.000295767

 GradGradGradGradGradGradGradGradGradGradGradGradGradGradGradGradGradGrad
 Berny optimization.
 Using GEDIIS/GDIIS optimizer.
 FormGI is forming the generalized inverse of G from B-inverse, IUseBI=4.
 Internal  Forces:  Max     0.000439225 RMS     0.000350531
 Search for a local minimum.
 Step number   4 out of a maximum of   20
 All quantities printed in internal units (Hartrees-Bohrs-Radians)
 Mixed Optimization -- En-DIIS/RFO-DIIS
 Update second derivatives using D2CorX and points    1    3    2    4
 DE= -3.70D-04 DEPred=-4.57D-04 R= 8.09D-01
 TightC=F SS=  1.41D+00  RLast= 3.99D-02 DXNew= 4.2426D-01 1.1967D-01
 Trust test= 8.09D-01 RLast= 3.99D-02 DXMaxT set to 2.52D-01
 The second derivative matrix:
                          R1        R2        A1
           R1           0.51566
           R2           0.06236   0.55588
           A1           0.08110  -0.00642   0.25134
 ITU=  1 -1  1  0
 Use linear search instead of GDIIS.
     Eigenvalues ---    0.22676   0.48917   0.60695
 RFO step:  Lambda=-9.55410661D-07 EMin= 2.26760159D-01
 Quartic linear search produced a step of -0.00502.
 Iteration  1 RMS(Cart)=  0.00081306 RMS(Int)=  0.00000054
 Iteration  2 RMS(Cart)=  0.00000058 RMS(Int)=  0.00000000
 ClnCor:  largest displacement from symmetrization is 1.26D-15 for atom     3.
 Variable       Old X    -DE/DX   Delta X   Delta X   Delta X     New X
                                 (Linear)    (Quad)   (Total)
    R1        2.48036   0.00044   0.00014   0.00088   0.00102   2.48138
    R2        1.83976   0.00032  -0.00014   0.00058   0.00044   1.84019
    A1        1.82918  -0.00027  -0.00000  -0.00141  -0.00141   1.82777
         Item               Value     Threshold  Converged?
 Maximum Force            0.000439     0.000450     YES
 RMS     Force            0.000351     0.000300     NO 
 Maximum Displacement     0.000811     0.001800     YES
 RMS     Displacement     0.000813     0.001200     YES
 Predicted change in Energy=-4.867077D-07
 GradGradGradGradGradGradGradGradGradGradGradGradGradGradGradGradGradGrad

                          Input orientation:                          
 ---------------------------------------------------------------------
 Center     Atomic      Atomic             Coordinates (Angstroms)
 Number     Number       Type             X           Y           Z
 ---------------------------------------------------------------------
      1          8           0        0.038697   -0.000000    0.118270
      2          8           0       -0.034761   -0.000000    1.429303
      3          1           0        0.891733    0.000000    1.729094
 ---------------------------------------------------------------------
                    Distance matrix (angstroms):
                    1          2          3
     1  O    0.000000
     2  O    1.313089   0.000000
     3  H    1.822751   0.973788   0.000000
 Stoichiometry    HO2(2)
 Framework group  CS[SG(HO2)]
 Deg. of freedom     3
 Full point group                 CS      NOp   2
 Largest Abelian subgroup         CS      NOp   2
 Largest concise Abelian subgroup C1      NOp   1
                         Standard orientation:                         
 ---------------------------------------------------------------------
 Center     Atomic      Atomic             Coordinates (Angstroms)
 Number     Number       Type             X           Y           Z
 ---------------------------------------------------------------------
      1          8           0        0.055401    0.709723    0.000000
      2          8           0        0.055401   -0.603366    0.000000
      3          1           0       -0.886412   -0.850857   -0.000000
 ---------------------------------------------------------------------
 Rotational constants (GHZ):         619.0351722          34.5251266          32.7012943
 Standard basis: Aug-CC-pVTZ (5D, 7F)
 There are    92 symmetry adapted cartesian basis functions of A'  symmetry.
 There are    43 symmetry adapted cartesian basis functions of A"  symmetry.
 There are    76 symmetry adapted basis functions of A'  symmetry.
 There are    39 symmetry adapted basis functions of A"  symmetry.
   115 basis functions,   171 primitive gaussians,   135 cartesian basis functions
     9 alpha electrons        8 beta electrons
       nuclear repulsion energy        32.4620277129 Hartrees.
 NAtoms=    3 NActive=    3 NUniq=    3 SFac= 1.00D+00 NAtFMM=   60 NAOKFM=F Big=F
 Integral buffers will be    131072 words long.
 Raffenetti 2 integral format.
 Two-electron integral symmetry is turned on.
 One-electron integrals computed using PRISM.
 NBasis=   115 RedAO= T EigKep=  2.44D-04  NBF=    76    39
 NBsUse=   115 1.00D-06 EigRej= -1.00D+00 NBFU=    76    39
 Initial guess from the checkpoint file:  "ho2_mp2_avtz_opt_anharm.chk"
 B after Tr=    -0.000000   -0.000000    0.000000
         Rot=    1.000000    0.000000    0.000000    0.000081 Ang=   0.01 deg.
 Initial guess orbital symmetries:
 Alpha Orbitals:
       Occupied  (A') (A') (A') (A') (A') (A") (A') (A") (A')
       Virtual   (A') (A') (A') (A") (A') (A') (A") (A') (A") (A')
                 (A') (A') (A') (A') (A') (A") (A') (A') (A") (A")
                 (A') (A") (A') (A') (A") (A') (A') (A") (A') (A')
                 (A') (A") (A') (A") (A') (A') (A") (A') (A') (A")
                 (A') (A") (A') (A') (A") (A') (A') (A") (A') (A")
                 (A') (A") (A') (A') (A') (A") (A') (A') (A") (A")
                 (A') (A') (A") (A') (A') (A') (A") (A") (A') (A')
                 (A") (A') (A") (A') (A') (A') (A') (A") (A') (A")
                 (A') (A') (A") (A') (A") (A') (A') (A") (A") (A')
                 (A') (A") (A") (A') (A") (A') (A') (A") (A') (A")
                 (A') (A') (A') (A') (A') (A')
 Beta  Orbitals:
       Occupied  (A') (A') (A') (A') (A') (A') (A") (A')
       Virtual   (A') (A") (A') (A') (A") (A') (A') (A') (A") (A")
                 (A') (A') (A') (A') (A') (A') (A") (A') (A') (A")
                 (A") (A') (A') (A") (A') (A") (A') (A') (A') (A')
                 (A") (A') (A") (A') (A") (A') (A') (A") (A') (A')
                 (A') (A") (A") (A') (A') (A") (A') (A') (A") (A')
                 (A") (A') (A") (A') (A') (A') (A") (A') (A') (A")
                 (A") (A') (A') (A") (A') (A') (A') (A") (A") (A')
                 (A') (A") (A') (A') (A") (A') (A') (A') (A") (A')
                 (A") (A') (A') (A") (A') (A") (A') (A') (A") (A')
                 (A") (A') (A") (A") (A') (A") (A') (A') (A") (A')
                 (A") (A') (A') (A') (A') (A') (A')
 Initial guess <Sx>= 0.0000 <Sy>= 0.0000 <Sz>= 0.5000 <S**2>= 0.7632 S= 0.5066
 Keep R1 and R2 ints in memory in symmetry-blocked form, NReq=36227798.
 Requested convergence on RMS density matrix=1.00D-08 within 128 cycles.
 Requested convergence on MAX density matrix=1.00D-06.
 Requested convergence on             energy=1.00D-06.
 No special actions if energy rises.
 SCF Done:  E(UHF) =  -150.240087632     A.U. after   11 cycles
            NFock= 11  Conv=0.34D-08     -V/T= 2.0010
 <Sx>= 0.0000 <Sy>= 0.0000 <Sz>= 0.5000 <S**2>= 0.7632 S= 0.5066
 <L.S>= 0.000000000000E+00
 Annihilation of the first spin contaminant:
 S**2 before annihilation     0.7632,   after     0.7501
 ExpMin= 2.53D-02 ExpMax= 1.53D+04 ExpMxC= 5.22D+02 IAcc=3 IRadAn=         5 AccDes= 0.00D+00
 HarFok:  IExCor=  205 AccDes= 0.00D+00 IRadAn=         5 IDoV=-2 UseB2=F ITyADJ=14
 ICtDFT= 12500011 ScaDFX=  1.000000  1.000000  1.000000  1.000000
 Range of M.O.s used for correlation:     3   115
 NBasis=   115 NAE=     9 NBE=     8 NFC=     2 NFV=     0
 NROrb=    113 NOA=     7 NOB=     6 NVA=   106 NVB=   107

 **** Warning!!: The largest alpha MO coefficient is  0.15888036D+02


 **** Warning!!: The largest beta MO coefficient is  0.15967109D+02

 Fully direct method using O(ONN) memory.
 JobTyp=2 Pass  1:  I=   3 to   9 NPSUse= 28 ParTrn=T ParDer=T DoDerP=T.
 JobTyp=3 Pass  1:  I=   3 to   8 NPSUse= 28 ParTrn=T ParDer=T DoDerP=T.
 Spin components of T(2) and E(2):
     alpha-alpha T2 =       0.1385471427D-01 E2=     -0.6172589851D-01
     alpha-beta  T2 =       0.7802161298D-01 E2=     -0.3375967577D+00
     beta-beta   T2 =       0.1472771796D-01 E2=     -0.5320763708D-01
 (S**2,0)=  0.76320D+00           (S**2,1)=  0.75296D+00
 E(PUHF)=      -0.15024500417D+03        E(PMP2)=      -0.15069563739D+03
 ANorm=    0.1051952492D+01
 E2 =    -0.4525302933D+00 EUMP2 =    -0.15069261792531D+03
          IDoAtm=111
          Differentiating once with respect to electric field.
                with respect to dipole field.
          Differentiating once with respect to nuclear coordinates.
 Keep R1 and R2 ints in memory in symmetry-blocked form, NReq=36229349.
          There are     1 degrees of freedom in the 1st order CPHF.  IDoFFX=0 NUNeed=     1.
 LinEq1:  Iter=  0 NonCon=     1 RMS=3.70D-03 Max=1.04D-01 NDo=     1
 AX will form     1 AO Fock derivatives at one time.
 LinEq1:  Iter=  1 NonCon=     1 RMS=8.62D-04 Max=1.11D-02 NDo=     1
 LinEq1:  Iter=  2 NonCon=     1 RMS=4.70D-04 Max=8.24D-03 NDo=     1
 LinEq1:  Iter=  3 NonCon=     1 RMS=1.44D-04 Max=1.55D-03 NDo=     1
 LinEq1:  Iter=  4 NonCon=     1 RMS=6.84D-05 Max=9.67D-04 NDo=     1
 LinEq1:  Iter=  5 NonCon=     1 RMS=2.36D-05 Max=3.26D-04 NDo=     1
 LinEq1:  Iter=  6 NonCon=     1 RMS=6.60D-06 Max=6.88D-05 NDo=     1
 LinEq1:  Iter=  7 NonCon=     1 RMS=1.57D-06 Max=1.70D-05 NDo=     1
 LinEq1:  Iter=  8 NonCon=     1 RMS=3.50D-07 Max=2.98D-06 NDo=     1
 LinEq1:  Iter=  9 NonCon=     1 RMS=7.51D-08 Max=1.08D-06 NDo=     1
 LinEq1:  Iter= 10 NonCon=     1 RMS=1.53D-08 Max=2.00D-07 NDo=     1
 LinEq1:  Iter= 11 NonCon=     1 RMS=3.35D-09 Max=2.83D-08 NDo=     1
 LinEq1:  Iter= 12 NonCon=     1 RMS=5.24D-10 Max=4.50D-09 NDo=     1
 LinEq1:  Iter= 13 NonCon=     1 RMS=9.80D-11 Max=1.25D-09 NDo=     1
 LinEq1:  Iter= 14 NonCon=     0 RMS=2.34D-11 Max=2.51D-10 NDo=     1
 Linear equations converged to 1.000D-10 1.000D-09 after    14 iterations.
 End of Minotr F.D. properties file   721 does not exist.
 End of Minotr F.D. properties file   722 does not exist.
 End of Minotr F.D. properties file   788 does not exist.
 Calling FoFJK, ICntrl=  10002127 FMM=F ISym2X=1 I1Cent= 0 IOpClX= 1 NMat=1 NMatS=1 NMatT=0.
 ***** Axes restored to original set *****
 -------------------------------------------------------------------
 Center     Atomic                   Forces (Hartrees/Bohr)
 Number     Number              X              Y              Z
 -------------------------------------------------------------------
      1        8           0.000011050    0.000000000   -0.000049796
      2        8          -0.000091123   -0.000000000    0.000035560
      3        1           0.000080074    0.000000000    0.000014236
 -------------------------------------------------------------------
 Cartesian Forces:  Max     0.000091123 RMS     0.000045685

 GradGradGradGradGradGradGradGradGradGradGradGradGradGradGradGradGradGrad
 Berny optimization.
 Using GEDIIS/GDIIS optimizer.
 FormGI is forming the generalized inverse of G from B-inverse, IUseBI=4.
 Internal  Forces:  Max     0.000080570 RMS     0.000056105
 Search for a local minimum.
 Step number   5 out of a maximum of   20
 All quantities printed in internal units (Hartrees-Bohrs-Radians)
 Mixed Optimization -- En-DIIS/RFO-DIIS
 Swapping is turned off.
 Update second derivatives using D2CorX and points    3    2    4    5
 DE= -5.35D-07 DEPred=-4.87D-07 R= 1.10D+00
 Trust test= 1.10D+00 RLast= 1.79D-03 DXMaxT set to 2.52D-01
 The second derivative matrix:
                          R1        R2        A1
           R1           0.49063
           R2           0.02443   0.51445
           A1           0.08738   0.00987   0.24644
 ITU=  0  1 -1  1
     Eigenvalues ---    0.21838   0.49021   0.54293
 En-DIIS/RFO-DIIS/Sim-DIIS IScMMF=       -3 using points:     5    4
 RFO step:  Lambda=-2.10021589D-08.
 DidBck=F Rises=F RFO-DIIS coefs:    1.11575   -0.11575
 Iteration  1 RMS(Cart)=  0.00009339 RMS(Int)=  0.00000001
 Iteration  2 RMS(Cart)=  0.00000001 RMS(Int)=  0.00000000
 ClnCor:  largest displacement from symmetrization is 4.46D-16 for atom     2.
 Variable       Old X    -DE/DX   Delta X   Delta X   Delta X     New X
                                 (Linear)    (Quad)   (Total)
    R1        2.48138   0.00005   0.00012   0.00000   0.00012   2.48150
    R2        1.84019   0.00008   0.00005   0.00010   0.00015   1.84035
    A1        1.82777  -0.00002  -0.00016   0.00003  -0.00013   1.82764
         Item               Value     Threshold  Converged?
 Maximum Force            0.000081     0.000450     YES
 RMS     Force            0.000056     0.000300     YES
 Maximum Displacement     0.000111     0.001800     YES
 RMS     Displacement     0.000093     0.001200     YES
 Predicted change in Energy=-1.050108D-08
 Optimization completed.
    -- Stationary point found.
                           ----------------------------
                           !   Optimized Parameters   !
                           ! (Angstroms and Degrees)  !
 --------------------------                            --------------------------
 ! Name  Definition              Value          Derivative Info.                !
 --------------------------------------------------------------------------------
 ! R1    R(1,2)                  1.3131         -DE/DX =    0.0001              !
 ! R2    R(2,3)                  0.9738         -DE/DX =    0.0001              !
 ! A1    A(1,2,3)              104.7234         -DE/DX =    0.0                 !
 --------------------------------------------------------------------------------
 GradGradGradGradGradGradGradGradGradGradGradGradGradGradGradGradGradGrad

                          Input orientation:                          
 ---------------------------------------------------------------------
 Center     Atomic      Atomic             Coordinates (Angstroms)
 Number     Number       Type             X           Y           Z
 ---------------------------------------------------------------------
      1          8           0        0.038697   -0.000000    0.118270
      2          8           0       -0.034761   -0.000000    1.429303
      3          1           0        0.891733    0.000000    1.729094
 ---------------------------------------------------------------------
                    Distance matrix (angstroms):
                    1          2          3
     1  O    0.000000
     2  O    1.313089   0.000000
     3  H    1.822751   0.973788   0.000000
 Stoichiometry    HO2(2)
 Framework group  CS[SG(HO2)]
 Deg. of freedom     3
 Full point group                 CS      NOp   2
 Largest Abelian subgroup         CS      NOp   2
 Largest concise Abelian subgroup C1      NOp   1
                         Standard orientation:                         
 ---------------------------------------------------------------------
 Center     Atomic      Atomic             Coordinates (Angstroms)
 Number     Number       Type             X           Y           Z
 ---------------------------------------------------------------------
      1          8           0        0.055401    0.709723    0.000000
      2          8           0        0.055401   -0.603366   -0.000000
      3          1           0       -0.886412   -0.850857   -0.000000
 ---------------------------------------------------------------------
 Rotational constants (GHZ):         619.0351722          34.5251266          32.7012943

 **********************************************************************

            Population analysis using the SCF density.

 **********************************************************************

 Orbital symmetries:
 Alpha Orbitals:
       Occupied  (A') (A') (A') (A') (A') (A") (A') (A") (A')
       Virtual   (A') (A') (A') (A") (A') (A') (A") (A') (A") (A')
                 (A') (A') (A') (A') (A') (A") (A') (A') (A") (A")
                 (A') (A") (A') (A') (A") (A') (A') (A") (A') (A')
                 (A') (A") (A') (A") (A') (A') (A") (A') (A') (A")
                 (A') (A") (A') (A') (A") (A') (A') (A") (A') (A")
                 (A') (A") (A') (A') (A') (A") (A') (A') (A") (A")
                 (A') (A') (A") (A') (A') (A') (A") (A") (A') (A')
                 (A") (A') (A") (A') (A') (A') (A') (A") (A') (A")
                 (A') (A') (A") (A') (A") (A') (A') (A") (A") (A')
                 (A') (A") (A") (A') (A") (A') (A') (A") (A') (A")
                 (A') (A') (A') (A') (A') (A')
 Beta  Orbitals:
       Occupied  (A') (A') (A') (A') (A') (A') (A") (A')
       Virtual   (A') (A") (A') (A') (A") (A') (A') (A') (A") (A")
                 (A') (A') (A') (A') (A') (A') (A") (A') (A') (A")
                 (A") (A') (A') (A") (A') (A") (A') (A') (A') (A')
                 (A") (A') (A") (A') (A") (A') (A') (A") (A') (A')
                 (A') (A") (A") (A') (A') (A") (A') (A') (A") (A')
                 (A") (A') (A") (A') (A') (A') (A") (A') (A') (A")
                 (A") (A') (A') (A") (A') (A') (A') (A") (A") (A')
                 (A') (A") (A') (A') (A") (A') (A') (A') (A") (A')
                 (A") (A') (A') (A") (A') (A") (A') (A') (A") (A')
                 (A") (A') (A") (A") (A') (A") (A') (A') (A") (A')
                 (A") (A') (A') (A') (A') (A') (A')
 The electronic state is 2-A".
 Alpha  occ. eigenvalues --  -20.68717 -20.67663  -1.58780  -1.20531  -0.77766
 Alpha  occ. eigenvalues --   -0.76143  -0.68050  -0.52516  -0.52037
 Alpha virt. eigenvalues --    0.03043   0.10014   0.12869   0.15331   0.17877
 Alpha virt. eigenvalues --    0.19132   0.19983   0.20127   0.26731   0.27617
 Alpha virt. eigenvalues --    0.30194   0.34152   0.39894   0.43580   0.61642
 Alpha virt. eigenvalues --    0.66030   0.67520   0.72418   0.72683   0.76266
 Alpha virt. eigenvalues --    0.77266   0.81424   0.81690   0.83321   0.85566
 Alpha virt. eigenvalues --    0.90850   0.94070   0.97463   0.98401   1.00223
 Alpha virt. eigenvalues --    1.03298   1.06551   1.08782   1.17349   1.32786
 Alpha virt. eigenvalues --    1.35579   1.49096   1.55110   1.69467   1.88837
 Alpha virt. eigenvalues --    1.89246   1.97761   2.03427   2.04940   2.08141
 Alpha virt. eigenvalues --    2.17140   2.18481   2.27093   2.27824   2.30841
 Alpha virt. eigenvalues --    2.32311   2.33264   2.38603   2.51149   2.59271
 Alpha virt. eigenvalues --    2.63402   2.68736   2.72845   2.74013   2.79444
 Alpha virt. eigenvalues --    2.90868   3.04029   3.19231   3.24630   3.40625
 Alpha virt. eigenvalues --    3.73996   4.06693   4.16809   4.18075   4.29849
 Alpha virt. eigenvalues --    4.31890   4.51611   4.61091   4.62173   4.91247
 Alpha virt. eigenvalues --    5.16750   5.22146   5.27440   5.92474   6.03832
 Alpha virt. eigenvalues --    6.18434   6.29869   6.37464   6.40535   6.45913
 Alpha virt. eigenvalues --    6.46342   6.55237   6.80058   6.97154   6.97554
 Alpha virt. eigenvalues --    7.02896   7.09677   7.14026   7.16880   7.22521
 Alpha virt. eigenvalues --    7.28011   7.37801   7.40405   7.49233   7.59511
 Alpha virt. eigenvalues --    7.68120   8.06987   8.21827   8.56811  12.72431
 Alpha virt. eigenvalues --   14.95177
  Beta  occ. eigenvalues --  -20.66820 -20.64691  -1.52540  -1.10273  -0.75748
  Beta  occ. eigenvalues --   -0.65567  -0.57366  -0.48379
  Beta virt. eigenvalues --    0.03067   0.09825   0.10208   0.12899   0.16503
  Beta virt. eigenvalues --    0.18032   0.19123   0.20226   0.23750   0.26823
  Beta virt. eigenvalues --    0.27643   0.31502   0.34383   0.40500   0.45083
  Beta virt. eigenvalues --    0.61627   0.66642   0.68421   0.72613   0.73405
  Beta virt. eigenvalues --    0.77287   0.77327   0.82231   0.83999   0.84175
  Beta virt. eigenvalues --    0.90077   0.90846   0.94220   0.98611   1.00291
  Beta virt. eigenvalues --    1.00861   1.04476   1.07368   1.09396   1.20729
  Beta virt. eigenvalues --    1.32925   1.35837   1.49459   1.55162   1.70141
  Beta virt. eigenvalues --    1.90165   1.92641   2.00443   2.05456   2.06823
  Beta virt. eigenvalues --    2.10500   2.18947   2.19286   2.29921   2.30598
[...]
      2  0.131006D+03 -0.233699D+02
      3  0.275405D+02 -0.271521D+02 -0.159429D+02

 4th Deriv. contributions to X Matrix (in cm^-1)
 -----------------------------------------------
                1             2             3
      1  0.983030D+02
      2 -0.154037D+03  0.111340D+02
      3 -0.319413D+02  0.151691D+02  0.162517D+02

 Total Anharmonic X Matrix (in cm^-1)
 ------------------------------------
                1             2             3
      1 -0.907541D+02
      2 -0.204266D+02 -0.122360D+02
      3 -0.395797D+01 -0.118481D+02  0.308800D+00

     ==================================================
                Anharmonic Zero Point Energy
     ==================================================

 Anharmonic X0 Term
 ------------------
 U term         : cm-1 =    -5.72281 ; Kcal/mol =  -0.016 ; KJ/mol =  -0.068
 Coriolis       : cm-1 =    -0.54540 ; Kcal/mol =  -0.002 ; KJ/mol =  -0.007
 Anharmonic     : cm-1 =    -2.20612 ; Kcal/mol =  -0.006 ; KJ/mol =  -0.026
 Total X0       : cm-1 =    -8.47432 ; Kcal/mol =  -0.024 ; KJ/mol =  -0.101

 Anharmonic Zero Point Energy
 ----------------------------
 Harmonic       : cm-1 =  3167.26795 ; Kcal/mol =   9.056 ; KJ/mol =  37.889
 Anharmonic Pot.: cm-1 =   -37.72999 ; Kcal/mol =  -0.108 ; KJ/mol =  -0.451
 Watson+Coriolis: cm-1 =    -5.47280 ; Kcal/mol =  -0.016 ; KJ/mol =  -0.065
 Total Anharm   : cm-1 =  3124.06515 ; Kcal/mol =   8.932 ; KJ/mol =  37.372

     ==================================================
          Vibrational Energies at Anharmonic Level
     ==================================================

 Units: Vibrational energies and rotational constants in cm^-1.
 NOTE: Transition energies are given with respect to the ground state.

 Reference Data
 --------------
                              E(harm)  E(anharm)     Aa(x)      Ba(y)      Ca(z)
 Equilibrium Geometry                             20.648791   1.151657   1.090775
 Ground State                 3167.268  3124.065  20.564059   1.147297   1.082801

 Fundamental Bands
 -----------------
     Mode(n)      Status      E(harm)  E(anharm)     Aa(x)      Ba(y)      Ca(z)
        1(1)      active      3661.475  3467.775  19.818483   1.149936   1.083523
        2(1)      active      1449.592  1408.982  21.146101   1.146123   1.078001
        3(1)      active      1223.469  1216.184  20.558130   1.137112   1.070930

 Overtones
 ---------
     Mode(n)                  E(harm)  E(anharm)     Aa(x)      Ba(y)      Ca(z)
        1(2)                  7322.950  6754.041  19.072908   1.152576   1.084245
        2(2)                  2899.184  2793.493  21.728142   1.144950   1.073202
        3(2)                  2446.938  2432.985  20.552201   1.126928   1.059059

 Combination Bands
 -----------------
     Mode(n)     Mode(n)      E(harm)  E(anharm)     Aa(x)      Ba(y)      Ca(z)
        2(1)        1(1)      5111.067  4856.331  20.400525   1.148763   1.078723
        3(1)        1(1)      4884.944  4680.000  19.812554   1.139752   1.071652
        3(1)        2(1)      2673.061  2613.318  21.140172   1.135939   1.066130

     ==================================================
      Thermodynamic properties and Partition Functions
     ==================================================

 ZPE(harm) = 0.37889D+02 kJ/mol        ZPE(anh)= 0.37372D+02 kJ/mol

 Input values of T(K) and P(atm): 298.15   1.00
                    Harmonic value     SPT anharmonic value
 Qvib               0.23106D-06          0.28471D-06
 QZvib              0.10037D+01          0.10040D+01
 Energy             0.45382D+02          0.44869D+02         kJ/mol
 Enthalpy           0.47861D+02          0.47348D+02         kJ/mol
 Entropy            0.22855D+03          0.22857D+03         J/(mol K)
 Sp.Heat(V)         0.26112D+02          0.26187D+02         J/(mol K)
 Sp.Heat(P)         0.34426D+02          0.34501D+02         J/(mol K)

 T =  298.15 K;  P =   1.00 atm
                    Harmonic value     SPT anharmonic value
 Qvib               0.23106D-06          0.28471D-06
 QZvib              0.10037D+01          0.10040D+01
 Energy             0.45382D+02          0.44869D+02         kJ/mol
 Enthalpy           0.47861D+02          0.47348D+02         kJ/mol
 Entropy            0.22855D+03          0.22857D+03         J/(mol K)
 Sp.Heat(V)         0.26112D+02          0.26187D+02         J/(mol K)
 Sp.Heat(P)         0.34426D+02          0.34501D+02         J/(mol K)

 T =  500.00 K;  P =   1.00 atm
                    Harmonic value     SPT anharmonic value
 Qvib               0.11525D-03          0.13085D-03
 QZvib              0.10467D+01          0.10494D+01
 Energy             0.51080D+02          0.50596D+02         kJ/mol
 Enthalpy           0.55237D+02          0.54754D+02         kJ/mol
 Entropy            0.24734D+03          0.24743D+03         J/(mol K)
 Sp.Heat(V)         0.30508D+02          0.30708D+02         J/(mol K)
 Sp.Heat(P)         0.38823D+02          0.39022D+02         J/(mol K)

 T = 1000.00 K;  P =   1.00 atm
                    Harmonic value     SPT anharmonic value
 Qvib               0.14546D-01          0.15672D-01
 QZvib              0.13862D+01          0.14035D+01
 Energy             0.68559D+02          0.68217D+02         kJ/mol
 Enthalpy           0.76874D+02          0.76532D+02         kJ/mol
 Entropy            0.27702D+03          0.27730D+03         J/(mol K)
 Sp.Heat(V)         0.38466D+02          0.38823D+02         J/(mol K)
 Sp.Heat(P)         0.46781D+02          0.47138D+02         J/(mol K)

 T = 1500.00 K;  P =   1.00 atm
                    Harmonic value     SPT anharmonic value
 Qvib               0.95237D-01          0.10155D+00
 QZvib              0.19870D+01          0.20326D+01
 Energy             0.88953D+02          0.88801D+02         kJ/mol
 Enthalpy           0.10142D+03          0.10127D+03         kJ/mol
 Entropy            0.29687D+03          0.29730D+03         J/(mol K)
 Sp.Heat(V)         0.42712D+02          0.43088D+02         J/(mol K)
 Sp.Heat(P)         0.51026D+02          0.51403D+02         J/(mol K)

 T = 2000.00 K;  P =   1.00 atm
                    Harmonic value     SPT anharmonic value
 Qvib               0.29120D+00          0.31004D+00
 QZvib              0.28426D+01          0.29340D+01
 Energy             0.11097D+03          0.11099D+03         kJ/mol
 Enthalpy           0.12760D+03          0.12762D+03         kJ/mol
 Entropy            0.31192D+03          0.31245D+03         J/(mol K)
 Sp.Heat(V)         0.45148D+02          0.45458D+02         J/(mol K)
 Sp.Heat(P)         0.53463D+02          0.53772D+02         J/(mol K)

     ==================================================
               Anharmonic Transition Moments
     ==================================================

 Electric dipole : Fundamental Bands
 ------------------------------------------------------------------------
   Mode(n)                            X               Y               Z
      1(1)                      -0.130242D-01    0.207548D-01    0.431919D-13
      2(1)                      -0.334321D-01   -0.860281D-02    0.492316D-13
      3(1)                       0.684353D-01    0.598942D-02   -0.307730D-13

 Electric dipole : Overtones
 ------------------------------------------------------------------------
   Mode(n)                            X               Y               Z
      1(2)                       0.540998D-02   -0.513968D-02    0.103250D-12
      2(2)                       0.134972D-02   -0.587859D-02    0.281768D-13
      3(2)                       0.207559D-02   -0.233465D-02   -0.708647D-13

 Electric dipole : Combination Bands
 ------------------------------------------------------------------------
   Mode(n)     Mode(n)                X               Y               Z
      2(1)        1(1)          -0.179393D-02   -0.293354D-02    0.195352D-12
      3(1)        1(1)          -0.249818D-02    0.326869D-02   -0.197506D-12
      3(1)        2(1)           0.629411D-03    0.353271D-02    0.191843D-12

     ==================================================
              Anharmonic Infrared Spectroscopy
     ==================================================

 Units: Transition energies (E) in cm^-1
        Integrated intensity (I) in km.mol^-1

 Fundamental Bands
 -----------------
   Mode(n)                  E(harm)   E(anharm)        I(harm)       I(anharm)
      1(1)                  3661.475   3467.775     46.93444991     33.71655125
      2(1)                  1449.592   1408.982     30.07886890     27.19155653
      3(1)                  1223.469   1216.184     92.75762996     92.94597505

 Overtones
 ---------
   Mode(n)                  E(harm)   E(anharm)                      I(anharm)
      1(2)                  7322.950   6754.041                      6.09050250
      2(2)                  2899.184   2793.493                      1.64574402
      3(2)                  2446.938   2432.985                      0.38449046

 Combination Bands
 -----------------
   Mode(n)     Mode(n)      E(harm)   E(anharm)                      I(anharm)
      2(1)        1(1)      5111.067   4856.331                      0.92987376
      3(1)        1(1)      4884.944   4680.000                      1.28273687
      3(1)        2(1)      2673.061   2613.318                      0.54492505

 Units: Transition energies (E) in cm^-1
        Dipole strengths (DS) in 10^-40 esu^2.cm^2

 Fundamental Bands
 -----------------
   Mode(n)                  E(harm)   E(anharm)       DS(harm)      DS(anharm)
      1(1)                  3661.475   3467.775     51.13791909     38.78820489
      2(1)                  1449.592   1408.982     82.77957465     76.99027700
      3(1)                  1223.469   1216.184    302.45729415    304.88695303

 Overtones
 ---------
   Mode(n)                  E(harm)   E(anharm)                     DS(anharm)
      1(2)                  7322.950   6754.041                      3.59746706
      2(2)                  2899.184   2793.493                      2.35029354
      3(2)                  2446.938   2432.985                      0.63045424

 Combination Bands
 -----------------
   Mode(n)     Mode(n)      E(harm)   E(anharm)                     DS(anharm)
      2(1)        1(1)      5111.067   4856.331                      0.76387651
      3(1)        1(1)      4884.944   4680.000                      1.09345043
      3(1)        2(1)      2673.061   2613.318                      0.83186319


 GradGradGradGradGradGradGradGradGradGradGradGradGradGradGradGradGradGrad
 Berny optimization.
 Internal  Forces:  Max     0.000080568 RMS     0.000056102
 Search for a local minimum.
 Step number   1 out of a maximum of    2
 All quantities printed in internal units (Hartrees-Bohrs-Radians)
 Second derivative matrix not updated -- analytic derivatives used.
 The second derivative matrix:
                          R1        R2        A1
           R1           0.48886
           R2           0.01734   0.48082
           A1           0.08447  -0.00559   0.23945
 ITU=  0
     Eigenvalues ---    0.21312   0.47555   0.52046
 Angle between quadratic step and forces=  19.84 degrees.
 Linear search not attempted -- first point.
 Iteration  1 RMS(Cart)=  0.00009360 RMS(Int)=  0.00000001
 Iteration  2 RMS(Cart)=  0.00000001 RMS(Int)=  0.00000000
 ClnCor:  largest displacement from symmetrization is 8.01D-16 for atom     3.
 Variable       Old X    -DE/DX   Delta X   Delta X   Delta X     New X
                                 (Linear)    (Quad)   (Total)
    R1        2.48138   0.00005   0.00000   0.00012   0.00012   2.48150
    R2        1.84019   0.00008   0.00000   0.00016   0.00016   1.84036
    A1        1.82777  -0.00002   0.00000  -0.00012  -0.00012   1.82764
         Item               Value     Threshold  Converged?
 Maximum Force            0.000081     0.000450     YES
 RMS     Force            0.000056     0.000300     YES
 Maximum Displacement     0.000111     0.001800     YES
 RMS     Displacement     0.000094     0.001200     YES
 Predicted change in Energy=-1.076474D-08
 Optimization completed.
    -- Stationary point found.
                           ----------------------------
                           !   Optimized Parameters   !
                           ! (Angstroms and Degrees)  !
 --------------------------                            --------------------------
 ! Name  Definition              Value          Derivative Info.                !
 --------------------------------------------------------------------------------
 ! R1    R(1,2)                  1.3131         -DE/DX =    0.0001              !
 ! R2    R(2,3)                  0.9738         -DE/DX =    0.0001              !
 ! A1    A(1,2,3)              104.7234         -DE/DX =    0.0                 !
 --------------------------------------------------------------------------------
 GradGradGradGradGradGradGradGradGradGradGradGradGradGradGradGradGradGrad


 ----------------------------------------------------------------------

 Electric dipole moment (input orientation):
 (Debye = 10**-18 statcoulomb cm , SI units = C m)
                  (au)            (Debye)         (10**-30 SI)
   Tot        0.848877D+00      0.215763D+01      0.719708D+01
   x          0.631107D+00      0.160411D+01      0.535075D+01
   y          0.000000D+00      0.000000D+00      0.000000D+00
   z          0.567711D+00      0.144298D+01      0.481326D+01

 Dipole polarizability, Alpha (input orientation).
 (esu units = cm**3 , SI units = C**2 m**2 J**-1)
 Alpha(0;0):
               (au)            (10**-24 esu)      (10**-40 SI)
   iso        0.133085D+02      0.197212D+01      0.219428D+01
   aniso      0.849434D+01      0.125873D+01      0.140053D+01
   xx         0.113261D+02      0.167835D+01      0.186742D+01
   yx         0.000000D+00      0.000000D+00      0.000000D+00
   yy         0.981677D+01      0.145470D+01      0.161857D+01
   zx         0.100328D+01      0.148671D+00      0.165418D+00
   zy         0.000000D+00      0.000000D+00      0.000000D+00
   zz         0.187827D+02      0.278331D+01      0.309685D+01

 ----------------------------------------------------------------------

 Dipole orientation:
     8         -0.11725685         -0.00000000          0.20383801
     8         -2.05201250         -0.00000000          1.75753020
     1         -1.30228922         -0.00000000          3.43807392

 Electric dipole moment (dipole orientation):
 (Debye = 10**-18 statcoulomb cm , SI units = C m)
                  (au)            (Debye)         (10**-30 SI)
   Tot        0.848877D+00      0.215763D+01      0.719708D+01
   x          0.000000D+00      0.000000D+00      0.000000D+00
   y          0.000000D+00      0.000000D+00      0.000000D+00
   z          0.848877D+00      0.215763D+01      0.719708D+01

 Dipole polarizability, Alpha (dipole orientation).
 (esu units = cm**3 , SI units = C**2 m**2 J**-1)
 Alpha(0;0):
               (au)            (10**-24 esu)      (10**-40 SI)
   iso        0.133085D+02      0.197212D+01      0.219428D+01
   aniso      0.849434D+01      0.125873D+01      0.140053D+01
   xx         0.144499D+02      0.214126D+01      0.238247D+01
   yx         0.000000D+00      0.000000D+00      0.000000D+00
   yy         0.981677D+01      0.145470D+01      0.161857D+01
   zx        -0.381335D+01     -0.565081D+00     -0.628737D+00
   zy         0.000000D+00      0.000000D+00      0.000000D+00
   zz         0.156589D+02      0.232040D+01      0.258180D+01

 ----------------------------------------------------------------------
 1\1\GINC-N2295\Freq\UMP2-FC\Aug-CC-pVTZ\H1O2(2)\GDS001\24-Jun-2021\0\\
 #N Geom=AllCheck Guess=TCheck SCRF=Check GenChk UMP2(FC)/Aug-CC-pVTZ F
 req\\HO2*\\0,2\O,0.0386969815,0.,0.1182703249\O,-0.034760539,0.,1.4293
 029248\H,0.8917325575,0.,1.7290937503\\Version=ES64L-G16RevA.03\State=
 2-A"\HF=-150.2400876\MP2=-150.6926179\PUHF=-150.2450042\PMP2-0=-150.69
 56374\S2=0.763205\S2-1=0.752956\S2A=0.750127\RMSD=4.433e-10\RMSF=4.568
 e-05\ZeroPoint=0.0144311\Thermal=0.017285\Dipole=0.6311069,0.,0.567711
 2\DipoleDeriv=-0.1822113,0.,0.0420513,0.,-0.1441085,0.,-0.0218635,0.,0
 .648481,-0.0154221,0.,-0.0737676,0.,-0.2277812,0.,0.0225974,0.,-0.9082
 877,0.1976334,0.,0.0317163,0.,0.3718897,0.,-0.0007339,0.,0.2598067\Pol
 ar=11.3260671,0.,9.8167718,1.0032797,0.,18.7827344\Quadrupole=0.377891
 8,-0.3574062,-0.0204856,0.,1.2747078,0.\PG=CS [SG(H1O2)]\NImag=0\\0.03
 647398,0.,-0.00002065,0.00869126,0.,0.49125337,-0.05486578,0.,-0.00735
 032,0.51698899,0.,0.00002403,0.,0.,-0.00007427,0.03768805,0.,-0.439565
 13,0.07864104,0.,0.49563345,0.01839180,0.,-0.00134094,-0.46212321,0.,-
 0.11632909,0.44373141,0.,-0.00000338,0.,0.,0.00005024,0.,0.,-0.0000468
 6,-0.04637931,0.,-0.05168824,-0.07129071,0.,-0.05606832,0.11767002,0.,
 0.10775656\\-0.00001105,0.,0.00004979,0.00009112,0.,-0.00003555,-0.000
 08007,0.,-0.00001424\\0.04214729,0.,0.06223721,0.01921925,0.,-0.529673
 76,-0.02368250,0.,-0.03569640,0.08451023,0.,-0.06650054,0.,0.,0.072873
 73,-0.03036540,0.,0.51021043,0.00597499,0.,-0.53745243,-0.01846479,0.,
 0.01647715,-0.06082773,0.,0.02439041,0.07929252,0.,0.00426333,0.,0.,-0
 .00637318,0.,0.,0.00210985,0.01114615,0.,0.01946333,0.02972141,0.,0.02
 724201,-0.04086756,0.,-0.04670534,0.02374759,0.,0.02606567,-0.04360888
 ,0.,-0.21460130,-0.04562318,0.,0.03881072,-0.05671392,0.,0.00474822,0.
 ,0.,-0.04313734,0.01872214,0.,0.14608983,0.11651747,0.,-0.01027470,0.0
 2187559,0.,0.00479816,0.10233710,0.,-0.13523961,-0.12421269,0.,-0.0308
 1389,0.,0.,0.03838912,0.,0.,-0.00757523,0.02488674,0.,0.06851146,-0.15
 532819,0.,-0.13581514,0.13044145,0.,0.06730367,0.00031921,0.,0.0042248
 5,0.00167502,0.,-0.05845713,0.00052410,0.,0.05787039,-1.66372877,0.,-0
 .00762508,0.,0.,0.28085186,-0.03490031,0.,0.05964750,-0.62922982,0.,-0
 .07238523,-0.00084331,0.,-0.05954541,1.66320467,0.,0.66413014,-1.66236
 137,0.,0.00340022,0.,0.,-0.27322678,0.,0.,0.26982655,0.03322529,0.,-0.
 00119036,0.57135943,0.,0.01273774,-0.60458473,0.,-0.01154737,-0.073686
 93,0.00000002,-0.09108448,-0.05561250,0.,0.97388916,0.06561044,0.,0.09
 527558,-0.19704438,0.,0.09323973,0.,0.00000002,-0.08697390,0.05783766,
 0.,-0.96467215,-0.17403628,0.00000003,0.95913779,0.00807648,-0.0000000
 2,-0.03966308,0.13143396,-0.00000001,0.11619862,-0.13951044,-0.0000000
 2,-0.00215526,0.,-0.00000001,-0.00626580,-0.00000003,0.00000003,0.0084
 2106,-0.00222516,0.,-0.00921701,0.07876069,-0.00000002,0.00553438,-0.0
 7653553,0.00000002,0.00368264,-0.07074264,0.00000006,-0.05399926,0.004
 24570,0.00000001,0.15391293,0.12414205,-0.00000003,0.07900089,-1.05793
 006,-0.00000012,0.04673762,-0.00000007,0.00000008,0.03861852,-0.064891
 98,0.,-0.12557336,-0.31803253,0.00000008,0.15986915,-0.05339944,-0.000
 00002,-0.08324659,0.93378803,0.00000004,0.38292451,-0.88038859,0.00000
 006,0.00726162,0.00000006,-0.00000004,-0.08535611,-0.00000007,-0.00000
 002,0.07809449,0.06064628,0.,-0.02833958,0.23903164,0.,-0.03429579,-0.
 29967792,0.00000001,0.06263537,0.01914772,0.00000001,0.02459238,0.0310
 3626,0.00000001,-0.17251780,-0.04336411,0.,-0.02696598,5.62488585,-0.0
 0000001,-0.02336089,0.,-0.00000002,-1.31746702,-0.00574279,0.,0.213817
 92,2.22117873,0.,-0.72688238,0.02421639,-0.00000001,-0.00407029,-5.581
 52173,0.00000003,-2.21543594,5.55730534,0.,-0.00123149,0.,0.00000002,1
 .34082794,0.00000001,-0.00000002,-1.33959645,-0.02529348,0.,-0.0413001
 1,-2.19421276,0.00000001,0.51306446,2.21950623,0.,-0.47176435\\@


 ABOVE ALL I AM AN OPTIMIST FOR NUMBER THEORY,
 AND I HOLD THE HOPE THAT WE MAY NOT BE FAR FROM
 A TIME WHEN IRREFUTABLE ARITHMETIC WILL CELEBRATE
 ITS TRIUMPHS IN PHYSICS AND CHEMISTRY.
   -- HERMANN MINKOWSKI, 1905
 Job cpu time:       0 days  5 hours 21 minutes 31.6 seconds.
 Elapsed time:       0 days  0 hours 11 minutes 42.4 seconds.
 File lengths (MBytes):  RWF=   1804 Int=      0 D2E=      0 Chk=     48 Scr=      8
 Normal termination of Gaussian 16 at Thu Jun 24 08:26:54 2021.
