 Entering Gaussian System, Link 0=g16
 Input=imine_mp2_avtz_opt_anharm.gjf
 Output=imine_mp2_avtz_opt_anharm.log
 Initial command:
 /sw/contrib/chem-src/g16/c01/g16/l1.exe "/scr/Gau-12369.inp" -scrdir="/scr/"
 Entering Link 1 = /sw/contrib/chem-src/g16/c01/g16/l1.exe PID=     12371.
  
 Copyright (c) 1988-2019, Gaussian, Inc.  All Rights Reserved.
  
 This is part of the Gaussian(R) 16 program.  It is based on
 the Gaussian(R) 09 system (copyright 2009, Gaussian, Inc.),
 the Gaussian(R) 03 system (copyright 2003, Gaussian, Inc.),
 the Gaussian(R) 98 system (copyright 1998, Gaussian, Inc.),
 the Gaussian(R) 94 system (copyright 1995, Gaussian, Inc.),
 the Gaussian 92(TM) system (copyright 1992, Gaussian, Inc.),
 the Gaussian 90(TM) system (copyright 1990, Gaussian, Inc.),
 the Gaussian 88(TM) system (copyright 1988, Gaussian, Inc.),
 the Gaussian 86(TM) system (copyright 1986, Carnegie Mellon
 University), and the Gaussian 82(TM) system (copyright 1983,
 Carnegie Mellon University). Gaussian is a federally registered
 trademark of Gaussian, Inc.
  
 This software contains proprietary and confidential information,
 including trade secrets, belonging to Gaussian, Inc.
  
 This software is provided under written license and may be
 used, copied, transmitted, or stored only in accord with that
 written license.
  
 The following legend is applicable only to US Government
 contracts under FAR:
  
                    RESTRICTED RIGHTS LEGEND
  
 Use, reproduction and disclosure by the US Government is
 subject to restrictions as set forth in subparagraphs (a)
 and (c) of the Commercial Computer Software - Restricted
 Rights clause in FAR 52.227-19.
  
 Gaussian, Inc.
 340 Quinnipiac St., Bldg. 40, Wallingford CT 06492
  
  
 ---------------------------------------------------------------
 Warning -- This program may not be used in any manner that
 competes with the business of Gaussian, Inc. or will provide
 assistance to any competitor of Gaussian, Inc.  The licensee
 of this program is prohibited from giving any competitor of
 Gaussian, Inc. access to this program.  By using this program,
 the user acknowledges that Gaussian, Inc. is engaged in the
 business of creating and licensing software in the field of
 computational chemistry and represents and warrants to the
 licensee that it is not a competitor of Gaussian, Inc. and that
 it will not use this program in any manner prohibited above.
 ---------------------------------------------------------------
  

 Cite this work as:
 Gaussian 16, Revision C.01,
 M. J. Frisch, G. W. Trucks, H. B. Schlegel, G. E. Scuseria, 
 M. A. Robb, J. R. Cheeseman, G. Scalmani, V. Barone, 
 G. A. Petersson, H. Nakatsuji, X. Li, M. Caricato, A. V. Marenich, 
 J. Bloino, B. G. Janesko, R. Gomperts, B. Mennucci, H. P. Hratchian, 
 J. V. Ortiz, A. F. Izmaylov, J. L. Sonnenberg, D. Williams-Young, 
 F. Ding, F. Lipparini, F. Egidi, J. Goings, B. Peng, A. Petrone, 
 T. Henderson, D. Ranasinghe, V. G. Zakrzewski, J. Gao, N. Rega, 
 G. Zheng, W. Liang, M. Hada, M. Ehara, K. Toyota, R. Fukuda, 
 J. Hasegawa, M. Ishida, T. Nakajima, Y. Honda, O. Kitao, H. Nakai, 
 T. Vreven, K. Throssell, J. A. Montgomery, Jr., J. E. Peralta, 
 F. Ogliaro, M. J. Bearpark, J. J. Heyd, E. N. Brothers, K. N. Kudin, 
 V. N. Staroverov, T. A. Keith, R. Kobayashi, J. Normand, 
 K. Raghavachari, A. P. Rendell, J. C. Burant, S. S. Iyengar, 
 J. Tomasi, M. Cossi, J. M. Millam, M. Klene, C. Adamo, R. Cammi, 
 J. W. Ochterski, R. L. Martin, K. Morokuma, O. Farkas, 
 J. B. Foresman, and D. J. Fox, Gaussian, Inc., Wallingford CT, 2019.
 
 ******************************************
 Gaussian 16:  EM64L-G16RevC.01  3-Jul-2019
                 4-Apr-2025 
 ******************************************
 %nprocshared=40
 Will use up to   40 processors via shared memory.
 %mem=50gb
 ----------------------------------------------
 # MP2/aug-cc-pVTZ opt freq=(vibrot,anharmonic)
 ----------------------------------------------
 1/18=20,19=15,38=1,80=1/1,3;
 2/9=110,12=2,17=6,18=5,40=1/2;
 3/5=16,6=1,7=10,11=9,25=1,30=1,71=1/1,2,3;
 4//1;
 5/5=2,38=5/2;
 8/6=4,10=1/1;
 9/15=2,16=-3/6;
 10/5=1/2;
 6/7=2,8=2,9=2,10=2/1;
 7/12=2/1,2,3,16;
 1/18=20,19=15,80=1/3(2);
 2/9=110/2;
 99//99;
 2/9=110/2;
 3/5=16,6=1,7=10,11=9,25=1,30=1,71=1/1,2,3;
 4/5=5,16=3,69=1/1;
 5/5=2,38=5/2;
 8/6=4,10=1/1;
 9/15=2,16=-3/6;
 10/5=1/2;
 7/12=2/1,2,3,16;
 1/18=20,19=15,80=1/3(-8);
 2/9=110/2;
 6/7=2,8=2,9=2,10=2/1;
 99/9=10/99;
 ----
 blah
 ----
 Symbolic Z-matrix:
 Charge =  0 Multiplicity = 1
 C                    -0.36233  -0.54904   0. 
 N                     1.15454  -0.54904   0. 
 H                    -0.87833  -1.25454   0.54868 
 H                    -0.87833   0.15645  -0.54868 
 H                     1.64679  -1.22207   0.52342 
 

 GradGradGradGradGradGradGradGradGradGradGradGradGradGradGradGradGradGrad
 Berny optimization.
 Initialization pass.
                           ----------------------------
                           !    Initial Parameters    !
                           ! (Angstroms and Degrees)  !
 --------------------------                            --------------------------
 ! Name  Definition              Value          Derivative Info.                !
 --------------------------------------------------------------------------------
 ! R1    R(1,2)                  1.5169         estimate D2E/DX2                !
 ! R2    R(1,3)                  1.032          estimate D2E/DX2                !
 ! R3    R(1,4)                  1.032          estimate D2E/DX2                !
 ! R4    R(2,5)                  0.9845         estimate D2E/DX2                !
 ! A1    A(2,1,3)              120.0            estimate D2E/DX2                !
 ! A2    A(2,1,4)              120.0            estimate D2E/DX2                !
 ! A3    A(3,1,4)              120.0            estimate D2E/DX2                !
 ! A4    A(1,2,5)              120.0            estimate D2E/DX2                !
 ! D1    D(3,1,2,5)              0.0            estimate D2E/DX2                !
 ! D2    D(4,1,2,5)            180.0            estimate D2E/DX2                !
 ! D3    D(2,1,3,4)            180.0            estimate D2E/DX2                !
 --------------------------------------------------------------------------------
 Trust Radius=3.00D-01 FncErr=1.00D-07 GrdErr=1.00D-07 EigMax=2.50D+02 EigMin=1.00D-04
 Number of steps in this run=     21 maximum allowed number of steps=    100.
 GradGradGradGradGradGradGradGradGradGradGradGradGradGradGradGradGradGrad

                          Input orientation:                          
 ---------------------------------------------------------------------
 Center     Atomic      Atomic             Coordinates (Angstroms)
 Number     Number       Type             X           Y           Z
 ---------------------------------------------------------------------
      1          6           0       -0.362326   -0.549042    0.000000
      2          7           0        1.154544   -0.549042    0.000000
      3          1           0       -0.878326   -1.254536    0.548677
      4          1           0       -0.878326    0.156452   -0.548676
      5          1           0        1.646794   -1.222065    0.523423
 ---------------------------------------------------------------------
                    Distance matrix (angstroms):
                    1          2          3          4          5
     1  C    0.000000
     2  N    1.516870   0.000000
     3  H    1.032000   2.220659   0.000000
     4  H    1.032000   2.220659   1.787476   0.000000
     5  H    2.182543   0.984500   2.525455   3.070169   0.000000
 Stoichiometry    CH3N
 Framework group  CS[SG(CH3N)]
 Deg. of freedom     7
 Full point group                 CS      NOp   2
 Largest Abelian subgroup         CS      NOp   2
 Largest concise Abelian subgroup C1      NOp   1
                         Standard orientation:                         
 ---------------------------------------------------------------------
 Center     Atomic      Atomic             Coordinates (Angstroms)
 Number     Number       Type             X           Y           Z
 ---------------------------------------------------------------------
      1          6           0        0.053288    0.724701   -0.000000
      2          7           0        0.053288   -0.792169    0.000000
      3          1           0       -0.840451    1.240701    0.000000
      4          1           0        0.947026    1.240701   -0.000000
      5          1           0       -0.799314   -1.284419    0.000000
 ---------------------------------------------------------------------
 Rotational constants (GHZ):         224.3947698          25.4325809          22.8435282
 Standard basis: Aug-CC-pVTZ (5D, 7F)
 There are   128 symmetry adapted cartesian basis functions of A'  symmetry.
 There are    57 symmetry adapted cartesian basis functions of A"  symmetry.
 There are   108 symmetry adapted basis functions of A'  symmetry.
 There are    53 symmetry adapted basis functions of A"  symmetry.
   161 basis functions,   225 primitive gaussians,   185 cartesian basis functions
     8 alpha electrons        8 beta electrons
       nuclear repulsion energy        30.0368199213 Hartrees.
 NAtoms=    5 NActive=    5 NUniq=    5 SFac= 1.00D+00 NAtFMM=   60 NAOKFM=F Big=F
 Integral buffers will be    131072 words long.
 Raffenetti 1 integral format.
 Two-electron integral symmetry is turned on.
 One-electron integrals computed using PRISM.
 NBasis=   161 RedAO= T EigKep=  5.64D-05  NBF=   108    53
 NBsUse=   161 1.00D-06 EigRej= -1.00D+00 NBFU=   108    53
 ExpMin= 2.53D-02 ExpMax= 1.14D+04 ExpMxC= 3.89D+02 IAcc=3 IRadAn=         5 AccDes= 0.00D+00
 Harris functional with IExCor=  205 and IRadAn=       5 diagonalized for initial guess.
 HarFok:  IExCor=  205 AccDes= 0.00D+00 IRadAn=         5 IDoV= 1 UseB2=F ITyADJ=14
 ICtDFT=  3500011 ScaDFX=  1.000000  1.000000  1.000000  1.000000
 FoFCou: FMM=F IPFlag=           0 FMFlag=      100000 FMFlg1=           0
         NFxFlg=           0 DoJE=T BraDBF=F KetDBF=T FulRan=T
         wScrn=  0.000000 ICntrl=       500 IOpCl=  0 I1Cent=   200000004 NGrid=           0
         NMat0=    1 NMatS0=      1 NMatT0=    0 NMatD0=    1 NMtDS0=    0 NMtDT0=    0
 Petite list used in FoFCou.
 Initial guess orbital symmetries:
       Occupied  (A') (A') (A') (A') (A') (A') (A") (A')
       Virtual   (A") (A') (A') (A') (A") (A') (A') (A') (A') (A')
                 (A') (A") (A') (A") (A') (A') (A') (A") (A") (A')
                 (A') (A") (A') (A') (A') (A') (A') (A') (A") (A')
                 (A') (A") (A') (A") (A') (A") (A') (A') (A') (A")
                 (A") (A') (A') (A') (A') (A") (A') (A") (A') (A")
                 (A') (A') (A") (A') (A') (A") (A') (A") (A') (A')
                 (A") (A') (A') (A") (A") (A') (A') (A') (A") (A')
                 (A") (A') (A") (A') (A') (A') (A") (A') (A") (A')
                 (A') (A') (A") (A') (A") (A') (A") (A') (A') (A')
                 (A') (A") (A') (A') (A") (A') (A') (A") (A') (A")
                 (A') (A") (A") (A') (A') (A") (A') (A') (A') (A")
                 (A') (A') (A') (A") (A') (A") (A') (A") (A') (A')
                 (A") (A') (A') (A") (A") (A') (A') (A") (A') (A")
                 (A') (A') (A") (A") (A') (A') (A") (A") (A") (A')
                 (A') (A') (A') (A') (A") (A') (A') (A') (A') (A')
                 (A') (A') (A')
 The electronic state of the initial guess is 1-A'.
 Keep R1 ints in memory in symmetry-blocked form, NReq=128227886.
 Requested convergence on RMS density matrix=1.00D-08 within 128 cycles.
 Requested convergence on MAX density matrix=1.00D-06.
 Requested convergence on             energy=1.00D-06.
 No special actions if energy rises.
 SCF Done:  E(RHF) =  -93.9927182868     A.U. after   11 cycles
            NFock= 11  Conv=0.65D-08     -V/T= 2.0054
 ExpMin= 2.53D-02 ExpMax= 1.14D+04 ExpMxC= 3.89D+02 IAcc=3 IRadAn=         5 AccDes= 0.00D+00
 HarFok:  IExCor=  205 AccDes= 0.00D+00 IRadAn=         5 IDoV=-2 UseB2=F ITyADJ=14
 ICtDFT= 12500011 ScaDFX=  1.000000  1.000000  1.000000  1.000000
 Range of M.O.s used for correlation:     3   161
 NBasis=   161 NAE=     8 NBE=     8 NFC=     2 NFV=     0
 NROrb=    159 NOA=     6 NOB=     6 NVA=   153 NVB=   153

 **** Warning!!: The largest alpha MO coefficient is  0.42985220D+02

 Fully direct method using O(ONN) memory.
 JobTyp=1 Pass  1:  I=   3 to   8 NPSUse= 40 ParTrn=T ParDer=T DoDerP=T.
 Spin components of T(2) and E(2):
     alpha-alpha T2 =       0.1713949147D-01 E2=     -0.4541109624D-01
     alpha-beta  T2 =       0.1108615117D+00 E2=     -0.3075315351D+00
     beta-beta   T2 =       0.1713949147D-01 E2=     -0.4541109624D-01
 ANorm=    0.1070112375D+01
 E2 =    -0.3983537275D+00 EUMP2 =    -0.94391072014356D+02
          IDoAtm=11111
          Differentiating once with respect to electric field.
                with respect to dipole field.
          Differentiating once with respect to nuclear coordinates.
 Keep R1 ints in memory in symmetry-blocked form, NReq=128228996.
          There are     1 degrees of freedom in the 1st order CPHF.  IDoFFX=0 NUNeed=     1.
 LinEq1:  Iter=  0 NonCon=     1 RMS=5.64D-03 Max=7.81D-02 NDo=     1
 AX will form     1 AO Fock derivatives at one time.
 LinEq1:  Iter=  1 NonCon=     1 RMS=1.54D-03 Max=1.16D-02 NDo=     1
 LinEq1:  Iter=  2 NonCon=     1 RMS=4.85D-04 Max=8.71D-03 NDo=     1
 LinEq1:  Iter=  3 NonCon=     1 RMS=2.53D-04 Max=2.79D-03 NDo=     1
 LinEq1:  Iter=  4 NonCon=     1 RMS=1.17D-04 Max=2.15D-03 NDo=     1
 LinEq1:  Iter=  5 NonCon=     1 RMS=3.11D-05 Max=3.49D-04 NDo=     1
 LinEq1:  Iter=  6 NonCon=     1 RMS=5.67D-06 Max=5.32D-05 NDo=     1
 LinEq1:  Iter=  7 NonCon=     1 RMS=8.51D-07 Max=7.62D-06 NDo=     1
 LinEq1:  Iter=  8 NonCon=     1 RMS=1.33D-07 Max=1.38D-06 NDo=     1
 LinEq1:  Iter=  9 NonCon=     1 RMS=2.33D-08 Max=1.57D-07 NDo=     1
 LinEq1:  Iter= 10 NonCon=     1 RMS=3.52D-09 Max=2.21D-08 NDo=     1
 LinEq1:  Iter= 11 NonCon=     1 RMS=5.50D-10 Max=4.33D-09 NDo=     1
 LinEq1:  Iter= 12 NonCon=     0 RMS=8.07D-11 Max=7.54D-10 NDo=     1
 Linear equations converged to 1.000D-10 1.000D-09 after    12 iterations.
 End of Minotr F.D. properties file   721 does not exist.
 End of Minotr F.D. properties file   722 does not exist.
 End of Minotr F.D. properties file   788 does not exist.

 **********************************************************************

            Population analysis using the SCF Density.

 **********************************************************************

 Orbital symmetries:
       Occupied  (A') (A') (A') (A') (A') (A') (A') (A")
       Virtual   (A') (A') (A') (A") (A') (A") (A') (A') (A') (A')
                 (A") (A') (A') (A") (A') (A') (A') (A") (A") (A')
                 (A') (A') (A") (A') (A') (A') (A") (A') (A') (A')
                 (A') (A") (A') (A") (A') (A") (A') (A') (A') (A")
                 (A') (A") (A') (A') (A') (A") (A") (A') (A') (A')
                 (A") (A') (A") (A') (A') (A") (A') (A") (A') (A')
                 (A") (A') (A') (A") (A') (A") (A') (A') (A") (A')
                 (A") (A') (A") (A') (A') (A') (A") (A') (A") (A')
                 (A') (A") (A') (A') (A") (A') (A") (A') (A') (A')
                 (A') (A") (A') (A') (A") (A') (A') (A") (A') (A")
                 (A') (A") (A") (A") (A') (A') (A') (A') (A') (A')
                 (A") (A') (A") (A') (A') (A") (A') (A") (A') (A')
                 (A") (A') (A") (A') (A") (A") (A') (A') (A') (A')
                 (A") (A') (A") (A') (A") (A') (A") (A") (A') (A')
                 (A") (A') (A') (A') (A") (A') (A') (A') (A') (A')
                 (A') (A') (A')
 The electronic state is 1-A'.
 Alpha  occ. eigenvalues --  -15.59273 -11.32125  -1.12403  -0.90164  -0.66852
 Alpha  occ. eigenvalues --   -0.61540  -0.43654  -0.38672
 Alpha virt. eigenvalues --    0.02695   0.04052   0.04675   0.05700   0.09419
 Alpha virt. eigenvalues --    0.10429   0.13341   0.13840   0.15509   0.16389
 Alpha virt. eigenvalues --    0.17242   0.20842   0.24098   0.24206   0.26025
 Alpha virt. eigenvalues --    0.27477   0.30222   0.30375   0.32939   0.33876
 Alpha virt. eigenvalues --    0.37592   0.38306   0.39379   0.39996   0.42736
 Alpha virt. eigenvalues --    0.43946   0.45245   0.46970   0.48513   0.49707
 Alpha virt. eigenvalues --    0.55882   0.58660   0.60901   0.64218   0.64512
 Alpha virt. eigenvalues --    0.67885   0.75663   0.77670   0.80515   0.83388
 Alpha virt. eigenvalues --    0.84496   0.87216   0.88731   0.90106   0.91053
 Alpha virt. eigenvalues --    0.93492   0.95130   0.95211   0.97801   1.01168
 Alpha virt. eigenvalues --    1.01429   1.03044   1.04553   1.05029   1.08853
 Alpha virt. eigenvalues --    1.09501   1.09902   1.13993   1.15334   1.23884
 Alpha virt. eigenvalues --    1.29692   1.31282   1.34715   1.36910   1.41222
 Alpha virt. eigenvalues --    1.44430   1.46199   1.48969   1.55530   1.56211
 Alpha virt. eigenvalues --    1.60445   1.62156   1.67914   1.68855   1.75204
 Alpha virt. eigenvalues --    1.85279   1.86829   1.88425   1.90453   1.94510
 Alpha virt. eigenvalues --    2.02651   2.05627   2.09042   2.14167   2.19355
 Alpha virt. eigenvalues --    2.20598   2.21774   2.23051   2.31395   2.39512
 Alpha virt. eigenvalues --    2.48614   2.50363   2.58871   2.66438   2.97147
 Alpha virt. eigenvalues --    3.00151   3.14177   3.23105   3.31346   3.45234
 Alpha virt. eigenvalues --    3.50254   3.57887   3.59131   3.62452   3.63396
 Alpha virt. eigenvalues --    3.65576   3.65788   3.77906   3.81970   3.89774
 Alpha virt. eigenvalues --    3.90377   3.98675   4.06233   4.09449   4.19939
 Alpha virt. eigenvalues --    4.21127   4.25934   4.26641   4.38501   4.43937
 Alpha virt. eigenvalues --    4.47859   4.53793   4.70424   4.70933   4.76529
 Alpha virt. eigenvalues --    4.88107   4.88913   4.91879   5.01131   5.11442
 Alpha virt. eigenvalues --    5.15957   5.17993   5.23778   5.32429   5.34714
 Alpha virt. eigenvalues --    5.35236   5.45151   5.50757   5.57087   5.60754
 Alpha virt. eigenvalues --    5.61728   5.69692   5.82735   5.98617   6.17063
 Alpha virt. eigenvalues --    6.30599   6.39055   6.48837   6.63961   6.88277
 Alpha virt. eigenvalues --    7.14426  14.33915  16.88833
          Condensed to atoms (all electrons):
               1          2          3          4          5
     1  C    5.825525   0.400994   0.280929   0.264559   0.035362
     2  N    0.400994   6.848644  -0.014782   0.002608   0.253342
     3  H    0.280929  -0.014782   0.189814   0.004305   0.009680
     4  H    0.264559   0.002608   0.004305   0.177703  -0.001064
     5  H    0.035362   0.253342   0.009680  -0.001064   0.486450
 Mulliken charges:
               1
     1  C   -0.807369
     2  N   -0.490805
     3  H    0.530053
     4  H    0.551889
     5  H    0.216231
 Sum of Mulliken charges =  -0.00000
 Mulliken charges with hydrogens summed into heavy atoms:
               1
     1  C    0.274574
     2  N   -0.274574
 Electronic spatial extent (au):  <R**2>=             80.3900
 Charge=             -0.0000 electrons
 Dipole moment (field-independent basis, Debye):
    X=             -1.3668    Y=              2.0989    Z=              0.0000  Tot=              2.5047
 Quadrupole moment (field-independent basis, Debye-Ang):
   XX=            -12.1515   YY=            -11.2744   ZZ=            -14.8085
   XY=              2.5891   XZ=             -0.0000   YZ=              0.0000
 Traceless Quadrupole moment (field-independent basis, Debye-Ang):
   XX=              0.5933   YY=              1.4704   ZZ=             -2.0637
   XY=              2.5891   XZ=             -0.0000   YZ=              0.0000
 Octapole moment (field-independent basis, Debye-Ang**2):
  XXX=             -1.6020  YYY=              1.4791  ZZZ=              0.0000  XYY=             -3.1220
  XXY=              1.3171  XXZ=              0.0000  XZZ=             -0.3469  YZZ=              0.4238
  YYZ=              0.0000  XYZ=             -0.0000
 Hexadecapole moment (field-independent basis, Debye-Ang**3):
 XXXX=            -20.6320 YYYY=            -66.0038 ZZZZ=            -18.3980 XXXY=              0.8703
 XXXZ=              0.0000 YYYX=              3.7973 YYYZ=              0.0000 ZZZX=              0.0000
 ZZZY=              0.0000 XXYY=            -12.4002 XXZZ=             -7.0685 YYZZ=            -15.0494
 XXYZ=              0.0000 YYXZ=             -0.0000 ZZXY=             -0.2299
 N-N= 3.003681992127D+01 E-N=-2.794556088636D+02  KE= 9.349018518433D+01
 Symmetry A'   KE= 9.116172519293D+01
 Symmetry A"   KE= 2.328459991403D+00
 Calling FoFJK, ICntrl=  10002127 FMM=F ISym2X=1 I1Cent= 0 IOpClX= 0 NMat=1 NMatS=1 NMatT=0.
 ***** Axes restored to original set *****
 -------------------------------------------------------------------
 Center     Atomic                   Forces (Hartrees/Bohr)
 Number     Number              X              Y              Z
 -------------------------------------------------------------------
      1        6           0.184189121   -0.021136610    0.016438327
      2        7          -0.150666914    0.053525530   -0.041627810
      3        1          -0.019431741   -0.028766201    0.022372024
      4        1          -0.007773447    0.030208371   -0.023493625
      5        1          -0.006317020   -0.033831090    0.026311084
 -------------------------------------------------------------------
 Cartesian Forces:  Max     0.184189121 RMS     0.066857171

 GradGradGradGradGradGradGradGradGradGradGradGradGradGradGradGradGradGrad
 Berny optimization.
 FormGI is forming the generalized inverse of G from B-inverse, IUseBI=4.
 Internal  Forces:  Max     0.156983938 RMS     0.053705850
 Search for a local minimum.
 Step number   1 out of a maximum of   21
 All quantities printed in internal units (Hartrees-Bohrs-Radians)
 Mixed Optimization -- RFO/linear search
 Second derivative matrix not updated -- first step.
 The second derivative matrix:
                          R1        R2        R3        R4        A1
           R1           0.30670
           R2           0.00000   0.42477
           R3           0.00000   0.00000   0.42477
           R4           0.00000   0.00000   0.00000   0.50521
           A1           0.00000   0.00000   0.00000   0.00000   0.16000
           A2           0.00000   0.00000   0.00000   0.00000   0.00000
           A3           0.00000   0.00000   0.00000   0.00000   0.00000
           A4           0.00000   0.00000   0.00000   0.00000   0.00000
           D1           0.00000   0.00000   0.00000   0.00000   0.00000
           D2           0.00000   0.00000   0.00000   0.00000   0.00000
           D3           0.00000   0.00000   0.00000   0.00000   0.00000
                          A2        A3        A4        D1        D2
           A2           0.16000
           A3           0.00000   0.16000
           A4           0.00000   0.00000   0.16000
           D1           0.00000   0.00000   0.00000   0.00230
           D2           0.00000   0.00000   0.00000   0.00000   0.00230
           D3           0.00000   0.00000   0.00000   0.00000   0.00000
                          D3
           D3           0.01002
 ITU=  0
     Eigenvalues ---    0.00230   0.00745   0.16000   0.16000   0.16000
     Eigenvalues ---    0.30670   0.42477   0.42477   0.50521
 RFO step:  Lambda=-8.30046345D-02 EMin= 2.30000000D-03
 Linear search not attempted -- first point.
 Maximum step size (   0.300) exceeded in Quadratic search.
    -- Step size scaled by   0.631
 Iteration  1 RMS(Cart)=  0.09875920 RMS(Int)=  0.01747722
 Iteration  2 RMS(Cart)=  0.01960088 RMS(Int)=  0.00000868
 Iteration  3 RMS(Cart)=  0.00000899 RMS(Int)=  0.00000001
 Iteration  4 RMS(Cart)=  0.00000000 RMS(Int)=  0.00000000
 ClnCor:  largest displacement from symmetrization is 4.30D-09 for atom     2.
 Variable       Old X    -DE/DX   Delta X   Delta X   Delta X     New X
                                 (Linear)    (Quad)   (Total)
    R1        2.86647  -0.15698   0.00000  -0.25427  -0.25427   2.61220
    R2        1.95020   0.04128   0.00000   0.05131   0.05131   2.00151
    R3        1.95020   0.03703   0.00000   0.04603   0.04603   1.99623
    R4        1.86044   0.03396   0.00000   0.03644   0.03644   1.89688
    A1        2.09440   0.00625   0.00000   0.01624   0.01624   2.11063
    A2        2.09440  -0.01522   0.00000  -0.03953  -0.03953   2.05486
    A3        2.09440   0.00897   0.00000   0.02329   0.02329   2.11769
    A4        2.09440  -0.05005   0.00000  -0.12999  -0.12999   1.96440
    D1        0.00000   0.00000   0.00000   0.00000  -0.00000   0.00000
    D2        3.14159   0.00000   0.00000   0.00000   0.00000  -3.14159
    D3        3.14159   0.00000   0.00000   0.00000   0.00000   3.14159
         Item               Value     Threshold  Converged?
 Maximum Force            0.156984     0.000450     NO 
 RMS     Force            0.053706     0.000300     NO 
 Maximum Displacement     0.253524     0.001800     NO 
 RMS     Displacement     0.116159     0.001200     NO 
 Predicted change in Energy=-3.959304D-02
 GradGradGradGradGradGradGradGradGradGradGradGradGradGradGradGradGradGrad

                          Input orientation:                          
 ---------------------------------------------------------------------
 Center     Atomic      Atomic             Coordinates (Angstroms)
 Number     Number       Type             X           Y           Z
 ---------------------------------------------------------------------
      1          6           0       -0.293770   -0.556306    0.005649
      2          7           0        1.087205   -0.508243   -0.031730
      3          1           0       -0.797625   -1.291710    0.577587
      4          1           0       -0.826086    0.163945   -0.554503
      5          1           0        1.512634   -1.225919    0.526420
 ---------------------------------------------------------------------
                    Distance matrix (angstroms):
                    1          2          3          4          5
     1  C    0.000000
     2  N    1.382316   0.000000
     3  H    1.059151   2.130180   0.000000
     4  H    1.056358   2.094232   1.844280   0.000000
     5  H    1.995666   1.003783   2.311762   2.927410   0.000000
 Stoichiometry    CH3N
 Framework group  CS[SG(CH3N)]
 Deg. of freedom     7
 Full point group                 CS      NOp   2
 Largest Abelian subgroup         CS      NOp   2
 Largest concise Abelian subgroup C1      NOp   1
                         Standard orientation:                         
 ---------------------------------------------------------------------
 Center     Atomic      Atomic             Coordinates (Angstroms)
 Number     Number       Type             X           Y           Z
 ---------------------------------------------------------------------
      1          6           0        0.056285    0.650468    0.000000
      2          7           0        0.056285   -0.731848    0.000000
      3          1           0       -0.852246    1.194869   -0.000000
      4          1           0        0.991278    1.142078    0.000000
      5          1           0       -0.870741   -1.116819   -0.000000
 ---------------------------------------------------------------------
 Rotational constants (GHZ):         203.6774833          30.4324786          26.4764925
 Standard basis: Aug-CC-pVTZ (5D, 7F)
 There are   128 symmetry adapted cartesian basis functions of A'  symmetry.
 There are    57 symmetry adapted cartesian basis functions of A"  symmetry.
 There are   108 symmetry adapted basis functions of A'  symmetry.
 There are    53 symmetry adapted basis functions of A"  symmetry.
   161 basis functions,   225 primitive gaussians,   185 cartesian basis functions
     8 alpha electrons        8 beta electrons
       nuclear repulsion energy        31.5673953178 Hartrees.
 NAtoms=    5 NActive=    5 NUniq=    5 SFac= 1.00D+00 NAtFMM=   60 NAOKFM=F Big=F
 Integral buffers will be    131072 words long.
 Raffenetti 1 integral format.
 Two-electron integral symmetry is turned on.
 One-electron integrals computed using PRISM.
 NBasis=   161 RedAO= T EigKep=  5.29D-05  NBF=   108    53
 NBsUse=   161 1.00D-06 EigRej= -1.00D+00 NBFU=   108    53
 Initial guess from the checkpoint file:  "/scr/Gau-12371.chk"
 B after Tr=    -0.000000   -0.000000    0.000000
         Rot=    0.999932    0.000000    0.000000    0.011698 Ang=   1.34 deg.
 Initial guess orbital symmetries:
       Occupied  (A') (A') (A') (A') (A') (A') (A') (A")
       Virtual   (A') (A') (A') (A") (A') (A") (A') (A') (A') (A')
                 (A") (A') (A') (A") (A') (A') (A') (A") (A") (A')
                 (A') (A') (A") (A') (A') (A') (A") (A') (A') (A')
                 (A') (A") (A') (A") (A') (A") (A') (A') (A') (A")
                 (A') (A") (A') (A') (A') (A") (A") (A') (A') (A')
                 (A") (A') (A") (A') (A') (A") (A') (A") (A') (A')
                 (A") (A') (A') (A") (A') (A") (A') (A') (A") (A')
                 (A") (A') (A") (A') (A') (A') (A") (A') (A") (A')
                 (A') (A") (A') (A') (A") (A') (A") (A') (A') (A')
                 (A') (A") (A') (A') (A") (A') (A') (A") (A') (A")
                 (A') (A") (A") (A") (A') (A') (A') (A') (A') (A')
                 (A") (A') (A") (A') (A') (A") (A') (A") (A') (A')
                 (A") (A') (A") (A') (A") (A") (A') (A') (A') (A')
                 (A") (A') (A") (A') (A") (A') (A") (A") (A') (A')
                 (A") (A') (A') (A') (A") (A') (A') (A') (A') (A')
                 (A') (A') (A')
 ExpMin= 2.53D-02 ExpMax= 1.14D+04 ExpMxC= 3.89D+02 IAcc=3 IRadAn=         5 AccDes= 0.00D+00
 Harris functional with IExCor=  205 and IRadAn=       5 diagonalized for initial guess.
 HarFok:  IExCor=  205 AccDes= 0.00D+00 IRadAn=         5 IDoV= 1 UseB2=F ITyADJ=14
 ICtDFT=  3500011 ScaDFX=  1.000000  1.000000  1.000000  1.000000
 FoFCou: FMM=F IPFlag=           0 FMFlag=      100000 FMFlg1=           0
         NFxFlg=           0 DoJE=T BraDBF=F KetDBF=T FulRan=T
         wScrn=  0.000000 ICntrl=       500 IOpCl=  0 I1Cent=   200000004 NGrid=           0
         NMat0=    1 NMatS0=      1 NMatT0=    0 NMatD0=    1 NMtDS0=    0 NMtDT0=    0
 Petite list used in FoFCou.
 Keep R1 ints in memory in symmetry-blocked form, NReq=128227886.
 Requested convergence on RMS density matrix=1.00D-08 within 128 cycles.
 Requested convergence on MAX density matrix=1.00D-06.
 Requested convergence on             energy=1.00D-06.
 No special actions if energy rises.
 SCF Done:  E(RHF) =  -94.0480945687     A.U. after   11 cycles
            NFock= 11  Conv=0.31D-08     -V/T= 2.0041
 ExpMin= 2.53D-02 ExpMax= 1.14D+04 ExpMxC= 3.89D+02 IAcc=3 IRadAn=         5 AccDes= 0.00D+00
 HarFok:  IExCor=  205 AccDes= 0.00D+00 IRadAn=         5 IDoV=-2 UseB2=F ITyADJ=14
 ICtDFT= 12500011 ScaDFX=  1.000000  1.000000  1.000000  1.000000
 Range of M.O.s used for correlation:     3   161
 NBasis=   161 NAE=     8 NBE=     8 NFC=     2 NFV=     0
 NROrb=    159 NOA=     6 NOB=     6 NVA=   153 NVB=   153

 **** Warning!!: The largest alpha MO coefficient is  0.37733955D+02

 Fully direct method using O(ONN) memory.
 JobTyp=1 Pass  1:  I=   3 to   8 NPSUse= 40 ParTrn=T ParDer=T DoDerP=T.
 Spin components of T(2) and E(2):
     alpha-alpha T2 =       0.1523458426D-01 E2=     -0.4390153105D-01
     alpha-beta  T2 =       0.9837202109D-01 E2=     -0.2979945199D+00
     beta-beta   T2 =       0.1523458426D-01 E2=     -0.4390153105D-01
 ANorm=    0.1062469383D+01
 E2 =    -0.3857975820D+00 EUMP2 =    -0.94433892150680D+02
          IDoAtm=11111
          Differentiating once with respect to electric field.
                with respect to dipole field.
          Differentiating once with respect to nuclear coordinates.
 Keep R1 ints in memory in symmetry-blocked form, NReq=128228996.
          There are     1 degrees of freedom in the 1st order CPHF.  IDoFFX=0 NUNeed=     1.
 LinEq1:  Iter=  0 NonCon=     1 RMS=4.48D-03 Max=5.78D-02 NDo=     1
 AX will form     1 AO Fock derivatives at one time.
 LinEq1:  Iter=  1 NonCon=     1 RMS=1.21D-03 Max=8.37D-03 NDo=     1
 LinEq1:  Iter=  2 NonCon=     1 RMS=3.02D-04 Max=4.29D-03 NDo=     1
 LinEq1:  Iter=  3 NonCon=     1 RMS=7.68D-05 Max=1.05D-03 NDo=     1
 LinEq1:  Iter=  4 NonCon=     1 RMS=4.06D-05 Max=5.53D-04 NDo=     1
 LinEq1:  Iter=  5 NonCon=     1 RMS=8.02D-06 Max=7.78D-05 NDo=     1
 LinEq1:  Iter=  6 NonCon=     1 RMS=1.69D-06 Max=1.84D-05 NDo=     1
 LinEq1:  Iter=  7 NonCon=     1 RMS=3.66D-07 Max=4.12D-06 NDo=     1
 LinEq1:  Iter=  8 NonCon=     1 RMS=7.90D-08 Max=6.88D-07 NDo=     1
 LinEq1:  Iter=  9 NonCon=     1 RMS=1.68D-08 Max=1.53D-07 NDo=     1
 LinEq1:  Iter= 10 NonCon=     1 RMS=2.39D-09 Max=1.53D-08 NDo=     1
 LinEq1:  Iter= 11 NonCon=     1 RMS=3.10D-10 Max=2.40D-09 NDo=     1
 LinEq1:  Iter= 12 NonCon=     0 RMS=3.76D-11 Max=3.01D-10 NDo=     1
 Linear equations converged to 1.000D-10 1.000D-09 after    12 iterations.
 End of Minotr F.D. properties file   721 does not exist.
 End of Minotr F.D. properties file   722 does not exist.
 End of Minotr F.D. properties file   788 does not exist.
 Calling FoFJK, ICntrl=  10002127 FMM=F ISym2X=1 I1Cent= 0 IOpClX= 0 NMat=1 NMatS=1 NMatT=0.
 ***** Axes restored to original set *****
 -------------------------------------------------------------------
 Center     Atomic                   Forces (Hartrees/Bohr)
 Number     Number              X              Y              Z
 -------------------------------------------------------------------
      1        6           0.119187097   -0.006172445    0.004800417
      2        7          -0.095989939    0.019476163   -0.015146974
      3        1          -0.012137498   -0.012005584    0.009336972
      4        1          -0.007733159    0.012669361   -0.009853203
      5        1          -0.003326502   -0.013967495    0.010862787
 -------------------------------------------------------------------
 Cartesian Forces:  Max     0.119187097 RMS     0.040914314

 GradGradGradGradGradGradGradGradGradGradGradGradGradGradGradGradGradGrad
 Berny optimization.
 Using GEDIIS/GDIIS optimizer.
 FormGI is forming the generalized inverse of G from B-inverse, IUseBI=4.
 Internal  Forces:  Max     0.098912667 RMS     0.031804795
 Search for a local minimum.
 Step number   2 out of a maximum of   21
 All quantities printed in internal units (Hartrees-Bohrs-Radians)
 Mixed Optimization -- RFO/linear search
 Update second derivatives using D2CorX and points    1    2
 DE= -4.28D-02 DEPred=-3.96D-02 R= 1.08D+00
 TightC=F SS=  1.41D+00  RLast= 3.00D-01 DXNew= 5.0454D-01 9.0000D-01
 Trust test= 1.08D+00 RLast= 3.00D-01 DXMaxT set to 5.05D-01
 The second derivative matrix:
                          R1        R2        R3        R4        A1
           R1           0.22177
           R2           0.00824   0.42837
           R3           0.00892   0.00265   0.42664
           R4           0.00525   0.00369   0.00281   0.50890
           A1           0.00601  -0.00149  -0.00135  -0.00124   0.15976
           A2           0.00977  -0.00568  -0.00481  -0.00512   0.00028
           A3          -0.01579   0.00717   0.00616   0.00636  -0.00004
           A4           0.01577  -0.01244  -0.01037  -0.01140   0.00113
           D1          -0.00000   0.00000   0.00000   0.00000   0.00000
           D2           0.00000  -0.00000  -0.00000  -0.00000  -0.00000
           D3          -0.00000   0.00000   0.00000   0.00000   0.00000
                          A2        A3        A4        D1        D2
           A2           0.16396
           A3          -0.00424   0.16428
           A4           0.00992  -0.01104   0.18412
           D1          -0.00000   0.00000  -0.00000   0.00230
           D2           0.00000  -0.00000   0.00000   0.00000   0.00230
           D3          -0.00000   0.00000  -0.00000  -0.00000   0.00000
                          D3
           D3           0.01002
 ITU=  1  0
 Use linear search instead of GDIIS.
     Eigenvalues ---    0.00230   0.00757   0.15685   0.16000   0.17865
     Eigenvalues ---    0.23555   0.42475   0.43201   0.51000
 RFO step:  Lambda=-5.71551595D-03 EMin= 2.30000000D-03
 Quartic linear search produced a step of  0.75313.
 Iteration  1 RMS(Cart)=  0.04765536 RMS(Int)=  0.02417855
 Iteration  2 RMS(Cart)=  0.02579441 RMS(Int)=  0.00005638
 Iteration  3 RMS(Cart)=  0.00004943 RMS(Int)=  0.00000001
 Iteration  4 RMS(Cart)=  0.00000000 RMS(Int)=  0.00000001
 ClnCor:  largest displacement from symmetrization is 9.62D-08 for atom     5.
 Variable       Old X    -DE/DX   Delta X   Delta X   Delta X     New X
                                 (Linear)    (Quad)   (Total)
    R1        2.61220  -0.09891  -0.19150  -0.08862  -0.28012   2.33208
    R2        2.00151   0.01915   0.03864  -0.00509   0.03355   2.03506
    R3        1.99623   0.01776   0.03467  -0.00221   0.03246   2.02868
    R4        1.89688   0.01462   0.02744  -0.00559   0.02185   1.91873
    A1        2.11063   0.00553   0.01223   0.01743   0.02966   2.14029
    A2        2.05486  -0.00417  -0.02977   0.05580   0.02602   2.08088
    A3        2.11769  -0.00136   0.01754  -0.07322  -0.05568   2.06201
    A4        1.96440  -0.01994  -0.09790   0.11760   0.01970   1.98410
    D1        0.00000   0.00000  -0.00000  -0.00000  -0.00000   0.00000
    D2       -3.14159   0.00000   0.00000  -0.00000  -0.00000   3.14159
    D3        3.14159   0.00000   0.00000  -0.00000   0.00000   3.14159
         Item               Value     Threshold  Converged?
 Maximum Force            0.098913     0.000450     NO 
 RMS     Force            0.031805     0.000300     NO 
 Maximum Displacement     0.154483     0.001800     NO 
 RMS     Displacement     0.072139     0.001200     NO 
 Predicted change in Energy=-1.996041D-02
 GradGradGradGradGradGradGradGradGradGradGradGradGradGradGradGradGradGrad

                          Input orientation:                          
 ---------------------------------------------------------------------
 Center     Atomic      Atomic             Coordinates (Angstroms)
 Number     Number       Type             X           Y           Z
 ---------------------------------------------------------------------
      1          6           0       -0.226865   -0.556713    0.005966
      2          7           0        1.005456   -0.504668   -0.034510
      3          1           0       -0.758258   -1.296097    0.580999
      4          1           0       -0.800327    0.159669   -0.551178
      5          1           0        1.462354   -1.220425    0.522148
 ---------------------------------------------------------------------
                    Distance matrix (angstroms):
                    1          2          3          4          5
     1  C    0.000000
     2  N    1.234083   0.000000
     3  H    1.076907   2.028767   0.000000
     4  H    1.073533   1.992271   1.844681   0.000000
     5  H    1.886907   1.015348   2.222681   2.859443   0.000000
 Stoichiometry    CH3N
 Framework group  CS[SG(CH3N)]
 Deg. of freedom     7
 Full point group                 CS      NOp   2
 Largest Abelian subgroup         CS      NOp   2
 Largest concise Abelian subgroup C1      NOp   1
                         Standard orientation:                         
 ---------------------------------------------------------------------
 Center     Atomic      Atomic             Coordinates (Angstroms)
 Number     Number       Type             X           Y           Z
 ---------------------------------------------------------------------
      1          6           0        0.056245    0.573477   -0.000000
      2          7           0        0.056245   -0.660606    0.000000
      3          1           0       -0.850696    1.154154    0.000000
      4          1           0        0.993119    1.097634   -0.000000
      5          1           0       -0.873609   -1.068409    0.000000
 ---------------------------------------------------------------------
 Rotational constants (GHZ):         204.0264159          36.6307795          31.0551556
 Standard basis: Aug-CC-pVTZ (5D, 7F)
 There are   128 symmetry adapted cartesian basis functions of A'  symmetry.
 There are    57 symmetry adapted cartesian basis functions of A"  symmetry.
 There are   108 symmetry adapted basis functions of A'  symmetry.
 There are    53 symmetry adapted basis functions of A"  symmetry.
   161 basis functions,   225 primitive gaussians,   185 cartesian basis functions
     8 alpha electrons        8 beta electrons
       nuclear repulsion energy        33.6416774166 Hartrees.
 NAtoms=    5 NActive=    5 NUniq=    5 SFac= 1.00D+00 NAtFMM=   60 NAOKFM=F Big=F
 Integral buffers will be    131072 words long.
 Raffenetti 1 integral format.
 Two-electron integral symmetry is turned on.
 One-electron integrals computed using PRISM.
 NBasis=   161 RedAO= T EigKep=  4.71D-05  NBF=   108    53
 NBsUse=   161 1.00D-06 EigRej= -1.00D+00 NBFU=   108    53
 Initial guess from the checkpoint file:  "/scr/Gau-12371.chk"
 B after Tr=    -0.000000    0.000000   -0.000000
         Rot=    0.999997   -0.000000   -0.000000    0.002368 Ang=   0.27 deg.
 Initial guess orbital symmetries:
       Occupied  (A') (A') (A') (A') (A') (A') (A') (A")
       Virtual   (A') (A') (A') (A") (A') (A") (A') (A') (A') (A')
                 (A") (A') (A") (A') (A') (A') (A') (A") (A") (A')
                 (A') (A') (A") (A') (A') (A') (A") (A') (A') (A')
                 (A") (A') (A') (A") (A') (A") (A') (A') (A') (A")
                 (A') (A') (A") (A') (A') (A") (A') (A") (A') (A")
                 (A') (A') (A") (A') (A') (A") (A') (A") (A') (A')
                 (A") (A') (A') (A') (A") (A") (A') (A') (A') (A")
                 (A") (A') (A") (A') (A') (A') (A") (A') (A") (A')
                 (A') (A") (A') (A') (A") (A') (A') (A") (A') (A')
                 (A") (A') (A') (A') (A") (A') (A') (A") (A') (A")
                 (A') (A") (A") (A') (A") (A') (A') (A') (A') (A')
                 (A') (A") (A") (A') (A") (A') (A") (A') (A') (A")
                 (A') (A') (A") (A") (A') (A') (A") (A') (A') (A')
                 (A') (A") (A") (A') (A") (A') (A") (A') (A") (A')
                 (A') (A") (A') (A') (A") (A') (A') (A') (A') (A')
                 (A') (A') (A')
 ExpMin= 2.53D-02 ExpMax= 1.14D+04 ExpMxC= 3.89D+02 IAcc=3 IRadAn=         5 AccDes= 0.00D+00
 Harris functional with IExCor=  205 and IRadAn=       5 diagonalized for initial guess.
 HarFok:  IExCor=  205 AccDes= 0.00D+00 IRadAn=         5 IDoV= 1 UseB2=F ITyADJ=14
 ICtDFT=  3500011 ScaDFX=  1.000000  1.000000  1.000000  1.000000
 FoFCou: FMM=F IPFlag=           0 FMFlag=      100000 FMFlg1=           0
         NFxFlg=           0 DoJE=T BraDBF=F KetDBF=T FulRan=T
         wScrn=  0.000000 ICntrl=       500 IOpCl=  0 I1Cent=   200000004 NGrid=           0
         NMat0=    1 NMatS0=      1 NMatT0=    0 NMatD0=    1 NMtDS0=    0 NMtDT0=    0
 Petite list used in FoFCou.
 Keep R1 ints in memory in symmetry-blocked form, NReq=128227886.
 Requested convergence on RMS density matrix=1.00D-08 within 128 cycles.
 Requested convergence on MAX density matrix=1.00D-06.
 Requested convergence on             energy=1.00D-06.
 No special actions if energy rises.
 SCF Done:  E(RHF) =  -94.0699864033     A.U. after   10 cycles
            NFock= 10  Conv=0.35D-08     -V/T= 2.0000
 ExpMin= 2.53D-02 ExpMax= 1.14D+04 ExpMxC= 3.89D+02 IAcc=3 IRadAn=         5 AccDes= 0.00D+00
 HarFok:  IExCor=  205 AccDes= 0.00D+00 IRadAn=         5 IDoV=-2 UseB2=F ITyADJ=14
 ICtDFT= 12500011 ScaDFX=  1.000000  1.000000  1.000000  1.000000
 Range of M.O.s used for correlation:     3   161
 NBasis=   161 NAE=     8 NBE=     8 NFC=     2 NFV=     0
 NROrb=    159 NOA=     6 NOB=     6 NVA=   153 NVB=   153

 **** Warning!!: The largest alpha MO coefficient is  0.41833845D+02

 Fully direct method using O(ONN) memory.
 JobTyp=1 Pass  1:  I=   3 to   8 NPSUse= 40 ParTrn=T ParDer=T DoDerP=T.
 Spin components of T(2) and E(2):
     alpha-alpha T2 =       0.1356892485D-01 E2=     -0.4254928050D-01
     alpha-beta  T2 =       0.8756084670D-01 E2=     -0.2888186255D+00
     beta-beta   T2 =       0.1356892485D-01 E2=     -0.4254928050D-01
 ANorm=    0.1055792923D+01
 E2 =    -0.3739171865D+00 EUMP2 =    -0.94443903589866D+02
          IDoAtm=11111
          Differentiating once with respect to electric field.
                with respect to dipole field.
          Differentiating once with respect to nuclear coordinates.
 Keep R1 ints in memory in symmetry-blocked form, NReq=128228996.
          There are     1 degrees of freedom in the 1st order CPHF.  IDoFFX=0 NUNeed=     1.
 LinEq1:  Iter=  0 NonCon=     1 RMS=3.59D-03 Max=3.37D-02 NDo=     1
 AX will form     1 AO Fock derivatives at one time.
 LinEq1:  Iter=  1 NonCon=     1 RMS=9.64D-04 Max=7.79D-03 NDo=     1
 LinEq1:  Iter=  2 NonCon=     1 RMS=2.45D-04 Max=3.11D-03 NDo=     1
 LinEq1:  Iter=  3 NonCon=     1 RMS=4.45D-05 Max=3.38D-04 NDo=     1
 LinEq1:  Iter=  4 NonCon=     1 RMS=1.21D-05 Max=2.06D-04 NDo=     1
 LinEq1:  Iter=  5 NonCon=     1 RMS=4.89D-06 Max=3.95D-05 NDo=     1
 LinEq1:  Iter=  6 NonCon=     1 RMS=1.56D-06 Max=2.09D-05 NDo=     1
 LinEq1:  Iter=  7 NonCon=     1 RMS=2.52D-07 Max=2.24D-06 NDo=     1
 LinEq1:  Iter=  8 NonCon=     1 RMS=4.66D-08 Max=2.88D-07 NDo=     1
 LinEq1:  Iter=  9 NonCon=     1 RMS=6.10D-09 Max=4.22D-08 NDo=     1
 LinEq1:  Iter= 10 NonCon=     1 RMS=9.34D-10 Max=8.49D-09 NDo=     1
 LinEq1:  Iter= 11 NonCon=     1 RMS=1.24D-10 Max=8.71D-10 NDo=     1
 LinEq1:  Iter= 12 NonCon=     0 RMS=1.62D-11 Max=1.34D-10 NDo=     1
 Linear equations converged to 1.000D-10 1.000D-09 after    12 iterations.
 End of Minotr F.D. properties file   721 does not exist.
 End of Minotr F.D. properties file   722 does not exist.
 End of Minotr F.D. properties file   788 does not exist.
 Calling FoFJK, ICntrl=  10002127 FMM=F ISym2X=1 I1Cent= 0 IOpClX= 0 NMat=1 NMatS=1 NMatT=0.
 ***** Axes restored to original set *****
 -------------------------------------------------------------------
 Center     Atomic                   Forces (Hartrees/Bohr)
 Number     Number              X              Y              Z
 -------------------------------------------------------------------
      1        6          -0.044339036   -0.007709633    0.005995932
      2        7           0.062287201    0.010032027   -0.007802104
      3        1          -0.009702025   -0.005349335    0.004160280
      4        1          -0.005995041    0.005614508   -0.004366509
      5        1          -0.002251099   -0.002587568    0.002012401
 -------------------------------------------------------------------
 Cartesian Forces:  Max     0.062287201 RMS     0.020566874

 GradGradGradGradGradGradGradGradGradGradGradGradGradGradGradGradGradGrad
 Berny optimization.
 Using GEDIIS/GDIIS optimizer.
 FormGI is forming the generalized inverse of G from B-inverse, IUseBI=4.
 Internal  Forces:  Max     0.060454212 RMS     0.018974640
 Search for a local minimum.
 Step number   3 out of a maximum of   21
 All quantities printed in internal units (Hartrees-Bohrs-Radians)
 Mixed Optimization -- RFO/linear search
 Update second derivatives using D2CorX and points    1    2    3
 DE= -1.00D-02 DEPred=-2.00D-02 R= 5.02D-01
 TightC=F SS=  1.41D+00  RLast= 2.94D-01 DXNew= 8.4853D-01 8.8064D-01
 Trust test= 5.02D-01 RLast= 2.94D-01 DXMaxT set to 8.49D-01
 The second derivative matrix:
                          R1        R2        R3        R4        A1
           R1           0.58865
           R2           0.01582   0.41860
           R3           0.01432  -0.00609   0.41883
           R4          -0.00994  -0.00289  -0.00300   0.50554
           A1           0.01804  -0.00366  -0.00334  -0.00323   0.15953
           A2           0.02433  -0.00485  -0.00414  -0.00532   0.00079
           A3          -0.04237   0.00851   0.00748   0.00856  -0.00031
           A4           0.06190  -0.00882  -0.00736  -0.01147   0.00307
           D1           0.00000   0.00000   0.00000   0.00000   0.00000
           D2          -0.00000   0.00000   0.00000   0.00000  -0.00000
           D3           0.00000   0.00000   0.00000   0.00000  -0.00000
                          A2        A3        A4        D1        D2
           A2           0.16427
           A3          -0.00506   0.16537
           A4           0.01108  -0.01415   0.18804
           D1          -0.00000   0.00000  -0.00000   0.00230
           D2           0.00000  -0.00000   0.00000   0.00000   0.00230
           D3          -0.00000   0.00000  -0.00000  -0.00000   0.00000
                          D3
           D3           0.01002
 ITU=  1  1  0
 Use linear search instead of GDIIS.
     Eigenvalues ---    0.00230   0.00741   0.15640   0.16004   0.18210
     Eigenvalues ---    0.41302   0.42481   0.50448   0.60798
 RFO step:  Lambda=-2.13675739D-03 EMin= 2.30000000D-03
 Quartic linear search produced a step of -0.26155.
 Iteration  1 RMS(Cart)=  0.03178797 RMS(Int)=  0.00062525
 Iteration  2 RMS(Cart)=  0.00063732 RMS(Int)=  0.00000017
 Iteration  3 RMS(Cart)=  0.00000014 RMS(Int)=  0.00000000
 ClnCor:  largest displacement from symmetrization is 5.60D-08 for atom     2.
 Variable       Old X    -DE/DX   Delta X   Delta X   Delta X     New X
                                 (Linear)    (Quad)   (Total)
    R1        2.33208   0.06045   0.07327   0.00795   0.08122   2.41330
    R2        2.03506   0.01068  -0.00878   0.03499   0.02622   2.06128
    R3        2.02868   0.00922  -0.00849   0.03153   0.02304   2.05173
    R4        1.91873   0.00191  -0.00572   0.01281   0.00710   1.92583
    A1        2.14029   0.00605  -0.00776   0.04732   0.03956   2.17985
    A2        2.08088  -0.00174  -0.00681  -0.00370  -0.01051   2.07038
    A3        2.06201  -0.00431   0.01456  -0.04362  -0.02906   2.03295
    A4        1.98410  -0.00669  -0.00515  -0.05107  -0.05623   1.92787
    D1       -0.00000   0.00000   0.00000  -0.00000   0.00000   0.00000
    D2        3.14159   0.00000   0.00000  -0.00000  -0.00000   3.14159
    D3        3.14159   0.00000   0.00000  -0.00000   0.00000   3.14159
         Item               Value     Threshold  Converged?
 Maximum Force            0.060454     0.000450     NO 
 RMS     Force            0.018975     0.000300     NO 
 Maximum Displacement     0.075854     0.001800     NO 
 RMS     Displacement     0.031736     0.001200     NO 
 Predicted change in Energy=-3.576380D-03
 GradGradGradGradGradGradGradGradGradGradGradGradGradGradGradGradGradGrad

                          Input orientation:                          
 ---------------------------------------------------------------------
 Center     Atomic      Atomic             Coordinates (Angstroms)
 Number     Number       Type             X           Y           Z
 ---------------------------------------------------------------------
      1          6           0       -0.228375   -0.561851    0.009962
      2          7           0        1.045596   -0.491764   -0.044546
      3          1           0       -0.788694   -1.300600    0.584501
      4          1           0       -0.813504    0.160083   -0.551500
      5          1           0        1.467335   -1.224102    0.525007
 ---------------------------------------------------------------------
                    Distance matrix (angstroms):
                    1          2          3          4          5
     1  C    0.000000
     2  N    1.277061   0.000000
     3  H    1.090781   2.101080   0.000000
     4  H    1.085727   2.034246   1.850597   0.000000
     5  H    1.891898   1.019104   2.258109   2.876987   0.000000
 Stoichiometry    CH3N
 Framework group  CS[SG(CH3N)]
 Deg. of freedom     7
 Full point group                 CS      NOp   2
 Largest Abelian subgroup         CS      NOp   2
 Largest concise Abelian subgroup C1      NOp   1
                         Standard orientation:                         
 ---------------------------------------------------------------------
 Center     Atomic      Atomic             Coordinates (Angstroms)
 Number     Number       Type             X           Y           Z
 ---------------------------------------------------------------------
      1          6           0        0.056027    0.589284    0.000000
      2          7           0        0.056027   -0.687777    0.000000
      3          1           0       -0.838618    1.213314    0.000000
      4          1           0        1.009060    1.109411    0.000000
      5          1           0       -0.898794   -1.043993    0.000000
 ---------------------------------------------------------------------
 Rotational constants (GHZ):         198.9895698          34.5418305          29.4327186
 Standard basis: Aug-CC-pVTZ (5D, 7F)
 There are   128 symmetry adapted cartesian basis functions of A'  symmetry.
 There are    57 symmetry adapted cartesian basis functions of A"  symmetry.
 There are   108 symmetry adapted basis functions of A'  symmetry.
 There are    53 symmetry adapted basis functions of A"  symmetry.
   161 basis functions,   225 primitive gaussians,   185 cartesian basis functions
     8 alpha electrons        8 beta electrons
       nuclear repulsion energy        32.8400024899 Hartrees.
 NAtoms=    5 NActive=    5 NUniq=    5 SFac= 1.00D+00 NAtFMM=   60 NAOKFM=F Big=F
 Integral buffers will be    131072 words long.
 Raffenetti 1 integral format.
 Two-electron integral symmetry is turned on.
 One-electron integrals computed using PRISM.
 NBasis=   161 RedAO= T EigKep=  4.99D-05  NBF=   108    53
 NBsUse=   161 1.00D-06 EigRej= -1.00D+00 NBFU=   108    53
 Initial guess from the checkpoint file:  "/scr/Gau-12371.chk"
 B after Tr=     0.000000    0.000000    0.000000
         Rot=    0.999985   -0.000000   -0.000000    0.005396 Ang=   0.62 deg.
 Initial guess orbital symmetries:
       Occupied  (A') (A') (A') (A') (A') (A') (A") (A')
       Virtual   (A') (A') (A') (A") (A') (A') (A") (A') (A') (A')
                 (A") (A') (A") (A') (A') (A') (A') (A") (A') (A")
                 (A') (A') (A') (A") (A') (A') (A") (A') (A') (A")
                 (A') (A') (A') (A") (A') (A") (A') (A') (A') (A')
                 (A") (A') (A") (A') (A") (A') (A") (A') (A') (A")
                 (A') (A") (A') (A') (A') (A") (A') (A") (A') (A')
                 (A") (A') (A') (A') (A") (A") (A') (A') (A') (A")
                 (A") (A') (A") (A') (A') (A') (A") (A') (A") (A')
                 (A') (A") (A') (A') (A') (A") (A') (A') (A") (A')
                 (A") (A') (A') (A') (A") (A') (A') (A") (A') (A")
                 (A') (A") (A') (A") (A') (A") (A') (A') (A') (A')
                 (A") (A') (A') (A") (A") (A') (A") (A') (A') (A')
                 (A") (A") (A') (A") (A') (A') (A") (A') (A') (A')
                 (A") (A') (A") (A') (A") (A') (A') (A") (A") (A')
                 (A') (A') (A") (A") (A') (A') (A') (A') (A') (A')
                 (A') (A') (A')
 ExpMin= 2.53D-02 ExpMax= 1.14D+04 ExpMxC= 3.89D+02 IAcc=3 IRadAn=         5 AccDes= 0.00D+00
 Harris functional with IExCor=  205 and IRadAn=       5 diagonalized for initial guess.
 HarFok:  IExCor=  205 AccDes= 0.00D+00 IRadAn=         5 IDoV= 1 UseB2=F ITyADJ=14
 ICtDFT=  3500011 ScaDFX=  1.000000  1.000000  1.000000  1.000000
 FoFCou: FMM=F IPFlag=           0 FMFlag=      100000 FMFlg1=           0
         NFxFlg=           0 DoJE=T BraDBF=F KetDBF=T FulRan=T
         wScrn=  0.000000 ICntrl=       500 IOpCl=  0 I1Cent=   200000004 NGrid=           0
         NMat0=    1 NMatS0=      1 NMatT0=    0 NMatD0=    1 NMtDS0=    0 NMtDT0=    0
 Petite list used in FoFCou.
 Keep R1 ints in memory in symmetry-blocked form, NReq=128227886.
 Requested convergence on RMS density matrix=1.00D-08 within 128 cycles.
 Requested convergence on MAX density matrix=1.00D-06.
 Requested convergence on             energy=1.00D-06.
 No special actions if energy rises.
 SCF Done:  E(RHF) =  -94.0689794665     A.U. after   10 cycles
            NFock= 10  Conv=0.51D-08     -V/T= 2.0022
 ExpMin= 2.53D-02 ExpMax= 1.14D+04 ExpMxC= 3.89D+02 IAcc=3 IRadAn=         5 AccDes= 0.00D+00
 HarFok:  IExCor=  205 AccDes= 0.00D+00 IRadAn=         5 IDoV=-2 UseB2=F ITyADJ=14
 ICtDFT= 12500011 ScaDFX=  1.000000  1.000000  1.000000  1.000000
 Range of M.O.s used for correlation:     3   161
 NBasis=   161 NAE=     8 NBE=     8 NFC=     2 NFV=     0
 NROrb=    159 NOA=     6 NOB=     6 NVA=   153 NVB=   153

 **** Warning!!: The largest alpha MO coefficient is  0.40806208D+02

 Fully direct method using O(ONN) memory.
 JobTyp=1 Pass  1:  I=   3 to   8 NPSUse= 40 ParTrn=T ParDer=T DoDerP=T.
 Spin components of T(2) and E(2):
     alpha-alpha T2 =       0.1409403182D-01 E2=     -0.4296369534D-01
     alpha-beta  T2 =       0.9112072200D-01 E2=     -0.2918953333D+00
     beta-beta   T2 =       0.1409403182D-01 E2=     -0.4296369534D-01
 ANorm=    0.1057973906D+01
 E2 =    -0.3778227239D+00 EUMP2 =    -0.94446802190428D+02
          IDoAtm=11111
          Differentiating once with respect to electric field.
                with respect to dipole field.
          Differentiating once with respect to nuclear coordinates.
 Keep R1 ints in memory in symmetry-blocked form, NReq=128228996.
          There are     1 degrees of freedom in the 1st order CPHF.  IDoFFX=0 NUNeed=     1.
 LinEq1:  Iter=  0 NonCon=     1 RMS=3.84D-03 Max=4.08D-02 NDo=     1
 AX will form     1 AO Fock derivatives at one time.
 LinEq1:  Iter=  1 NonCon=     1 RMS=1.04D-03 Max=8.40D-03 NDo=     1
 LinEq1:  Iter=  2 NonCon=     1 RMS=2.57D-04 Max=3.09D-03 NDo=     1
 LinEq1:  Iter=  3 NonCon=     1 RMS=4.57D-05 Max=4.49D-04 NDo=     1
 LinEq1:  Iter=  4 NonCon=     1 RMS=9.67D-06 Max=9.12D-05 NDo=     1
 LinEq1:  Iter=  5 NonCon=     1 RMS=5.47D-06 Max=1.08D-04 NDo=     1
 LinEq1:  Iter=  6 NonCon=     1 RMS=1.47D-06 Max=1.53D-05 NDo=     1
 LinEq1:  Iter=  7 NonCon=     1 RMS=2.88D-07 Max=2.71D-06 NDo=     1
 LinEq1:  Iter=  8 NonCon=     1 RMS=5.64D-08 Max=4.37D-07 NDo=     1
 LinEq1:  Iter=  9 NonCon=     1 RMS=9.18D-09 Max=8.18D-08 NDo=     1
 LinEq1:  Iter= 10 NonCon=     1 RMS=1.55D-09 Max=1.15D-08 NDo=     1
 LinEq1:  Iter= 11 NonCon=     1 RMS=2.07D-10 Max=1.64D-09 NDo=     1
 LinEq1:  Iter= 12 NonCon=     0 RMS=2.46D-11 Max=1.85D-10 NDo=     1
 Linear equations converged to 1.000D-10 1.000D-09 after    12 iterations.
 End of Minotr F.D. properties file   721 does not exist.
 End of Minotr F.D. properties file   722 does not exist.
 End of Minotr F.D. properties file   788 does not exist.
 Calling FoFJK, ICntrl=  10002127 FMM=F ISym2X=1 I1Cent= 0 IOpClX= 0 NMat=1 NMatS=1 NMatT=0.
 ***** Axes restored to original set *****
 -------------------------------------------------------------------
 Center     Atomic                   Forces (Hartrees/Bohr)
 Number     Number              X              Y              Z
 -------------------------------------------------------------------
      1        6           0.000174009   -0.000274054    0.000213137
      2        7          -0.001489767    0.001158703   -0.000901145
      3        1           0.001087177   -0.000273460    0.000212675
      4        1           0.000609462    0.000354406   -0.000275628
      5        1          -0.000380881   -0.000965595    0.000750962
 -------------------------------------------------------------------
 Cartesian Forces:  Max     0.001489767 RMS     0.000732177

 GradGradGradGradGradGradGradGradGradGradGradGradGradGradGradGradGradGrad
 Berny optimization.
 Using GEDIIS/GDIIS optimizer.
 FormGI is forming the generalized inverse of G from B-inverse, IUseBI=4.
 Internal  Forces:  Max     0.001849110 RMS     0.000945435
 Search for a local minimum.
 Step number   4 out of a maximum of   21
 All quantities printed in internal units (Hartrees-Bohrs-Radians)
 Mixed Optimization -- En-DIIS/RFO-DIIS
 Update second derivatives using D2CorX and points    1    2    3    4
 DE= -2.90D-03 DEPred=-3.58D-03 R= 8.10D-01
 TightC=F SS=  1.41D+00  RLast= 1.16D-01 DXNew= 1.4270D+00 3.4916D-01
 Trust test= 8.10D-01 RLast= 1.16D-01 DXMaxT set to 8.49D-01
 The second derivative matrix:
                          R1        R2        R3        R4        A1
           R1           0.77598
           R2           0.02043   0.40346
           R3           0.01513  -0.02082   0.40464
           R4          -0.02304  -0.01116  -0.01073   0.50246
           A1           0.02547  -0.01224  -0.01163  -0.00847   0.15532
           A2           0.01735  -0.00903  -0.00766  -0.00683  -0.00095
           A3          -0.04282   0.02127   0.01929   0.01531   0.00564
           A4           0.06241  -0.00485  -0.00310  -0.00910   0.00617
           D1          -0.00000  -0.00000  -0.00000  -0.00000  -0.00000
           D2          -0.00000   0.00000   0.00000   0.00000   0.00000
           D3          -0.00000  -0.00000  -0.00000  -0.00000  -0.00000
                          A2        A3        A4        D1        D2
           A2           0.16533
           A3          -0.00437   0.15874
           A4           0.01370  -0.01986   0.18723
           D1           0.00000   0.00000   0.00000   0.00230
           D2           0.00000  -0.00000  -0.00000   0.00000   0.00230
           D3           0.00000   0.00000   0.00000  -0.00000   0.00000
                          D3
           D3           0.01002
 ITU=  1  1  1  0
 Use linear search instead of GDIIS.
     Eigenvalues ---    0.00230   0.00738   0.13760   0.16012   0.18986
     Eigenvalues ---    0.38754   0.42487   0.50231   0.79084
 RFO step:  Lambda=-2.84797141D-05 EMin= 2.30000000D-03
 Quartic linear search produced a step of -0.02341.
 Iteration  1 RMS(Cart)=  0.00581558 RMS(Int)=  0.00001995
 Iteration  2 RMS(Cart)=  0.00001702 RMS(Int)=  0.00000001
 Iteration  3 RMS(Cart)=  0.00000000 RMS(Int)=  0.00000001
 ClnCor:  largest displacement from symmetrization is 5.61D-09 for atom     1.
 Variable       Old X    -DE/DX   Delta X   Delta X   Delta X     New X
                                 (Linear)    (Quad)   (Total)
    R1        2.41330  -0.00185  -0.00190   0.00068  -0.00122   2.41207
    R2        2.06128  -0.00026  -0.00061  -0.00074  -0.00135   2.05993
    R3        2.05173   0.00005  -0.00054  -0.00001  -0.00055   2.05118
    R4        1.92583   0.00096  -0.00017   0.00148   0.00131   1.92714
    A1        2.17985  -0.00101  -0.00093  -0.00576  -0.00669   2.17317
    A2        2.07038  -0.00027   0.00025  -0.00099  -0.00074   2.06964
    A3        2.03295   0.00128   0.00068   0.00675   0.00743   2.04038
    A4        1.92787  -0.00164   0.00132  -0.00823  -0.00691   1.92096
    D1        0.00000  -0.00000  -0.00000  -0.00000   0.00000   0.00000
    D2        3.14159  -0.00000   0.00000  -0.00000   0.00000   3.14159
    D3       -3.14159  -0.00000  -0.00000  -0.00000  -0.00000  -3.14159
         Item               Value     Threshold  Converged?
 Maximum Force            0.001849     0.000450     NO 
 RMS     Force            0.000945     0.000300     NO 
 Maximum Displacement     0.013024     0.001800     NO 
 RMS     Displacement     0.005820     0.001200     NO 
 Predicted change in Energy=-1.569592D-05
 GradGradGradGradGradGradGradGradGradGradGradGradGradGradGradGradGradGrad

                          Input orientation:                          
 ---------------------------------------------------------------------
 Center     Atomic      Atomic             Coordinates (Angstroms)
 Number     Number       Type             X           Y           Z
 ---------------------------------------------------------------------
      1          6           0       -0.228434   -0.560916    0.009235
      2          7           0        1.044860   -0.490524   -0.045510
      3          1           0       -0.781801   -1.302268    0.585798
      4          1           0       -0.813038    0.161010   -0.552221
      5          1           0        1.460773   -1.225536    0.526122
 ---------------------------------------------------------------------
                    Distance matrix (angstroms):
                    1          2          3          4          5
     1  C    0.000000
     2  N    1.276413   0.000000
     3  H    1.090066   2.096228   0.000000
     4  H    1.085437   2.032988   1.853981   0.000000
     5  H    1.887409   1.019799   2.244680   2.873248   0.000000
 Stoichiometry    CH3N
 Framework group  CS[SG(CH3N)]
 Deg. of freedom     7
 Full point group                 CS      NOp   2
 Largest Abelian subgroup         CS      NOp   2
 Largest concise Abelian subgroup C1      NOp   1
                         Standard orientation:                         
 ---------------------------------------------------------------------
 Center     Atomic      Atomic             Coordinates (Angstroms)
 Number     Number       Type             X           Y           Z
 ---------------------------------------------------------------------
      1          6           0        0.056435    0.589015   -0.000000
      2          7           0        0.056435   -0.687398    0.000000
      3          1           0       -0.841774    1.206643   -0.000000
      4          1           0        1.009597    1.108297   -0.000000
      5          1           0       -0.901478   -1.037243    0.000000
 ---------------------------------------------------------------------
 Rotational constants (GHZ):         198.0283036          34.6460541          29.4871312
 Standard basis: Aug-CC-pVTZ (5D, 7F)
 There are   128 symmetry adapted cartesian basis functions of A'  symmetry.
 There are    57 symmetry adapted cartesian basis functions of A"  symmetry.
 There are   108 symmetry adapted basis functions of A'  symmetry.
 There are    53 symmetry adapted basis functions of A"  symmetry.
   161 basis functions,   225 primitive gaussians,   185 cartesian basis functions
     8 alpha electrons        8 beta electrons
       nuclear repulsion energy        32.8593678858 Hartrees.
 NAtoms=    5 NActive=    5 NUniq=    5 SFac= 1.00D+00 NAtFMM=   60 NAOKFM=F Big=F
 Integral buffers will be    131072 words long.
 Raffenetti 1 integral format.
 Two-electron integral symmetry is turned on.
 One-electron integrals computed using PRISM.
 NBasis=   161 RedAO= T EigKep=  4.97D-05  NBF=   108    53
 NBsUse=   161 1.00D-06 EigRej= -1.00D+00 NBFU=   108    53
 Initial guess from the checkpoint file:  "/scr/Gau-12371.chk"
 B after Tr=    -0.000000    0.000000    0.000000
         Rot=    1.000000   -0.000000   -0.000000    0.000025 Ang=   0.00 deg.
 Initial guess orbital symmetries:
       Occupied  (A') (A') (A') (A') (A') (A') (A") (A')
       Virtual   (A') (A') (A') (A") (A') (A") (A') (A') (A') (A')
                 (A") (A') (A") (A') (A') (A') (A') (A") (A") (A')
                 (A') (A') (A') (A") (A') (A') (A") (A') (A') (A")
                 (A') (A') (A') (A") (A') (A") (A') (A') (A') (A')
                 (A") (A') (A") (A') (A") (A') (A") (A') (A') (A")
                 (A') (A") (A') (A') (A') (A") (A') (A") (A') (A')
                 (A") (A') (A') (A") (A') (A") (A') (A') (A') (A")
                 (A") (A') (A") (A') (A') (A') (A") (A') (A") (A')
                 (A') (A") (A') (A') (A') (A") (A') (A') (A") (A')
                 (A") (A') (A') (A') (A") (A') (A') (A") (A') (A")
                 (A') (A") (A') (A") (A') (A") (A') (A') (A') (A')
                 (A") (A') (A') (A") (A") (A') (A") (A') (A') (A')
                 (A") (A') (A") (A") (A') (A') (A") (A') (A') (A')
                 (A") (A") (A') (A') (A") (A') (A') (A") (A') (A")
                 (A') (A") (A') (A") (A') (A') (A') (A') (A') (A')
                 (A') (A') (A')
 Keep R1 ints in memory in symmetry-blocked form, NReq=128227886.
 Requested convergence on RMS density matrix=1.00D-08 within 128 cycles.
 Requested convergence on MAX density matrix=1.00D-06.
 Requested convergence on             energy=1.00D-06.
 No special actions if energy rises.
 SCF Done:  E(RHF) =  -94.0690369731     A.U. after    9 cycles
            NFock=  9  Conv=0.22D-08     -V/T= 2.0021
 ExpMin= 2.53D-02 ExpMax= 1.14D+04 ExpMxC= 3.89D+02 IAcc=3 IRadAn=         5 AccDes= 0.00D+00
 HarFok:  IExCor=  205 AccDes= 0.00D+00 IRadAn=         5 IDoV=-2 UseB2=F ITyADJ=14
 ICtDFT= 12500011 ScaDFX=  1.000000  1.000000  1.000000  1.000000
 Range of M.O.s used for correlation:     3   161
 NBasis=   161 NAE=     8 NBE=     8 NFC=     2 NFV=     0
 NROrb=    159 NOA=     6 NOB=     6 NVA=   153 NVB=   153

 **** Warning!!: The largest alpha MO coefficient is  0.40681746D+02

 Fully direct method using O(ONN) memory.
 JobTyp=1 Pass  1:  I=   3 to   8 NPSUse= 40 ParTrn=T ParDer=T DoDerP=T.
 Spin components of T(2) and E(2):
     alpha-alpha T2 =       0.1408602414D-01 E2=     -0.4296071045D-01
     alpha-beta  T2 =       0.9106557840D-01 E2=     -0.2918627629D+00
     beta-beta   T2 =       0.1408602414D-01 E2=     -0.4296071045D-01
 ANorm=    0.1057940276D+01
 E2 =    -0.3777841838D+00 EUMP2 =    -0.94446821156932D+02
          IDoAtm=11111
          Differentiating once with respect to electric field.
                with respect to dipole field.
          Differentiating once with respect to nuclear coordinates.
 Keep R1 ints in memory in symmetry-blocked form, NReq=128228996.
          There are     1 degrees of freedom in the 1st order CPHF.  IDoFFX=0 NUNeed=     1.
 LinEq1:  Iter=  0 NonCon=     1 RMS=3.83D-03 Max=4.07D-02 NDo=     1
 AX will form     1 AO Fock derivatives at one time.
 LinEq1:  Iter=  1 NonCon=     1 RMS=1.04D-03 Max=8.47D-03 NDo=     1
 LinEq1:  Iter=  2 NonCon=     1 RMS=2.57D-04 Max=3.10D-03 NDo=     1
 LinEq1:  Iter=  3 NonCon=     1 RMS=4.54D-05 Max=4.35D-04 NDo=     1
 LinEq1:  Iter=  4 NonCon=     1 RMS=9.09D-06 Max=8.53D-05 NDo=     1
 LinEq1:  Iter=  5 NonCon=     1 RMS=4.90D-06 Max=9.84D-05 NDo=     1
 LinEq1:  Iter=  6 NonCon=     1 RMS=1.42D-06 Max=1.38D-05 NDo=     1
 LinEq1:  Iter=  7 NonCon=     1 RMS=2.86D-07 Max=2.72D-06 NDo=     1
 LinEq1:  Iter=  8 NonCon=     1 RMS=5.62D-08 Max=4.30D-07 NDo=     1
 LinEq1:  Iter=  9 NonCon=     1 RMS=9.12D-09 Max=8.18D-08 NDo=     1
 LinEq1:  Iter= 10 NonCon=     1 RMS=1.55D-09 Max=1.15D-08 NDo=     1
 LinEq1:  Iter= 11 NonCon=     1 RMS=2.06D-10 Max=1.63D-09 NDo=     1
 LinEq1:  Iter= 12 NonCon=     0 RMS=2.46D-11 Max=1.85D-10 NDo=     1
 Linear equations converged to 1.000D-10 1.000D-09 after    12 iterations.
 End of Minotr F.D. properties file   721 does not exist.
 End of Minotr F.D. properties file   722 does not exist.
 End of Minotr F.D. properties file   788 does not exist.
 Calling FoFJK, ICntrl=  10002127 FMM=F ISym2X=1 I1Cent= 0 IOpClX= 0 NMat=1 NMatS=1 NMatT=0.
 ***** Axes restored to original set *****
 -------------------------------------------------------------------
 Center     Atomic                   Forces (Hartrees/Bohr)
 Number     Number              X              Y              Z
 -------------------------------------------------------------------
      1        6          -0.000099632   -0.000193647    0.000150603
      2        7          -0.000251635    0.000524272   -0.000407736
      3        1           0.000147896   -0.000156023    0.000121342
      4        1           0.000140715    0.000231497   -0.000180039
      5        1           0.000062657   -0.000406098    0.000315830
 -------------------------------------------------------------------
 Cartesian Forces:  Max     0.000524272 RMS     0.000259470

 GradGradGradGradGradGradGradGradGradGradGradGradGradGradGradGradGradGrad
 Berny optimization.
 Using GEDIIS/GDIIS optimizer.
 FormGI is forming the generalized inverse of G from B-inverse, IUseBI=4.
 Internal  Forces:  Max     0.000495277 RMS     0.000230751
 Search for a local minimum.
 Step number   5 out of a maximum of   21
 All quantities printed in internal units (Hartrees-Bohrs-Radians)
 Mixed Optimization -- En-DIIS/RFO-DIIS
 Swapping is turned off.
 Update second derivatives using D2CorX and points    1    2    3    4    5
 DE= -1.90D-05 DEPred=-1.57D-05 R= 1.21D+00
 TightC=F SS=  1.41D+00  RLast= 1.24D-02 DXNew= 1.4270D+00 3.7180D-02
 Trust test= 1.21D+00 RLast= 1.24D-02 DXMaxT set to 8.49D-01
 The second derivative matrix:
                          R1        R2        R3        R4        A1
           R1           0.75654
           R2           0.02810   0.40464
           R3           0.02776  -0.02141   0.40171
           R4           0.00772  -0.01311  -0.01805   0.47876
           A1           0.01855  -0.00890  -0.00669   0.00577   0.15180
           A2           0.00910  -0.01297  -0.00899  -0.00065  -0.00886
           A3          -0.02765   0.02187   0.01568  -0.00512   0.01706
           A4           0.05290   0.00019   0.00580   0.01591   0.00069
           D1          -0.00000  -0.00000  -0.00000   0.00000  -0.00000
           D2          -0.00000   0.00000   0.00000   0.00000   0.00000
           D3          -0.00000  -0.00000  -0.00000   0.00000  -0.00000
                          A2        A3        A4        D1        D2
           A2           0.16396
           A3           0.00490   0.13804
           A4           0.00477  -0.00546   0.18117
           D1          -0.00000   0.00000  -0.00000   0.00230
           D2           0.00000  -0.00000  -0.00000  -0.00000   0.00230
           D3          -0.00000   0.00000  -0.00000  -0.00000  -0.00000
                          D3
           D3           0.01002
 ITU=  1  1  1  1  0
     Eigenvalues ---    0.00230   0.00739   0.11811   0.16667   0.17773
     Eigenvalues ---    0.37723   0.42479   0.48487   0.76721
 En-DIIS/RFO-DIIS/Sim-DIIS IScMMF=       -3 using points:     5    4
 RFO step:  Lambda=-2.48137946D-06.
 DidBck=F Rises=F RFO-DIIS coefs:    1.26696   -0.26696
 Iteration  1 RMS(Cart)=  0.00131545 RMS(Int)=  0.00000102
 Iteration  2 RMS(Cart)=  0.00000105 RMS(Int)=  0.00000001
 Iteration  3 RMS(Cart)=  0.00000000 RMS(Int)=  0.00000000
 ClnCor:  largest displacement from symmetrization is 6.20D-09 for atom     2.
 Variable       Old X    -DE/DX   Delta X   Delta X   Delta X     New X
                                 (Linear)    (Quad)   (Total)
    R1        2.41207  -0.00018  -0.00033   0.00032  -0.00001   2.41206
    R2        2.05993   0.00010  -0.00036   0.00044   0.00008   2.06000
    R3        2.05118   0.00017  -0.00015   0.00050   0.00035   2.05153
    R4        1.92714   0.00050   0.00035   0.00079   0.00114   1.92828
    A1        2.17317  -0.00012  -0.00179   0.00058  -0.00121   2.17196
    A2        2.06964  -0.00022  -0.00020  -0.00122  -0.00142   2.06822
    A3        2.04038   0.00035   0.00198   0.00064   0.00263   2.04301
    A4        1.92096  -0.00029  -0.00185   0.00023  -0.00161   1.91935
    D1       -0.00000   0.00000  -0.00000  -0.00000  -0.00000  -0.00000
    D2        3.14159   0.00000   0.00000  -0.00000   0.00000   3.14159
    D3        3.14159   0.00000  -0.00000  -0.00000   0.00000  -3.14159
         Item               Value     Threshold  Converged?
 Maximum Force            0.000495     0.000450     NO 
 RMS     Force            0.000231     0.000300     YES
 Maximum Displacement     0.002406     0.001800     NO 
 RMS     Displacement     0.001316     0.001200     NO 
 Predicted change in Energy=-1.240704D-06
 GradGradGradGradGradGradGradGradGradGradGradGradGradGradGradGradGradGrad

                          Input orientation:                          
 ---------------------------------------------------------------------
 Center     Atomic      Atomic             Coordinates (Angstroms)
 Number     Number       Type             X           Y           Z
 ---------------------------------------------------------------------
      1          6           0       -0.228717   -0.560903    0.009225
      2          7           0        1.044531   -0.490039   -0.045888
      3          1           0       -0.780528   -1.303015    0.586379
      4          1           0       -0.812553    0.161585   -0.552668
      5          1           0        1.459626   -1.225862    0.526376
 ---------------------------------------------------------------------
                    Distance matrix (angstroms):
                    1          2          3          4          5
     1  C    0.000000
     2  N    1.276409   0.000000
     3  H    1.090107   2.095599   0.000000
     4  H    1.085623   2.032290   1.855669   0.000000
     5  H    1.886828   1.020404   2.242286   2.872655   0.000000
 Stoichiometry    CH3N
 Framework group  CS[SG(CH3N)]
 Deg. of freedom     7
 Full point group                 CS      NOp   2
 Largest Abelian subgroup         CS      NOp   2
 Largest concise Abelian subgroup C1      NOp   1
                         Standard orientation:                         
 ---------------------------------------------------------------------
 Center     Atomic      Atomic             Coordinates (Angstroms)
 Number     Number       Type             X           Y           Z
 ---------------------------------------------------------------------
      1          6           0        0.056498    0.589075    0.000000
      2          7           0        0.056498   -0.687334    0.000000
      3          1           0       -0.842490    1.205640    0.000000
      4          1           0        1.010560    1.107093    0.000000
      5          1           0       -0.902547   -1.035841    0.000000
 ---------------------------------------------------------------------
 Rotational constants (GHZ):         197.6224937          34.6658812          29.4924698
 Standard basis: Aug-CC-pVTZ (5D, 7F)
 There are   128 symmetry adapted cartesian basis functions of A'  symmetry.
 There are    57 symmetry adapted cartesian basis functions of A"  symmetry.
 There are   108 symmetry adapted basis functions of A'  symmetry.
 There are    53 symmetry adapted basis functions of A"  symmetry.
   161 basis functions,   225 primitive gaussians,   185 cartesian basis functions
     8 alpha electrons        8 beta electrons
       nuclear repulsion energy        32.8583583936 Hartrees.
 NAtoms=    5 NActive=    5 NUniq=    5 SFac= 1.00D+00 NAtFMM=   60 NAOKFM=F Big=F
 Integral buffers will be    131072 words long.
 Raffenetti 1 integral format.
 Two-electron integral symmetry is turned on.
 One-electron integrals computed using PRISM.
 NBasis=   161 RedAO= T EigKep=  4.98D-05  NBF=   108    53
 NBsUse=   161 1.00D-06 EigRej= -1.00D+00 NBFU=   108    53
 Initial guess from the checkpoint file:  "/scr/Gau-12371.chk"
 B after Tr=     0.000000    0.000000    0.000000
         Rot=    1.000000   -0.000000   -0.000000    0.000120 Ang=   0.01 deg.
 Initial guess orbital symmetries:
       Occupied  (A') (A') (A') (A') (A') (A') (A") (A')
       Virtual   (A') (A') (A') (A") (A') (A") (A') (A') (A') (A')
                 (A") (A') (A") (A') (A') (A') (A') (A") (A") (A')
                 (A') (A') (A') (A") (A') (A') (A") (A') (A') (A")
                 (A') (A') (A') (A") (A') (A") (A') (A') (A') (A')
                 (A") (A') (A') (A") (A") (A') (A") (A') (A') (A")
                 (A') (A") (A') (A') (A') (A") (A') (A") (A') (A')
                 (A") (A') (A') (A") (A') (A") (A') (A') (A') (A")
                 (A") (A') (A") (A') (A') (A') (A") (A') (A") (A')
                 (A') (A") (A') (A') (A') (A") (A') (A') (A") (A')
                 (A") (A') (A') (A') (A") (A') (A') (A") (A') (A")
                 (A') (A") (A') (A") (A') (A") (A') (A') (A') (A')
                 (A") (A') (A') (A") (A") (A') (A") (A') (A') (A')
                 (A") (A') (A") (A") (A') (A') (A") (A') (A') (A')
                 (A") (A") (A') (A') (A") (A') (A') (A") (A') (A")
                 (A') (A") (A') (A") (A') (A') (A') (A') (A') (A')
                 (A') (A') (A')
 Keep R1 ints in memory in symmetry-blocked form, NReq=128227886.
 Requested convergence on RMS density matrix=1.00D-08 within 128 cycles.
[...]
 3375222,-0.00333146,0.03919569,-0.02694488,0.00228886,0.00558386,0.001
 93971,0.00395657,-0.02664733,0.02021292,0.06582530,-0.02895464,0.02251
 857,-0.02382689,0.01399984,-0.01088794,-0.00161573,0.00225061,-0.00175
 034,-0.03736408,-0.01087544,-0.05036845,0.04046696,0.00360087,0.000119
 16,0.00696521,-0.00397754,0.01178747,-0.01722856,0.00978199,0.03739149
 ,0.00845803,0.04046696,-0.02980750,-0.00280046,0.00696521,0.00365813,0
 .00309341,-0.01722856,0.00303377,-0.00760763,-0.02947633,0.02241480,-0
 .00445576,0.00527701,-0.00410403,0.00039891,-0.00767738,0.00597084,-0.
 00196948,0.00149620,-0.00116363,-0.00301860,0.00147013,-0.00114334,0.0
 0904493,0.00117124,-0.00142009,0.00584959,-0.00176646,-0.00896589,-0.0
 0113468,-0.00176102,0.00221762,-0.00090365,0.00292220,0.00107033,-0.00
 072727,-0.00056596,0.00709804,-0.00091090,0.00584959,0.00155204,0.0013
 7381,-0.00113467,-0.00954241,0.00136958,-0.00090366,0.00175848,-0.0022
 7265,-0.00072727,0.00070081,0.00044016,-0.00308399,0.00553109,-0.83570
 083,-0.03377253,0.13043508,0.02626562,-0.07079743,0.09446344,0.7294709
 3,0.03967606,-0.03085690,-0.74132772,0.03192337,-0.05849505,-0.0040623
 0,-0.02339464,0.05864964,-0.02482749,-0.00406230,-0.06055907,0.0181945
 3,0.00299164,0.06016966,0.04584941,0.01312436,-0.01020707,0.00090285,0
 .00237608,-0.00184792,-0.04464959,0.00561714,-0.03878549,0.04210581,0.
 00481344,-0.00506082,-0.00212600,-0.01305827,0.03052353,-0.00436856,0.
 04210581,-0.01739185,-0.00374350,-0.00212600,-0.00614102,0.01015567,-0
 .02426548,0.01819443,0.04317014,-0.01149211,0.00893763,0.00677058,0.00
 025599,-0.00019909,-0.00059121,0.00221085,-0.00171942,-0.04675379,-0.0
 0253931,-0.03487381,0.03842168,-0.00487455,-0.00392008,0.00434749,-0.0
 0279452,0.01275021,-0.01814504,0.00974032,0.02788618,0.00197486,0.0384
 2168,-0.01535205,0.00379103,0.00434749,-0.00171116,0.00217335,-0.01814
 504,0.00353086,-0.00757522,-0.02287314,0.01626452,0.01721035,-0.007535
 79,0.00586072,0.00418336,-0.01116080,0.00867997,-0.00151145,0.00041683
 ,-0.00032418,-0.00259573,0.00046806,-0.00036402,-0.01728652,-0.0012286
 8,0.00171927,-0.00566775,-0.01622031,0.00882631,-0.00115083,0.00035234
 ,0.00057257,0.00243071,-0.00071505,-0.00184251,-0.00175099,0.01781169,
 -0.00927565,0.00095556,-0.00566775,-0.00116047,0.01261484,-0.00115083,
 0.00824159,-0.00027402,0.00243071,0.00180759,0.00055611,-0.00175099,-0
 .00273217,-0.01385249,0.00613885,-0.00615654,0.18861770,0.19265056,0.6
 3427085,-0.14982804,-0.60120815,0.32880163,0.08899611,-0.02206183,0.01
 715790,-0.08390008,-0.00798188,-0.03318718,0.00906944,0.03010674,-0.00
 316043,0.00620765,0.00906944,-0.02857907,-0.02341458,0.01457808,0.0042
 4658,-0.17811983,-0.36305594,0.28235554,-0.00033946,-0.00947809,0.0073
 7130,0.16763482,-0.36652443,-0.40109272,0.39447926,0.01775416,0.015125
 69,0.00125295,0.35702563,0.39101642,0.28505305,0.39447926,-0.20066090,
 -0.01380774,0.00125295,0.01576230,-0.27766566,-0.40199298,0.18676694,-
 0.10515283,0.18769856,-0.14597673,-0.00134337,0.00658888,-0.00512430,0
 .01083209,-0.00687314,0.00534538,0.09775518,0.17914252,-0.20366595,0.1
 9906003,-0.00448255,0.00337943,-0.00515193,0.01396694,-0.00219775,0.00
 995443,-0.18753470,0.20042743,-0.13932253,0.19906003,-0.10252504,0.003
 48617,-0.00515193,0.00076178,-0.01086235,0.00995443,0.00286002,0.14584
 929,-0.20657026,0.09547063,0.00565884,0.00476865,-0.00370867,-0.003413
 21,-0.01923565,0.01495993,-0.00000762,-0.00138222,0.00107498,-0.002091
 07,-0.00109220,0.00084943,-0.00014694,0.00271322,0.00367501,-0.0014005
 9,-0.02131651,0.01784249,-0.01974854,0.00154146,-0.00285165,-0.0036936
 7,0.00012041,0.00205684,0.00270772,0.01694142,-0.02072270,-0.00211013,
 -0.00140059,0.00296338,0.01657826,-0.01974854,0.00780841,-0.00119882,-
 0.00369367,-0.00472837,-0.00009364,0.00270772,0.00343261,-0.01317566,0
 .02213507,-0.00947603,-0.10540111,0.67879786,-0.18051045,-0.52791401,0
 .18090416,-0.08859430,-0.01481992,-0.06473866,0.05034849,0.00523971,-0
 .01810202,0.00305312,-0.00766844,0.05416185,-0.04581179,0.01407829,-0.
 00766843,-0.00084316,-0.04212270,0.03935698,-0.02581480,-0.10378797,-0
 .21049786,0.16370821,0.00340419,-0.00283843,0.00220750,0.10478326,-0.2
 3623932,-0.20450416,0.21285840,0.01700422,0.00744755,-0.00118397,0.205
 88509,0.19720832,0.18372783,0.21285840,-0.09635249,-0.01322451,-0.0011
 8397,0.00684599,-0.16012077,-0.20792015,0.09156572,0.22739237,-0.40212
 160,0.31273759,-0.00049430,-0.01012278,0.00787268,-0.00371753,0.014891
 90,-0.01158171,-0.22655285,-0.42800854,0.37966387,-0.39275502,0.022214
 34,-0.00613291,0.00748256,0.00694941,0.00049448,-0.00273336,0.39770397
 ,-0.37084612,0.33287036,-0.39275502,0.18010797,-0.01727652,0.00748257,
 -0.00233108,-0.00540469,-0.00273336,-0.00089432,-0.30930192,0.39243055
 ,-0.17145509,-0.00338338,-0.00143974,0.00111971,0.00667031,-0.02309861
 ,0.01796423,-0.00068195,-0.00154189,0.00119916,0.00337232,0.00114082,-
 0.00088724,-0.00597731,0.00355202,0.00229762,0.00666090,-0.02864175,0.
 04144402,-0.03798714,0.00050179,-0.00064619,-0.00102091,-0.00035149,-0
 .00317932,-0.00442473,0.02493942,-0.03991614,-0.00276247,0.00666090,0.
 00568197,0.02227523,-0.03798714,0.02214305,-0.00039025,-0.00102091,-0.
 00116491,0.00027336,-0.00442473,-0.00542749,-0.01939586,0.03677188,-0.
 02123263,-0.05193631,0.00496120,0.03075853,-0.00385841,-0.01060367,0.0
 2537089,0.08018993,0.01122009,-0.00872609,0.01621267,0.04694391,-0.027
 38590,0.00231804,-0.52907613,0.72579628,-0.03650918,0.00231804,-0.0262
 0812,0.41147256,-0.68899621,0.37572248,-0.01558281,-0.02222439,0.01728
 433,-0.00298408,-0.00110320,0.00085798,0.01170948,-0.02094540,-0.02317
 707,0.02392808,-0.00120138,0.00529558,0.00290441,0.02381204,0.02203510
 ,0.01628964,0.02392808,-0.01101940,0.00093434,0.00290441,0.00677129,-0
 .01851908,-0.02322725,0.01023352,0.01047396,-0.01744300,0.01356575,-0.
 00194796,0.00321092,-0.00249720,0.00023886,0.00026956,-0.00020964,-0.0
 0709896,-0.01592222,0.00949808,-0.01462521,-0.00041536,-0.00124872,-0.
 00536017,0.00083704,0.00042048,0.00000353,0.01631100,-0.01132653,0.012
 38301,-0.01462521,0.00206711,0.00032303,-0.00536017,-0.00397218,-0.000
 65098,0.00000353,0.00042227,-0.01268537,0.01458783,-0.00391456,-0.0231
 4477,0.02348610,-0.01826558,-0.09147056,0.48002449,-0.37332416,0.00661
 855,-0.00193482,0.00150474,-0.00166589,-0.00081046,0.00063031,0.109662
 67,-0.01503748,0.01030636,-0.00101723,0.51947277,-0.70245724,0.6891339
 3,-0.00132150,-0.00457409,-0.00360877,-0.00234848,0.00265669,0.0053940
 3,-0.50076531,0.69406827,0.01169494,-0.00101724,0.00978952,-0.40400384
 ,0.68913393,-0.35231347,0.00102775,-0.00360877,-0.00640768,0.00182646,
 0.00539403,0.00539736,0.38945469,-0.68990196,0.34353427,-0.05525478,0.
 00843848,-0.17491090,-0.00656276,0.15088737,-0.09824618,0.00442456,0.0
 0260267,-0.00202415,0.04720636,-0.00805938,0.04076629,-0.02283549,0.15
 351580,-0.24354038,0.00626793,-0.02283549,0.02916375,-0.11939216,0.212
 36229,-0.13564070,0.02675201,0.07937286,-0.06172978,-0.00841257,0.0086
 8721,-0.00675621,0.00502507,0.07657314,0.07699867,-0.07019119,-0.00556
 453,-0.00830043,0.00164222,-0.07725126,-0.07780297,-0.05955240,-0.0701
 9119,0.04133508,0.00432764,0.00164222,-0.00746603,0.06007978,0.0715043
 2,-0.04147220,0.02049314,-0.07332331,0.05702493,-0.00848371,-0.0060907
 8,0.00473691,-0.00612048,0.00308370,-0.00239826,-0.00645717,-0.0817310
 3,0.07404461,-0.06970572,0.01099723,-0.00320441,0.00665975,-0.00358360
 ,0.00277466,-0.00289210,0.07189059,-0.07388142,0.06356377,-0.06970572,
 0.03862765,-0.00855275,0.00665975,0.00017936,0.00278703,-0.00289210,0.
 00130522,-0.05591067,0.06844486,-0.03910510,0.00358510,-0.01709070,0.0
 1329177,-0.03473466,-0.14805286,0.11514352,-0.01724403,0.00315893,-0.0
 0245676,0.00056819,0.00242682,-0.00188738,0.04782540,0.00477876,-0.016
 89865,0.01184502,-0.16155117,0.21427892,-0.19782877,-0.00722519,0.0063
 3006,-0.00006325,0.00443979,0.00026656,-0.00250680,0.15955781,-0.20397
 689,-0.00371653,0.01184502,-0.01088028,0.12564142,-0.19782876,0.113763
 60,0.00561917,-0.00006325,0.00629792,-0.00345291,-0.00250680,-0.001007
 12,-0.12409115,0.18855379,-0.10817412,-0.24161899,-0.04988070,-0.28318
 524,0.03879321,0.33617983,-0.11237477,0.05910901,0.01076024,-0.0083684
 6,-0.05019372,-0.00123484,0.02744728,-0.00225094,0.00664929,-0.0213464
 2,0.00096034,-0.00225094,0.02630359,-0.00517126,0.01558036,-0.01343016
 ,0.10138603,0.15333870,-0.11925443,-0.00970331,-0.00026892,0.00020914,
 -0.08713931,0.15591052,0.15639594,-0.19845894,-0.01281440,-0.01296110,
 -0.00328411,-0.14776280,-0.13662658,-0.12125458,-0.19845893,0.05556044
 ,0.00996600,-0.00328412,-0.01462972,0.11491795,0.19346227,-0.03832985,
 0.08145585,-0.11153495,0.08674282,-0.00418521,0.00008763,-0.00006814,-
 0.00508164,0.00453532,-0.00352720,-0.07138161,-0.10723023,0.10167409,-
 0.13553887,0.00506255,-0.00441835,0.00103059,-0.00586584,-0.00979467,0
 .00626832,0.10664182,-0.08618353,0.08339497,-0.13553889,0.03280778,-0.
 00393724,0.00103060,-0.00389470,0.00456197,0.00626833,-0.00660978,-0.0
 8293735,0.13048375,-0.01988570,-0.00033189,-0.00268325,0.00208683,0.00
 497322,-0.00523316,0.00406992,0.00053824,0.00013134,-0.00010215,-0.000
 80741,0.00139168,-0.00108234,-0.00437216,0.00243527,-0.00233206,0.0000
 6894,-0.00965769,0.01127857,-0.01107589,0.00055887,0.00298639,0.002012
 46,0.00027016,-0.00127751,-0.00224381,0.00639338,-0.01065538,-0.001893
 96,0.00006894,-0.00229702,0.00751096,-0.01107589,0.00565099,-0.0004346
 4,0.00201245,0.00400889,-0.00021011,-0.00224381,-0.00241758,-0.0049722
 5,0.01123830,-0.00494528,-0.10710312,0.06966879,-0.10464832,-0.0541827
 4,0.11175995,-0.04786393,0.03463071,0.00081420,-0.00063323,-0.09566364
 ,-0.01891226,0.02271301,-0.00703527,0.21401178,-0.29827070,0.01470843,
 -0.00703527,0.01913838,-0.16644099,0.33637582,-0.12736065,0.01630585,0
 .01351473,-0.01051065,-0.00325366,-0.00272070,0.00211590,-0.00870097,0
 .01409922,0.01695658,-0.01782575,-0.00319056,-0.00600605,-0.00535549,-
 0.01244955,-0.01756566,-0.01096525,-0.01782574,0.00789947,0.00248135,-
 0.00535547,-0.00872710,0.00968228,0.01906739,-0.00787767,0.05765666,-0
 .07231170,0.05623818,-0.00698468,-0.00660572,0.00513742,-0.00223729,0.
 00341049,-0.00265240,-0.04727618,-0.08092975,0.06749613,-0.08768061,0.
 00747022,0.00960883,0.00719998,-0.00060602,0.00050171,-0.00004713,0.07
 091080,-0.06674360,0.06294061,-0.08768061,0.02294630,-0.00580973,0.007
 19998,0.01326711,0.00047132,-0.00004712,0.00047774,-0.05514870,0.08636
 985,-0.02285977,-0.00149007,-0.01168601,0.00908843,0.07127126,-0.18577
 311,0.14447924,-0.00211393,-0.00186962,0.00145404,-0.00115854,0.003154
 75,-0.00245351,-0.06650872,0.01607399,-0.00251740,0.00078169,-0.219105
 65,0.27195491,-0.33118504,0.00226157,0.00611343,0.00416094,0.00459611,
 -0.01086305,-0.00584210,0.19617398,-0.26468788,-0.01250105,0.00078169,
 -0.00212023,0.17040260,-0.33118505,0.10368226,-0.00175886,0.00416095,0
 .00822757,-0.00357449,-0.00584210,-0.01383138,-0.15256820,0.33208451,-
 0.09595823,-0.08759677,-0.04501922,-0.12642132,0.03501227,0.09378619,-
 0.07876929,0.03690074,0.05344163,-0.04156255,0.03823529,0.00981665,0.0
 4699468,-0.02295433,0.10421196,-0.32121425,-0.00763456,-0.02295434,0.0
 3533177,-0.08104767,0.26186603,-0.18816209,0.02102787,0.04662465,-0.03
 626088,-0.00860358,-0.00001155,0.00000899,-0.00145400,0.05663454,0.059
 26671,-0.05304583,-0.01362885,-0.00497440,0.00254441,-0.04339147,-0.05
 757050,-0.04404577,-0.05304582,0.03231453,0.01059944,0.00254440,-0.003
 68162,0.03374637,0.04818283,-0.03308915,0.02458626,-0.03359111,0.02612
 445,-0.01490717,-0.00424463,0.00330114,-0.00424624,0.00105770,-0.00082
 260,-0.00565350,-0.03845025,0.03739510,-0.03287803,0.00715830,0.002468
 33,0.00253254,-0.00316960,0.00097031,0.00051094,0.03210681,-0.03811268
 ,0.02990350,-0.03287804,0.02069004,-0.00556714,0.00253256,0.00375510,0
 .00246506,0.00051094,0.00122991,-0.02497009,0.03037053,-0.02268167,0.0
 0508193,-0.02145594,0.01668671,-0.05162530,-0.10977243,0.08537211,-0.0
 0672405,-0.00067191,0.00052256,0.00022063,0.00235472,-0.00183132,0.053
 04679,0.01701829,-0.01723516,0.01509200,-0.15118304,0.27672562,-0.2439
 8865,-0.00005201,0.00230786,0.00180764,0.00467121,-0.00272105,-0.00053
 599,0.12954555,-0.25907726,-0.01323544,0.01509200,-0.00956703,0.117577
 93,-0.24398866,0.15275681,0.00004045,0.00180764,0.00322631,-0.00363289
 ,-0.00053598,-0.00299338,-0.10075005,0.22762501,-0.14342271,0.07512016
 ,0.05506848,-0.20693025,-0.04282779,0.14590954,-0.13279469,-0.18377444
 ,-0.02257727,0.01755880,0.19418644,-0.01481531,0.04903146,-0.00763248,
 0.02045807,-0.03627682,0.01152218,-0.00763248,0.04515347,-0.01591066,-
 0.00802911,-0.04035635,0.04938636,0.07407299,-0.05760798,-0.00548176,-
 0.00165189,0.00128470,-0.03446482,0.05503323,0.06219014,-0.05396584,-0
 .00780334,-0.00639388,0.00744368,-0.06097695,-0.05206405,-0.04280039,-
 0.05396586,0.03477055,0.00606880,0.00744368,-0.00261180,0.04742295,0.0
 4178221,-0.03083485,0.06254752,-0.10504495,0.08169543,-0.00928452,0.00
 307630,-0.00239250,-0.00499177,0.01199508,-0.00932882,-0.04780307,-0.0
 9507462,0.09516166,-0.08562831,0.01400826,-0.00689787,0.00924763,-0.00
 909118,-0.00550251,0.00581618,0.08807773,-0.08199028,0.07394130,-0.085
 62829,0.05165450,-0.01089449,0.00924762,-0.00219924,0.00707039,0.00581
 616,-0.00254739,-0.06849969,0.07001616,-0.04641549,-0.00327957,-0.0015
 1924,0.00118154,0.00435428,-0.00706718,0.00549628,-0.00444800,0.001751
 98,-0.00136255,-0.00046818,0.00207981,-0.00161750,0.00384147,-0.000211
 80,0.00054699,0.00131709,-0.00408572,0.00053710,-0.00102973,-0.0023529
 5,0.00177028,-0.00107621,0.00189584,-0.00077098,0.00054834,0.00475463,
 -0.00208340,0.00016472,0.00131708,0.00121619,0.00317755,-0.00102972,0.
 00001391,0.00182993,-0.00107621,0.00122348,-0.00147443,0.00054833,-0.0
 0049237,-0.00369777,0.00024052,-0.00196120,0.58118033,0.04111786,-0.26
 648488,-0.03197816,0.12382285,-0.20357145,-0.66747367,-0.04679573,0.03
 639396,0.67823616,-0.04667603,0.13035863,-0.01030226,0.04585321,-0.129
 62919,0.03630088,-0.01030225,0.12512412,-0.03566096,0.00779467,-0.1256
 6878,0.04467574,0.07803216,-0.06068711,-0.00638740,0.00125001,-0.00097
 216,-0.03670608,0.06546670,0.07312654,-0.06311809,-0.00649242,-0.00425
 804,0.00407301,-0.06888579,-0.06078479,-0.05091473,-0.06311811,0.04105
 677,0.00504927,0.00407302,-0.00218857,0.05357381,0.05094550,-0.0348998
 3,0.04904791,-0.07018499,0.05458420,-0.01010500,-0.00314165,0.00244331
 ,-0.00180743,0.00988970,-0.00769140,-0.03925248,-0.06181642,0.06219770
 ,-0.05290203,0.00729405,-0.00113975,0.00212893,-0.01020806,-0.00853372
 ,0.00841992,0.06350668,-0.05165512,0.04807580,-0.05290203,0.03531856,-
 0.00567272,0.00212892,-0.00005807,0.00793901,0.00841992,-0.00425561,-0
 .04939036,0.04209714,-0.03026586,-0.00743030,-0.00216931,0.00168711,0.
 00572990,0.00271445,-0.00211107,0.00022518,0.00002182,-0.00001696,0.00
 211697,0.00122375,-0.00095173,-0.00064176,0.00190786,0.00080203,0.0024
 9952,0.00014088,0.00466834,-0.00369436,-0.00018830,0.00044999,-0.00032
 034,-0.00006974,-0.00086912,0.00025605,-0.00179070,-0.00505123,-0.0014
 8378,0.00249952,0.00207201,-0.00010955,-0.00369435,0.00279129,0.000146
 44,-0.00032034,0.00028723,0.00005424,0.00025605,-0.00073902,0.00139265
 ,0.00125912,-0.00441151,0.32611179,0.73731977,1.11838847,-0.57342774,-
 1.35130843,0.43179910,0.01543289,0.00302341,-0.00235134,-0.02228727,0.
 01252448,-0.01044441,-0.00428467,-0.01650956,-0.00390788,-0.00974052,-
 0.00428467,-0.01262141,0.01283976,0.00336691,-0.00219719,-0.25948034,-
 1.00275790,0.77986396,0.00246558,-0.00565427,0.00439745,0.23873954,-0.
 98997681,-0.87511360,1.07313556,0.01282695,0.01154338,-0.00038509,0.98
 601222,0.85644690,0.76992385,1.07313555,-0.32986182,-0.00997576,-0.000
 38509,0.01134771,-0.76684052,-1.07344775,0.31103646,-0.07617853,0.2644
 9332,-0.20570145,0.00032544,0.00120819,-0.00093962,0.01356187,-0.00957
 688,0.00744812,0.06204464,0.23775747,-0.23608611,0.27991785,-0.0040546
 0,0.00199516,-0.00092883,0.02254258,0.01141758,0.00197850,-0.25567684,
 0.22325614,-0.18490846,0.27991786,-0.09386192,0.00315334,-0.00092882,0
 .00152324,-0.01753180,0.00197847,0.01242287,0.19884471,-0.28145397,0.0
 8025143,-0.00588580,-0.00207860,0.00161657,0.00406334,0.00843116,-0.00
 655707,0.00471336,0.00071452,-0.00055569,0.00024657,-0.00056861,0.0004
 4221,-0.00313747,0.00237509,0.00325566,0.00253969,0.00471380,0.0008137
 4,0.00223167,-0.00014261,-0.00429426,-0.00128122,-0.00044779,-0.000582
 78,0.00048646,-0.00649848,0.00080764,-0.00184714,0.00253969,0.00454606
 ,-0.00366600,0.00223166,0.00194764,0.00011090,-0.00128120,-0.00494522,
 0.00034825,0.00048646,-0.00033562,0.00505398,-0.00397660,-0.00121285,0
 .42389156,-0.83526514,1.07997402,0.64960152,-1.39068418,0.37337782,0.0
 8150594,0.01636252,-0.01272546,-0.08073036,0.00038909,-0.01729910,0.00
 490370,-0.01572043,0.00628803,-0.00030263,0.00490370,-0.01480754,0.012
 22608,-0.00157352,0.00548847,-0.09621800,-0.33094183,0.25737978,-0.003
 62259,0.00134232,-0.00104396,0.11052928,-0.32360440,-0.23176032,0.3051
 9239,0.00842541,0.00261358,-0.00173995,0.32868089,0.22358440,0.2516733
 2,0.30519239,-0.07669444,-0.00655262,-0.00173995,0.00172952,-0.2556213
 9,-0.29789506,0.07222622,-0.40116688,1.15069355,-0.89491619,-0.0055401
 9,0.00052445,-0.00040787,-0.01223290,-0.01361074,0.01058533,0.41729758
 ,1.15869855,-0.82836745,1.08481982,-0.01769302,0.00933965,-0.00893599,
 0.00123257,0.00633810,-0.00694498,-1.13870896,0.81174072,-0.90114183,1
 .08481982,-0.27717858,0.01376021,-0.00893599,0.00479935,-0.00095860,-0
 .00694498,0.00280942,0.88559555,-1.07281171,0.26665307,-0.00801260,-0.
 00084907,0.00066033,0.00838720,0.01346457,-0.01047164,0.00154420,0.000
 10883,-0.00008464,0.00164237,-0.00352916,0.00274469,-0.00356118,-0.000
 21811,-0.00254713,-0.00423174,0.00862553,-0.00094218,0.00734576,-0.000
 31395,-0.00077576,0.00138760,0.00110170,0.00094897,0.00387287,-0.00919
 517,0.00331608,0.00016962,-0.00423175,-0.00469725,-0.00670822,0.007345
 76,0.00279018,0.00024416,0.00138760,-0.00007072,-0.00085682,0.00387288
 ,0.00291674,0.00715125,-0.00837448,-0.00093895,-0.02010260,0.00629224,
 -0.00429964,-0.00489361,-0.00146387,-0.00504343,0.05834757,-0.01799287
 ,0.01399338,-0.14853072,0.01055438,-0.02938676,0.01251517,-1.64394876,
 2.08042431,-0.00820834,0.01251516,-0.02302790,1.27853017,-2.37001101,0
 .87623958,-0.00340489,-0.00866325,0.00673760,-0.00289288,-0.00166014,0
 .00129111,-0.00294984,-0.00925352,-0.00157177,0.00370574,0.00177340,0.
 00398898,0.00361103,0.00656175,0.00434020,0.00719666,0.00370579,0.0003
 1108,-0.00137920,0.00361099,0.00582370,-0.00510321,-0.00440203,0.00210
 361,-0.00307509,0.00719492,-0.00559561,0.00286828,0.00307342,-0.002390
 25,0.00036005,0.00029108,-0.00022639,-0.00207436,0.00354375,0.00222739
 ,0.00143176,0.00173316,-0.00464570,-0.00458792,0.00028910,0.00025549,-
 0.00039159,-0.00426565,-0.00019581,-0.00275607,0.00143173,0.00295487,-
 0.00134788,-0.00458790,-0.00697677,-0.00022484,-0.00039156,0.00005651,
 0.00331746,-0.00179045,-0.00110551,-0.03176497,0.01316896,-0.01024176,
 0.09020774,1.63198109,-1.26922269,0.00888758,0.00062730,-0.00048788,0.
 00192110,-0.00130038,0.00101133,-0.06925144,-0.01113687,0.03303082,-0.
 01618881,1.65843507,-2.05038085,2.35847275,0.00347255,-0.00701292,-0.0
 0252316,-0.00629378,0.00235862,0.00533818,-1.64447697,2.02200433,0.008
 66136,-0.01618882,0.02480541,-1.28979647,2.35847274,-0.85205862,-0.002
 70067,-0.00252316,-0.00829490,0.00489478,0.00533820,0.00507091,1.27894
 100,-2.34509896,0.83047721\\@
 The archive entry for this job was punched.


 There ain't no surer way to find out whether you
 like people or hate them than to travel with them.
                                     -- Mark Twain
 Job cpu time:       0 days 17 hours 51 minutes  4.2 seconds.
 Elapsed time:       0 days  0 hours 27 minutes 22.9 seconds.
 File lengths (MBytes):  RWF=   1911 Int=      0 D2E=      0 Chk=     43 Scr=      1
 Normal termination of Gaussian 16 at Fri Apr  4 03:27:26 2025.
