 Entering Gaussian System, Link 0=g16
 Input=imine_mp2_avdz_opt_anharm.gjf
 Output=imine_mp2_avdz_opt_anharm.log
 Initial command:
 /sw/contrib/chem-src/g16/c01/g16/l1.exe "/scr/Gau-80203.inp" -scrdir="/scr/"
 Entering Link 1 = /sw/contrib/chem-src/g16/c01/g16/l1.exe PID=     80222.
  
 Copyright (c) 1988-2019, Gaussian, Inc.  All Rights Reserved.
  
 This is part of the Gaussian(R) 16 program.  It is based on
 the Gaussian(R) 09 system (copyright 2009, Gaussian, Inc.),
 the Gaussian(R) 03 system (copyright 2003, Gaussian, Inc.),
 the Gaussian(R) 98 system (copyright 1998, Gaussian, Inc.),
 the Gaussian(R) 94 system (copyright 1995, Gaussian, Inc.),
 the Gaussian 92(TM) system (copyright 1992, Gaussian, Inc.),
 the Gaussian 90(TM) system (copyright 1990, Gaussian, Inc.),
 the Gaussian 88(TM) system (copyright 1988, Gaussian, Inc.),
 the Gaussian 86(TM) system (copyright 1986, Carnegie Mellon
 University), and the Gaussian 82(TM) system (copyright 1983,
 Carnegie Mellon University). Gaussian is a federally registered
 trademark of Gaussian, Inc.
  
 This software contains proprietary and confidential information,
 including trade secrets, belonging to Gaussian, Inc.
  
 This software is provided under written license and may be
 used, copied, transmitted, or stored only in accord with that
 written license.
  
 The following legend is applicable only to US Government
 contracts under FAR:
  
                    RESTRICTED RIGHTS LEGEND
  
 Use, reproduction and disclosure by the US Government is
 subject to restrictions as set forth in subparagraphs (a)
 and (c) of the Commercial Computer Software - Restricted
 Rights clause in FAR 52.227-19.
  
 Gaussian, Inc.
 340 Quinnipiac St., Bldg. 40, Wallingford CT 06492
  
  
 ---------------------------------------------------------------
 Warning -- This program may not be used in any manner that
 competes with the business of Gaussian, Inc. or will provide
 assistance to any competitor of Gaussian, Inc.  The licensee
 of this program is prohibited from giving any competitor of
 Gaussian, Inc. access to this program.  By using this program,
 the user acknowledges that Gaussian, Inc. is engaged in the
 business of creating and licensing software in the field of
 computational chemistry and represents and warrants to the
 licensee that it is not a competitor of Gaussian, Inc. and that
 it will not use this program in any manner prohibited above.
 ---------------------------------------------------------------
  

 Cite this work as:
 Gaussian 16, Revision C.01,
 M. J. Frisch, G. W. Trucks, H. B. Schlegel, G. E. Scuseria, 
 M. A. Robb, J. R. Cheeseman, G. Scalmani, V. Barone, 
 G. A. Petersson, H. Nakatsuji, X. Li, M. Caricato, A. V. Marenich, 
 J. Bloino, B. G. Janesko, R. Gomperts, B. Mennucci, H. P. Hratchian, 
 J. V. Ortiz, A. F. Izmaylov, J. L. Sonnenberg, D. Williams-Young, 
 F. Ding, F. Lipparini, F. Egidi, J. Goings, B. Peng, A. Petrone, 
 T. Henderson, D. Ranasinghe, V. G. Zakrzewski, J. Gao, N. Rega, 
 G. Zheng, W. Liang, M. Hada, M. Ehara, K. Toyota, R. Fukuda, 
 J. Hasegawa, M. Ishida, T. Nakajima, Y. Honda, O. Kitao, H. Nakai, 
 T. Vreven, K. Throssell, J. A. Montgomery, Jr., J. E. Peralta, 
 F. Ogliaro, M. J. Bearpark, J. J. Heyd, E. N. Brothers, K. N. Kudin, 
 V. N. Staroverov, T. A. Keith, R. Kobayashi, J. Normand, 
 K. Raghavachari, A. P. Rendell, J. C. Burant, S. S. Iyengar, 
 J. Tomasi, M. Cossi, J. M. Millam, M. Klene, C. Adamo, R. Cammi, 
 J. W. Ochterski, R. L. Martin, K. Morokuma, O. Farkas, 
 J. B. Foresman, and D. J. Fox, Gaussian, Inc., Wallingford CT, 2019.
 
 ******************************************
 Gaussian 16:  EM64L-G16RevC.01  3-Jul-2019
                 4-Apr-2025 
 ******************************************
 %nprocshared=24
 Will use up to   24 processors via shared memory.
 %mem=50gb
 ----------------------------------------------
 # MP2/aug-cc-pVDZ opt freq=(vibrot,anharmonic)
 ----------------------------------------------
 1/18=20,19=15,38=1,80=1/1,3;
 2/9=110,12=2,17=6,18=5,40=1/2;
 3/5=16,7=10,11=9,25=1,30=1,71=1/1,2,3;
 4//1;
 5/5=2,38=5/2;
 8/6=4,10=1/1;
 9/15=2,16=-3/6;
 10/5=1/2;
 6/7=2,8=2,9=2,10=2/1;
 7/12=2/1,2,3,16;
 1/18=20,19=15,80=1/3(2);
 2/9=110/2;
 99//99;
 2/9=110/2;
 3/5=16,7=10,11=9,25=1,30=1,71=1/1,2,3;
 4/5=5,16=3,69=1/1;
 5/5=2,38=5/2;
 8/6=4,10=1/1;
 9/15=2,16=-3/6;
 10/5=1/2;
 7/12=2/1,2,3,16;
 1/18=20,19=15,80=1/3(-8);
 2/9=110/2;
 6/7=2,8=2,9=2,10=2/1;
 99/9=10/99;
 ----
 blah
 ----
 Symbolic Z-matrix:
 Charge =  0 Multiplicity = 1
 C                    -0.36233  -0.54904   0. 
 N                     1.15454  -0.54904   0. 
 H                    -0.87833  -1.25454   0.54868 
 H                    -0.87833   0.15645  -0.54868 
 H                     1.64679  -1.22207   0.52342 
 

 GradGradGradGradGradGradGradGradGradGradGradGradGradGradGradGradGradGrad
 Berny optimization.
 Initialization pass.
                           ----------------------------
                           !    Initial Parameters    !
                           ! (Angstroms and Degrees)  !
 --------------------------                            --------------------------
 ! Name  Definition              Value          Derivative Info.                !
 --------------------------------------------------------------------------------
 ! R1    R(1,2)                  1.5169         estimate D2E/DX2                !
 ! R2    R(1,3)                  1.032          estimate D2E/DX2                !
 ! R3    R(1,4)                  1.032          estimate D2E/DX2                !
 ! R4    R(2,5)                  0.9845         estimate D2E/DX2                !
 ! A1    A(2,1,3)              120.0            estimate D2E/DX2                !
 ! A2    A(2,1,4)              120.0            estimate D2E/DX2                !
 ! A3    A(3,1,4)              120.0            estimate D2E/DX2                !
 ! A4    A(1,2,5)              120.0            estimate D2E/DX2                !
 ! D1    D(3,1,2,5)              0.0            estimate D2E/DX2                !
 ! D2    D(4,1,2,5)            180.0            estimate D2E/DX2                !
 ! D3    D(2,1,3,4)            180.0            estimate D2E/DX2                !
 --------------------------------------------------------------------------------
 Trust Radius=3.00D-01 FncErr=1.00D-07 GrdErr=1.00D-07 EigMax=2.50D+02 EigMin=1.00D-04
 Number of steps in this run=     21 maximum allowed number of steps=    100.
 GradGradGradGradGradGradGradGradGradGradGradGradGradGradGradGradGradGrad

                          Input orientation:                          
 ---------------------------------------------------------------------
 Center     Atomic      Atomic             Coordinates (Angstroms)
 Number     Number       Type             X           Y           Z
 ---------------------------------------------------------------------
      1          6           0       -0.362326   -0.549042    0.000000
      2          7           0        1.154544   -0.549042    0.000000
      3          1           0       -0.878326   -1.254536    0.548677
      4          1           0       -0.878326    0.156452   -0.548676
      5          1           0        1.646794   -1.222065    0.523423
 ---------------------------------------------------------------------
                    Distance matrix (angstroms):
                    1          2          3          4          5
     1  C    0.000000
     2  N    1.516870   0.000000
     3  H    1.032000   2.220659   0.000000
     4  H    1.032000   2.220659   1.787476   0.000000
     5  H    2.182543   0.984500   2.525455   3.070169   0.000000
 Stoichiometry    CH3N
 Framework group  CS[SG(CH3N)]
 Deg. of freedom     7
 Full point group                 CS      NOp   2
 Largest Abelian subgroup         CS      NOp   2
 Largest concise Abelian subgroup C1      NOp   1
                         Standard orientation:                         
 ---------------------------------------------------------------------
 Center     Atomic      Atomic             Coordinates (Angstroms)
 Number     Number       Type             X           Y           Z
 ---------------------------------------------------------------------
      1          6           0        0.053288    0.724701   -0.000000
      2          7           0        0.053288   -0.792169    0.000000
      3          1           0       -0.840451    1.240701    0.000000
      4          1           0        0.947026    1.240701   -0.000000
      5          1           0       -0.799314   -1.284419    0.000000
 ---------------------------------------------------------------------
 Rotational constants (GHZ):         224.3947698          25.4325809          22.8435282
 Standard basis: Aug-CC-pVDZ (5D, 7F)
 There are    57 symmetry adapted cartesian basis functions of A'  symmetry.
 There are    20 symmetry adapted cartesian basis functions of A"  symmetry.
 There are    53 symmetry adapted basis functions of A'  symmetry.
 There are    20 symmetry adapted basis functions of A"  symmetry.
    73 basis functions,   119 primitive gaussians,    77 cartesian basis functions
     8 alpha electrons        8 beta electrons
       nuclear repulsion energy        30.0368199213 Hartrees.
 NAtoms=    5 NActive=    5 NUniq=    5 SFac= 1.00D+00 NAtFMM=   60 NAOKFM=F Big=F
 Integral buffers will be    131072 words long.
 Raffenetti 1 integral format.
 Two-electron integral symmetry is turned on.
 One-electron integrals computed using PRISM.
 NBasis=    73 RedAO= T EigKep=  5.80D-04  NBF=    53    20
 NBsUse=    73 1.00D-06 EigRej= -1.00D+00 NBFU=    53    20
 ExpMin= 2.97D-02 ExpMax= 9.05D+03 ExpMxC= 3.09D+02 IAcc=3 IRadAn=         5 AccDes= 0.00D+00
 Harris functional with IExCor=  205 and IRadAn=       5 diagonalized for initial guess.
 HarFok:  IExCor=  205 AccDes= 0.00D+00 IRadAn=         5 IDoV= 1 UseB2=F ITyADJ=14
 ICtDFT=  3500011 ScaDFX=  1.000000  1.000000  1.000000  1.000000
 FoFCou: FMM=F IPFlag=           0 FMFlag=      100000 FMFlg1=           0
         NFxFlg=           0 DoJE=T BraDBF=F KetDBF=T FulRan=T
         wScrn=  0.000000 ICntrl=       500 IOpCl=  0 I1Cent=   200000004 NGrid=           0
         NMat0=    1 NMatS0=      1 NMatT0=    0 NMatD0=    1 NMtDS0=    0 NMtDT0=    0
 Petite list used in FoFCou.
 Initial guess orbital symmetries:
       Occupied  (A') (A') (A') (A') (A') (A') (A") (A')
       Virtual   (A") (A') (A') (A') (A') (A") (A') (A') (A') (A')
                 (A') (A") (A') (A') (A") (A') (A') (A") (A') (A")
                 (A') (A') (A") (A') (A') (A') (A') (A") (A') (A')
                 (A') (A') (A") (A") (A') (A") (A') (A') (A') (A")
                 (A') (A') (A') (A") (A") (A') (A') (A') (A") (A')
                 (A") (A') (A') (A") (A') (A') (A') (A') (A") (A')
                 (A") (A') (A') (A') (A')
 The electronic state of the initial guess is 1-A'.
 Keep R1 ints in memory in symmetry-blocked form, NReq=8671722.
 Requested convergence on RMS density matrix=1.00D-08 within 128 cycles.
 Requested convergence on MAX density matrix=1.00D-06.
 Requested convergence on             energy=1.00D-06.
 No special actions if energy rises.
 SCF Done:  E(RHF) =  -93.9709503887     A.U. after   12 cycles
            NFock= 12  Conv=0.36D-08     -V/T= 2.0057
 ExpMin= 2.97D-02 ExpMax= 9.05D+03 ExpMxC= 3.09D+02 IAcc=3 IRadAn=         5 AccDes= 0.00D+00
 HarFok:  IExCor=  205 AccDes= 0.00D+00 IRadAn=         5 IDoV=-2 UseB2=F ITyADJ=14
 ICtDFT= 12500011 ScaDFX=  1.000000  1.000000  1.000000  1.000000
 Range of M.O.s used for correlation:     3    73
 NBasis=    73 NAE=     8 NBE=     8 NFC=     2 NFV=     0
 NROrb=     71 NOA=     6 NOB=     6 NVA=    65 NVB=    65

 **** Warning!!: The largest alpha MO coefficient is  0.11996861D+02

 Fully direct method using O(ONN) memory.
 JobTyp=1 Pass  1:  I=   3 to   8 NPSUse= 24 ParTrn=T ParDer=T DoDerP=T.
 Spin components of T(2) and E(2):
     alpha-alpha T2 =       0.1638587943D-01 E2=     -0.4025010169D-01
     alpha-beta  T2 =       0.1042903162D+00 E2=     -0.2571084051D+00
     beta-beta   T2 =       0.1638587943D-01 E2=     -0.4025010169D-01
 ANorm=    0.1066331128D+01
 E2 =    -0.3376086085D+00 EUMP2 =    -0.94308558997219D+02
          IDoAtm=11111
          Differentiating once with respect to electric field.
                with respect to dipole field.
          Differentiating once with respect to nuclear coordinates.
 Keep R1 ints in memory in symmetry-blocked form, NReq=8673309.
          There are     1 degrees of freedom in the 1st order CPHF.  IDoFFX=0 NUNeed=     1.
 LinEq1:  Iter=  0 NonCon=     1 RMS=8.41D-03 Max=7.46D-02 NDo=     1
 AX will form     1 AO Fock derivatives at one time.
 LinEq1:  Iter=  1 NonCon=     1 RMS=2.22D-03 Max=2.03D-02 NDo=     1
 LinEq1:  Iter=  2 NonCon=     1 RMS=1.00D-03 Max=9.72D-03 NDo=     1
 LinEq1:  Iter=  3 NonCon=     1 RMS=4.54D-04 Max=4.24D-03 NDo=     1
 LinEq1:  Iter=  4 NonCon=     1 RMS=1.50D-04 Max=1.66D-03 NDo=     1
 LinEq1:  Iter=  5 NonCon=     1 RMS=4.06D-05 Max=2.81D-04 NDo=     1
 LinEq1:  Iter=  6 NonCon=     1 RMS=7.33D-06 Max=6.65D-05 NDo=     1
 LinEq1:  Iter=  7 NonCon=     1 RMS=1.02D-06 Max=7.16D-06 NDo=     1
 LinEq1:  Iter=  8 NonCon=     1 RMS=1.52D-07 Max=1.07D-06 NDo=     1
 LinEq1:  Iter=  9 NonCon=     1 RMS=2.34D-08 Max=1.24D-07 NDo=     1
 LinEq1:  Iter= 10 NonCon=     1 RMS=3.37D-09 Max=1.85D-08 NDo=     1
 LinEq1:  Iter= 11 NonCon=     1 RMS=5.53D-10 Max=2.68D-09 NDo=     1
 LinEq1:  Iter= 12 NonCon=     0 RMS=7.26D-11 Max=4.08D-10 NDo=     1
 Linear equations converged to 1.000D-10 1.000D-09 after    12 iterations.
 End of Minotr F.D. properties file   721 does not exist.
 End of Minotr F.D. properties file   722 does not exist.
 End of Minotr F.D. properties file   788 does not exist.

 **********************************************************************

            Population analysis using the SCF Density.

 **********************************************************************

 Orbital symmetries:
       Occupied  (A') (A') (A') (A') (A') (A') (A') (A")
       Virtual   (A') (A') (A') (A") (A') (A") (A') (A') (A') (A')
                 (A") (A') (A') (A') (A") (A') (A') (A") (A') (A")
                 (A') (A') (A') (A') (A") (A') (A') (A') (A") (A')
                 (A') (A') (A") (A") (A') (A") (A') (A') (A') (A")
                 (A') (A') (A") (A') (A") (A') (A') (A') (A") (A')
                 (A") (A') (A') (A") (A') (A') (A') (A') (A") (A')
                 (A") (A') (A') (A') (A')
 The electronic state is 1-A'.
 Alpha  occ. eigenvalues --  -15.60200 -11.32870  -1.12642  -0.90262  -0.66802
 Alpha  occ. eigenvalues --   -0.61566  -0.43606  -0.38661
 Alpha virt. eigenvalues --    0.03363   0.04886   0.05620   0.05943   0.11005
 Alpha virt. eigenvalues --    0.12796   0.16371   0.16695   0.19712   0.20383
 Alpha virt. eigenvalues --    0.22020   0.26599   0.29938   0.32509   0.33766
 Alpha virt. eigenvalues --    0.34907   0.38856   0.42411   0.45601   0.47221
 Alpha virt. eigenvalues --    0.49897   0.53220   0.55343   0.58444   0.58765
 Alpha virt. eigenvalues --    0.61590   0.65088   0.65285   0.65595   0.69603
 Alpha virt. eigenvalues --    0.80569   0.86110   0.88041   0.90989   0.93083
 Alpha virt. eigenvalues --    1.00329   1.10209   1.14041   1.28535   1.37265
 Alpha virt. eigenvalues --    1.41838   1.51391   1.53877   1.54352   1.66012
 Alpha virt. eigenvalues --    1.69648   1.80704   1.93372   2.01477   2.03341
 Alpha virt. eigenvalues --    2.08089   2.18564   2.23674   2.29003   2.39934
 Alpha virt. eigenvalues --    2.44249   2.50970   2.59669   2.66786   2.70848
 Alpha virt. eigenvalues --    2.81057   3.00777   3.06938   3.16610   3.57220
          Condensed to atoms (all electrons):
               1          2          3          4          5
     1  C    4.067062   0.397460   0.275624   0.383303  -0.019036
     2  N    0.397460   6.879660   0.017510  -0.098990   0.315068
     3  H    0.275624   0.017510   1.189895  -0.282536  -0.022937
     4  H    0.383303  -0.098990  -0.282536   1.160890   0.017083
     5  H   -0.019036   0.315068  -0.022937   0.017083   0.737393
 Mulliken charges:
               1
     1  C    0.895588
     2  N   -0.510709
     3  H   -0.177556
     4  H   -0.179751
     5  H   -0.027571
 Sum of Mulliken charges =   0.00000
 Mulliken charges with hydrogens summed into heavy atoms:
               1
     1  C    0.538280
     2  N   -0.538280
 Electronic spatial extent (au):  <R**2>=             80.4911
 Charge=              0.0000 electrons
 Dipole moment (field-independent basis, Debye):
    X=             -1.3811    Y=              2.0956    Z=             -0.0000  Tot=              2.5097
 Quadrupole moment (field-independent basis, Debye-Ang):
   XX=            -12.2084   YY=            -11.3109   ZZ=            -14.8511
   XY=              2.6029   XZ=              0.0000   YZ=             -0.0000
 Traceless Quadrupole moment (field-independent basis, Debye-Ang):
   XX=              0.5818   YY=              1.4793   ZZ=             -2.0610
   XY=              2.6029   XZ=              0.0000   YZ=             -0.0000
 Octapole moment (field-independent basis, Debye-Ang**2):
  XXX=             -1.6508  YYY=              1.3730  ZZZ=              0.0000  XYY=             -3.1490
  XXY=              1.3853  XXZ=              0.0000  XZZ=             -0.4036  YZZ=              0.4448
  YYZ=              0.0000  XYZ=             -0.0000
 Hexadecapole moment (field-independent basis, Debye-Ang**3):
 XXXX=            -20.8316 YYYY=            -66.3632 ZZZZ=            -18.6819 XXXY=              0.9008
 XXXZ=              0.0000 YYYX=              3.8934 YYYZ=             -0.0000 ZZZX=              0.0000
 ZZZY=             -0.0000 XXYY=            -12.5500 XXZZ=             -7.1022 YYZZ=            -15.1840
 XXYZ=             -0.0000 YYXZ=              0.0000 ZZXY=             -0.1902
 N-N= 3.003681992127D+01 E-N=-2.793207439667D+02  KE= 9.343738888607D+01
 Symmetry A'   KE= 9.111617212438D+01
 Symmetry A"   KE= 2.321216761690D+00
 Calling FoFJK, ICntrl=  10002127 FMM=F ISym2X=1 I1Cent= 0 IOpClX= 0 NMat=1 NMatS=1 NMatT=0.
 ***** Axes restored to original set *****
 -------------------------------------------------------------------
 Center     Atomic                   Forces (Hartrees/Bohr)
 Number     Number              X              Y              Z
 -------------------------------------------------------------------
      1        6           0.191136512   -0.021061864    0.016380195
      2        7          -0.150267990    0.059633062   -0.046377754
      3        1          -0.025430501   -0.037095219    0.028849660
      4        1          -0.013423194    0.038336467   -0.029814999
      5        1          -0.002014827   -0.039812446    0.030962898
 -------------------------------------------------------------------
 Cartesian Forces:  Max     0.191136512 RMS     0.069987717

 GradGradGradGradGradGradGradGradGradGradGradGradGradGradGradGradGradGrad
 Berny optimization.
 FormGI is forming the generalized inverse of G from B-inverse, IUseBI=4.
 Internal  Forces:  Max     0.152282822 RMS     0.054874286
 Search for a local minimum.
 Step number   1 out of a maximum of   21
 All quantities printed in internal units (Hartrees-Bohrs-Radians)
 Mixed Optimization -- RFO/linear search
 Second derivative matrix not updated -- first step.
 The second derivative matrix:
                          R1        R2        R3        R4        A1
           R1           0.30670
           R2           0.00000   0.42477
           R3           0.00000   0.00000   0.42477
           R4           0.00000   0.00000   0.00000   0.50521
           A1           0.00000   0.00000   0.00000   0.00000   0.16000
           A2           0.00000   0.00000   0.00000   0.00000   0.00000
           A3           0.00000   0.00000   0.00000   0.00000   0.00000
           A4           0.00000   0.00000   0.00000   0.00000   0.00000
           D1           0.00000   0.00000   0.00000   0.00000   0.00000
           D2           0.00000   0.00000   0.00000   0.00000   0.00000
           D3           0.00000   0.00000   0.00000   0.00000   0.00000
                          A2        A3        A4        D1        D2
           A2           0.16000
           A3           0.00000   0.16000
           A4           0.00000   0.00000   0.16000
           D1           0.00000   0.00000   0.00000   0.00230
           D2           0.00000   0.00000   0.00000   0.00000   0.00230
           D3           0.00000   0.00000   0.00000   0.00000   0.00000
                          D3
           D3           0.01002
 ITU=  0
     Eigenvalues ---    0.00230   0.00745   0.16000   0.16000   0.16000
     Eigenvalues ---    0.30670   0.42477   0.42477   0.50521
 RFO step:  Lambda=-8.44358239D-02 EMin= 2.30000000D-03
 Linear search not attempted -- first point.
 Maximum step size (   0.300) exceeded in Quadratic search.
    -- Step size scaled by   0.632
 Iteration  1 RMS(Cart)=  0.09801073 RMS(Int)=  0.01506930
 Iteration  2 RMS(Cart)=  0.01713157 RMS(Int)=  0.00000634
 Iteration  3 RMS(Cart)=  0.00000638 RMS(Int)=  0.00000000
 Iteration  4 RMS(Cart)=  0.00000000 RMS(Int)=  0.00000000
 ClnCor:  largest displacement from symmetrization is 5.62D-09 for atom     2.
 Variable       Old X    -DE/DX   Delta X   Delta X   Delta X     New X
                                 (Linear)    (Quad)   (Total)
    R1        2.86647  -0.15228   0.00000  -0.24612  -0.24612   2.62035
    R2        1.95020   0.05341   0.00000   0.06631   0.06631   2.01651
    R3        1.95020   0.04877   0.00000   0.06055   0.06055   2.01074
    R4        1.86044   0.04267   0.00000   0.04575   0.04575   1.90618
    A1        2.09440   0.00631   0.00000   0.01633   0.01633   2.11072
    A2        2.09440  -0.01550   0.00000  -0.04008  -0.04008   2.05431
    A3        2.09440   0.00919   0.00000   0.02376   0.02376   2.11815
    A4        2.09440  -0.05016   0.00000  -0.12973  -0.12973   1.96466
    D1        0.00000   0.00000   0.00000   0.00000  -0.00000   0.00000
    D2        3.14159   0.00000   0.00000   0.00000   0.00000   3.14159
    D3        3.14159   0.00000   0.00000   0.00000   0.00000   3.14159
         Item               Value     Threshold  Converged?
 Maximum Force            0.152283     0.000450     NO 
 RMS     Force            0.054874     0.000300     NO 
 Maximum Displacement     0.242116     0.001800     NO 
 RMS     Displacement     0.112908     0.001200     NO 
 Predicted change in Energy=-4.030528D-02
 GradGradGradGradGradGradGradGradGradGradGradGradGradGradGradGradGradGrad

                          Input orientation:                          
 ---------------------------------------------------------------------
 Center     Atomic      Atomic             Coordinates (Angstroms)
 Number     Number       Type             X           Y           Z
 ---------------------------------------------------------------------
      1          6           0       -0.294548   -0.555750    0.005217
      2          7           0        1.090721   -0.507308   -0.032458
      3          1           0       -0.802064   -1.296715    0.581480
      4          1           0       -0.830421    0.169883   -0.559121
      5          1           0        1.518671   -1.228345    0.528307
 ---------------------------------------------------------------------
                    Distance matrix (angstroms):
                    1          2          3          4          5
     1  C    0.000000
     2  N    1.386627   0.000000
     3  H    1.067089   2.140728   0.000000
     4  H    1.064040   2.103984   1.858140   0.000000
     5  H    2.003440   1.008709   2.322351   2.942070   0.000000
 Stoichiometry    CH3N
 Framework group  CS[SG(CH3N)]
 Deg. of freedom     7
 Full point group                 CS      NOp   2
 Largest Abelian subgroup         CS      NOp   2
 Largest concise Abelian subgroup C1      NOp   1
                         Standard orientation:                         
 ---------------------------------------------------------------------
 Center     Atomic      Atomic             Coordinates (Angstroms)
 Number     Number       Type             X           Y           Z
 ---------------------------------------------------------------------
      1          6           0        0.056544    0.652306   -0.000000
      2          7           0        0.056544   -0.734321   -0.000000
      3          1           0       -0.858749    1.200868    0.000000
      4          1           0        0.998609    1.146971   -0.000000
      5          1           0       -0.874930   -1.121427    0.000000
 ---------------------------------------------------------------------
 Rotational constants (GHZ):         200.9926291          30.2215881          26.2713795
 Standard basis: Aug-CC-pVDZ (5D, 7F)
 There are    57 symmetry adapted cartesian basis functions of A'  symmetry.
 There are    20 symmetry adapted cartesian basis functions of A"  symmetry.
 There are    53 symmetry adapted basis functions of A'  symmetry.
 There are    20 symmetry adapted basis functions of A"  symmetry.
    73 basis functions,   119 primitive gaussians,    77 cartesian basis functions
     8 alpha electrons        8 beta electrons
       nuclear repulsion energy        31.4283623697 Hartrees.
 NAtoms=    5 NActive=    5 NUniq=    5 SFac= 1.00D+00 NAtFMM=   60 NAOKFM=F Big=F
 Integral buffers will be    131072 words long.
 Raffenetti 1 integral format.
 Two-electron integral symmetry is turned on.
 One-electron integrals computed using PRISM.
 NBasis=    73 RedAO= T EigKep=  5.71D-04  NBF=    53    20
 NBsUse=    73 1.00D-06 EigRej= -1.00D+00 NBFU=    53    20
 Initial guess from the checkpoint file:  "/scr/Gau-80222.chk"
 B after Tr=     0.000000    0.000000    0.000000
         Rot=    0.999931   -0.000000   -0.000000    0.011765 Ang=   1.35 deg.
 Initial guess orbital symmetries:
       Occupied  (A') (A') (A') (A') (A') (A') (A') (A")
       Virtual   (A') (A') (A') (A") (A') (A") (A') (A') (A') (A')
                 (A") (A') (A') (A') (A") (A') (A') (A") (A') (A")
                 (A') (A') (A') (A') (A") (A') (A') (A') (A") (A')
                 (A') (A') (A") (A") (A') (A") (A') (A') (A') (A")
                 (A') (A') (A") (A') (A") (A') (A') (A') (A") (A')
                 (A") (A') (A') (A") (A') (A') (A') (A') (A") (A')
                 (A") (A') (A') (A') (A')
 ExpMin= 2.97D-02 ExpMax= 9.05D+03 ExpMxC= 3.09D+02 IAcc=3 IRadAn=         5 AccDes= 0.00D+00
 Harris functional with IExCor=  205 and IRadAn=       5 diagonalized for initial guess.
 HarFok:  IExCor=  205 AccDes= 0.00D+00 IRadAn=         5 IDoV= 1 UseB2=F ITyADJ=14
 ICtDFT=  3500011 ScaDFX=  1.000000  1.000000  1.000000  1.000000
 FoFCou: FMM=F IPFlag=           0 FMFlag=      100000 FMFlg1=           0
         NFxFlg=           0 DoJE=T BraDBF=F KetDBF=T FulRan=T
         wScrn=  0.000000 ICntrl=       500 IOpCl=  0 I1Cent=   200000004 NGrid=           0
         NMat0=    1 NMatS0=      1 NMatT0=    0 NMatD0=    1 NMtDS0=    0 NMtDT0=    0
 Petite list used in FoFCou.
 Keep R1 ints in memory in symmetry-blocked form, NReq=8672463.
 Requested convergence on RMS density matrix=1.00D-08 within 128 cycles.
 Requested convergence on MAX density matrix=1.00D-06.
 Requested convergence on             energy=1.00D-06.
 No special actions if energy rises.
 SCF Done:  E(RHF) =  -94.0258969167     A.U. after   11 cycles
            NFock= 11  Conv=0.80D-08     -V/T= 2.0048
 ExpMin= 2.97D-02 ExpMax= 9.05D+03 ExpMxC= 3.09D+02 IAcc=3 IRadAn=         5 AccDes= 0.00D+00
 HarFok:  IExCor=  205 AccDes= 0.00D+00 IRadAn=         5 IDoV=-2 UseB2=F ITyADJ=14
 ICtDFT= 12500011 ScaDFX=  1.000000  1.000000  1.000000  1.000000
 Range of M.O.s used for correlation:     3    73
 NBasis=    73 NAE=     8 NBE=     8 NFC=     2 NFV=     0
 NROrb=     71 NOA=     6 NOB=     6 NVA=    65 NVB=    65

 **** Warning!!: The largest alpha MO coefficient is  0.14145022D+02

 Fully direct method using O(ONN) memory.
 JobTyp=1 Pass  1:  I=   3 to   8 NPSUse= 24 ParTrn=T ParDer=T DoDerP=T.
 Spin components of T(2) and E(2):
     alpha-alpha T2 =       0.1457790574D-01 E2=     -0.3868711787D-01
     alpha-beta  T2 =       0.9257275627D-01 E2=     -0.2478591369D+00
     beta-beta   T2 =       0.1457790574D-01 E2=     -0.3868711787D-01
 ANorm=    0.1059116881D+01
 E2 =    -0.3252333727D+00 EUMP2 =    -0.94351130289424D+02
          IDoAtm=11111
          Differentiating once with respect to electric field.
                with respect to dipole field.
          Differentiating once with respect to nuclear coordinates.
 Keep R1 ints in memory in symmetry-blocked form, NReq=8673933.
          There are     1 degrees of freedom in the 1st order CPHF.  IDoFFX=0 NUNeed=     1.
 LinEq1:  Iter=  0 NonCon=     1 RMS=6.76D-03 Max=6.31D-02 NDo=     1
 AX will form     1 AO Fock derivatives at one time.
 LinEq1:  Iter=  1 NonCon=     1 RMS=1.58D-03 Max=1.33D-02 NDo=     1
 LinEq1:  Iter=  2 NonCon=     1 RMS=5.94D-04 Max=6.70D-03 NDo=     1
 LinEq1:  Iter=  3 NonCon=     1 RMS=2.50D-04 Max=2.17D-03 NDo=     1
 LinEq1:  Iter=  4 NonCon=     1 RMS=5.93D-05 Max=3.72D-04 NDo=     1
 LinEq1:  Iter=  5 NonCon=     1 RMS=1.10D-05 Max=8.43D-05 NDo=     1
 LinEq1:  Iter=  6 NonCon=     1 RMS=2.31D-06 Max=1.88D-05 NDo=     1
 LinEq1:  Iter=  7 NonCon=     1 RMS=4.34D-07 Max=3.21D-06 NDo=     1
 LinEq1:  Iter=  8 NonCon=     1 RMS=8.58D-08 Max=6.06D-07 NDo=     1
 LinEq1:  Iter=  9 NonCon=     1 RMS=1.74D-08 Max=8.83D-08 NDo=     1
 LinEq1:  Iter= 10 NonCon=     1 RMS=2.44D-09 Max=1.21D-08 NDo=     1
 LinEq1:  Iter= 11 NonCon=     1 RMS=3.11D-10 Max=1.42D-09 NDo=     1
 LinEq1:  Iter= 12 NonCon=     0 RMS=3.45D-11 Max=2.47D-10 NDo=     1
 Linear equations converged to 1.000D-10 1.000D-09 after    12 iterations.
 End of Minotr F.D. properties file   721 does not exist.
 End of Minotr F.D. properties file   722 does not exist.
 End of Minotr F.D. properties file   788 does not exist.
 Calling FoFJK, ICntrl=  10002127 FMM=F ISym2X=1 I1Cent= 0 IOpClX= 0 NMat=1 NMatS=1 NMatT=0.
 ***** Axes restored to original set *****
 -------------------------------------------------------------------
 Center     Atomic                   Forces (Hartrees/Bohr)
 Number     Number              X              Y              Z
 -------------------------------------------------------------------
      1        6           0.115872867   -0.006612533    0.005142682
      2        7          -0.090100857    0.022198057   -0.017263843
      3        1          -0.014055625   -0.014378078    0.011182106
      4        1          -0.009572825    0.015032436   -0.011691011
      5        1          -0.002143560   -0.016239882    0.012630066
 -------------------------------------------------------------------
 Cartesian Forces:  Max     0.115872867 RMS     0.039847310

 GradGradGradGradGradGradGradGradGradGradGradGradGradGradGradGradGradGrad
 Berny optimization.
 Using GEDIIS/GDIIS optimizer.
 FormGI is forming the generalized inverse of G from B-inverse, IUseBI=4.
 Internal  Forces:  Max     0.091819984 RMS     0.030423930
 Search for a local minimum.
 Step number   2 out of a maximum of   21
 All quantities printed in internal units (Hartrees-Bohrs-Radians)
 Mixed Optimization -- RFO/linear search
 Update second derivatives using D2CorX and points    1    2
 DE= -4.26D-02 DEPred=-4.03D-02 R= 1.06D+00
 TightC=F SS=  1.41D+00  RLast= 3.00D-01 DXNew= 5.0454D-01 9.0000D-01
 Trust test= 1.06D+00 RLast= 3.00D-01 DXMaxT set to 5.05D-01
 The second derivative matrix:
                          R1        R2        R3        R4        A1
           R1           0.23915
           R2           0.00495   0.43322
           R3           0.00586   0.00703   0.43058
           R4           0.00467   0.00662   0.00549   0.51039
           A1           0.00642  -0.00224  -0.00206  -0.00184   0.15975
           A2           0.00944  -0.00729  -0.00641  -0.00587   0.00043
           A3          -0.01586   0.00953   0.00847   0.00771  -0.00018
           A4           0.01426  -0.01531  -0.01332  -0.01226   0.00152
           D1          -0.00000   0.00000   0.00000   0.00000   0.00000
           D2           0.00000  -0.00000  -0.00000  -0.00000  -0.00000
           D3          -0.00000   0.00000   0.00000   0.00000   0.00000
                          A2        A3        A4        D1        D2
           A2           0.16363
           A3          -0.00406   0.16424
           A4           0.00870  -0.01022   0.18011
           D1          -0.00000   0.00000  -0.00000   0.00230
           D2           0.00000  -0.00000   0.00000   0.00000   0.00230
           D3          -0.00000   0.00000  -0.00000  -0.00000   0.00000
                          D3
           D3           0.01002
 ITU=  1  0
 Use linear search instead of GDIIS.
     Eigenvalues ---    0.00230   0.00757   0.15717   0.16000   0.17777
     Eigenvalues ---    0.24840   0.42476   0.44038   0.51258
 RFO step:  Lambda=-4.63809450D-03 EMin= 2.30000000D-03
 Quartic linear search produced a step of  0.72394.
 Iteration  1 RMS(Cart)=  0.05051732 RMS(Int)=  0.01779631
 Iteration  2 RMS(Cart)=  0.01884813 RMS(Int)=  0.00002649
 Iteration  3 RMS(Cart)=  0.00002290 RMS(Int)=  0.00000001
 Iteration  4 RMS(Cart)=  0.00000000 RMS(Int)=  0.00000001
 ClnCor:  largest displacement from symmetrization is 9.18D-08 for atom     5.
 Variable       Old X    -DE/DX   Delta X   Delta X   Delta X     New X
                                 (Linear)    (Quad)   (Total)
    R1        2.62035  -0.09182  -0.17818  -0.08062  -0.25880   2.36155
    R2        2.01651   0.02271   0.04800  -0.01124   0.03677   2.05327
    R3        2.01074   0.02127   0.04383  -0.00810   0.03573   2.04648
    R4        1.90618   0.01772   0.03312  -0.00704   0.02608   1.93226
    A1        2.11072   0.00586   0.01182   0.02273   0.03455   2.14527
    A2        2.05431  -0.00426  -0.02902   0.05024   0.02122   2.07553
    A3        2.11815  -0.00160   0.01720  -0.07297  -0.05577   2.06238
    A4        1.96466  -0.02034  -0.09392   0.09395   0.00003   1.96470
    D1        0.00000   0.00000  -0.00000  -0.00000  -0.00000   0.00000
    D2       -3.14159   0.00000   0.00000  -0.00000  -0.00000   3.14159
    D3        3.14159  -0.00000   0.00000  -0.00000   0.00000   3.14159
         Item               Value     Threshold  Converged?
 Maximum Force            0.091820     0.000450     NO 
 RMS     Force            0.030424     0.000300     NO 
 Maximum Displacement     0.136496     0.001800     NO 
 RMS     Displacement     0.068491     0.001200     NO 
 Predicted change in Energy=-1.739683D-02
 GradGradGradGradGradGradGradGradGradGradGradGradGradGradGradGradGradGrad

                          Input orientation:                          
 ---------------------------------------------------------------------
 Center     Atomic      Atomic             Coordinates (Angstroms)
 Number     Number       Type             X           Y           Z
 ---------------------------------------------------------------------
      1          6           0       -0.229059   -0.556850    0.006072
      2          7           0        1.018490   -0.499291   -0.038692
      3          1           0       -0.765256   -1.302829    0.586235
      4          1           0       -0.807162    0.166012   -0.556111
      5          1           0        1.465345   -1.225276    0.525920
 ---------------------------------------------------------------------
                    Distance matrix (angstroms):
                    1          2          3          4          5
     1  C    0.000000
     2  N    1.249678   0.000000
     3  H    1.086545   2.053767   0.000000
     4  H    1.082950   2.010809   1.861236   0.000000
     5  H    1.894213   1.022508   2.232764   2.875893   0.000000
 Stoichiometry    CH3N
 Framework group  CS[SG(CH3N)]
 Deg. of freedom     7
 Full point group                 CS      NOp   2
 Largest Abelian subgroup         CS      NOp   2
 Largest concise Abelian subgroup C1      NOp   1
                         Standard orientation:                         
 ---------------------------------------------------------------------
 Center     Atomic      Atomic             Coordinates (Angstroms)
 Number     Number       Type             X           Y           Z
 ---------------------------------------------------------------------
      1          6           0        0.056776    0.579734   -0.000000
      2          7           0        0.056776   -0.669944    0.000000
      3          1           0       -0.855353    1.170159    0.000000
      4          1           0        1.004687    1.103420   -0.000000
      5          1           0       -0.887427   -1.062375    0.000000
 ---------------------------------------------------------------------
 Rotational constants (GHZ):         199.3755561          35.8641276          30.3963612
 Standard basis: Aug-CC-pVDZ (5D, 7F)
 There are    57 symmetry adapted cartesian basis functions of A'  symmetry.
 There are    20 symmetry adapted cartesian basis functions of A"  symmetry.
 There are    53 symmetry adapted basis functions of A'  symmetry.
 There are    20 symmetry adapted basis functions of A"  symmetry.
    73 basis functions,   119 primitive gaussians,    77 cartesian basis functions
     8 alpha electrons        8 beta electrons
       nuclear repulsion energy        33.2889782231 Hartrees.
 NAtoms=    5 NActive=    5 NUniq=    5 SFac= 1.00D+00 NAtFMM=   60 NAOKFM=F Big=F
 Integral buffers will be    131072 words long.
 Raffenetti 1 integral format.
 Two-electron integral symmetry is turned on.
 One-electron integrals computed using PRISM.
 NBasis=    73 RedAO= T EigKep=  5.12D-04  NBF=    53    20
 NBsUse=    73 1.00D-06 EigRej= -1.00D+00 NBFU=    53    20
 Initial guess from the checkpoint file:  "/scr/Gau-80222.chk"
 B after Tr=    -0.000000    0.000000   -0.000000
         Rot=    0.999993    0.000000    0.000000    0.003821 Ang=   0.44 deg.
 Initial guess orbital symmetries:
       Occupied  (A') (A') (A') (A') (A') (A') (A') (A")
       Virtual   (A') (A') (A') (A") (A') (A") (A') (A') (A') (A')
                 (A") (A') (A') (A') (A") (A') (A') (A") (A') (A")
                 (A') (A') (A') (A") (A') (A') (A') (A") (A') (A')
                 (A') (A') (A") (A") (A') (A") (A') (A') (A') (A")
                 (A') (A') (A") (A') (A") (A') (A') (A') (A") (A')
                 (A") (A') (A") (A') (A') (A') (A') (A') (A") (A')
                 (A") (A') (A') (A') (A')
 ExpMin= 2.97D-02 ExpMax= 9.05D+03 ExpMxC= 3.09D+02 IAcc=3 IRadAn=         5 AccDes= 0.00D+00
 Harris functional with IExCor=  205 and IRadAn=       5 diagonalized for initial guess.
 HarFok:  IExCor=  205 AccDes= 0.00D+00 IRadAn=         5 IDoV= 1 UseB2=F ITyADJ=14
 ICtDFT=  3500011 ScaDFX=  1.000000  1.000000  1.000000  1.000000
 FoFCou: FMM=F IPFlag=           0 FMFlag=      100000 FMFlg1=           0
         NFxFlg=           0 DoJE=T BraDBF=F KetDBF=T FulRan=T
         wScrn=  0.000000 ICntrl=       500 IOpCl=  0 I1Cent=   200000004 NGrid=           0
         NMat0=    1 NMatS0=      1 NMatT0=    0 NMatD0=    1 NMtDS0=    0 NMtDT0=    0
 Petite list used in FoFCou.
 Keep R1 ints in memory in symmetry-blocked form, NReq=8672892.
 Requested convergence on RMS density matrix=1.00D-08 within 128 cycles.
 Requested convergence on MAX density matrix=1.00D-06.
 Requested convergence on             energy=1.00D-06.
 No special actions if energy rises.
 SCF Done:  E(RHF) =  -94.0473308639     A.U. after   11 cycles
            NFock= 11  Conv=0.35D-08     -V/T= 2.0012
 ExpMin= 2.97D-02 ExpMax= 9.05D+03 ExpMxC= 3.09D+02 IAcc=3 IRadAn=         5 AccDes= 0.00D+00
 HarFok:  IExCor=  205 AccDes= 0.00D+00 IRadAn=         5 IDoV=-2 UseB2=F ITyADJ=14
 ICtDFT= 12500011 ScaDFX=  1.000000  1.000000  1.000000  1.000000
 Range of M.O.s used for correlation:     3    73
 NBasis=    73 NAE=     8 NBE=     8 NFC=     2 NFV=     0
 NROrb=     71 NOA=     6 NOB=     6 NVA=    65 NVB=    65

 **** Warning!!: The largest alpha MO coefficient is  0.14452847D+02

 Fully direct method using O(ONN) memory.
 JobTyp=1 Pass  1:  I=   3 to   8 NPSUse= 24 ParTrn=T ParDer=T DoDerP=T.
 Spin components of T(2) and E(2):
     alpha-alpha T2 =       0.1301529816D-01 E2=     -0.3718210021D-01
     alpha-beta  T2 =       0.8260053244D-01 E2=     -0.2385584721D+00
     beta-beta   T2 =       0.1301529816D-01 E2=     -0.3718210021D-01
 ANorm=    0.1052915537D+01
 E2 =    -0.3129226725D+00 EUMP2 =    -0.94360253536398D+02
          IDoAtm=11111
          Differentiating once with respect to electric field.
                with respect to dipole field.
          Differentiating once with respect to nuclear coordinates.
 Keep R1 ints in memory in symmetry-blocked form, NReq=8674323.
          There are     1 degrees of freedom in the 1st order CPHF.  IDoFFX=0 NUNeed=     1.
 LinEq1:  Iter=  0 NonCon=     1 RMS=5.55D-03 Max=5.15D-02 NDo=     1
 AX will form     1 AO Fock derivatives at one time.
 LinEq1:  Iter=  1 NonCon=     1 RMS=1.13D-03 Max=9.52D-03 NDo=     1
 LinEq1:  Iter=  2 NonCon=     1 RMS=3.89D-04 Max=3.46D-03 NDo=     1
 LinEq1:  Iter=  3 NonCon=     1 RMS=1.39D-04 Max=1.39D-03 NDo=     1
 LinEq1:  Iter=  4 NonCon=     1 RMS=4.19D-05 Max=2.41D-04 NDo=     1
 LinEq1:  Iter=  5 NonCon=     1 RMS=9.81D-06 Max=9.61D-05 NDo=     1
 LinEq1:  Iter=  6 NonCon=     1 RMS=1.90D-06 Max=1.41D-05 NDo=     1
 LinEq1:  Iter=  7 NonCon=     1 RMS=2.56D-07 Max=1.43D-06 NDo=     1
 LinEq1:  Iter=  8 NonCon=     1 RMS=4.59D-08 Max=2.55D-07 NDo=     1
 LinEq1:  Iter=  9 NonCon=     1 RMS=7.11D-09 Max=3.41D-08 NDo=     1
 LinEq1:  Iter= 10 NonCon=     1 RMS=1.18D-09 Max=8.16D-09 NDo=     1
 LinEq1:  Iter= 11 NonCon=     1 RMS=1.54D-10 Max=6.70D-10 NDo=     1
 LinEq1:  Iter= 12 NonCon=     0 RMS=1.97D-11 Max=1.24D-10 NDo=     1
 Linear equations converged to 1.000D-10 1.000D-09 after    12 iterations.
 End of Minotr F.D. properties file   721 does not exist.
 End of Minotr F.D. properties file   722 does not exist.
 End of Minotr F.D. properties file   788 does not exist.
 Calling FoFJK, ICntrl=  10002127 FMM=F ISym2X=1 I1Cent= 0 IOpClX= 0 NMat=1 NMatS=1 NMatT=0.
 ***** Axes restored to original set *****
 -------------------------------------------------------------------
 Center     Atomic                   Forces (Hartrees/Bohr)
 Number     Number              X              Y              Z
 -------------------------------------------------------------------
      1        6          -0.039395299   -0.006542601    0.005088309
      2        7           0.056986358    0.009682980   -0.007530643
      3        1          -0.009809044   -0.006477163    0.005037414
      4        1          -0.006813904    0.006551301   -0.005095071
      5        1          -0.000968111   -0.003214517    0.002499991
 -------------------------------------------------------------------
 Cartesian Forces:  Max     0.056986358 RMS     0.018823703

 GradGradGradGradGradGradGradGradGradGradGradGradGradGradGradGradGradGrad
 Berny optimization.
 Using GEDIIS/GDIIS optimizer.
 FormGI is forming the generalized inverse of G from B-inverse, IUseBI=4.
 Internal  Forces:  Max     0.056400940 RMS     0.017887219
 Search for a local minimum.
 Step number   3 out of a maximum of   21
 All quantities printed in internal units (Hartrees-Bohrs-Radians)
 Mixed Optimization -- RFO/linear search
 Update second derivatives using D2CorX and points    1    2    3
 DE= -9.12D-03 DEPred=-1.74D-02 R= 5.24D-01
 TightC=F SS=  1.41D+00  RLast= 2.74D-01 DXNew= 8.4853D-01 8.2180D-01
 Trust test= 5.24D-01 RLast= 2.74D-01 DXMaxT set to 8.22D-01
 The second derivative matrix:
                          R1        R2        R3        R4        A1
           R1           0.58836
           R2           0.01280   0.41758
           R3           0.01188  -0.00724   0.41757
           R4          -0.00959  -0.00408  -0.00420   0.50416
           A1           0.01712  -0.00521  -0.00481  -0.00436   0.15936
           A2           0.02403  -0.00615  -0.00543  -0.00589   0.00093
           A3          -0.04115   0.01136   0.01024   0.01026  -0.00028
           A4           0.05922  -0.01016  -0.00881  -0.01131   0.00351
           D1           0.00000   0.00000   0.00000   0.00000   0.00000
           D2          -0.00000   0.00000   0.00000   0.00000   0.00000
           D3           0.00000   0.00000   0.00000   0.00000  -0.00000
                          A2        A3        A4        D1        D2
           A2           0.16400
           A3          -0.00493   0.16521
           A4           0.00999  -0.01350   0.18409
           D1          -0.00000   0.00000  -0.00000   0.00230
           D2           0.00000  -0.00000  -0.00000   0.00000   0.00230
           D3          -0.00000   0.00000  -0.00000  -0.00000   0.00000
                          D3
           D3           0.01002
 ITU=  1  1  0
 Use linear search instead of GDIIS.
     Eigenvalues ---    0.00230   0.00742   0.15575   0.16004   0.17847
     Eigenvalues ---    0.41216   0.42482   0.50335   0.60572
 RFO step:  Lambda=-2.43112572D-03 EMin= 2.30000000D-03
 Quartic linear search produced a step of -0.25534.
 Iteration  1 RMS(Cart)=  0.03138086 RMS(Int)=  0.00054537
 Iteration  2 RMS(Cart)=  0.00055487 RMS(Int)=  0.00000014
 Iteration  3 RMS(Cart)=  0.00000012 RMS(Int)=  0.00000000
 ClnCor:  largest displacement from symmetrization is 4.70D-08 for atom     2.
 Variable       Old X    -DE/DX   Delta X   Delta X   Delta X     New X
                                 (Linear)    (Quad)   (Total)
    R1        2.36155   0.05640   0.06608   0.01201   0.07809   2.43964
    R2        2.05327   0.01198  -0.00939   0.03969   0.03030   2.08357
    R3        2.04648   0.01066  -0.00912   0.03647   0.02734   2.07382
    R4        1.93226   0.00324  -0.00666   0.01684   0.01019   1.94245
    A1        2.14527   0.00523  -0.00882   0.04521   0.03639   2.18167
    A2        2.07553  -0.00125  -0.00542  -0.00349  -0.00891   2.06662
    A3        2.06238  -0.00398   0.01424  -0.04173  -0.02749   2.03489
    A4        1.96470  -0.00512  -0.00001  -0.05087  -0.05088   1.91382
    D1       -0.00000   0.00000   0.00000  -0.00000   0.00000   0.00000
    D2        3.14159   0.00000   0.00000  -0.00000   0.00000   3.14159
    D3        3.14159  -0.00000   0.00000  -0.00000   0.00000   3.14159
         Item               Value     Threshold  Converged?
 Maximum Force            0.056401     0.000450     NO 
 RMS     Force            0.017887     0.000300     NO 
 Maximum Displacement     0.073087     0.001800     NO 
 RMS     Displacement     0.031323     0.001200     NO 
 Predicted change in Energy=-3.174636D-03
 GradGradGradGradGradGradGradGradGradGradGradGradGradGradGradGradGradGrad

                          Input orientation:                          
 ---------------------------------------------------------------------
 Center     Atomic      Atomic             Coordinates (Angstroms)
 Number     Number       Type             X           Y           Z
 ---------------------------------------------------------------------
      1          6           0       -0.230414   -0.561377    0.009593
      2          7           0        1.057166   -0.487207   -0.048090
      3          1           0       -0.795421   -1.308765    0.590851
      4          1           0       -0.821390    0.168561   -0.558094
      5          1           0        1.472418   -1.229447    0.529164
 ---------------------------------------------------------------------
                    Distance matrix (angstroms):
                    1          2          3          4          5
     1  C    0.000000
     2  N    1.291004   0.000000
     3  H    1.102580   2.124919   0.000000
     4  H    1.097420   2.054047   1.871695   0.000000
     5  H    1.901554   1.027898   2.270064   2.897949   0.000000
 Stoichiometry    CH3N
 Framework group  CS[SG(CH3N)]
 Deg. of freedom     7
 Full point group                 CS      NOp   2
 Largest Abelian subgroup         CS      NOp   2
 Largest concise Abelian subgroup C1      NOp   1
                         Standard orientation:                         
 ---------------------------------------------------------------------
 Center     Atomic      Atomic             Coordinates (Angstroms)
 Number     Number       Type             X           Y           Z
 ---------------------------------------------------------------------
      1          6           0        0.056621    0.594951    0.000000
      2          7           0        0.056621   -0.696052   -0.000000
      3          1           0       -0.846557    1.227369   -0.000000
      4          1           0        1.021884    1.117060    0.000000
      5          1           0       -0.911395   -1.041769   -0.000000
 ---------------------------------------------------------------------
 Rotational constants (GHZ):         194.0906258          33.8799463          28.8448632
 Standard basis: Aug-CC-pVDZ (5D, 7F)
 There are    57 symmetry adapted cartesian basis functions of A'  symmetry.
 There are    20 symmetry adapted cartesian basis functions of A"  symmetry.
 There are    53 symmetry adapted basis functions of A'  symmetry.
 There are    20 symmetry adapted basis functions of A"  symmetry.
    73 basis functions,   119 primitive gaussians,    77 cartesian basis functions
     8 alpha electrons        8 beta electrons
       nuclear repulsion energy        32.5069947425 Hartrees.
 NAtoms=    5 NActive=    5 NUniq=    5 SFac= 1.00D+00 NAtFMM=   60 NAOKFM=F Big=F
 Integral buffers will be    131072 words long.
 Raffenetti 1 integral format.
 Two-electron integral symmetry is turned on.
 One-electron integrals computed using PRISM.
 NBasis=    73 RedAO= T EigKep=  5.51D-04  NBF=    53    20
 NBsUse=    73 1.00D-06 EigRej= -1.00D+00 NBFU=    53    20
 Initial guess from the checkpoint file:  "/scr/Gau-80222.chk"
 B after Tr=    -0.000000   -0.000000   -0.000000
         Rot=    0.999988   -0.000000    0.000000    0.004851 Ang=   0.56 deg.
 Initial guess orbital symmetries:
       Occupied  (A') (A') (A') (A') (A') (A') (A") (A')
       Virtual   (A') (A') (A') (A") (A') (A") (A') (A') (A') (A')
                 (A") (A') (A') (A') (A") (A') (A') (A") (A') (A")
                 (A') (A') (A') (A") (A') (A') (A') (A") (A') (A')
                 (A') (A") (A') (A") (A') (A") (A') (A') (A') (A")
                 (A') (A') (A") (A') (A") (A') (A') (A') (A") (A')
                 (A") (A') (A") (A') (A') (A') (A') (A') (A") (A')
                 (A") (A') (A') (A') (A')
 ExpMin= 2.97D-02 ExpMax= 9.05D+03 ExpMxC= 3.09D+02 IAcc=3 IRadAn=         5 AccDes= 0.00D+00
 Harris functional with IExCor=  205 and IRadAn=       5 diagonalized for initial guess.
 HarFok:  IExCor=  205 AccDes= 0.00D+00 IRadAn=         5 IDoV= 1 UseB2=F ITyADJ=14
 ICtDFT=  3500011 ScaDFX=  1.000000  1.000000  1.000000  1.000000
 FoFCou: FMM=F IPFlag=           0 FMFlag=      100000 FMFlg1=           0
         NFxFlg=           0 DoJE=T BraDBF=F KetDBF=T FulRan=T
         wScrn=  0.000000 ICntrl=       500 IOpCl=  0 I1Cent=   200000004 NGrid=           0
         NMat0=    1 NMatS0=      1 NMatT0=    0 NMatD0=    1 NMtDS0=    0 NMtDT0=    0
 Petite list used in FoFCou.
 Keep R1 ints in memory in symmetry-blocked form, NReq=8672697.
 Requested convergence on RMS density matrix=1.00D-08 within 128 cycles.
 Requested convergence on MAX density matrix=1.00D-06.
 Requested convergence on             energy=1.00D-06.
 No special actions if energy rises.
 SCF Done:  E(RHF) =  -94.0451994403     A.U. after   10 cycles
            NFock= 10  Conv=0.77D-08     -V/T= 2.0033
 ExpMin= 2.97D-02 ExpMax= 9.05D+03 ExpMxC= 3.09D+02 IAcc=3 IRadAn=         5 AccDes= 0.00D+00
 HarFok:  IExCor=  205 AccDes= 0.00D+00 IRadAn=         5 IDoV=-2 UseB2=F ITyADJ=14
 ICtDFT= 12500011 ScaDFX=  1.000000  1.000000  1.000000  1.000000
 Range of M.O.s used for correlation:     3    73
 NBasis=    73 NAE=     8 NBE=     8 NFC=     2 NFV=     0
 NROrb=     71 NOA=     6 NOB=     6 NVA=    65 NVB=    65

 **** Warning!!: The largest alpha MO coefficient is  0.14255286D+02

 Fully direct method using O(ONN) memory.
 JobTyp=1 Pass  1:  I=   3 to   8 NPSUse= 24 ParTrn=T ParDer=T DoDerP=T.
 Spin components of T(2) and E(2):
     alpha-alpha T2 =       0.1355795638D-01 E2=     -0.3771591567D-01
     alpha-beta  T2 =       0.8623755251D-01 E2=     -0.2422312108D+00
     beta-beta   T2 =       0.1355795638D-01 E2=     -0.3771591567D-01
 ANorm=    0.1055155659D+01
 E2 =    -0.3176630421D+00 EUMP2 =    -0.94362862482364D+02
          IDoAtm=11111
          Differentiating once with respect to electric field.
                with respect to dipole field.
          Differentiating once with respect to nuclear coordinates.
 Keep R1 ints in memory in symmetry-blocked form, NReq=8674089.
          There are     1 degrees of freedom in the 1st order CPHF.  IDoFFX=0 NUNeed=     1.
 LinEq1:  Iter=  0 NonCon=     1 RMS=5.91D-03 Max=5.53D-02 NDo=     1
 AX will form     1 AO Fock derivatives at one time.
 LinEq1:  Iter=  1 NonCon=     1 RMS=1.28D-03 Max=9.69D-03 NDo=     1
 LinEq1:  Iter=  2 NonCon=     1 RMS=4.45D-04 Max=4.36D-03 NDo=     1
 LinEq1:  Iter=  3 NonCon=     1 RMS=1.70D-04 Max=1.70D-03 NDo=     1
 LinEq1:  Iter=  4 NonCon=     1 RMS=4.59D-05 Max=2.61D-04 NDo=     1
 LinEq1:  Iter=  5 NonCon=     1 RMS=9.83D-06 Max=8.22D-05 NDo=     1
 LinEq1:  Iter=  6 NonCon=     1 RMS=2.06D-06 Max=1.76D-05 NDo=     1
 LinEq1:  Iter=  7 NonCon=     1 RMS=3.08D-07 Max=1.81D-06 NDo=     1
 LinEq1:  Iter=  8 NonCon=     1 RMS=6.01D-08 Max=3.30D-07 NDo=     1
 LinEq1:  Iter=  9 NonCon=     1 RMS=1.14D-08 Max=6.93D-08 NDo=     1
 LinEq1:  Iter= 10 NonCon=     1 RMS=1.77D-09 Max=1.08D-08 NDo=     1
 LinEq1:  Iter= 11 NonCon=     1 RMS=2.19D-10 Max=1.08D-09 NDo=     1
 LinEq1:  Iter= 12 NonCon=     0 RMS=2.46D-11 Max=1.86D-10 NDo=     1
 Linear equations converged to 1.000D-10 1.000D-09 after    12 iterations.
 End of Minotr F.D. properties file   721 does not exist.
 End of Minotr F.D. properties file   722 does not exist.
 End of Minotr F.D. properties file   788 does not exist.
 Calling FoFJK, ICntrl=  10002127 FMM=F ISym2X=1 I1Cent= 0 IOpClX= 0 NMat=1 NMatS=1 NMatT=0.
 ***** Axes restored to original set *****
 -------------------------------------------------------------------
 Center     Atomic                   Forces (Hartrees/Bohr)
 Number     Number              X              Y              Z
 -------------------------------------------------------------------
      1        6           0.000447988    0.000322496   -0.000250811
      2        7          -0.002298567    0.000464496   -0.000361248
      3        1           0.001191061   -0.000273169    0.000212449
      4        1           0.000575712    0.000250191   -0.000194578
      5        1           0.000083807   -0.000764014    0.000594188
 -------------------------------------------------------------------
 Cartesian Forces:  Max     0.002298567 RMS     0.000770773

 GradGradGradGradGradGradGradGradGradGradGradGradGradGradGradGradGradGrad
 Berny optimization.
 Using GEDIIS/GDIIS optimizer.
 FormGI is forming the generalized inverse of G from B-inverse, IUseBI=4.
 Internal  Forces:  Max     0.002236502 RMS     0.000927071
 Search for a local minimum.
 Step number   4 out of a maximum of   21
 All quantities printed in internal units (Hartrees-Bohrs-Radians)
 Mixed Optimization -- En-DIIS/RFO-DIIS
 Update second derivatives using D2CorX and points    1    2    3    4
 DE= -2.61D-03 DEPred=-3.17D-03 R= 8.22D-01
 TightC=F SS=  1.41D+00  RLast= 1.12D-01 DXNew= 1.3821D+00 3.3697D-01
 Trust test= 8.22D-01 RLast= 1.12D-01 DXMaxT set to 8.22D-01
 The second derivative matrix:
                          R1        R2        R3        R4        A1
           R1           0.75400
           R2           0.02003   0.40181
           R3           0.01581  -0.02284   0.40227
           R4          -0.02054  -0.01445  -0.01411   0.49897
           A1           0.02500  -0.01264  -0.01209  -0.00976   0.15659
           A2           0.01855  -0.01036  -0.00911  -0.00771  -0.00049
           A3          -0.04355   0.02300   0.02119   0.01747   0.00389
           A4           0.05930  -0.00634  -0.00473  -0.00849   0.00579
           D1          -0.00000   0.00000   0.00000   0.00000  -0.00000
           D2          -0.00000   0.00000   0.00000   0.00000   0.00000
           D3          -0.00000  -0.00000  -0.00000  -0.00000  -0.00000
                          A2        A3        A4        D1        D2
           A2           0.16488
           A3          -0.00439   0.16050
           A4           0.01219  -0.01798   0.18339
           D1          -0.00000   0.00000  -0.00000   0.00230
           D2           0.00000  -0.00000  -0.00000   0.00000   0.00230
           D3           0.00000   0.00000   0.00000  -0.00000   0.00000
                          D3
           D3           0.01002
 ITU=  1  1  1  0
 Use linear search instead of GDIIS.
     Eigenvalues ---    0.00230   0.00739   0.14011   0.16013   0.18436
     Eigenvalues ---    0.38411   0.42488   0.50032   0.76851
 RFO step:  Lambda=-1.84297878D-05 EMin= 2.30000000D-03
 Quartic linear search produced a step of -0.04253.
 Iteration  1 RMS(Cart)=  0.00468313 RMS(Int)=  0.00001580
 Iteration  2 RMS(Cart)=  0.00001386 RMS(Int)=  0.00000001
 Iteration  3 RMS(Cart)=  0.00000000 RMS(Int)=  0.00000000
 ClnCor:  largest displacement from symmetrization is 1.21D-08 for atom     2.
 Variable       Old X    -DE/DX   Delta X   Delta X   Delta X     New X
                                 (Linear)    (Quad)   (Total)
    R1        2.43964  -0.00224  -0.00332   0.00104  -0.00228   2.43736
    R2        2.08357  -0.00031  -0.00129  -0.00028  -0.00156   2.08201
    R3        2.07382  -0.00004  -0.00116   0.00028  -0.00089   2.07294
    R4        1.94245   0.00092  -0.00043   0.00161   0.00118   1.94362
    A1        2.18167  -0.00121  -0.00155  -0.00661  -0.00816   2.17351
    A2        2.06662  -0.00007   0.00038  -0.00028   0.00010   2.06672
    A3        2.03489   0.00129   0.00117   0.00689   0.00806   2.04296
    A4        1.91382  -0.00061   0.00216  -0.00315  -0.00099   1.91283
    D1        0.00000  -0.00000   0.00000   0.00000  -0.00000   0.00000
    D2        3.14159  -0.00000   0.00000  -0.00000   0.00000   3.14159
    D3       -3.14159   0.00000  -0.00000  -0.00000  -0.00000   3.14159
         Item               Value     Threshold  Converged?
 Maximum Force            0.002237     0.000450     NO 
 RMS     Force            0.000927     0.000300     NO 
 Maximum Displacement     0.011746     0.001800     NO 
 RMS     Displacement     0.004685     0.001200     NO 
 Predicted change in Energy=-1.304927D-05
 GradGradGradGradGradGradGradGradGradGradGradGradGradGradGradGradGradGrad

                          Input orientation:                          
 ---------------------------------------------------------------------
 Center     Atomic      Atomic             Coordinates (Angstroms)
 Number     Number       Type             X           Y           Z
 ---------------------------------------------------------------------
      1          6           0       -0.231285   -0.560184    0.008665
      2          7           0        1.055197   -0.487234   -0.048069
      3          1           0       -0.789206   -1.310124    0.591908
      4          1           0       -0.821052    0.169924   -0.559154
      5          1           0        1.468704   -1.230617    0.530074
 ---------------------------------------------------------------------
                    Distance matrix (angstroms):
                    1          2          3          4          5
     1  C    0.000000
     2  N    1.289797   0.000000
     3  H    1.101752   2.118617   0.000000
     4  H    1.096951   2.052650   1.875233   0.000000
     5  H    1.900345   1.028522   2.260156   2.896708   0.000000
 Stoichiometry    CH3N
 Framework group  CS[SG(CH3N)]
 Deg. of freedom     7
 Full point group                 CS      NOp   2
 Largest Abelian subgroup         CS      NOp   2
 Largest concise Abelian subgroup C1      NOp   1
                         Standard orientation:                         
 ---------------------------------------------------------------------
 Center     Atomic      Atomic             Coordinates (Angstroms)
 Number     Number       Type             X           Y           Z
 ---------------------------------------------------------------------
      1          6           0        0.056986    0.594800   -0.000000
      2          7           0        0.056986   -0.694996    0.000000
      3          1           0       -0.850641    1.219358   -0.000000
      4          1           0        1.021785    1.116781    0.000000
      5          1           0       -0.911959   -1.039965   -0.000000
 ---------------------------------------------------------------------
 Rotational constants (GHZ):         193.4738783          33.9846618          28.9070013
 Standard basis: Aug-CC-pVDZ (5D, 7F)
 There are    57 symmetry adapted cartesian basis functions of A'  symmetry.
 There are    20 symmetry adapted cartesian basis functions of A"  symmetry.
 There are    53 symmetry adapted basis functions of A'  symmetry.
 There are    20 symmetry adapted basis functions of A"  symmetry.
    73 basis functions,   119 primitive gaussians,    77 cartesian basis functions
     8 alpha electrons        8 beta electrons
       nuclear repulsion energy        32.5323626292 Hartrees.
 NAtoms=    5 NActive=    5 NUniq=    5 SFac= 1.00D+00 NAtFMM=   60 NAOKFM=F Big=F
 Integral buffers will be    131072 words long.
 Raffenetti 1 integral format.
 Two-electron integral symmetry is turned on.
 One-electron integrals computed using PRISM.
 NBasis=    73 RedAO= T EigKep=  5.49D-04  NBF=    53    20
 NBsUse=    73 1.00D-06 EigRej= -1.00D+00 NBFU=    53    20
 Initial guess from the checkpoint file:  "/scr/Gau-80222.chk"
 B after Tr=     0.000000   -0.000000   -0.000000
         Rot=    1.000000    0.000000   -0.000000   -0.000427 Ang=  -0.05 deg.
 Initial guess orbital symmetries:
       Occupied  (A') (A') (A') (A') (A') (A') (A") (A')
       Virtual   (A') (A') (A') (A") (A') (A") (A') (A') (A') (A')
                 (A") (A') (A') (A') (A") (A') (A') (A") (A') (A")
                 (A') (A') (A') (A") (A') (A') (A') (A") (A') (A')
                 (A') (A") (A') (A") (A') (A") (A') (A') (A') (A")
                 (A') (A') (A") (A') (A") (A') (A') (A') (A") (A')
                 (A") (A') (A") (A') (A') (A') (A') (A') (A') (A")
                 (A") (A') (A') (A') (A')
 Keep R1 ints in memory in symmetry-blocked form, NReq=8672697.
 Requested convergence on RMS density matrix=1.00D-08 within 128 cycles.
 Requested convergence on MAX density matrix=1.00D-06.
 Requested convergence on             energy=1.00D-06.
 No special actions if energy rises.
 SCF Done:  E(RHF) =  -94.0453528973     A.U. after    9 cycles
            NFock=  9  Conv=0.58D-08     -V/T= 2.0033
 ExpMin= 2.97D-02 ExpMax= 9.05D+03 ExpMxC= 3.09D+02 IAcc=3 IRadAn=         5 AccDes= 0.00D+00
 HarFok:  IExCor=  205 AccDes= 0.00D+00 IRadAn=         5 IDoV=-2 UseB2=F ITyADJ=14
 ICtDFT= 12500011 ScaDFX=  1.000000  1.000000  1.000000  1.000000
 Range of M.O.s used for correlation:     3    73
 NBasis=    73 NAE=     8 NBE=     8 NFC=     2 NFV=     0
 NROrb=     71 NOA=     6 NOB=     6 NVA=    65 NVB=    65

 **** Warning!!: The largest alpha MO coefficient is  0.14231184D+02

 Fully direct method using O(ONN) memory.
 JobTyp=1 Pass  1:  I=   3 to   8 NPSUse= 24 ParTrn=T ParDer=T DoDerP=T.
 Spin components of T(2) and E(2):
     alpha-alpha T2 =       0.1354113939D-01 E2=     -0.3769980084D-01
     alpha-beta  T2 =       0.8612938000D-01 E2=     -0.2421254161D+00
     beta-beta   T2 =       0.1354113939D-01 E2=     -0.3769980084D-01
 ANorm=    0.1055088460D+01
 E2 =    -0.3175250178D+00 EUMP2 =    -0.94362877915041D+02
          IDoAtm=11111
          Differentiating once with respect to electric field.
                with respect to dipole field.
          Differentiating once with respect to nuclear coordinates.
 Keep R1 ints in memory in symmetry-blocked form, NReq=8674167.
          There are     1 degrees of freedom in the 1st order CPHF.  IDoFFX=0 NUNeed=     1.
 LinEq1:  Iter=  0 NonCon=     1 RMS=5.90D-03 Max=5.53D-02 NDo=     1
 AX will form     1 AO Fock derivatives at one time.
 LinEq1:  Iter=  1 NonCon=     1 RMS=1.27D-03 Max=9.66D-03 NDo=     1
 LinEq1:  Iter=  2 NonCon=     1 RMS=4.42D-04 Max=4.33D-03 NDo=     1
 LinEq1:  Iter=  3 NonCon=     1 RMS=1.69D-04 Max=1.69D-03 NDo=     1
 LinEq1:  Iter=  4 NonCon=     1 RMS=4.57D-05 Max=2.62D-04 NDo=     1
 LinEq1:  Iter=  5 NonCon=     1 RMS=9.87D-06 Max=8.35D-05 NDo=     1
 LinEq1:  Iter=  6 NonCon=     1 RMS=2.06D-06 Max=1.75D-05 NDo=     1
 LinEq1:  Iter=  7 NonCon=     1 RMS=3.06D-07 Max=1.79D-06 NDo=     1
 LinEq1:  Iter=  8 NonCon=     1 RMS=5.93D-08 Max=3.29D-07 NDo=     1
 LinEq1:  Iter=  9 NonCon=     1 RMS=1.12D-08 Max=6.84D-08 NDo=     1
 LinEq1:  Iter= 10 NonCon=     1 RMS=1.76D-09 Max=1.07D-08 NDo=     1
 LinEq1:  Iter= 11 NonCon=     1 RMS=2.18D-10 Max=1.06D-09 NDo=     1
 LinEq1:  Iter= 12 NonCon=     0 RMS=2.45D-11 Max=1.87D-10 NDo=     1
 Linear equations converged to 1.000D-10 1.000D-09 after    12 iterations.
 End of Minotr F.D. properties file   721 does not exist.
 End of Minotr F.D. properties file   722 does not exist.
 End of Minotr F.D. properties file   788 does not exist.
 Calling FoFJK, ICntrl=  10002127 FMM=F ISym2X=1 I1Cent= 0 IOpClX= 0 NMat=1 NMatS=1 NMatT=0.
 ***** Axes restored to original set *****
 -------------------------------------------------------------------
 Center     Atomic                   Forces (Hartrees/Bohr)
 Number     Number              X              Y              Z
 -------------------------------------------------------------------
      1        6           0.000111560   -0.000190064    0.000147817
      2        7          -0.000251184    0.000457560   -0.000355853
      3        1           0.000037841   -0.000170724    0.000132775
      4        1           0.000110771    0.000209275   -0.000162757
      5        1          -0.000008989   -0.000306046    0.000238018
 -------------------------------------------------------------------
 Cartesian Forces:  Max     0.000457560 RMS     0.000223706

 GradGradGradGradGradGradGradGradGradGradGradGradGradGradGradGradGradGrad
 Berny optimization.
 Using GEDIIS/GDIIS optimizer.
 FormGI is forming the generalized inverse of G from B-inverse, IUseBI=4.
 Internal  Forces:  Max     0.000351378 RMS     0.000204905
 Search for a local minimum.
 Step number   5 out of a maximum of   21
 All quantities printed in internal units (Hartrees-Bohrs-Radians)
 Mixed Optimization -- En-DIIS/RFO-DIIS
 Swapping is turned off.
 Update second derivatives using D2CorX and points    1    2    3    4    5
 DE= -1.54D-05 DEPred=-1.30D-05 R= 1.18D+00
 TightC=F SS=  1.41D+00  RLast= 1.19D-02 DXNew= 1.3821D+00 3.5798D-02
 Trust test= 1.18D+00 RLast= 1.19D-02 DXMaxT set to 8.22D-01
 The second derivative matrix:
                          R1        R2        R3        R4        A1
           R1           0.71410
           R2           0.02832   0.40588
           R3           0.02606  -0.02146   0.40154
           R4           0.01050  -0.01708  -0.01934   0.48035
           A1           0.01300  -0.00517  -0.00589   0.00269   0.15705
           A2           0.00643  -0.01607  -0.01228  -0.00337  -0.01110
           A3          -0.01943   0.02124   0.01818   0.00068   0.01405
           A4           0.04547  -0.00824  -0.00456   0.00112  -0.00327
           D1           0.00000  -0.00000  -0.00000  -0.00000   0.00000
           D2          -0.00000   0.00000   0.00000   0.00000   0.00000
           D3          -0.00000  -0.00000  -0.00000   0.00000  -0.00000
                          A2        A3        A4        D1        D2
           A2           0.16612
           A3           0.00498   0.14097
           A4           0.01035  -0.00708   0.17903
           D1          -0.00000   0.00000  -0.00000   0.00230
           D2           0.00000  -0.00000  -0.00000   0.00000   0.00230
           D3          -0.00000   0.00000  -0.00000   0.00000  -0.00000
                          D3
           D3           0.01002
 ITU=  1  1  1  1  0
     Eigenvalues ---    0.00230   0.00740   0.12418   0.16389   0.18370
     Eigenvalues ---    0.37786   0.42540   0.48691   0.72311
 En-DIIS/RFO-DIIS/Sim-DIIS IScMMF=       -3 using points:     5    4
 RFO step:  Lambda=-1.68819754D-06.
 DidBck=F Rises=F RFO-DIIS coefs:    1.14039   -0.14039
 Iteration  1 RMS(Cart)=  0.00104280 RMS(Int)=  0.00000051
 Iteration  2 RMS(Cart)=  0.00000060 RMS(Int)=  0.00000001
 ClnCor:  largest displacement from symmetrization is 1.01D-08 for atom     1.
 Variable       Old X    -DE/DX   Delta X   Delta X   Delta X     New X
                                 (Linear)    (Quad)   (Total)
    R1        2.43736  -0.00025  -0.00032   0.00011  -0.00021   2.43715
    R2        2.08201   0.00017  -0.00022   0.00052   0.00030   2.08231
    R3        2.07294   0.00016  -0.00012   0.00046   0.00033   2.07327
    R4        1.94362   0.00035   0.00017   0.00059   0.00075   1.94438
    A1        2.17351  -0.00003  -0.00115   0.00067  -0.00047   2.17303
    A2        2.06672  -0.00023   0.00001  -0.00129  -0.00128   2.06544
    A3        2.04296   0.00026   0.00113   0.00062   0.00175   2.04471
    A4        1.91283  -0.00032  -0.00014  -0.00144  -0.00158   1.91125
    D1        0.00000  -0.00000   0.00000   0.00000  -0.00000   0.00000
    D2        3.14159  -0.00000   0.00000  -0.00000   0.00000  -3.14159
    D3        3.14159   0.00000  -0.00000  -0.00000   0.00000   3.14159
         Item               Value     Threshold  Converged?
 Maximum Force            0.000351     0.000450     YES
 RMS     Force            0.000205     0.000300     YES
 Maximum Displacement     0.001973     0.001800     NO 
 RMS     Displacement     0.001043     0.001200     YES
 Predicted change in Energy=-8.441044D-07
 GradGradGradGradGradGradGradGradGradGradGradGradGradGradGradGradGradGrad

                          Input orientation:                          
 ---------------------------------------------------------------------
 Center     Atomic      Atomic             Coordinates (Angstroms)
 Number     Number       Type             X           Y           Z
 ---------------------------------------------------------------------
      1          6           0       -0.231351   -0.560257    0.008722
      2          7           0        1.054969   -0.486765   -0.048434
      3          1           0       -0.788391   -1.310748    0.592394
      4          1           0       -0.820529    0.170312   -0.559455
      5          1           0        1.467661   -1.230775    0.530197
 ---------------------------------------------------------------------
                    Distance matrix (angstroms):
                    1          2          3          4          5
     1  C    0.000000
     2  N    1.289685   0.000000
     3  H    1.101909   2.118392   0.000000
     4  H    1.097126   2.051923   1.876520   0.000000
     5  H    1.899519   1.028921   2.258325   2.895893   0.000000
 Stoichiometry    CH3N
 Framework group  CS[SG(CH3N)]
 Deg. of freedom     7
 Full point group                 CS      NOp   2
 Largest Abelian subgroup         CS      NOp   2
 Largest concise Abelian subgroup C1      NOp   1
                         Standard orientation:                         
 ---------------------------------------------------------------------
 Center     Atomic      Atomic             Coordinates (Angstroms)
 Number     Number       Type             X           Y           Z
 ---------------------------------------------------------------------
      1          6           0        0.057018    0.594750   -0.000000
      2          7           0        0.057018   -0.694935   -0.000000
      3          1           0       -0.851031    1.218969    0.000000
      4          1           0        1.022638    1.115580   -0.000000
      5          1           0       -0.912845   -1.038509    0.000000
 ---------------------------------------------------------------------
 Rotational constants (GHZ):         193.1637197          34.0044857          28.9144025
 Standard basis: Aug-CC-pVDZ (5D, 7F)
 There are    57 symmetry adapted cartesian basis functions of A'  symmetry.
 There are    20 symmetry adapted cartesian basis functions of A"  symmetry.
 There are    53 symmetry adapted basis functions of A'  symmetry.
 There are    20 symmetry adapted basis functions of A"  symmetry.
    73 basis functions,   119 primitive gaussians,    77 cartesian basis functions
     8 alpha electrons        8 beta electrons
       nuclear repulsion energy        32.5331851696 Hartrees.
 NAtoms=    5 NActive=    5 NUniq=    5 SFac= 1.00D+00 NAtFMM=   60 NAOKFM=F Big=F
 Integral buffers will be    131072 words long.
 Raffenetti 1 integral format.
 Two-electron integral symmetry is turned on.
 One-electron integrals computed using PRISM.
 NBasis=    73 RedAO= T EigKep=  5.49D-04  NBF=    53    20
 NBsUse=    73 1.00D-06 EigRej= -1.00D+00 NBFU=    53    20
 Initial guess from the checkpoint file:  "/scr/Gau-80222.chk"
 B after Tr=     0.000000    0.000000   -0.000000
         Rot=    1.000000   -0.000000   -0.000000    0.000149 Ang=   0.02 deg.
 Initial guess orbital symmetries:
       Occupied  (A') (A') (A') (A') (A') (A') (A") (A')
       Virtual   (A') (A') (A') (A") (A') (A") (A') (A') (A') (A')
                 (A") (A') (A') (A') (A") (A') (A') (A") (A') (A")
                 (A') (A') (A') (A") (A') (A') (A') (A") (A') (A')
                 (A') (A") (A') (A") (A') (A") (A') (A') (A') (A")
                 (A') (A') (A") (A') (A") (A') (A') (A') (A") (A')
                 (A") (A') (A") (A') (A') (A') (A') (A') (A') (A")
                 (A") (A') (A') (A') (A')
 Keep R1 ints in memory in symmetry-blocked form, NReq=8672736.
 Requested convergence on RMS density matrix=1.00D-08 within 128 cycles.
 Requested convergence on MAX density matrix=1.00D-06.
 Requested convergence on             energy=1.00D-06.
 No special actions if energy rises.
 SCF Done:  E(RHF) =  -94.0453420103     A.U. after    7 cycles
            NFock=  7  Conv=0.10D-07     -V/T= 2.0033
 ExpMin= 2.97D-02 ExpMax= 9.05D+03 ExpMxC= 3.09D+02 IAcc=3 IRadAn=         5 AccDes= 0.00D+00
 HarFok:  IExCor=  205 AccDes= 0.00D+00 IRadAn=         5 IDoV=-2 UseB2=F ITyADJ=14
 ICtDFT= 12500011 ScaDFX=  1.000000  1.000000  1.000000  1.000000
 Range of M.O.s used for correlation:     3    73
 NBasis=    73 NAE=     8 NBE=     8 NFC=     2 NFV=     0
 NROrb=     71 NOA=     6 NOB=     6 NVA=    65 NVB=    65

 **** Warning!!: The largest alpha MO coefficient is  0.14216460D+02

 Fully direct method using O(ONN) memory.
 JobTyp=1 Pass  1:  I=   3 to   8 NPSUse= 24 ParTrn=T ParDer=T DoDerP=T.
 Spin components of T(2) and E(2):
     alpha-alpha T2 =       0.1354187320D-01 E2=     -0.3770115790D-01
     alpha-beta  T2 =       0.8613524634D-01 E2=     -0.2421345036D+00
     beta-beta   T2 =       0.1354187320D-01 E2=     -0.3770115790D-01
 ANorm=    0.1055091936D+01
 E2 =    -0.3175368194D+00 EUMP2 =    -0.94362878829706D+02
          IDoAtm=11111
          Differentiating once with respect to electric field.
                with respect to dipole field.
          Differentiating once with respect to nuclear coordinates.
 Keep R1 ints in memory in symmetry-blocked form, NReq=8674167.
          There are     1 degrees of freedom in the 1st order CPHF.  IDoFFX=0 NUNeed=     1.
 LinEq1:  Iter=  0 NonCon=     1 RMS=5.90D-03 Max=5.53D-02 NDo=     1
 AX will form     1 AO Fock derivatives at one time.
 LinEq1:  Iter=  1 NonCon=     1 RMS=1.27D-03 Max=9.65D-03 NDo=     1
 LinEq1:  Iter=  2 NonCon=     1 RMS=4.41D-04 Max=4.32D-03 NDo=     1
 LinEq1:  Iter=  3 NonCon=     1 RMS=1.69D-04 Max=1.69D-03 NDo=     1
 LinEq1:  Iter=  4 NonCon=     1 RMS=4.57D-05 Max=2.62D-04 NDo=     1
 LinEq1:  Iter=  5 NonCon=     1 RMS=9.87D-06 Max=8.35D-05 NDo=     1
 LinEq1:  Iter=  6 NonCon=     1 RMS=2.06D-06 Max=1.75D-05 NDo=     1
 LinEq1:  Iter=  7 NonCon=     1 RMS=3.06D-07 Max=1.79D-06 NDo=     1
 LinEq1:  Iter=  8 NonCon=     1 RMS=5.94D-08 Max=3.29D-07 NDo=     1
 LinEq1:  Iter=  9 NonCon=     1 RMS=1.12D-08 Max=6.84D-08 NDo=     1
 LinEq1:  Iter= 10 NonCon=     1 RMS=1.76D-09 Max=1.07D-08 NDo=     1
 LinEq1:  Iter= 11 NonCon=     1 RMS=2.18D-10 Max=1.06D-09 NDo=     1
 LinEq1:  Iter= 12 NonCon=     0 RMS=2.46D-11 Max=1.88D-10 NDo=     1
 Linear equations converged to 1.000D-10 1.000D-09 after    12 iterations.
 End of Minotr F.D. properties file   721 does not exist.
 End of Minotr F.D. properties file   722 does not exist.
 End of Minotr F.D. properties file   788 does not exist.
 Calling FoFJK, ICntrl=  10002127 FMM=F ISym2X=1 I1Cent= 0 IOpClX= 0 NMat=1 NMatS=1 NMatT=0.
 ***** Axes restored to original set *****
 -------------------------------------------------------------------
 Center     Atomic                   Forces (Hartrees/Bohr)
 Number     Number              X              Y              Z
 -------------------------------------------------------------------
      1        6          -0.000087644   -0.000034494    0.000026827
      2        7           0.000054705    0.000066862   -0.000052000
      3        1          -0.000002726   -0.000022790    0.000017724
      4        1           0.000002462    0.000042315   -0.000032910
      5        1           0.000033204   -0.000051893    0.000040358
 -------------------------------------------------------------------
 Cartesian Forces:  Max     0.000087644 RMS     0.000043896

 GradGradGradGradGradGradGradGradGradGradGradGradGradGradGradGradGradGrad
 Berny optimization.
 Using GEDIIS/GDIIS optimizer.
 FormGI is forming the generalized inverse of G from B-inverse, IUseBI=4.
 Internal  Forces:  Max     0.000089048 RMS     0.000040557
 Search for a local minimum.
 Step number   6 out of a maximum of   21
 All quantities printed in internal units (Hartrees-Bohrs-Radians)
 Mixed Optimization -- En-DIIS/RFO-DIIS
 Swapping is turned off.
 Update second derivatives using D2CorX and points    1    2    3    4    5
                                                      6
 DE= -9.15D-07 DEPred=-8.44D-07 R= 1.08D+00
 Trust test= 1.08D+00 RLast= 2.87D-03 DXMaxT set to 8.22D-01
 The second derivative matrix:
                          R1        R2        R3        R4        A1
           R1           0.73107
           R2           0.02138   0.40123
           R3           0.02552  -0.02736   0.39445
           R4           0.00225  -0.02719  -0.03294   0.45520
           A1           0.01384  -0.00548  -0.00543   0.00425   0.15849
           A2           0.02032  -0.01145  -0.00554   0.00819  -0.01237
           A3          -0.03416   0.01694   0.01097  -0.01244   0.01387
           A4           0.06646  -0.00601   0.00065   0.00769   0.00056
           D1           0.00000  -0.00000  -0.00000  -0.00000   0.00000
           D2          -0.00000   0.00000   0.00000   0.00000   0.00000
           D3           0.00000  -0.00000  -0.00000   0.00000  -0.00000
                          A2        A3        A4        D1        D2
           A2           0.16064
           A3           0.01173   0.13440
           A4           0.00694  -0.00750   0.18701
           D1          -0.00000   0.00000  -0.00000   0.00230
           D2           0.00000  -0.00000   0.00000   0.00000   0.00230
           D3           0.00000   0.00000   0.00000   0.00000  -0.00000
                          D3
           D3           0.01002
 ITU=  0  1  1  1  1  0
[...]
 ,0.00690431,0.00336957,0.00260476,-0.01705692,0.00337425,-0.00739227,-
 0.02875081,0.02215365,-0.00462037,0.00569303,-0.00442757,0.00076656,-0
 .00818683,0.00636705,-0.00193353,0.00144146,-0.00112105,-0.00292687,0.
 00143956,-0.00111957,0.00871422,0.00122534,-0.00158146,0.00577588,-0.0
 0176197,-0.01021886,-0.00026778,-0.00193223,0.00224914,-0.00092886,0.0
 0285607,0.00104673,-0.00048880,-0.00038721,0.00850445,-0.00095297,0.00
 577588,0.00135322,0.00137032,-0.00026778,-0.01035491,0.00150273,-0.000
 92886,0.00177719,-0.00222122,-0.00048880,0.00079838,0.00030114,-0.0040
 9044,0.00642612,-0.81876162,-0.03346484,0.12905050,0.02602633,-0.07026
 775,0.09334798,0.71189125,0.03991791,-0.03104499,-0.72430354,0.0314391
 5,-0.05622198,-0.00444663,-0.02207539,0.05555219,-0.02445089,-0.004446
 63,-0.05848127,0.01716852,0.00404000,0.05760488,0.04587418,0.01382798,
 -0.01075429,0.00025797,0.00208840,-0.00162419,-0.04434174,0.00711316,-
 0.03916834,0.04177441,0.00422158,-0.00511919,-0.00173475,-0.01370314,0
 .03055946,-0.00553204,0.04177441,-0.01794308,-0.00328320,-0.00173475,-
 0.00600060,0.01065720,-0.02413695,0.01829566,0.04443765,-0.01255503,0.
 00976428,0.00581726,0.00068608,-0.00053358,-0.00011817,0.00182249,-0.0
 0141738,-0.04754096,-0.00469232,-0.03567105,0.03848493,-0.00405820,-0.
 00370092,0.00435397,-0.00240391,0.01315878,-0.01832531,0.01082735,0.02
 802735,0.00364930,0.03848493,-0.01611715,0.00315614,0.00435397,-0.0014
 8870,0.00186957,-0.01832531,0.00384783,-0.00842063,-0.02283380,0.01642
 567,0.01655854,-0.00772602,0.00600867,0.00633706,-0.01213824,0.0094401
 4,-0.00167225,0.00054592,-0.00042457,-0.00259579,0.00032708,-0.0002543
 8,-0.01862756,-0.00039514,0.00201087,-0.00554496,-0.01800590,0.0094899
 0,-0.00221259,0.00019067,0.00056929,0.00242260,-0.00078089,-0.00181415
 ,-0.00167978,0.01899126,-0.01025590,0.00030731,-0.00554496,-0.00080649
 ,0.01400353,-0.00221259,0.00836569,-0.00014829,0.00242260,0.00180019,0
 .00060731,-0.00167978,-0.00266764,-0.01476986,0.00701474,-0.00669177,0
 .19073120,0.18844772,0.64370560,-0.14655941,-0.60492747,0.33634663,0.0
 9010567,-0.02057741,0.01600344,-0.08415714,-0.00741179,-0.03372125,0.0
 0872233,0.03160360,-0.00606513,0.00576428,0.00872233,-0.02928950,-0.02
 457872,0.01785494,0.00300684,-0.17920213,-0.36397718,0.28307201,-0.001
 28570,-0.00953177,0.00741304,0.16969947,-0.36814633,-0.40467935,0.3956
 6435,0.01779411,0.01505630,0.00111470,0.35831215,0.39543056,0.28631444
 ,0.39566435,-0.20364539,-0.01383881,0.00111470,0.01562268,-0.27866621,
 -0.40418633,0.19006665,-0.10699920,0.19154488,-0.14896808,-0.00230809,
 0.00641029,-0.00498540,0.01088741,-0.00651747,0.00506876,0.10045428,0.
 18400686,-0.20876648,0.20210859,-0.00512147,0.00340983,-0.00476963,0.0
 1381318,-0.00306989,0.01090633,-0.19165767,0.20638846,-0.14310562,0.20
 210858,-0.10607662,0.00398306,-0.00476963,0.00098642,-0.01074277,0.010
 90633,0.00247154,0.14905581,-0.21097281,0.09919475,0.00536446,0.004562
 00,-0.00354795,-0.00235474,-0.02107033,0.01638680,-0.00009904,-0.00144
 246,0.00112182,-0.00203440,-0.00104090,0.00080953,-0.00087628,0.003103
 55,0.00346148,-0.00156780,-0.02369883,0.02132024,-0.02292234,0.0013836
 1,-0.00273762,-0.00349906,0.00021998,0.00203808,0.00272752,0.01899169,
 -0.02408218,-0.00241369,-0.00156780,0.00266489,0.01843103,-0.02292234,
 0.00967357,-0.00107606,-0.00349906,-0.00451547,-0.00017108,0.00272752,
 0.00342391,-0.01477020,0.02526168,-0.01124691,-0.10363969,0.68356606,-
 0.17957638,-0.53162233,0.17737301,-0.08945438,-0.01562332,-0.06386130,
 0.04966615,0.00446597,-0.01821177,0.00318170,-0.00667262,0.05752688,-0
 .05107542,0.01416364,-0.00667261,-0.00020861,-0.04473975,0.04345122,-0
 .02899817,-0.10589108,-0.21387708,0.16633630,0.00309798,-0.00314552,0.
 00244633,0.10717742,-0.23914632,-0.20869991,0.21716657,0.01628628,0.00
 749657,-0.00155729,0.20920675,0.20107278,0.18598866,0.21716656,-0.0983
 5929,-0.01266615,-0.00155728,0.00670533,-0.16270409,-0.21179664,0.0934
 6057,0.22798040,-0.40416034,0.31432316,0.00111288,-0.01037901,0.008071
 96,-0.00345866,0.01515854,-0.01178909,-0.22902304,-0.42988201,0.382809
 70,-0.39421861,0.02159585,-0.00609697,0.00721713,0.00729982,0.00070545
 ,-0.00291255,0.39992375,-0.37424158,0.33432739,-0.39421861,0.18251017,
 -0.01679550,0.00721714,-0.00243000,-0.00567721,-0.00291255,-0.00077439
 ,-0.31102828,0.39438163,-0.17385922,-0.00282630,-0.00166734,0.00129672
 ,0.00694649,-0.02579057,0.02005781,-0.00092565,-0.00150525,0.00117066,
 0.00338842,0.00106259,-0.00082640,-0.00658296,0.00367403,0.00228488,0.
 00635164,-0.03154770,0.04649412,-0.04243846,0.00051604,-0.00057489,-0.
 00090008,-0.00054294,-0.00317660,-0.00446761,0.02790056,-0.04502751,-0
 .00285736,0.00635165,0.00551211,0.02453524,-0.04243846,0.02493145,-0.0
 0040134,-0.00090008,-0.00103221,0.00042225,-0.00446761,-0.00544656,-0.
 02169880,0.04145451,-0.02396479,-0.05397824,0.00975660,0.03231820,-0.0
 0758789,-0.01166952,0.02638901,0.08340225,0.01162416,-0.00904034,0.008
 43849,0.04671834,-0.02660514,0.00176670,-0.52214864,0.73198990,-0.0363
 3375,0.00176670,-0.02570748,0.40608492,-0.69102098,0.38088733,-0.01703
 857,-0.02555571,0.01987516,-0.00302372,-0.00100330,0.00078028,0.013144
 13,-0.02420805,-0.02668413,0.02736209,-0.00130525,0.00510336,0.0029609
 7,0.02705566,0.02552341,0.01882707,0.02736209,-0.01278167,0.00101512,0
 .00296097,0.00660780,-0.02104170,-0.02676118,0.01192627,0.01198345,-0.
 01912966,0.01487750,-0.00221447,0.00316919,-0.00246474,0.00016859,0.00
 040541,-0.00031530,-0.00839857,-0.01815540,0.01149513,-0.01663496,-0.0
 0024461,-0.00157047,-0.00510280,0.00103649,0.00036170,0.00008896,0.018
 05887,-0.01299833,0.01411980,-0.01663496,0.00304303,0.00019024,-0.0051
 0280,-0.00416317,-0.00080610,0.00008896,0.00040690,-0.01404473,0.01635
 473,-0.00468861,-0.02436890,0.02330461,-0.01812444,-0.08660255,0.47326
 440,-0.36806671,0.00674956,-0.00194777,0.00151481,-0.00153901,-0.00069
 534,0.00054078,0.10576089,-0.01411149,0.00947594,-0.00082430,0.5120743
 4,-0.70891765,0.69139611,-0.00153314,-0.00430434,-0.00365083,-0.002503
 81,0.00271198,0.00529408,-0.49392590,0.70103407,0.01097478,-0.00082431
 ,0.00905712,-0.39824994,0.69139612,-0.35762448,0.00119235,-0.00365083,
 -0.00615930,0.00194726,0.00529408,0.00540185,0.38413555,-0.69221505,0.
 34932481,-0.05322110,0.01235676,-0.18087647,-0.00961008,0.15244787,-0.
 10341887,0.00336498,0.00120194,-0.00093477,0.04506755,-0.00849750,0.03
 974397,-0.02155520,0.14551284,-0.23209708,0.00660867,-0.02155520,0.028
 79193,-0.11316811,0.20082982,-0.13005695,0.02619223,0.07778867,-0.0604
 9773,-0.00836984,0.00751604,-0.00584536,0.00062657,0.07609734,0.078731
 38,-0.07046162,-0.00615242,-0.00800363,0.00173242,-0.07604451,-0.07935
 966,-0.05918236,-0.07046162,0.04293039,0.00478486,0.00173242,-0.007123
 40,0.05914127,0.07238048,-0.04258371,0.02116158,-0.07547666,0.05869963
 ,-0.00796731,-0.00670760,0.00521663,-0.00567261,0.00328364,-0.00255375
 ,-0.00836570,-0.08521815,0.07735693,-0.07139906,0.01157588,-0.00342033
 ,0.00645550,-0.00357643,0.00316341,-0.00373358,0.07477973,-0.07751698,
 0.06627577,-0.07139907,0.04107959,-0.00900278,0.00645550,-0.00014034,0
 .00278146,-0.00373359,0.00126640,-0.05815762,0.07132673,-0.04127639,0.
 00250232,-0.01587071,0.01234295,-0.03209537,-0.13782378,0.10718818,-0.
 01277636,0.00281596,-0.00219002,0.00084405,0.00243896,-0.00189683,0.04
 152537,0.00526155,-0.01495581,0.01096802,-0.15213824,0.20377707,-0.187
 46254,-0.00568376,0.00546850,0.00008232,0.00412089,0.00041697,-0.00264
 959,0.14843956,-0.19470673,-0.00409201,0.01096802,-0.00938304,0.118320
 81,-0.18746254,0.10852876,0.00442037,0.00008232,0.00551032,-0.00320489
 ,-0.00264958,-0.00092926,-0.11544428,0.17906179,-0.10372678,-0.2355962
 8,-0.06997269,-0.29211159,0.05441912,0.30868272,-0.13527228,0.05461242
 ,0.01146187,-0.00891412,-0.04862274,-0.00412358,0.03011852,0.00107181,
 0.01410422,-0.03203878,0.00320698,0.00107181,0.03066310,-0.01096911,0.
 02666434,-0.01849083,0.10644653,0.15809906,-0.12295667,-0.00938396,0.0
 0107053,-0.00083257,-0.09261913,0.15922931,0.16813888,-0.19987213,-0.0
 1412338,-0.01388365,-0.00424799,-0.15096399,-0.14590357,-0.12383569,-0
 .19987213,0.06658541,0.01098402,-0.00424800,-0.01604202,0.11740759,0.1
 9928691,-0.04464745,0.07439932,-0.09737559,0.07573084,-0.00237866,-0.0
 0047660,0.00037066,-0.00501589,0.00603663,-0.00469480,-0.06591803,-0.0
 8921445,0.09589029,-0.11096194,0.00481191,-0.00431041,-0.00122984,-0.0
 0870086,-0.01097296,0.00300144,0.09163233,-0.07909948,0.06938376,-0.11
 096194,0.03951136,-0.00374231,-0.00122984,-0.00493529,0.00676682,0.003
 00144,-0.00944795,-0.07126420,0.11169816,-0.02234648,0.00013800,-0.002
 21266,0.00172083,0.00577294,-0.01057456,0.00822404,0.00057246,-0.00017
 857,0.00013888,-0.00108674,0.00147107,-0.00114408,-0.00539666,0.004081
 39,-0.00203610,0.00107954,-0.01625461,0.02011432,-0.02225833,0.0004952
 6,0.00262130,0.00183177,0.00018324,-0.00150744,-0.00250783,0.01149473,
 -0.01919208,-0.00317418,0.00107954,-0.00148759,0.01264152,-0.02225833,
 0.00880503,-0.00038517,0.00183177,0.00355201,-0.00014251,-0.00250783,-
 0.00278165,-0.00893967,0.02185484,-0.00808780,-0.10946659,0.09142874,-
 0.11333392,-0.07110586,0.11602461,-0.05438269,0.03121170,-0.00158362,0
 .00123161,-0.08881914,-0.01763780,0.02101656,-0.00801493,0.20232959,-0
 .28980907,0.01371725,-0.00801493,0.01694423,-0.15735555,0.32211998,-0.
 12614234,0.01290295,0.00785462,-0.00610869,-0.00267558,-0.00231226,0.0
 0179828,-0.00584800,0.00668924,0.01186641,-0.01001811,-0.00228675,-0.0
 0476440,-0.00535333,-0.00684265,-0.01251420,-0.00520235,-0.01001811,0.
 00677629,0.00177845,-0.00535333,-0.00748439,0.00532166,0.01201286,-0.0
 0641056,0.06597959,-0.08581089,0.06673675,-0.00683512,-0.00754505,0.00
 586793,-0.00207378,0.00398414,-0.00309854,-0.05547886,-0.09496916,0.08
 094638,-0.10090439,0.00863075,0.00977878,0.00765535,-0.00068863,0.0002
 7805,-0.00048807,0.08402651,-0.07946925,0.07385931,-0.10090439,0.02967
 762,-0.00671229,0.00765535,0.01366841,0.00053556,-0.00048808,0.0000300
 6,-0.06534901,0.10072415,-0.02829207,-0.00062765,-0.01188886,0.0092461
 9,0.06711815,-0.17483448,0.13597209,-0.00230559,-0.00154398,0.00120078
 ,-0.00159184,0.00300053,-0.00233357,-0.06259307,0.01448898,-0.00049543
 ,0.00291282,-0.20708996,0.26377814,-0.31640706,0.00198891,0.00513414,0
 .00384667,0.00534528,-0.01153396,-0.00698704,0.18526679,-0.25688289,-0
 .01126835,0.00291283,0.00098455,0.16105778,-0.31640706,0.10301410,-0.0
 0154681,0.00384667,0.00708860,-0.00415713,-0.00698704,-0.01508402,-0.1
 4408549,0.31663461,-0.09600323,-0.08007373,-0.04315924,-0.12368304,0.0
 3356576,0.08827188,-0.07883282,0.02924819,0.05141983,-0.03999018,0.045
 42633,0.00589898,0.04845594,-0.02426337,0.10851380,-0.33292150,-0.0045
 8774,-0.02426337,0.03612792,-0.08439326,0.27113585,-0.19515944,0.02202
 507,0.04353288,-0.03385635,-0.00798094,0.00116317,-0.00090462,-0.00333
 135,0.05446715,0.05727857,-0.05083045,-0.01326421,-0.00429880,0.002190
 29,-0.04122099,-0.05567446,-0.04236014,-0.05083045,0.03145202,0.010315
 83,0.00219029,-0.00318594,0.03205835,0.04648288,-0.03205689,0.02203697
 ,-0.03020890,0.02349405,-0.01343314,-0.00535025,0.00416099,-0.00386121
 ,0.00080691,-0.00062754,-0.00523847,-0.03517988,0.03537135,-0.02939589
 ,0.00729964,0.00266263,0.00245550,-0.00343719,0.00097429,0.00021290,0.
 02945676,-0.03654616,0.02736006,-0.02939589,0.02043554,-0.00567706,0.0
 0245550,0.00391025,0.00267317,0.00021290,0.00108247,-0.02290909,0.0278
 8756,-0.02237674,0.00676348,-0.02158457,0.01678673,-0.05326044,-0.1102
 2570,0.08572463,-0.00685158,-0.00078885,0.00061351,0.00049584,0.001860
 67,-0.00144708,0.05285269,0.01797299,-0.01742281,0.01621784,-0.1539690
 6,0.28610174,-0.25151827,-0.00003787,0.00172041,0.00194438,0.00529548,
 -0.00246210,-0.00116007,0.13073845,-0.26793723,-0.01397794,0.01621784,
 -0.00918265,0.11974467,-0.25151827,0.15830720,0.00002945,0.00194438,0.
 00270834,-0.00411840,-0.00116007,-0.00305153,-0.10167778,0.23451612,-0
 .14878135,0.08827898,0.05599077,-0.20546913,-0.04354509,0.13163476,-0.
 13858656,-0.19544627,-0.02472029,0.01922546,0.20285405,-0.01721798,0.0
 5154690,-0.00604823,0.02313056,-0.03899601,0.01339078,-0.00604822,0.04
 847384,-0.01798911,-0.00684038,-0.04247155,0.04899515,0.06940534,-0.05
 397786,-0.00475505,-0.00122479,0.00095254,-0.03545887,0.05110824,0.060
 93960,-0.04873112,-0.00862956,-0.00671924,0.00680818,-0.05666725,-0.05
 096742,-0.03974786,-0.04873112,0.03617973,0.00671137,0.00680818,-0.003
 26006,0.04407122,0.03939981,-0.03094873,0.06079887,-0.09925268,0.07719
 071,-0.00616554,0.00219749,-0.00170903,-0.00532749,0.01236842,-0.00961
 916,-0.04867883,-0.09003356,0.09253107,-0.07868197,0.01433397,-0.00706
 560,0.00813980,-0.00930266,-0.00484884,0.00361735,0.08292007,-0.079878
 97,0.07002080,-0.07868197,0.05255338,-0.01114780,0.00813980,-0.0029298
 3,0.00723486,0.00361735,-0.00301088,-0.06448852,0.06644014,-0.04612127
 ,-0.00262674,-0.00142313,0.00110679,0.00351282,-0.00688527,0.00535481,
 -0.00345375,0.00182015,-0.00141557,-0.00062702,0.00208218,-0.00161935,
 0.00319468,0.00015253,0.00045156,0.00182656,-0.00411468,0.00123395,-0.
 00205938,-0.00221063,0.00159590,-0.00109422,0.00176671,-0.00073765,0.0
 0048468,0.00440607,-0.00254376,-0.00011863,0.00182655,0.00137962,0.003
 20007,-0.00205937,0.00018760,0.00171925,-0.00109422,0.00103994,-0.0013
 7400,0.00048468,-0.00049140,-0.00342668,0.00084235,-0.00211577,0.55705
 602,0.04066146,-0.26841601,-0.03162325,0.12233529,-0.20625845,-0.64656
 584,-0.04541763,0.03532222,0.65733704,-0.04591584,0.12600405,-0.009452
 47,0.04433486,-0.12479960,0.03570971,-0.00945246,0.12120133,-0.0344801
 4,0.00810233,-0.12068287,0.04616190,0.07838744,-0.06096342,-0.00552632
 ,0.00229888,-0.00178789,-0.03844369,0.06615388,0.07596271,-0.06299038,
 -0.00688115,-0.00459613,0.00388363,-0.06967528,-0.06345759,-0.05144914
 ,-0.06299038,0.04395782,0.00535160,0.00388363,-0.00262289,0.05418781,0
 .05247841,-0.03679377,0.05000437,-0.07184956,0.05587877,-0.00924313,-0
 .00326697,0.00254079,-0.00228493,0.01032255,-0.00802804,-0.04036575,-0
 .06275004,0.06548967,-0.05283139,0.00717002,-0.00136299,0.00156908,-0.
 01073174,-0.00831271,0.00717697,0.06507624,-0.05480213,0.04880189,-0.0
 5283139,0.03864647,-0.00557626,0.00156908,-0.00056575,0.00834628,0.007
 17697,-0.00466613,-0.05061104,0.04389806,-0.03249789,-0.00665645,-0.00
 178172,0.00138568,0.00399824,0.00254908,-0.00198247,0.00009304,0.00008
 000,-0.00006222,0.00188944,0.00123552,-0.00096088,0.00067573,0.0018505
 4,0.00095957,0.00293895,0.00079390,0.00475466,-0.00410258,-0.00027930,
 0.00040371,-0.00054864,-0.00028226,-0.00101185,0.00018728,-0.00208288,
 -0.00510610,-0.00143921,0.00293894,0.00245283,-0.00061742,-0.00410257,
 0.00267017,0.00021721,-0.00054863,0.00012497,0.00021952,0.00018728,-0.
 00091670,0.00161990,0.00152498,-0.00433127,0.30953649,0.70726223,1.080
 59695,-0.55005139,-1.31841673,0.41071957,0.00958533,0.00108843,-0.0008
 4649,-0.01254160,0.01191783,-0.01002984,-0.00511713,-0.01485094,-0.002
 46127,-0.00926871,-0.00511712,-0.01262980,0.01154985,0.00229088,-0.001
 29730,-0.24031509,-0.97236871,0.75622973,-0.00046994,-0.00644886,0.005
 01540,0.22235700,-0.96828180,-0.84102937,1.04103247,0.01387792,0.01080
 375,0.00032255,0.95987310,0.83269080,0.75305126,1.04103247,-0.31208891
 ,-0.01079312,0.00032256,0.01096764,-0.74651165,-1.05008073,0.29915297,
 -0.07315503,0.26494829,-0.20605530,-0.00032995,0.00089206,-0.00069377,
 0.01444437,-0.00545422,0.00424184,0.05869981,0.24695015,-0.23334540,0.
 27992911,-0.00527772,0.00201556,-0.00062376,0.01891241,0.00165617,0.01
 007508,-0.25997232,0.23054481,-0.19205782,0.27992910,-0.09111548,0.004
 10459,-0.00062376,0.00169863,-0.01470854,0.01007508,0.00677526,0.20218
 540,-0.28982165,0.08328856,-0.00565170,-0.00093024,0.00072346,0.003756
 17,0.00848991,-0.00660277,0.00398366,-0.00001500,0.00001166,0.00034080
 ,-0.00061252,0.00047637,-0.00242893,0.00215159,0.00380767,0.00257229,0
 .00516231,-0.00032819,0.00312744,0.00003206,-0.00412136,-0.00134938,-0
 .00041382,-0.00087114,0.00044122,-0.00693215,0.00151302,-0.00167334,0.
 00257228,0.00511463,-0.00401482,0.00312745,0.00126083,-0.00002494,-0.0
 0134937,-0.00480695,0.00032184,0.00044122,-0.00064696,0.00539127,-0.00
 479157,-0.00092154,0.40232964,-0.80077112,1.03530570,0.62277485,-1.358
 87470,0.34487168,0.07527633,0.01635995,-0.01272346,-0.07064866,0.00042
 549,-0.01399777,0.00285994,-0.01714449,0.00636624,-0.00033092,0.002859
 94,-0.01254465,0.01333360,-0.00313544,0.00477313,-0.09439906,-0.332013
 20,0.25821301,-0.00410775,0.00038897,-0.00030252,0.11038940,-0.3226916
 8,-0.22745362,0.30581812,0.00830138,0.00201394,-0.00162063,0.32895675,
 0.22125605,0.25096349,0.30581812,-0.07206983,-0.00645614,-0.00162062,0
 .00119052,-0.25583595,-0.29884815,0.06941364,-0.37566593,1.11668896,-0
 .86847018,-0.00936886,0.00155056,-0.00120590,-0.01323548,-0.01422396,0
 .01106224,0.39577367,1.12342621,-0.79157277,1.05359130,-0.01685390,0.0
 0778426,-0.00715449,0.00289200,0.00512665,-0.00673990,-1.10528280,0.77
 764401,-0.87370988,1.05359129,-0.25625087,0.01310760,-0.00715449,0.004
 14912,-0.00224916,-0.00673990,0.00170216,0.85959939,-1.04285763,0.2477
 7580,-0.00754099,-0.00026459,0.00020578,0.00884895,0.01477946,-0.01149
 427,0.00135290,-0.00034249,0.00026636,0.00249661,-0.00418151,0.0032520
 4,-0.00515748,-0.00038891,-0.00228153,-0.00339465,0.00933707,-0.002166
 67,0.00905062,-0.00022453,-0.00094302,0.00139055,0.00126724,0.00101786
 ,0.00316073,-0.00999088,0.00437336,0.00030246,-0.00339465,-0.00400632,
 -0.00726161,0.00905062,0.00243189,0.00017462,0.00139056,-0.00023649,-0
 .00098555,0.00316073,0.00262379,0.00777009,-0.01020725,-0.00081287,-0.
 01344582,0.00646977,-0.00557958,-0.00503166,-0.00025094,-0.00570715,0.
 05234173,-0.01554624,0.01209059,-0.15840135,0.01003351,-0.02743420,0.0
 1027673,-1.62519081,2.10324939,-0.00780325,0.01027673,-0.02221267,1.26
 394176,-2.37801821,0.89499624,-0.00340649,-0.00906032,0.00704638,-0.00
 365998,-0.00091501,0.00071162,-0.00257545,-0.01035044,-0.00306485,0.00
 451419,0.00164944,0.00444408,0.00378644,0.00746477,0.00550273,0.008049
 73,0.00451419,-0.00077120,-0.00128280,0.00378644,0.00636794,-0.0058054
 9,-0.00529902,0.00281030,-0.00238274,0.00770977,-0.00599602,0.00205178
 ,0.00366505,-0.00285038,0.00009039,0.00049535,-0.00038524,-0.00255112,
 0.00404406,0.00324891,0.00089583,0.00160985,-0.00520566,-0.00381240,0.
 00019868,0.00021736,-0.00032092,-0.00465044,-0.00078073,-0.00314515,0.
 00089582,0.00370412,-0.00125200,-0.00381240,-0.00714271,-0.00015452,-0
 .00032091,0.00005432,0.00361673,-0.00161247,-0.00160007,-0.03310667,0.
 01042702,-0.00810929,0.10766782,1.61240726,-1.25399975,0.00955153,0.00
 074088,-0.00057620,0.00279169,-0.00120215,0.00093494,-0.08690437,-0.01
 019690,0.03282972,-0.01543581,1.63747776,-2.07505360,2.36776743,0.0023
 1187,-0.00709931,-0.00268070,-0.00721973,0.00252013,0.00484996,-1.6223
 7300,2.04680306,0.00793032,-0.01543581,0.02498691,-1.27349755,2.367767
 43,-0.87200880,-0.00179799,-0.00268069,-0.00846135,0.00561493,0.004849
 96,0.00498434,1.26175030,-2.35450089,0.85049889\\@
 The archive entry for this job was punched.


 IF I AM NOT FOR MYSELF, WHO WILL BE?
 BUT IF I AM ONLY FOR MYSELF, WHAT AM I?
 THOUGH A SEEKER SINCE MY BIRTH,
 HERE IS ALL I'VE LEARNED ON EARTH,
 THIS IS THE GIST OF WHAT I KNOW:
 GIVE ADVICE AND BUY A FOE.

 PRESSED FOR RULES AND VERITIES,
 ALL I RECOLLECT ARE THESE:
 FEED A COLD TO STARVE A FEVER,
 ARGUE WITH NO TRUE-BELIEVER.
 THINK-TOO-LONG IS NEVER-ACT,
 SCRATCH A MYTH AND FIND A FACT.

 STITCH IN TIME SAVES TWENTY STITCHES,
 GIVE THE RICH TO PLEASE THEM, RICHES.
 GIVE TO LOVE YOU HEARTH AND HALL,
 BUT DO NOT GIVE ADVICE AT ALL.

                                  -- HILLEL
 Job cpu time:       0 days  0 hours 40 minutes 41.5 seconds.
 Elapsed time:       0 days  0 hours  1 minutes 47.8 seconds.
 File lengths (MBytes):  RWF=    203 Int=      0 D2E=      0 Chk=     39 Scr=      1
 Normal termination of Gaussian 16 at Fri Apr  4 13:42:59 2025.
