 Entering Gaussian System, Link 0=g16
 Input=meoh_mp2_avtz_opt_anharm.gjf
 Output=meoh_mp2_avtz_opt_anharm.log
 Initial command:
 /sw/contrib/gaussian/g16/A03/g16/l1.exe "/gscratch/scrubbed/gds001/Gau-27009.inp" -scrdir="/gscratch/scrubbed/gds001/"
 Entering Link 1 = /sw/contrib/gaussian/g16/A03/g16/l1.exe PID=     27010.
  
 Copyright (c) 1988,1990,1992,1993,1995,1998,2003,2009,2016,
            Gaussian, Inc.  All Rights Reserved.
  
 This is part of the Gaussian(R) 16 program.  It is based on
 the Gaussian(R) 09 system (copyright 2009, Gaussian, Inc.),
 the Gaussian(R) 03 system (copyright 2003, Gaussian, Inc.),
 the Gaussian(R) 98 system (copyright 1998, Gaussian, Inc.),
 the Gaussian(R) 94 system (copyright 1995, Gaussian, Inc.),
 the Gaussian 92(TM) system (copyright 1992, Gaussian, Inc.),
 the Gaussian 90(TM) system (copyright 1990, Gaussian, Inc.),
 the Gaussian 88(TM) system (copyright 1988, Gaussian, Inc.),
 the Gaussian 86(TM) system (copyright 1986, Carnegie Mellon
 University), and the Gaussian 82(TM) system (copyright 1983,
 Carnegie Mellon University). Gaussian is a federally registered
 trademark of Gaussian, Inc.
  
 This software contains proprietary and confidential information,
 including trade secrets, belonging to Gaussian, Inc.
  
 This software is provided under written license and may be
 used, copied, transmitted, or stored only in accord with that
 written license.
  
 The following legend is applicable only to US Government
 contracts under FAR:
  
                    RESTRICTED RIGHTS LEGEND
  
 Use, reproduction and disclosure by the US Government is
 subject to restrictions as set forth in subparagraphs (a)
 and (c) of the Commercial Computer Software - Restricted
 Rights clause in FAR 52.227-19.
  
 Gaussian, Inc.
 340 Quinnipiac St., Bldg. 40, Wallingford CT 06492
  
  
 ---------------------------------------------------------------
 Warning -- This program may not be used in any manner that
 competes with the business of Gaussian, Inc. or will provide
 assistance to any competitor of Gaussian, Inc.  The licensee
 of this program is prohibited from giving any competitor of
 Gaussian, Inc. access to this program.  By using this program,
 the user acknowledges that Gaussian, Inc. is engaged in the
 business of creating and licensing software in the field of
 computational chemistry and represents and warrants to the
 licensee that it is not a competitor of Gaussian, Inc. and that
 it will not use this program in any manner prohibited above.
 ---------------------------------------------------------------
  

 Cite this work as:
 Gaussian 16, Revision A.03,
 M. J. Frisch, G. W. Trucks, H. B. Schlegel, G. E. Scuseria, 
 M. A. Robb, J. R. Cheeseman, G. Scalmani, V. Barone, 
 G. A. Petersson, H. Nakatsuji, X. Li, M. Caricato, A. V. Marenich, 
 J. Bloino, B. G. Janesko, R. Gomperts, B. Mennucci, H. P. Hratchian, 
 J. V. Ortiz, A. F. Izmaylov, J. L. Sonnenberg, D. Williams-Young, 
 F. Ding, F. Lipparini, F. Egidi, J. Goings, B. Peng, A. Petrone, 
 T. Henderson, D. Ranasinghe, V. G. Zakrzewski, J. Gao, N. Rega, 
 G. Zheng, W. Liang, M. Hada, M. Ehara, K. Toyota, R. Fukuda, 
 J. Hasegawa, M. Ishida, T. Nakajima, Y. Honda, O. Kitao, H. Nakai, 
 T. Vreven, K. Throssell, J. A. Montgomery, Jr., J. E. Peralta, 
 F. Ogliaro, M. J. Bearpark, J. J. Heyd, E. N. Brothers, K. N. Kudin, 
 V. N. Staroverov, T. A. Keith, R. Kobayashi, J. Normand, 
 K. Raghavachari, A. P. Rendell, J. C. Burant, S. S. Iyengar, 
 J. Tomasi, M. Cossi, J. M. Millam, M. Klene, C. Adamo, R. Cammi, 
 J. W. Ochterski, R. L. Martin, K. Morokuma, O. Farkas, 
 J. B. Foresman, and D. J. Fox, Gaussian, Inc., Wallingford CT, 2016.
 
 ******************************************
 Gaussian 16:  ES64L-G16RevA.03 25-Dec-2016
                25-Jun-2021 
 ******************************************
 %nprocshared=28
 Will use up to   28 processors via shared memory.
 %mem=41GB
 %chk=meoh_mp2_avtz_opt_anharm.chk
 ----------------------------------------------
 # mp2/aug-cc-pVTZ opt freq=(vibrot,anharmonic)
 ----------------------------------------------
 1/18=20,19=15,38=1,80=1/1,3;
 2/9=110,12=2,17=6,18=5,40=1/2;
 3/5=16,6=1,7=10,11=9,25=1,30=1,71=1/1,2,3;
 4//1;
 5/5=2,38=5/2;
 8/6=4,10=1/1;
 9/15=2,16=-3/6;
 10/5=1/2;
 6/7=2,8=2,9=2,10=2/1;
 7/12=2/1,2,3,16;
 1/18=20,19=15,80=1/3(2);
 2/9=110/2;
 99//99;
 2/9=110/2;
 3/5=16,6=1,7=10,11=9,25=1,30=1,71=1/1,2,3;
 4/5=5,16=3,69=1/1;
 5/5=2,38=5/2;
 8/6=4,10=1/1;
 9/15=2,16=-3/6;
 10/5=1/2;
 7/12=2/1,2,3,16;
 1/18=20,19=15,80=1/3(-8);
 2/9=110/2;
 6/7=2,8=2,9=2,10=2/1;
 99//99;
 ----
 MeOH
 ----
 Symbolic Z-matrix:
 Charge =  0 Multiplicity = 1
 O                    -0.04682  -0.76352   0. 
 H                     0.87193  -1.06104   0. 
 C                    -0.04682   0.67072   0. 
 H                    -1.10004   0.98028   0. 
 H                     0.44182   1.08232  -0.89943 
 H                     0.44182   1.08232   0.89943 
 

 GradGradGradGradGradGradGradGradGradGradGradGradGradGradGradGradGradGrad
 Berny optimization.
 Initialization pass.
                           ----------------------------
                           !    Initial Parameters    !
                           ! (Angstroms and Degrees)  !
 --------------------------                            --------------------------
 ! Name  Definition              Value          Derivative Info.                !
 --------------------------------------------------------------------------------
 ! R1    R(1,2)                  0.9657         estimate D2E/DX2                !
 ! R2    R(1,3)                  1.4342         estimate D2E/DX2                !
 ! R3    R(3,4)                  1.0978         estimate D2E/DX2                !
 ! R4    R(3,5)                  1.1033         estimate D2E/DX2                !
 ! R5    R(3,6)                  1.1033         estimate D2E/DX2                !
 ! A1    A(2,1,3)              107.9434         estimate D2E/DX2                !
 ! A2    A(1,3,4)              106.3789         estimate D2E/DX2                !
 ! A3    A(1,3,5)              111.9057         estimate D2E/DX2                !
 ! A4    A(1,3,6)              111.9057         estimate D2E/DX2                !
 ! A5    A(4,3,5)              108.647          estimate D2E/DX2                !
 ! A6    A(4,3,6)              108.647          estimate D2E/DX2                !
 ! A7    A(5,3,6)              109.2247         estimate D2E/DX2                !
 ! D1    D(2,1,3,4)            180.0            estimate D2E/DX2                !
 ! D2    D(2,1,3,5)             61.4854         estimate D2E/DX2                !
 ! D3    D(2,1,3,6)            -61.4854         estimate D2E/DX2                !
 --------------------------------------------------------------------------------
 Trust Radius=3.00D-01 FncErr=1.00D-07 GrdErr=1.00D-07 EigMax=2.50D+02 EigMin=1.00D-04
 Number of steps in this run=     25 maximum allowed number of steps=    100.
 GradGradGradGradGradGradGradGradGradGradGradGradGradGradGradGradGradGrad

                          Input orientation:                          
 ---------------------------------------------------------------------
 Center     Atomic      Atomic             Coordinates (Angstroms)
 Number     Number       Type             X           Y           Z
 ---------------------------------------------------------------------
      1          8           0       -0.046823   -0.763522    0.000000
      2          1           0        0.871925   -1.061039    0.000000
      3          6           0       -0.046823    0.670717    0.000000
      4          1           0       -1.100043    0.980275    0.000000
      5          1           0        0.441824    1.082318   -0.899428
      6          1           0        0.441824    1.082318    0.899428
 ---------------------------------------------------------------------
                    Distance matrix (angstroms):
                    1          2          3          4          5
     1  O    0.000000
     2  H    0.965720   0.000000
     3  C    1.434239   1.960377   0.000000
     4  H    2.037180   2.838243   1.097770   0.000000
     5  H    2.110657   2.363882   1.103251   1.787942   0.000000
     6  H    2.110657   2.363882   1.103251   1.787942   1.798856
                    6
     6  H    0.000000
 Stoichiometry    CH4O
 Framework group  CS[SG(CH2O),X(H2)]
 Deg. of freedom     8
 Full point group                 CS      NOp   2
 Largest Abelian subgroup         CS      NOp   2
 Largest concise Abelian subgroup CS      NOp   2
                         Standard orientation:                         
 ---------------------------------------------------------------------
 Center     Atomic      Atomic             Coordinates (Angstroms)
 Number     Number       Type             X           Y           Z
 ---------------------------------------------------------------------
      1          8           0        0.046823   -0.763522    0.000000
      2          1           0       -0.871925   -1.061039    0.000000
      3          6           0        0.046823    0.670717    0.000000
      4          1           0        1.100043    0.980275    0.000000
      5          1           0       -0.441824    1.082318    0.899428
      6          1           0       -0.441824    1.082318   -0.899428
 ---------------------------------------------------------------------
 Rotational constants (GHZ):         126.0547504          24.3750075          23.5262549
 Standard basis: Aug-CC-pVTZ (5D, 7F)
 There are   135 symmetry adapted cartesian basis functions of A'  symmetry.
 There are    75 symmetry adapted cartesian basis functions of A"  symmetry.
 There are   115 symmetry adapted basis functions of A'  symmetry.
 There are    69 symmetry adapted basis functions of A"  symmetry.
   184 basis functions,   252 primitive gaussians,   210 cartesian basis functions
     9 alpha electrons        9 beta electrons
       nuclear repulsion energy        39.9713487692 Hartrees.
 NAtoms=    6 NActive=    6 NUniq=    5 SFac= 1.44D+00 NAtFMM=   60 NAOKFM=F Big=F
 Integral buffers will be    131072 words long.
 Raffenetti 1 integral format.
 Two-electron integral symmetry is turned on.
 One-electron integrals computed using PRISM.
 NBasis=   184 RedAO= T EigKep=  6.49D-05  NBF=   115    69
 NBsUse=   184 1.00D-06 EigRej= -1.00D+00 NBFU=   115    69
 ExpMin= 2.53D-02 ExpMax= 1.53D+04 ExpMxC= 5.22D+02 IAcc=3 IRadAn=         5 AccDes= 0.00D+00
 Harris functional with IExCor=  205 and IRadAn=       5 diagonalized for initial guess.
 HarFok:  IExCor=  205 AccDes= 0.00D+00 IRadAn=         5 IDoV= 1 UseB2=F ITyADJ=14
 ICtDFT=  3500011 ScaDFX=  1.000000  1.000000  1.000000  1.000000
 FoFCou: FMM=F IPFlag=           0 FMFlag=      100000 FMFlg1=           0
         NFxFlg=           0 DoJE=T BraDBF=F KetDBF=T FulRan=T
         wScrn=  0.000000 ICntrl=       500 IOpCl=  0 I1Cent=   200000004 NGrid=           0
         NMat0=    1 NMatS0=      1 NMatT0=    0 NMatD0=    1 NMtDS0=    0 NMtDT0=    0
 Petite list used in FoFCou.
 Initial guess orbital symmetries:
       Occupied  (A') (A') (A') (A') (A') (A") (A') (A') (A")
       Virtual   (A') (A') (A') (A") (A') (A') (A") (A') (A') (A')
                 (A") (A') (A') (A") (A') (A") (A') (A') (A') (A")
                 (A') (A") (A") (A') (A') (A") (A') (A') (A') (A")
                 (A') (A') (A') (A") (A") (A') (A') (A') (A') (A")
                 (A') (A") (A") (A') (A') (A") (A") (A') (A") (A')
                 (A') (A') (A") (A') (A') (A") (A') (A') (A') (A")
                 (A') (A") (A") (A') (A") (A') (A") (A') (A') (A")
                 (A') (A') (A") (A') (A') (A") (A') (A") (A") (A')
                 (A') (A') (A") (A') (A") (A') (A") (A') (A') (A")
                 (A') (A") (A') (A') (A") (A') (A") (A') (A') (A')
                 (A") (A') (A') (A") (A") (A') (A') (A') (A') (A")
                 (A') (A") (A") (A') (A") (A') (A') (A") (A') (A')
                 (A") (A') (A") (A') (A") (A") (A') (A') (A') (A")
                 (A") (A') (A') (A") (A') (A") (A") (A') (A') (A')
                 (A') (A") (A') (A") (A') (A") (A') (A') (A") (A')
                 (A') (A") (A") (A') (A') (A") (A') (A') (A') (A')
                 (A") (A") (A') (A") (A') (A") (A") (A') (A') (A")
                 (A') (A') (A') (A') (A')
 The electronic state of the initial guess is 1-A'.
 Keep R1 ints in memory in symmetry-blocked form, NReq=217645684.
 Requested convergence on RMS density matrix=1.00D-08 within 128 cycles.
 Requested convergence on MAX density matrix=1.00D-06.
 Requested convergence on             energy=1.00D-06.
 No special actions if energy rises.
 SCF Done:  E(RHF) =  -115.090815238     A.U. after   10 cycles
            NFock= 10  Conv=0.75D-08     -V/T= 2.0022
 ExpMin= 2.53D-02 ExpMax= 1.53D+04 ExpMxC= 5.22D+02 IAcc=3 IRadAn=         5 AccDes= 0.00D+00
 HarFok:  IExCor=  205 AccDes= 0.00D+00 IRadAn=         5 IDoV=-2 UseB2=F ITyADJ=14
 ICtDFT= 12500011 ScaDFX=  1.000000  1.000000  1.000000  1.000000
 Range of M.O.s used for correlation:     3   184
 NBasis=   184 NAE=     9 NBE=     9 NFC=     2 NFV=     0
 NROrb=    182 NOA=     7 NOB=     7 NVA=   175 NVB=   175

 **** Warning!!: The largest alpha MO coefficient is  0.38586357D+02

 Fully direct method using O(ONN) memory.
 JobTyp=1 Pass  1:  I=   3 to   9 NPSUse= 28 ParTrn=T ParDer=T DoDerP=T.
 Spin components of T(2) and E(2):
     alpha-alpha T2 =       0.1383992112D-01 E2=     -0.5007517511D-01
     alpha-beta  T2 =       0.8804777494D-01 E2=     -0.3376782730D+00
     beta-beta   T2 =       0.1383992112D-01 E2=     -0.5007517511D-01
 ANorm=    0.1056280085D+01
 E2 =    -0.4378286233D+00 EUMP2 =    -0.11552864386078D+03
          IDoAtm=111111
          Differentiating once with respect to electric field.
                with respect to dipole field.
          Differentiating once with respect to nuclear coordinates.
 Keep R1 ints in memory in symmetry-blocked form, NReq=217646900.
          There are     1 degrees of freedom in the 1st order CPHF.  IDoFFX=0 NUNeed=     1.
 LinEq1:  Iter=  0 NonCon=     1 RMS=3.22D-03 Max=3.82D-02 NDo=     1
 AX will form     1 AO Fock derivatives at one time.
 LinEq1:  Iter=  1 NonCon=     1 RMS=7.49D-04 Max=6.82D-03 NDo=     1
 LinEq1:  Iter=  2 NonCon=     1 RMS=2.25D-04 Max=1.92D-03 NDo=     1
 LinEq1:  Iter=  3 NonCon=     1 RMS=5.88D-05 Max=5.72D-04 NDo=     1
 LinEq1:  Iter=  4 NonCon=     1 RMS=2.60D-05 Max=2.63D-04 NDo=     1
 LinEq1:  Iter=  5 NonCon=     1 RMS=4.73D-06 Max=5.25D-05 NDo=     1
 LinEq1:  Iter=  6 NonCon=     1 RMS=8.37D-07 Max=5.64D-06 NDo=     1
 LinEq1:  Iter=  7 NonCon=     1 RMS=1.42D-07 Max=1.00D-06 NDo=     1
 LinEq1:  Iter=  8 NonCon=     1 RMS=2.76D-08 Max=3.05D-07 NDo=     1
 LinEq1:  Iter=  9 NonCon=     1 RMS=5.13D-09 Max=5.03D-08 NDo=     1
 LinEq1:  Iter= 10 NonCon=     1 RMS=8.20D-10 Max=6.79D-09 NDo=     1
 LinEq1:  Iter= 11 NonCon=     1 RMS=1.22D-10 Max=1.16D-09 NDo=     1
 LinEq1:  Iter= 12 NonCon=     0 RMS=1.70D-11 Max=1.69D-10 NDo=     1
 Linear equations converged to 1.000D-10 1.000D-09 after    12 iterations.
 End of Minotr F.D. properties file   721 does not exist.
 End of Minotr F.D. properties file   722 does not exist.
 End of Minotr F.D. properties file   788 does not exist.

 **********************************************************************

            Population analysis using the SCF density.

 **********************************************************************

 Orbital symmetries:
       Occupied  (A') (A') (A') (A') (A') (A") (A') (A') (A")
       Virtual   (A') (A') (A") (A') (A') (A') (A") (A') (A') (A')
                 (A") (A') (A") (A') (A') (A") (A') (A") (A') (A')
                 (A") (A") (A') (A') (A') (A') (A') (A") (A') (A")
                 (A') (A') (A") (A') (A') (A") (A') (A') (A") (A')
                 (A') (A") (A') (A") (A") (A') (A") (A") (A') (A')
                 (A') (A") (A') (A') (A') (A") (A') (A') (A') (A")
                 (A') (A") (A") (A") (A') (A') (A") (A') (A') (A')
                 (A") (A') (A") (A') (A') (A") (A') (A") (A") (A')
                 (A') (A') (A") (A') (A") (A') (A") (A") (A') (A')
                 (A') (A") (A') (A') (A") (A') (A") (A') (A') (A')
                 (A") (A') (A') (A") (A") (A') (A') (A') (A') (A")
                 (A') (A") (A") (A') (A") (A') (A') (A") (A') (A")
                 (A') (A') (A") (A") (A') (A") (A') (A') (A") (A')
                 (A") (A') (A") (A') (A') (A") (A") (A') (A') (A')
                 (A') (A") (A") (A') (A') (A") (A') (A') (A") (A')
                 (A") (A') (A") (A') (A") (A') (A') (A') (A') (A')
                 (A") (A") (A') (A") (A') (A") (A") (A') (A') (A")
                 (A') (A') (A') (A') (A')
 The electronic state is 1-A'.
 Alpha  occ. eigenvalues --  -20.56030 -11.27658  -1.35212  -0.92244  -0.68658
 Alpha  occ. eigenvalues --   -0.61673  -0.58878  -0.50411  -0.45231
 Alpha virt. eigenvalues --    0.02848   0.04296   0.04660   0.05300   0.09877
 Alpha virt. eigenvalues --    0.11660   0.12924   0.13996   0.16531   0.17310
 Alpha virt. eigenvalues --    0.18281   0.21049   0.21453   0.26665   0.26889
 Alpha virt. eigenvalues --    0.29334   0.29961   0.32076   0.32184   0.33253
 Alpha virt. eigenvalues --    0.34290   0.35070   0.36915   0.39078   0.40801
 Alpha virt. eigenvalues --    0.43198   0.43545   0.44409   0.45301   0.45985
 Alpha virt. eigenvalues --    0.47944   0.50175   0.51234   0.52187   0.66055
 Alpha virt. eigenvalues --    0.66721   0.67986   0.75062   0.77025   0.78003
 Alpha virt. eigenvalues --    0.79139   0.80639   0.84852   0.85650   0.88395
 Alpha virt. eigenvalues --    0.89942   0.93198   0.93588   0.93670   0.94800
 Alpha virt. eigenvalues --    0.97119   0.97657   0.98289   1.01551   1.04344
 Alpha virt. eigenvalues --    1.06903   1.07097   1.09113   1.10726   1.12019
 Alpha virt. eigenvalues --    1.13730   1.14182   1.17482   1.19703   1.19833
 Alpha virt. eigenvalues --    1.24661   1.29346   1.31280   1.37355   1.40715
 Alpha virt. eigenvalues --    1.43711   1.53074   1.55393   1.55884   1.58903
 Alpha virt. eigenvalues --    1.59875   1.61300   1.63903   1.65207   1.66643
 Alpha virt. eigenvalues --    1.69725   1.72946   1.74936   1.88215   1.92716
 Alpha virt. eigenvalues --    1.95004   1.97183   2.02777   2.03274   2.06652
 Alpha virt. eigenvalues --    2.07447   2.15812   2.17055   2.36931   2.47262
 Alpha virt. eigenvalues --    2.48271   2.51106   2.53305   2.58077   2.73059
 Alpha virt. eigenvalues --    2.74984   2.77951   2.83848   2.88398   2.94051
 Alpha virt. eigenvalues --    2.97697   3.04545   3.18513   3.31344   3.37439
 Alpha virt. eigenvalues --    3.51603   3.54629   3.56892   3.61486   3.63519
 Alpha virt. eigenvalues --    3.70266   3.76878   3.84656   3.87876   3.92510
 Alpha virt. eigenvalues --    3.92877   3.97951   4.04705   4.06617   4.08498
 Alpha virt. eigenvalues --    4.16477   4.18275   4.21535   4.22405   4.25801
 Alpha virt. eigenvalues --    4.46333   4.48337   4.50219   4.52128   4.59545
 Alpha virt. eigenvalues --    4.62140   4.74150   4.74471   4.74887   4.88964
 Alpha virt. eigenvalues --    4.95219   4.99754   5.00933   5.04214   5.10466
 Alpha virt. eigenvalues --    5.21966   5.23108   5.36183   5.45436   5.49148
 Alpha virt. eigenvalues --    5.54506   5.55202   5.62437   5.68891   6.04939
 Alpha virt. eigenvalues --    6.05853   6.09615   6.13153   6.54934   6.60558
 Alpha virt. eigenvalues --    6.61871   6.87182   6.88400   7.04436   7.23887
 Alpha virt. eigenvalues --    7.29718   7.36258   7.45418   7.50671   7.71495
 Alpha virt. eigenvalues --    7.82880   8.11973   8.47940  15.36628  17.41730
          Condensed to atoms (all electrons):
               1          2          3          4          5          6
     1  O    8.244150   0.195842   0.066656  -0.012226   0.005763   0.005763
     2  H    0.195842   0.579847   0.017064  -0.004247   0.006754   0.006754
     3  C    0.066656   0.017064   5.377078   0.396278   0.377804   0.377804
     4  H   -0.012226  -0.004247   0.396278   0.280743   0.010469   0.010469
     5  H    0.005763   0.006754   0.377804   0.010469   0.302022  -0.003880
     6  H    0.005763   0.006754   0.377804   0.010469  -0.003880   0.302022
 Mulliken charges:
               1
     1  O   -0.505948
     2  H    0.197986
     3  C   -0.612684
     4  H    0.318513
     5  H    0.301067
     6  H    0.301067
 Sum of Mulliken charges =  -0.00000
 Mulliken charges with hydrogens summed into heavy atoms:
               1
     1  O   -0.307962
     3  C    0.307962
 Electronic spatial extent (au):  <R**2>=             85.3518
 Charge=             -0.0000 electrons
 Dipole moment (field-independent basis, Debye):
    X=             -1.4452    Y=              1.1145    Z=             -0.0000  Tot=              1.8250
 Quadrupole moment (field-independent basis, Debye-Ang):
   XX=            -11.6699   YY=            -13.4958   ZZ=            -13.7358
   XY=              2.1557   XZ=             -0.0000   YZ=              0.0000
 Traceless Quadrupole moment (field-independent basis, Debye-Ang):
   XX=              1.2973   YY=             -0.5286   ZZ=             -0.7687
   XY=              2.1557   XZ=             -0.0000   YZ=              0.0000
 Octapole moment (field-independent basis, Debye-Ang**2):
  XXX=             -1.1866  YYY=             -3.5902  ZZZ=             -0.0000  XYY=             -2.4408
  XXY=             -2.2415  XXZ=              0.0000  XZZ=             -0.7328  YZZ=             -0.1227
  YYZ=              0.0000  XYZ=              0.0000
 Hexadecapole moment (field-independent basis, Debye-Ang**3):
 XXXX=            -19.1131 YYYY=            -64.4525 ZZZZ=            -19.8972 XXXY=              1.4176
 XXXZ=             -0.0000 YYYX=              1.4792 YYYZ=              0.0000 ZZZX=              0.0000
 ZZZY=              0.0000 XXYY=            -12.6299 XXZZ=             -6.9606 YYZZ=            -14.5462
 XXYZ=             -0.0000 YYXZ=             -0.0000 ZZXY=             -1.0233
 N-N= 3.997134876918D+01 E-N=-3.510409564990D+02  KE= 1.148365532426D+02
 Symmetry A'   KE= 1.083134889595D+02
 Symmetry A"   KE= 6.523064283095D+00
 Calling FoFJK, ICntrl=  10002127 FMM=F ISym2X=1 I1Cent= 0 IOpClX= 0 NMat=1 NMatS=1 NMatT=0.
 ***** Axes restored to original set *****
 -------------------------------------------------------------------
 Center     Atomic                   Forces (Hartrees/Bohr)
 Number     Number              X              Y              Z
 -------------------------------------------------------------------
      1        8           0.003798844    0.005620303    0.000000000
      2        1          -0.003991458    0.001815551    0.000000000
      3        6          -0.000638854    0.001194714   -0.000000000
      4        1           0.007591808   -0.002322243    0.000000000
      5        1          -0.003380170   -0.003154163    0.006371850
      6        1          -0.003380170   -0.003154163   -0.006371850
 -------------------------------------------------------------------
 Cartesian Forces:  Max     0.007591808 RMS     0.003756922

 GradGradGradGradGradGradGradGradGradGradGradGradGradGradGradGradGradGrad
 Berny optimization.
 FormGI is forming the generalized inverse of G from B-inverse, IUseBI=4.
 Internal  Forces:  Max     0.007938561 RMS     0.004181394
 Search for a local minimum.
 Step number   1 out of a maximum of   25
 All quantities printed in internal units (Hartrees-Bohrs-Radians)
 Mixed Optimization -- RFO/linear search
 Second derivative matrix not updated -- first step.
 The second derivative matrix:
                          R1        R2        R3        R4        R5
           R1           0.54261
           R2           0.00000   0.40386
           R3           0.00000   0.00000   0.33930
           R4           0.00000   0.00000   0.00000   0.33325
           R5           0.00000   0.00000   0.00000   0.00000   0.33325
           A1           0.00000   0.00000   0.00000   0.00000   0.00000
           A2           0.00000   0.00000   0.00000   0.00000   0.00000
           A3           0.00000   0.00000   0.00000   0.00000   0.00000
           A4           0.00000   0.00000   0.00000   0.00000   0.00000
           A5           0.00000   0.00000   0.00000   0.00000   0.00000
           A6           0.00000   0.00000   0.00000   0.00000   0.00000
           A7           0.00000   0.00000   0.00000   0.00000   0.00000
           D1           0.00000   0.00000   0.00000   0.00000   0.00000
           D2           0.00000   0.00000   0.00000   0.00000   0.00000
           D3           0.00000   0.00000   0.00000   0.00000   0.00000
                          A1        A2        A3        A4        A5
           A1           0.16000
           A2           0.00000   0.16000
           A3           0.00000   0.00000   0.16000
           A4           0.00000   0.00000   0.00000   0.16000
           A5           0.00000   0.00000   0.00000   0.00000   0.16000
           A6           0.00000   0.00000   0.00000   0.00000   0.00000
           A7           0.00000   0.00000   0.00000   0.00000   0.00000
           D1           0.00000   0.00000   0.00000   0.00000   0.00000
           D2           0.00000   0.00000   0.00000   0.00000   0.00000
           D3           0.00000   0.00000   0.00000   0.00000   0.00000
                          A6        A7        D1        D2        D3
           A6           0.16000
           A7           0.00000   0.16000
           D1           0.00000   0.00000   0.01239
           D2           0.00000   0.00000   0.00000   0.01239
           D3           0.00000   0.00000   0.00000   0.00000   0.01239
 ITU=  0
     Eigenvalues ---    0.01239   0.09859   0.10516   0.16000   0.16000
     Eigenvalues ---    0.16000   0.16000   0.33325   0.33325   0.33930
     Eigenvalues ---    0.40386   0.54261
 RFO step:  Lambda=-7.34971138D-04 EMin= 1.23886406D-02
 Linear search not attempted -- first point.
 Iteration  1 RMS(Cart)=  0.01396564 RMS(Int)=  0.00001551
 Iteration  2 RMS(Cart)=  0.00002131 RMS(Int)=  0.00000127
 Iteration  3 RMS(Cart)=  0.00000000 RMS(Int)=  0.00000127
 ClnCor:  largest displacement from symmetrization is 1.56D-12 for atom     6.
 Variable       Old X    -DE/DX   Delta X   Delta X   Delta X     New X
                                 (Linear)    (Quad)   (Total)
    R1        1.82495  -0.00436   0.00000  -0.00802  -0.00802   1.81693
    R2        2.71032  -0.00744   0.00000  -0.01838  -0.01838   2.69194
    R3        2.07448  -0.00794   0.00000  -0.02335  -0.02335   2.05114
    R4        2.08484  -0.00787   0.00000  -0.02356  -0.02356   2.06128
    R5        2.08484  -0.00787   0.00000  -0.02356  -0.02356   2.06128
    A1        1.88397  -0.00091   0.00000  -0.00565  -0.00565   1.87832
    A2        1.85666   0.00003   0.00000   0.00045   0.00045   1.85711
    A3        1.95312  -0.00030   0.00000  -0.00198  -0.00199   1.95114
    A4        1.95312  -0.00030   0.00000  -0.00198  -0.00199   1.95114
    A5        1.89625   0.00021   0.00000   0.00154   0.00154   1.89779
    A6        1.89625   0.00021   0.00000   0.00154   0.00154   1.89779
    A7        1.90633   0.00018   0.00000   0.00065   0.00065   1.90698
    D1        3.14159   0.00000   0.00000   0.00000   0.00000   3.14159
    D2        1.07312  -0.00010   0.00000  -0.00105  -0.00104   1.07208
    D3       -1.07312   0.00010   0.00000   0.00105   0.00104  -1.07208
         Item               Value     Threshold  Converged?
 Maximum Force            0.007939     0.000450     NO 
 RMS     Force            0.004181     0.000300     NO 
 Maximum Displacement     0.026473     0.001800     NO 
 RMS     Displacement     0.013960     0.001200     NO 
 Predicted change in Energy=-3.682599D-04
 GradGradGradGradGradGradGradGradGradGradGradGradGradGradGradGradGradGrad

                          Input orientation:                          
 ---------------------------------------------------------------------
 Center     Atomic      Atomic             Coordinates (Angstroms)
 Number     Number       Type             X           Y           Z
 ---------------------------------------------------------------------
      1          8           0       -0.047861   -0.755285    0.000000
      2          1           0        0.868284   -1.047030    0.000000
      3          6           0       -0.046762    0.669228    0.000000
      4          1           0       -1.087755    0.976570    0.000000
      5          1           0        0.437989    1.073792   -0.889468
      6          1           0        0.437989    1.073792    0.889468
 ---------------------------------------------------------------------
                    Distance matrix (angstroms):
                    1          2          3          4          5
     1  O    0.000000
     2  H    0.961477   0.000000
     3  C    1.424514   1.944955   0.000000
     4  H    2.020075   2.814435   1.085415   0.000000
     5  H    2.091107   2.339700   1.090784   1.768757   0.000000
     6  H    2.091107   2.339700   1.090784   1.768757   1.778936
                    6
     6  H    0.000000
 Stoichiometry    CH4O
 Framework group  CS[SG(CH2O),X(H2)]
 Deg. of freedom     8
 Full point group                 CS      NOp   2
 Largest Abelian subgroup         CS      NOp   2
 Largest concise Abelian subgroup CS      NOp   2
                         Standard orientation:                         
 ---------------------------------------------------------------------
 Center     Atomic      Atomic             Coordinates (Angstroms)
 Number     Number       Type             X           Y           Z
 ---------------------------------------------------------------------
      1          8           0        0.046890   -0.758111    0.000000
      2          1           0       -0.869480   -1.049149    0.000000
      3          6           0        0.046890    0.666402    0.000000
      4          1           0        1.088120    0.972941    0.000000
      5          1           0       -0.437549    1.071341    0.889468
      6          1           0       -0.437549    1.071341   -0.889468
 ---------------------------------------------------------------------
 Rotational constants (GHZ):         128.4017868          24.7603274          23.8866528
 Standard basis: Aug-CC-pVTZ (5D, 7F)
 There are   135 symmetry adapted cartesian basis functions of A'  symmetry.
 There are    75 symmetry adapted cartesian basis functions of A"  symmetry.
 There are   115 symmetry adapted basis functions of A'  symmetry.
 There are    69 symmetry adapted basis functions of A"  symmetry.
   184 basis functions,   252 primitive gaussians,   210 cartesian basis functions
     9 alpha electrons        9 beta electrons
       nuclear repulsion energy        40.2941718794 Hartrees.
 NAtoms=    6 NActive=    6 NUniq=    5 SFac= 1.44D+00 NAtFMM=   60 NAOKFM=F Big=F
 Integral buffers will be    131072 words long.
 Raffenetti 1 integral format.
 Two-electron integral symmetry is turned on.
 One-electron integrals computed using PRISM.
 NBasis=   184 RedAO= T EigKep=  6.18D-05  NBF=   115    69
 NBsUse=   184 1.00D-06 EigRej= -1.00D+00 NBFU=   115    69
 Initial guess from the checkpoint file:  "meoh_mp2_avtz_opt_anharm.chk"
 B after Tr=     0.000000    0.000000    0.000000
         Rot=    1.000000    0.000000    0.000000    0.000098 Ang=   0.01 deg.
 Initial guess orbital symmetries:
       Occupied  (A') (A') (A') (A') (A') (A") (A') (A') (A")
       Virtual   (A') (A') (A") (A') (A') (A') (A") (A') (A') (A')
                 (A") (A') (A") (A') (A') (A") (A') (A") (A') (A')
                 (A") (A") (A') (A') (A') (A') (A') (A") (A') (A")
                 (A') (A') (A") (A') (A') (A") (A') (A') (A") (A')
                 (A') (A") (A') (A") (A") (A') (A") (A") (A') (A')
                 (A') (A") (A') (A') (A') (A") (A') (A') (A') (A")
                 (A') (A") (A") (A") (A') (A') (A") (A') (A') (A')
                 (A") (A') (A") (A') (A') (A") (A') (A") (A") (A')
                 (A') (A') (A") (A') (A") (A') (A") (A") (A') (A')
                 (A') (A") (A') (A') (A") (A') (A") (A') (A') (A')
                 (A") (A') (A') (A") (A") (A') (A') (A') (A') (A")
                 (A') (A") (A") (A') (A") (A') (A') (A") (A') (A")
                 (A') (A') (A") (A") (A') (A") (A') (A') (A") (A')
                 (A") (A') (A") (A') (A') (A") (A") (A') (A') (A')
                 (A') (A") (A") (A') (A') (A") (A') (A') (A") (A')
                 (A") (A') (A") (A') (A") (A') (A') (A') (A') (A')
                 (A") (A") (A') (A") (A') (A") (A") (A') (A') (A")
                 (A') (A') (A') (A') (A')
 ExpMin= 2.53D-02 ExpMax= 1.53D+04 ExpMxC= 5.22D+02 IAcc=3 IRadAn=         5 AccDes= 0.00D+00
 Harris functional with IExCor=  205 and IRadAn=       5 diagonalized for initial guess.
 HarFok:  IExCor=  205 AccDes= 0.00D+00 IRadAn=         5 IDoV= 1 UseB2=F ITyADJ=14
 ICtDFT=  3500011 ScaDFX=  1.000000  1.000000  1.000000  1.000000
 FoFCou: FMM=F IPFlag=           0 FMFlag=      100000 FMFlg1=           0
         NFxFlg=           0 DoJE=T BraDBF=F KetDBF=T FulRan=T
         wScrn=  0.000000 ICntrl=       500 IOpCl=  0 I1Cent=   200000004 NGrid=           0
         NMat0=    1 NMatS0=      1 NMatT0=    0 NMatD0=    1 NMtDS0=    0 NMtDT0=    0
 Petite list used in FoFCou.
 Keep R1 ints in memory in symmetry-blocked form, NReq=217645684.
 Requested convergence on RMS density matrix=1.00D-08 within 128 cycles.
 Requested convergence on MAX density matrix=1.00D-06.
 Requested convergence on             energy=1.00D-06.
 No special actions if energy rises.
 SCF Done:  E(RHF) =  -115.091966735     A.U. after    9 cycles
            NFock=  9  Conv=0.20D-08     -V/T= 2.0015
 ExpMin= 2.53D-02 ExpMax= 1.53D+04 ExpMxC= 5.22D+02 IAcc=3 IRadAn=         5 AccDes= 0.00D+00
 HarFok:  IExCor=  205 AccDes= 0.00D+00 IRadAn=         5 IDoV=-2 UseB2=F ITyADJ=14
 ICtDFT= 12500011 ScaDFX=  1.000000  1.000000  1.000000  1.000000
 Range of M.O.s used for correlation:     3   184
 NBasis=   184 NAE=     9 NBE=     9 NFC=     2 NFV=     0
 NROrb=    182 NOA=     7 NOB=     7 NVA=   175 NVB=   175

 **** Warning!!: The largest alpha MO coefficient is  0.40010901D+02

 Fully direct method using O(ONN) memory.
 JobTyp=1 Pass  1:  I=   3 to   9 NPSUse= 28 ParTrn=T ParDer=T DoDerP=T.
 Spin components of T(2) and E(2):
     alpha-alpha T2 =       0.1372679963D-01 E2=     -0.5003030655D-01
     alpha-beta  T2 =       0.8707830151D-01 E2=     -0.3369738189D+00
     beta-beta   T2 =       0.1372679963D-01 E2=     -0.5003030655D-01
 ANorm=    0.1055713929D+01
 E2 =    -0.4370344320D+00 EUMP2 =    -0.11552900116667D+03
          IDoAtm=111111
          Differentiating once with respect to electric field.
                with respect to dipole field.
          Differentiating once with respect to nuclear coordinates.
 Keep R1 ints in memory in symmetry-blocked form, NReq=217646900.
          There are     1 degrees of freedom in the 1st order CPHF.  IDoFFX=0 NUNeed=     1.
 LinEq1:  Iter=  0 NonCon=     1 RMS=3.18D-03 Max=3.80D-02 NDo=     1
 AX will form     1 AO Fock derivatives at one time.
 LinEq1:  Iter=  1 NonCon=     1 RMS=7.25D-04 Max=6.64D-03 NDo=     1
 LinEq1:  Iter=  2 NonCon=     1 RMS=2.18D-04 Max=1.87D-03 NDo=     1
 LinEq1:  Iter=  3 NonCon=     1 RMS=5.61D-05 Max=5.31D-04 NDo=     1
 LinEq1:  Iter=  4 NonCon=     1 RMS=2.49D-05 Max=2.55D-04 NDo=     1
 LinEq1:  Iter=  5 NonCon=     1 RMS=4.55D-06 Max=5.00D-05 NDo=     1
 LinEq1:  Iter=  6 NonCon=     1 RMS=8.00D-07 Max=5.50D-06 NDo=     1
 LinEq1:  Iter=  7 NonCon=     1 RMS=1.36D-07 Max=9.27D-07 NDo=     1
 LinEq1:  Iter=  8 NonCon=     1 RMS=2.63D-08 Max=2.86D-07 NDo=     1
 LinEq1:  Iter=  9 NonCon=     1 RMS=4.87D-09 Max=4.89D-08 NDo=     1
 LinEq1:  Iter= 10 NonCon=     1 RMS=7.75D-10 Max=6.63D-09 NDo=     1
 LinEq1:  Iter= 11 NonCon=     1 RMS=1.14D-10 Max=1.09D-09 NDo=     1
 LinEq1:  Iter= 12 NonCon=     0 RMS=1.58D-11 Max=1.56D-10 NDo=     1
 Linear equations converged to 1.000D-10 1.000D-09 after    12 iterations.
 End of Minotr F.D. properties file   721 does not exist.
 End of Minotr F.D. properties file   722 does not exist.
 End of Minotr F.D. properties file   788 does not exist.
 Calling FoFJK, ICntrl=  10002127 FMM=F ISym2X=1 I1Cent= 0 IOpClX= 0 NMat=1 NMatS=1 NMatT=0.
 ***** Axes restored to original set *****
 -------------------------------------------------------------------
 Center     Atomic                   Forces (Hartrees/Bohr)
 Number     Number              X              Y              Z
 -------------------------------------------------------------------
      1        8           0.001014323    0.000414140   -0.000000000
      2        1          -0.000432353   -0.000575284    0.000000000
      3        6          -0.000445486   -0.000914191    0.000000000
      4        1          -0.000186909    0.000481304    0.000000000
      5        1           0.000025212    0.000297016   -0.000151145
      6        1           0.000025212    0.000297016    0.000151145
 -------------------------------------------------------------------
 Cartesian Forces:  Max     0.001014323 RMS     0.000424423

 GradGradGradGradGradGradGradGradGradGradGradGradGradGradGradGradGradGrad
 Berny optimization.
 Using GEDIIS/GDIIS optimizer.
 FormGI is forming the generalized inverse of G from B-inverse, IUseBI=4.
 Internal  Forces:  Max     0.001234329 RMS     0.000400920
 Search for a local minimum.
 Step number   2 out of a maximum of   25
 All quantities printed in internal units (Hartrees-Bohrs-Radians)
 Mixed Optimization -- En-DIIS/RFO-DIIS
 Update second derivatives using D2CorX and points    1    2
 DE= -3.57D-04 DEPred=-3.68D-04 R= 9.70D-01
 TightC=F SS=  1.41D+00  RLast= 4.59D-02 DXNew= 5.0454D-01 1.3763D-01
 Trust test= 9.70D-01 RLast= 4.59D-02 DXMaxT set to 3.00D-01
 The second derivative matrix:
                          R1        R2        R3        R4        R5
           R1           0.53903
           R2          -0.00305   0.40433
           R3          -0.00246   0.00196   0.34297
           R4          -0.00280   0.00126   0.00291   0.33541
           R5          -0.00280   0.00126   0.00291   0.00216   0.33541
           A1           0.00620   0.01217   0.01340   0.01309   0.01309
           A2           0.00297   0.00542   0.00587   0.00578   0.00578
           A3           0.00070   0.00155   0.00175   0.00169   0.00169
           A4           0.00070   0.00155   0.00175   0.00169   0.00169
           A5          -0.00144  -0.00285  -0.00315  -0.00307  -0.00307
           A6          -0.00144  -0.00285  -0.00315  -0.00307  -0.00307
           A7          -0.00153  -0.00290  -0.00317  -0.00311  -0.00311
           D1          -0.00000  -0.00000  -0.00000  -0.00000  -0.00000
           D2           0.00044   0.00081   0.00089   0.00087   0.00087
           D3          -0.00044  -0.00081  -0.00089  -0.00087  -0.00087
                          A1        A2        A3        A4        A5
           A1           0.16490
           A2           0.00141   0.16028
           A3           0.00095   0.00033   0.16016
           A4           0.00095   0.00033   0.00016   0.16016
           A5          -0.00120  -0.00036  -0.00023  -0.00023   0.16030
           A6          -0.00120  -0.00036  -0.00023  -0.00023   0.00030
           A7          -0.00099  -0.00026  -0.00020  -0.00020   0.00024
           D1          -0.00000  -0.00000  -0.00000  -0.00000   0.00000
           D2           0.00025   0.00006   0.00005   0.00005  -0.00006
           D3          -0.00025  -0.00006  -0.00005  -0.00005   0.00006
                          A6        A7        D1        D2        D3
           A6           0.16030
           A7           0.00024   0.16019
           D1           0.00000   0.00000   0.01239
           D2          -0.00006  -0.00005  -0.00000   0.01240
           D3           0.00006   0.00005   0.00000  -0.00001   0.01240
 ITU=  1  0
 Use linear search instead of GDIIS.
     Eigenvalues ---    0.01239   0.09882   0.10520   0.15966   0.16000
     Eigenvalues ---    0.16000   0.16175   0.33325   0.33592   0.34819
     Eigenvalues ---    0.40543   0.53932
 RFO step:  Lambda=-1.19491782D-05 EMin= 1.23886406D-02
 Quartic linear search produced a step of -0.03628.
 Iteration  1 RMS(Cart)=  0.00318820 RMS(Int)=  0.00000778
 Iteration  2 RMS(Cart)=  0.00000695 RMS(Int)=  0.00000101
 Iteration  3 RMS(Cart)=  0.00000000 RMS(Int)=  0.00000101
 ClnCor:  largest displacement from symmetrization is 5.93D-13 for atom     6.
 Variable       Old X    -DE/DX   Delta X   Delta X   Delta X     New X
                                 (Linear)    (Quad)   (Total)
    R1        1.81693  -0.00024   0.00029  -0.00085  -0.00056   1.81637
    R2        2.69194   0.00016   0.00067  -0.00060   0.00006   2.69200
    R3        2.05114   0.00032   0.00085  -0.00036   0.00049   2.05162
    R4        2.06128   0.00024   0.00085  -0.00056   0.00029   2.06157
    R5        2.06128   0.00024   0.00085  -0.00056   0.00029   2.06157
    A1        1.87832   0.00123   0.00020   0.00712   0.00733   1.88565
    A2        1.85711   0.00050  -0.00002   0.00307   0.00305   1.86016
    A3        1.95114   0.00018   0.00007   0.00098   0.00105   1.95219
    A4        1.95114   0.00018   0.00007   0.00098   0.00105   1.95219
    A5        1.89779  -0.00033  -0.00006  -0.00189  -0.00195   1.89584
    A6        1.89779  -0.00033  -0.00006  -0.00189  -0.00195   1.89584
    A7        1.90698  -0.00022  -0.00002  -0.00133  -0.00135   1.90563
    D1        3.14159   0.00000   0.00000   0.00000   0.00000   3.14159
    D2        1.07208  -0.00001   0.00004  -0.00014  -0.00011   1.07197
    D3       -1.07208   0.00001  -0.00004   0.00014   0.00011  -1.07197
         Item               Value     Threshold  Converged?
 Maximum Force            0.001234     0.000450     NO 
 RMS     Force            0.000401     0.000300     NO 
 Maximum Displacement     0.009684     0.001800     NO 
 RMS     Displacement     0.003185     0.001200     NO 
 Predicted change in Energy=-6.506893D-06
 GradGradGradGradGradGradGradGradGradGradGradGradGradGradGradGradGradGrad

                          Input orientation:                          
 ---------------------------------------------------------------------
 Center     Atomic      Atomic             Coordinates (Angstroms)
 Number     Number       Type             X           Y           Z
 ---------------------------------------------------------------------
      1          8           0       -0.045698   -0.755361    0.000000
      2          1           0        0.868513   -1.052155    0.000000
      3          6           0       -0.047035    0.669186    0.000000
      4          1           0       -1.087863    0.977995    0.000000
      5          1           0        0.436983    1.075701   -0.889168
      6          1           0        0.436983    1.075701    0.889168
 ---------------------------------------------------------------------
                    Distance matrix (angstroms):
                    1          2          3          4          5
     1  O    0.000000
     2  H    0.961181   0.000000
     3  C    1.424548   1.949678   0.000000
     4  H    2.022530   2.819382   1.085673   0.000000
     5  H    2.091981   2.346190   1.090938   1.767858   0.000000
     6  H    2.091981   2.346190   1.090938   1.767858   1.778335
                    6
     6  H    0.000000
 Stoichiometry    CH4O
 Framework group  CS[SG(CH2O),X(H2)]
 Deg. of freedom     8
 Full point group                 CS      NOp   2
 Largest Abelian subgroup         CS      NOp   2
 Largest concise Abelian subgroup CS      NOp   2
                         Standard orientation:                         
 ---------------------------------------------------------------------
 Center     Atomic      Atomic             Coordinates (Angstroms)
 Number     Number       Type             X           Y           Z
 ---------------------------------------------------------------------
      1          8           0        0.046789   -0.758066    0.000000
      2          1           0       -0.867144   -1.055718    0.000000
      3          6           0        0.046789    0.666482    0.000000
      4          1           0        1.087326    0.976267    0.000000
      5          1           0       -0.437611    1.072542    0.889168
      6          1           0       -0.437611    1.072542   -0.889168
 ---------------------------------------------------------------------
 Rotational constants (GHZ):         128.6465638          24.7296237          23.8640892
 Standard basis: Aug-CC-pVTZ (5D, 7F)
 There are   135 symmetry adapted cartesian basis functions of A'  symmetry.
 There are    75 symmetry adapted cartesian basis functions of A"  symmetry.
 There are   115 symmetry adapted basis functions of A'  symmetry.
 There are    69 symmetry adapted basis functions of A"  symmetry.
   184 basis functions,   252 primitive gaussians,   210 cartesian basis functions
     9 alpha electrons        9 beta electrons
       nuclear repulsion energy        40.2842132210 Hartrees.
 NAtoms=    6 NActive=    6 NUniq=    5 SFac= 1.44D+00 NAtFMM=   60 NAOKFM=F Big=F
 Integral buffers will be    131072 words long.
 Raffenetti 1 integral format.
 Two-electron integral symmetry is turned on.
 One-electron integrals computed using PRISM.
 NBasis=   184 RedAO= T EigKep=  6.19D-05  NBF=   115    69
 NBsUse=   184 1.00D-06 EigRej= -1.00D+00 NBFU=   115    69
 Initial guess from the checkpoint file:  "meoh_mp2_avtz_opt_anharm.chk"
 B after Tr=    -0.000000   -0.000000   -0.000000
         Rot=    1.000000   -0.000000    0.000000   -0.000411 Ang=  -0.05 deg.
 Initial guess orbital symmetries:
       Occupied  (A') (A') (A') (A') (A') (A") (A') (A') (A")
       Virtual   (A') (A') (A") (A') (A') (A') (A") (A') (A') (A')
                 (A") (A') (A") (A') (A') (A") (A') (A") (A') (A')
                 (A") (A") (A') (A') (A') (A') (A') (A") (A') (A")
                 (A') (A') (A") (A') (A') (A") (A') (A') (A") (A')
                 (A') (A") (A') (A") (A") (A') (A") (A") (A') (A')
                 (A') (A") (A') (A') (A') (A") (A') (A') (A') (A")
                 (A') (A") (A") (A") (A') (A') (A") (A') (A') (A')
                 (A") (A') (A") (A') (A') (A") (A') (A") (A") (A')
                 (A') (A') (A") (A') (A") (A') (A") (A") (A') (A')
                 (A') (A") (A') (A') (A") (A') (A") (A') (A') (A')
                 (A") (A') (A') (A") (A") (A') (A') (A') (A') (A")
                 (A') (A") (A") (A') (A") (A') (A') (A") (A') (A")
                 (A') (A') (A") (A") (A') (A") (A') (A') (A") (A')
                 (A") (A') (A") (A') (A') (A") (A") (A') (A') (A')
                 (A') (A") (A") (A') (A') (A") (A') (A') (A") (A')
                 (A") (A') (A") (A') (A") (A') (A') (A') (A') (A')
                 (A") (A") (A') (A") (A') (A") (A") (A') (A') (A")
                 (A') (A') (A') (A') (A')
 Keep R1 ints in memory in symmetry-blocked form, NReq=217645684.
 Requested convergence on RMS density matrix=1.00D-08 within 128 cycles.
 Requested convergence on MAX density matrix=1.00D-06.
 Requested convergence on             energy=1.00D-06.
 No special actions if energy rises.
 SCF Done:  E(RHF) =  -115.092018837     A.U. after    7 cycles
            NFock=  7  Conv=0.76D-08     -V/T= 2.0015
 ExpMin= 2.53D-02 ExpMax= 1.53D+04 ExpMxC= 5.22D+02 IAcc=3 IRadAn=         5 AccDes= 0.00D+00
 HarFok:  IExCor=  205 AccDes= 0.00D+00 IRadAn=         5 IDoV=-2 UseB2=F ITyADJ=14
 ICtDFT= 12500011 ScaDFX=  1.000000  1.000000  1.000000  1.000000
 Range of M.O.s used for correlation:     3   184
 NBasis=   184 NAE=     9 NBE=     9 NFC=     2 NFV=     0
 NROrb=    182 NOA=     7 NOB=     7 NVA=   175 NVB=   175

 **** Warning!!: The largest alpha MO coefficient is  0.40034314D+02

 Fully direct method using O(ONN) memory.
 JobTyp=1 Pass  1:  I=   3 to   9 NPSUse= 28 ParTrn=T ParDer=T DoDerP=T.
 Spin components of T(2) and E(2):
     alpha-alpha T2 =       0.1372451485D-01 E2=     -0.5002352364D-01
     alpha-beta  T2 =       0.8706862350D-01 E2=     -0.3369411098D+00
     beta-beta   T2 =       0.1372451485D-01 E2=     -0.5002352364D-01
 ANorm=    0.1055707182D+01
 E2 =    -0.4369881571D+00 EUMP2 =    -0.11552900699423D+03
          IDoAtm=111111
          Differentiating once with respect to electric field.
                with respect to dipole field.
          Differentiating once with respect to nuclear coordinates.
 Keep R1 ints in memory in symmetry-blocked form, NReq=217646900.
          There are     1 degrees of freedom in the 1st order CPHF.  IDoFFX=0 NUNeed=     1.
 LinEq1:  Iter=  0 NonCon=     1 RMS=3.18D-03 Max=3.80D-02 NDo=     1
 AX will form     1 AO Fock derivatives at one time.
 LinEq1:  Iter=  1 NonCon=     1 RMS=7.24D-04 Max=6.65D-03 NDo=     1
 LinEq1:  Iter=  2 NonCon=     1 RMS=2.18D-04 Max=1.86D-03 NDo=     1
 LinEq1:  Iter=  3 NonCon=     1 RMS=5.58D-05 Max=5.28D-04 NDo=     1
 LinEq1:  Iter=  4 NonCon=     1 RMS=2.48D-05 Max=2.55D-04 NDo=     1
 LinEq1:  Iter=  5 NonCon=     1 RMS=4.54D-06 Max=4.90D-05 NDo=     1
 LinEq1:  Iter=  6 NonCon=     1 RMS=8.02D-07 Max=5.51D-06 NDo=     1
 LinEq1:  Iter=  7 NonCon=     1 RMS=1.36D-07 Max=9.26D-07 NDo=     1
 LinEq1:  Iter=  8 NonCon=     1 RMS=2.63D-08 Max=2.88D-07 NDo=     1
 LinEq1:  Iter=  9 NonCon=     1 RMS=4.87D-09 Max=4.91D-08 NDo=     1
 LinEq1:  Iter= 10 NonCon=     1 RMS=7.75D-10 Max=6.61D-09 NDo=     1
 LinEq1:  Iter= 11 NonCon=     1 RMS=1.14D-10 Max=1.08D-09 NDo=     1
 LinEq1:  Iter= 12 NonCon=     0 RMS=1.58D-11 Max=1.56D-10 NDo=     1
 Linear equations converged to 1.000D-10 1.000D-09 after    12 iterations.
 End of Minotr F.D. properties file   721 does not exist.
 End of Minotr F.D. properties file   722 does not exist.
 End of Minotr F.D. properties file   788 does not exist.
 Calling FoFJK, ICntrl=  10002127 FMM=F ISym2X=1 I1Cent= 0 IOpClX= 0 NMat=1 NMatS=1 NMatT=0.
 ***** Axes restored to original set *****
 -------------------------------------------------------------------
 Center     Atomic                   Forces (Hartrees/Bohr)
 Number     Number              X              Y              Z
 -------------------------------------------------------------------
      1        8          -0.000111380    0.000457817    0.000000000
      2        1          -0.000045629    0.000097962   -0.000000000
      3        6           0.000185331   -0.000707897    0.000000000
      4        1          -0.000159315   -0.000050743   -0.000000000
      5        1           0.000065497    0.000101430   -0.000136355
      6        1           0.000065497    0.000101430    0.000136355
 -------------------------------------------------------------------
 Cartesian Forces:  Max     0.000707897 RMS     0.000219018

 GradGradGradGradGradGradGradGradGradGradGradGradGradGradGradGradGradGrad
 Berny optimization.
 Using GEDIIS/GDIIS optimizer.
 FormGI is forming the generalized inverse of G from B-inverse, IUseBI=4.
 Internal  Forces:  Max     0.000555923 RMS     0.000175936
 Search for a local minimum.
 Step number   3 out of a maximum of   25
 All quantities printed in internal units (Hartrees-Bohrs-Radians)
 Mixed Optimization -- En-DIIS/RFO-DIIS
 Swapping is turned off.
 Update second derivatives using D2CorX and points    1    2    3
 DE= -5.83D-06 DEPred=-6.51D-06 R= 8.96D-01
 TightC=F SS=  1.41D+00  RLast= 8.68D-03 DXNew= 5.0454D-01 2.6036D-02
 Trust test= 8.96D-01 RLast= 8.68D-03 DXMaxT set to 3.00D-01
 The second derivative matrix:
                          R1        R2        R3        R4        R5
           R1           0.53509
           R2          -0.01295   0.42772
           R3           0.00106   0.00284   0.34125
           R4           0.00087  -0.00227   0.00184   0.33546
           R5           0.00087  -0.00227   0.00184   0.00221   0.33546
           A1           0.01325   0.06693   0.00108  -0.00316  -0.00316
           A2           0.00399   0.03271   0.00091  -0.00168  -0.00168
           A3           0.00336   0.00558  -0.00016  -0.00005  -0.00005
           A4           0.00336   0.00558  -0.00016  -0.00005  -0.00005
           A5          -0.00357  -0.01674   0.00014   0.00114   0.00114
           A6          -0.00357  -0.01674   0.00014   0.00114   0.00114
           A7          -0.00380  -0.01083  -0.00080  -0.00043  -0.00043
           D1          -0.00000   0.00000   0.00000  -0.00000  -0.00000
           D2           0.00140  -0.00140   0.00080   0.00121   0.00121
           D3          -0.00140   0.00140  -0.00080  -0.00121  -0.00121
                          A1        A2        A3        A4        A5
           A1           0.18067
           A2           0.01853   0.17267
           A3          -0.00582  -0.00172   0.15852
           A4          -0.00582  -0.00172  -0.00148   0.15852
           A5          -0.00391  -0.00416   0.00167   0.00167   0.16064
           A6          -0.00391  -0.00416   0.00167   0.00167   0.00064
           A7           0.00138  -0.00080   0.00145   0.00145  -0.00060
           D1           0.00000   0.00000   0.00000   0.00000  -0.00000
           D2          -0.00503  -0.00257  -0.00034  -0.00034   0.00128
           D3           0.00503   0.00257   0.00034   0.00034  -0.00128
                          A6        A7        D1        D2        D3
           A6           0.16064
           A7          -0.00060   0.15898
           D1          -0.00000  -0.00000   0.01239
           D2           0.00128   0.00072  -0.00000   0.01261
           D3          -0.00128  -0.00072   0.00000  -0.00022   0.01261
 ITU=  1  1  0
     Eigenvalues ---    0.01239   0.09832   0.10498   0.14686   0.16000
     Eigenvalues ---    0.16000   0.17931   0.33325   0.33615   0.34262
     Eigenvalues ---    0.45153   0.53682
 En-DIIS/RFO-DIIS/Sim-DIIS IScMMF=       -3 using points:     3    2
 RFO step:  Lambda=-1.22396163D-06.
 DidBck=F Rises=F RFO-DIIS coefs:    0.98124    0.01876
 Iteration  1 RMS(Cart)=  0.00054010 RMS(Int)=  0.00000018
 Iteration  2 RMS(Cart)=  0.00000011 RMS(Int)=  0.00000013
 ClnCor:  largest displacement from symmetrization is 1.11D-11 for atom     6.
 Variable       Old X    -DE/DX   Delta X   Delta X   Delta X     New X
                                 (Linear)    (Quad)   (Total)
    R1        1.81637  -0.00007   0.00001  -0.00018  -0.00017   1.81620
    R2        2.69200  -0.00056  -0.00000  -0.00124  -0.00124   2.69077
    R3        2.05162   0.00014  -0.00001   0.00042   0.00041   2.05204
    R4        2.06157   0.00018  -0.00001   0.00052   0.00051   2.06208
    R5        2.06157   0.00018  -0.00001   0.00052   0.00051   2.06208
    A1        1.88565  -0.00014  -0.00014  -0.00003  -0.00017   1.88547
    A2        1.86016  -0.00017  -0.00006  -0.00076  -0.00082   1.85934
    A3        1.95219   0.00008  -0.00002   0.00059   0.00057   1.95276
    A4        1.95219   0.00008  -0.00002   0.00059   0.00057   1.95276
    A5        1.89584   0.00002   0.00004  -0.00020  -0.00017   1.89568
    A6        1.89584   0.00002   0.00004  -0.00020  -0.00017   1.89568
    A7        1.90563  -0.00002   0.00003  -0.00007  -0.00005   1.90558
    D1        3.14159  -0.00000   0.00000  -0.00000   0.00000   3.14159
    D2        1.07197   0.00004   0.00000   0.00039   0.00039   1.07236
    D3       -1.07197  -0.00004  -0.00000  -0.00039  -0.00039  -1.07236
         Item               Value     Threshold  Converged?
 Maximum Force            0.000556     0.000450     NO 
 RMS     Force            0.000176     0.000300     YES
 Maximum Displacement     0.001282     0.001800     YES
 RMS     Displacement     0.000540     0.001200     YES
 Predicted change in Energy=-6.120117D-07
 GradGradGradGradGradGradGradGradGradGradGradGradGradGradGradGradGradGrad

                          Input orientation:                          
 ---------------------------------------------------------------------
 Center     Atomic      Atomic             Coordinates (Angstroms)
 Number     Number       Type             X           Y           Z
 ---------------------------------------------------------------------
      1          8           0       -0.045924   -0.754995    0.000000
      2          1           0        0.868137   -1.051959    0.000000
      3          6           0       -0.046708    0.668897    0.000000
      4          1           0       -1.087878    0.977316    0.000000
      5          1           0        0.437128    1.075904   -0.889372
      6          1           0        0.437128    1.075904    0.889372
 ---------------------------------------------------------------------
                    Distance matrix (angstroms):
                    1          2          3          4          5
     1  O    0.000000
     2  H    0.961090   0.000000
     3  C    1.423892   1.948919   0.000000
     4  H    2.021527   2.818502   1.085891   0.000000
     5  H    2.092012   2.346178   1.091208   1.768148   0.000000
     6  H    2.092012   2.346178   1.091208   1.768148   1.778745
                    6
     6  H    0.000000
 Stoichiometry    CH4O
 Framework group  CS[SG(CH2O),X(H2)]
 Deg. of freedom     8
 Full point group                 CS      NOp   2
 Largest Abelian subgroup         CS      NOp   2
 Largest concise Abelian subgroup CS      NOp   2
                         Standard orientation:                         
 ---------------------------------------------------------------------
 Center     Atomic      Atomic             Coordinates (Angstroms)
 Number     Number       Type             X           Y           Z
 ---------------------------------------------------------------------
      1          8           0        0.046723   -0.757780    0.000000
      2          1           0       -0.867174   -1.055247    0.000000
      3          6           0        0.046723    0.666112    0.000000
      4          1           0        1.087724    0.975105    0.000000
      5          1           0       -0.437336    1.072853    0.889372
      6          1           0       -0.437336    1.072853   -0.889372
 ---------------------------------------------------------------------
 Rotational constants (GHZ):         128.6114026          24.7466741          23.8804107
 Standard basis: Aug-CC-pVTZ (5D, 7F)
 There are   135 symmetry adapted cartesian basis functions of A'  symmetry.
 There are    75 symmetry adapted cartesian basis functions of A"  symmetry.
 There are   115 symmetry adapted basis functions of A'  symmetry.
 There are    69 symmetry adapted basis functions of A"  symmetry.
   184 basis functions,   252 primitive gaussians,   210 cartesian basis functions
     9 alpha electrons        9 beta electrons
       nuclear repulsion energy        40.2923234092 Hartrees.
 NAtoms=    6 NActive=    6 NUniq=    5 SFac= 1.44D+00 NAtFMM=   60 NAOKFM=F Big=F
 Integral buffers will be    131072 words long.
 Raffenetti 1 integral format.
 Two-electron integral symmetry is turned on.
 One-electron integrals computed using PRISM.
 NBasis=   184 RedAO= T EigKep=  6.19D-05  NBF=   115    69
 NBsUse=   184 1.00D-06 EigRej= -1.00D+00 NBFU=   115    69
 Initial guess from the checkpoint file:  "meoh_mp2_avtz_opt_anharm.chk"
 B after Tr=     0.000000    0.000000    0.000000
         Rot=    1.000000    0.000000    0.000000    0.000110 Ang=   0.01 deg.
 Initial guess orbital symmetries:
       Occupied  (A') (A') (A') (A') (A') (A") (A') (A') (A")
       Virtual   (A') (A') (A") (A') (A') (A') (A") (A') (A') (A')
                 (A") (A') (A") (A') (A') (A") (A') (A") (A') (A')
                 (A") (A") (A') (A') (A') (A') (A') (A") (A') (A")
                 (A') (A') (A") (A') (A') (A") (A') (A') (A") (A')
                 (A') (A") (A') (A") (A") (A') (A") (A") (A') (A')
                 (A') (A") (A') (A') (A') (A") (A') (A') (A') (A")
                 (A') (A") (A") (A") (A') (A') (A") (A') (A') (A')
                 (A") (A') (A") (A') (A') (A") (A') (A") (A") (A')
                 (A') (A') (A") (A') (A") (A') (A") (A") (A') (A')
                 (A') (A") (A') (A') (A") (A') (A") (A') (A') (A')
                 (A") (A') (A') (A") (A") (A') (A') (A') (A') (A")
                 (A') (A") (A") (A') (A") (A') (A') (A") (A') (A")
                 (A') (A') (A") (A") (A') (A") (A') (A') (A") (A')
                 (A") (A') (A") (A') (A') (A") (A") (A') (A') (A')
                 (A') (A") (A") (A') (A') (A") (A') (A') (A") (A')
                 (A") (A') (A") (A') (A") (A') (A') (A') (A') (A')
                 (A") (A") (A') (A") (A') (A") (A") (A') (A') (A")
                 (A') (A') (A') (A') (A')
 Keep R1 ints in memory in symmetry-blocked form, NReq=217645684.
 Requested convergence on RMS density matrix=1.00D-08 within 128 cycles.
 Requested convergence on MAX density matrix=1.00D-06.
 Requested convergence on             energy=1.00D-06.
 No special actions if energy rises.
 SCF Done:  E(RHF) =  -115.092031387     A.U. after    7 cycles
            NFock=  7  Conv=0.29D-08     -V/T= 2.0015
 ExpMin= 2.53D-02 ExpMax= 1.53D+04 ExpMxC= 5.22D+02 IAcc=3 IRadAn=         5 AccDes= 0.00D+00
 HarFok:  IExCor=  205 AccDes= 0.00D+00 IRadAn=         5 IDoV=-2 UseB2=F ITyADJ=14
 ICtDFT= 12500011 ScaDFX=  1.000000  1.000000  1.000000  1.000000
 Range of M.O.s used for correlation:     3   184
 NBasis=   184 NAE=     9 NBE=     9 NFC=     2 NFV=     0
 NROrb=    182 NOA=     7 NOB=     7 NVA=   175 NVB=   175

 **** Warning!!: The largest alpha MO coefficient is  0.39996417D+02

 Fully direct method using O(ONN) memory.
 JobTyp=1 Pass  1:  I=   3 to   9 NPSUse= 28 ParTrn=T ParDer=T DoDerP=T.
 Spin components of T(2) and E(2):
     alpha-alpha T2 =       0.1372252926D-01 E2=     -0.5002299723D-01
     alpha-beta  T2 =       0.8705945641D-01 E2=     -0.3369303246D+00
     beta-beta   T2 =       0.1372252926D-01 E2=     -0.5002299723D-01
 ANorm=    0.1055700959D+01
 E2 =    -0.4369763191D+00 EUMP2 =    -0.11552900770579D+03
          IDoAtm=111111
          Differentiating once with respect to electric field.
                with respect to dipole field.
          Differentiating once with respect to nuclear coordinates.
 Keep R1 ints in memory in symmetry-blocked form, NReq=217646900.
          There are     1 degrees of freedom in the 1st order CPHF.  IDoFFX=0 NUNeed=     1.
 LinEq1:  Iter=  0 NonCon=     1 RMS=3.17D-03 Max=3.80D-02 NDo=     1
 AX will form     1 AO Fock derivatives at one time.
 LinEq1:  Iter=  1 NonCon=     1 RMS=7.24D-04 Max=6.65D-03 NDo=     1
 LinEq1:  Iter=  2 NonCon=     1 RMS=2.18D-04 Max=1.86D-03 NDo=     1
 LinEq1:  Iter=  3 NonCon=     1 RMS=5.56D-05 Max=5.26D-04 NDo=     1
 LinEq1:  Iter=  4 NonCon=     1 RMS=2.48D-05 Max=2.54D-04 NDo=     1
 LinEq1:  Iter=  5 NonCon=     1 RMS=4.54D-06 Max=4.91D-05 NDo=     1
 LinEq1:  Iter=  6 NonCon=     1 RMS=8.01D-07 Max=5.51D-06 NDo=     1
 LinEq1:  Iter=  7 NonCon=     1 RMS=1.36D-07 Max=9.25D-07 NDo=     1
 LinEq1:  Iter=  8 NonCon=     1 RMS=2.63D-08 Max=2.87D-07 NDo=     1
 LinEq1:  Iter=  9 NonCon=     1 RMS=4.87D-09 Max=4.91D-08 NDo=     1
 LinEq1:  Iter= 10 NonCon=     1 RMS=7.74D-10 Max=6.62D-09 NDo=     1
 LinEq1:  Iter= 11 NonCon=     1 RMS=1.14D-10 Max=1.08D-09 NDo=     1
 LinEq1:  Iter= 12 NonCon=     0 RMS=1.58D-11 Max=1.56D-10 NDo=     1
 Linear equations converged to 1.000D-10 1.000D-09 after    12 iterations.
 End of Minotr F.D. properties file   721 does not exist.
 End of Minotr F.D. properties file   722 does not exist.
 End of Minotr F.D. properties file   788 does not exist.
 Calling FoFJK, ICntrl=  10002127 FMM=F ISym2X=1 I1Cent= 0 IOpClX= 0 NMat=1 NMatS=1 NMatT=0.
 ***** Axes restored to original set *****
 -------------------------------------------------------------------
 Center     Atomic                   Forces (Hartrees/Bohr)
 Number     Number              X              Y              Z
 -------------------------------------------------------------------
      1        8          -0.000030514    0.000140289   -0.000000000
      2        1           0.000029587    0.000005335    0.000000000
      3        6          -0.000015582   -0.000209704    0.000000000
      4        1          -0.000010142    0.000023431    0.000000000
      5        1           0.000013325    0.000020324   -0.000005546
      6        1           0.000013325    0.000020324    0.000005546
 -------------------------------------------------------------------
 Cartesian Forces:  Max     0.000209704 RMS     0.000061296

 GradGradGradGradGradGradGradGradGradGradGradGradGradGradGradGradGradGrad
 Berny optimization.
 Using GEDIIS/GDIIS optimizer.
 FormGI is forming the generalized inverse of G from B-inverse, IUseBI=4.
 Internal  Forces:  Max     0.000145624 RMS     0.000041264
 Search for a local minimum.
 Step number   4 out of a maximum of   25
 All quantities printed in internal units (Hartrees-Bohrs-Radians)
 Mixed Optimization -- En-DIIS/RFO-DIIS
 Swapping is turned off.
 Update second derivatives using D2CorX and points    1    2    3    4
 DE= -7.12D-07 DEPred=-6.12D-07 R= 1.16D+00
 Trust test= 1.16D+00 RLast= 2.00D-03 DXMaxT set to 3.00D-01
 The second derivative matrix:
                          R1        R2        R3        R4        R5
           R1           0.54232
           R2          -0.00846   0.33825
           R3          -0.00355   0.01765   0.33996
           R4          -0.00497   0.01511   0.00059   0.33433
           R5          -0.00497   0.01511   0.00059   0.00108   0.33433
           A1           0.01208   0.05448   0.00447   0.00088   0.00088
           A2           0.01204   0.02925  -0.00156  -0.00510  -0.00510
           A3           0.00153   0.01857  -0.00198  -0.00210  -0.00210
           A4           0.00153   0.01857  -0.00198  -0.00210  -0.00210
           A5          -0.00591  -0.02891   0.00378   0.00557   0.00557
           A6          -0.00591  -0.02891   0.00378   0.00557   0.00557
           A7          -0.00352  -0.01080  -0.00159  -0.00132  -0.00132
           D1           0.00000   0.00000  -0.00000  -0.00000  -0.00000
           D2          -0.00384  -0.01705   0.00693   0.00870   0.00870
           D3           0.00384   0.01705  -0.00693  -0.00870  -0.00870
                          A1        A2        A3        A4        A5
           A1           0.17931
           A2           0.01590   0.17996
           A3          -0.00367  -0.00221   0.15675
           A4          -0.00367  -0.00221  -0.00325   0.15675
           A5          -0.00484  -0.00772   0.00391   0.00391   0.16017
           A6          -0.00484  -0.00772   0.00391   0.00391   0.00017
           A7           0.00133  -0.00016   0.00129   0.00129  -0.00078
           D1           0.00000   0.00000  -0.00000  -0.00000  -0.00000
           D2          -0.00566  -0.00960   0.00291   0.00291   0.00162
           D3           0.00566   0.00960  -0.00291  -0.00291  -0.00162
                          A6        A7        D1        D2        D3
           A6           0.16017
           A7          -0.00078   0.15902
           D1          -0.00000  -0.00000   0.01239
           D2           0.00162   0.00031  -0.00000   0.01502
           D3          -0.00162  -0.00031   0.00000  -0.00264   0.01502
 ITU=  0  1  1  0
     Eigenvalues ---    0.01239   0.10225   0.10501   0.13488   0.16000
     Eigenvalues ---    0.16333   0.18108   0.32872   0.33325   0.33734
     Eigenvalues ---    0.38394   0.54396
 En-DIIS/RFO-DIIS/Sim-DIIS IScMMF=       -3 using points:     4    3    2
 RFO step:  Lambda=-1.02002394D-07.
 DidBck=F Rises=F RFO-DIIS coefs:    1.17870   -0.15198   -0.02672
 Iteration  1 RMS(Cart)=  0.00013194 RMS(Int)=  0.00000005
 Iteration  2 RMS(Cart)=  0.00000002 RMS(Int)=  0.00000005
 ClnCor:  largest displacement from symmetrization is 2.95D-12 for atom     6.
 Variable       Old X    -DE/DX   Delta X   Delta X   Delta X     New X
                                 (Linear)    (Quad)   (Total)
    R1        1.81620   0.00003  -0.00005   0.00008   0.00003   1.81623
    R2        2.69077  -0.00015  -0.00022  -0.00030  -0.00052   2.69025
    R3        2.05204   0.00002   0.00009  -0.00000   0.00008   2.05212
    R4        2.06208   0.00002   0.00010  -0.00001   0.00009   2.06218
    R5        2.06208   0.00002   0.00010  -0.00001   0.00009   2.06218
    A1        1.88547  -0.00003   0.00017  -0.00019  -0.00002   1.88545
    A2        1.85934   0.00003  -0.00007   0.00033   0.00027   1.85961
    A3        1.95276   0.00001   0.00013  -0.00001   0.00012   1.95289
    A4        1.95276   0.00001   0.00013  -0.00001   0.00012   1.95289
    A5        1.89568  -0.00001  -0.00008  -0.00004  -0.00012   1.89555
    A6        1.89568  -0.00001  -0.00008  -0.00004  -0.00012   1.89555
    A7        1.90558  -0.00002  -0.00004  -0.00023  -0.00027   1.90531
    D1        3.14159   0.00000  -0.00000   0.00000   0.00000   3.14159
    D2        1.07236  -0.00001   0.00007  -0.00015  -0.00008   1.07228
    D3       -1.07236   0.00001  -0.00007   0.00015   0.00008  -1.07228
         Item               Value     Threshold  Converged?
 Maximum Force            0.000146     0.000450     YES
 RMS     Force            0.000041     0.000300     YES
 Maximum Displacement     0.000366     0.001800     YES
 RMS     Displacement     0.000132     0.001200     YES
 Predicted change in Energy=-5.100097D-08
 Optimization completed.
    -- Stationary point found.
                           ----------------------------
                           !   Optimized Parameters   !
                           ! (Angstroms and Degrees)  !
 --------------------------                            --------------------------
 ! Name  Definition              Value          Derivative Info.                !
 --------------------------------------------------------------------------------
 ! R1    R(1,2)                  0.9611         -DE/DX =    0.0                 !
 ! R2    R(1,3)                  1.4239         -DE/DX =   -0.0001              !
 ! R3    R(3,4)                  1.0859         -DE/DX =    0.0                 !
 ! R4    R(3,5)                  1.0912         -DE/DX =    0.0                 !
 ! R5    R(3,6)                  1.0912         -DE/DX =    0.0                 !
 ! A1    A(2,1,3)              108.0297         -DE/DX =    0.0                 !
 ! A2    A(1,3,4)              106.5321         -DE/DX =    0.0                 !
 ! A3    A(1,3,5)              111.8849         -DE/DX =    0.0                 !
 ! A4    A(1,3,6)              111.8849         -DE/DX =    0.0                 !
 ! A5    A(4,3,5)              108.6143         -DE/DX =    0.0                 !
 ! A6    A(4,3,6)              108.6143         -DE/DX =    0.0                 !
 ! A7    A(5,3,6)              109.1816         -DE/DX =    0.0                 !
 ! D1    D(2,1,3,4)            180.0            -DE/DX =    0.0                 !
 ! D2    D(2,1,3,5)             61.4418         -DE/DX =    0.0                 !
 ! D3    D(2,1,3,6)            -61.4418         -DE/DX =    0.0                 !
 --------------------------------------------------------------------------------
 GradGradGradGradGradGradGradGradGradGradGradGradGradGradGradGradGradGrad

                          Input orientation:                          
 ---------------------------------------------------------------------
 Center     Atomic      Atomic             Coordinates (Angstroms)
 Number     Number       Type             X           Y           Z
 ---------------------------------------------------------------------
      1          8           0       -0.045924   -0.754995    0.000000
      2          1           0        0.868137   -1.051959    0.000000
      3          6           0       -0.046708    0.668897    0.000000
      4          1           0       -1.087878    0.977316    0.000000
      5          1           0        0.437128    1.075904   -0.889372
      6          1           0        0.437128    1.075904    0.889372
 ---------------------------------------------------------------------
                    Distance matrix (angstroms):
                    1          2          3          4          5
     1  O    0.000000
     2  H    0.961090   0.000000
     3  C    1.423892   1.948919   0.000000
     4  H    2.021527   2.818502   1.085891   0.000000
     5  H    2.092012   2.346178   1.091208   1.768148   0.000000
     6  H    2.092012   2.346178   1.091208   1.768148   1.778745
                    6
     6  H    0.000000
 Stoichiometry    CH4O
 Framework group  CS[SG(CH2O),X(H2)]
 Deg. of freedom     8
 Full point group                 CS      NOp   2
 Largest Abelian subgroup         CS      NOp   2
 Largest concise Abelian subgroup CS      NOp   2
                         Standard orientation:                         
 ---------------------------------------------------------------------
 Center     Atomic      Atomic             Coordinates (Angstroms)
 Number     Number       Type             X           Y           Z
 ---------------------------------------------------------------------
      1          8           0        0.046723   -0.757780    0.000000
      2          1           0       -0.867174   -1.055247    0.000000
      3          6           0        0.046723    0.666112    0.000000
      4          1           0        1.087724    0.975105    0.000000
      5          1           0       -0.437336    1.072853    0.889372
      6          1           0       -0.437336    1.072853   -0.889372
 ---------------------------------------------------------------------
 Rotational constants (GHZ):         128.6114026          24.7466741          23.8804107

 **********************************************************************

            Population analysis using the SCF density.

 **********************************************************************

 Orbital symmetries:
       Occupied  (A') (A') (A') (A') (A') (A") (A') (A') (A")
       Virtual   (A') (A') (A") (A') (A') (A') (A") (A') (A') (A')
                 (A") (A') (A") (A') (A') (A") (A') (A") (A') (A')
                 (A") (A") (A') (A') (A') (A') (A') (A") (A') (A")
                 (A') (A') (A") (A') (A') (A") (A') (A') (A") (A')
                 (A') (A") (A') (A") (A") (A') (A") (A") (A') (A')
                 (A') (A") (A') (A') (A') (A") (A') (A') (A') (A")
                 (A') (A") (A") (A") (A') (A') (A") (A') (A') (A')
                 (A") (A') (A") (A') (A') (A") (A') (A") (A") (A')
                 (A') (A') (A") (A') (A") (A') (A") (A") (A') (A')
                 (A') (A") (A') (A') (A") (A') (A") (A') (A') (A')
                 (A") (A') (A') (A") (A") (A') (A') (A') (A') (A")
                 (A') (A") (A") (A') (A") (A') (A') (A") (A') (A")
                 (A') (A') (A") (A") (A') (A") (A') (A') (A") (A')
                 (A") (A') (A") (A') (A') (A") (A") (A') (A') (A')
                 (A') (A") (A") (A') (A') (A") (A') (A') (A") (A')
                 (A") (A') (A") (A') (A") (A') (A') (A') (A') (A')
                 (A") (A") (A') (A") (A') (A") (A") (A') (A') (A")
                 (A') (A') (A') (A') (A')
 The electronic state is 1-A'.
 Alpha  occ. eigenvalues --  -20.55908 -11.27101  -1.35628  -0.92632  -0.69040
 Alpha  occ. eigenvalues --   -0.62061  -0.59245  -0.50489  -0.45221
 Alpha virt. eigenvalues --    0.02850   0.04299   0.04656   0.05299   0.09895
 Alpha virt. eigenvalues --    0.11666   0.12926   0.14002   0.16536   0.17321
 Alpha virt. eigenvalues --    0.18267   0.21124   0.21528   0.26778   0.27003
 Alpha virt. eigenvalues --    0.29414   0.30062   0.32111   0.32173   0.33358
 Alpha virt. eigenvalues --    0.34306   0.35137   0.36943   0.39119   0.40876
 Alpha virt. eigenvalues --    0.43359   0.43681   0.44653   0.45497   0.46015
 Alpha virt. eigenvalues --    0.48024   0.50547   0.51334   0.52356   0.66311
 Alpha virt. eigenvalues --    0.67006   0.68105   0.75403   0.77074   0.78098
 Alpha virt. eigenvalues --    0.79175   0.80449   0.85069   0.85758   0.88644
 Alpha virt. eigenvalues --    0.90083   0.93260   0.93547   0.93756   0.94950
 Alpha virt. eigenvalues --    0.97350   0.97867   0.98477   1.01743   1.04362
 Alpha virt. eigenvalues --    1.07028   1.07334   1.09338   1.11011   1.12410
 Alpha virt. eigenvalues --    1.13949   1.14536   1.17839   1.20102   1.20249
 Alpha virt. eigenvalues --    1.24872   1.29747   1.31633   1.37094   1.40816
 Alpha virt. eigenvalues --    1.43716   1.53388   1.55658   1.56121   1.59177
 Alpha virt. eigenvalues --    1.60094   1.61462   1.64784   1.65859   1.66963
 Alpha virt. eigenvalues --    1.70014   1.73385   1.75542   1.89011   1.93622
 Alpha virt. eigenvalues --    1.95362   1.97742   2.03209   2.03903   2.07326
 Alpha virt. eigenvalues --    2.08175   2.16460   2.17913   2.37607   2.47625
 Alpha virt. eigenvalues --    2.48379   2.51513   2.54377   2.57358   2.73538
 Alpha virt. eigenvalues --    2.75649   2.78252   2.84250   2.88753   2.94780
 Alpha virt. eigenvalues --    2.98571   3.04309   3.19095   3.31568   3.37603
 Alpha virt. eigenvalues --    3.52598   3.54910   3.58079   3.62332   3.63697
 Alpha virt. eigenvalues --    3.70272   3.77892   3.85777   3.88961   3.93535
 Alpha virt. eigenvalues --    3.93959   3.98900   4.05974   4.08059   4.09965
 Alpha virt. eigenvalues --    4.16916   4.20298   4.22561   4.23478   4.27767
 Alpha virt. eigenvalues --    4.47089   4.50291   4.51796   4.54570   4.60655
 Alpha virt. eigenvalues --    4.64701   4.75799   4.76131   4.76445   4.90734
 Alpha virt. eigenvalues --    4.97177   5.01965   5.03527   5.06088   5.13617
 Alpha virt. eigenvalues --    5.24590   5.25313   5.38276   5.47548   5.52828
 Alpha virt. eigenvalues --    5.58960   5.59400   5.65274   5.71563   6.10384
 Alpha virt. eigenvalues --    6.10853   6.13285   6.15733   6.55652   6.61128
 Alpha virt. eigenvalues --    6.62357   6.87644   6.88945   7.05709   7.25773
 Alpha virt. eigenvalues --    7.30916   7.36657   7.47156   7.51990   7.73084
 Alpha virt. eigenvalues --    7.83836   8.13248   8.50379  15.53410  17.68964
          Condensed to atoms (all electrons):
               1          2          3          4          5          6
     1  O    8.249787   0.192943   0.060660  -0.012531   0.006078   0.006078
     2  H    0.192943   0.587005   0.016734  -0.004675   0.007067   0.007067
     3  C    0.060660   0.016734   5.402146   0.395995   0.376620   0.376620
     4  H   -0.012531  -0.004675   0.395995   0.275640   0.010650   0.010650
     5  H    0.006078   0.007067   0.376620   0.010650   0.298273  -0.005520
     6  H    0.006078   0.007067   0.376620   0.010650  -0.005520   0.298273
 Mulliken charges:
               1
     1  O   -0.503016
     2  H    0.193859
     3  C   -0.628775
     4  H    0.324271
     5  H    0.306831
     6  H    0.306831
 Sum of Mulliken charges =  -0.00000
 Mulliken charges with hydrogens summed into heavy atoms:
               1
     1  O   -0.309157
     3  C    0.309157
 Electronic spatial extent (au):  <R**2>=             84.4019
 Charge=             -0.0000 electrons
 Dipole moment (field-independent basis, Debye):
    X=             -1.4442    Y=              1.0967    Z=             -0.0000  Tot=              1.8134
 Quadrupole moment (field-independent basis, Debye-Ang):
   XX=            -11.6508   YY=            -13.4687   ZZ=            -13.7013
   XY=              2.1435   XZ=              0.0000   YZ=             -0.0000
 Traceless Quadrupole moment (field-independent basis, Debye-Ang):
   XX=              1.2895   YY=             -0.5284   ZZ=             -0.7610
   XY=              2.1435   XZ=              0.0000   YZ=             -0.0000
 Octapole moment (field-independent basis, Debye-Ang**2):
  XXX=             -1.2108  YYY=             -3.4940  ZZZ=             -0.0000  XYY=             -2.4085
[...]
 77,0.16298704,0.00000017,0.00000022,0.02766365,-0.00000004,0.00000008,
 0.00153944,-0.00000014,-0.00000043,-0.07887014,-0.00359466,0.00815431,
 -0.00000002,0.00208297,0.00161816,0.00000002,0.14133057,-0.06100764,-0
 .00000020,-0.14088891,-0.00705597,-0.00056498,-0.00000004,0.00139723,0
 .00145053,-0.00000002,-0.05106818,-0.02179014,0.00000033,0.05144951,0.
 02423333,-0.00000002,0.00000016,-0.00041197,-0.00000002,0.00000004,0.0
 0046645,-0.00000003,-0.00000013,-0.01134067,0.,0.,0.01108243,-0.000569
 71,-0.00393782,0.00445520,0.00125237,0.00138103,-0.00165508,0.00967576
 ,0.01237517,-0.02361124,0.00053489,0.00263875,-0.00371330,-0.00995579,
 0.00024638,-0.00552529,0.00238440,-0.00233651,-0.00292549,0.00120918,0
 .01465423,0.00182310,-0.01344516,-0.00010709,-0.00166428,0.00205228,-0
 .01067078,0.00812170,0.00143841,0.00588096,-0.00061136,-0.00007967,0.0
 0036148,0.00063035,-0.02206400,-0.01368281,0.03050351,-0.00029397,0.00
 016805,0.00010198,0.02276185,0.00753574,-0.02883257,-0.00056954,-0.003
 93845,-0.00445534,0.00125231,0.00138107,0.00165508,0.00967716,0.012375
 57,0.02361145,0.00053514,0.00263866,0.00371337,-0.00093752,-0.00178623
 ,-0.00176263,-0.00995754,0.00024633,-0.00552573,-0.00238460,-0.0023367
 0,-0.00292539,-0.00120921,0.01465462,0.00182474,0.01344496,-0.00010726
 ,-0.00166446,-0.00205236,-0.00178636,0.00017024,-0.00026340,-0.0106706
 3,0.00812058,-0.00143847,-0.00588144,-0.00061135,0.00007971,-0.0003615
 0,0.00063026,0.02206395,0.01368310,0.03050423,0.00029417,-0.00016833,0
 .00010179,0.00176258,0.00026356,-0.00179192,-0.02276194,-0.00753541,-0
 .02883304,-0.01981995,0.00569496,0.01750069,0.00000008,0.,-0.01233646,
 0.00190030,-0.00125980,-0.00000002,-0.00284290,0.00012075,0.00309636,-
 0.00000001,0.00145585,-0.00128930,-0.00000001,0.00000002,-0.00200921,-
 0.00000002,-0.00000002,0.00221914,0.01582610,0.01074240,-0.00000022,-0
 .00011313,-0.00212233,0.00000001,-0.16601362,-0.00900186,0.00061660,0.
 ,-0.00067006,0.00075869,-0.00000006,-0.05205364,0.00709993,0.00000015,
 0.00000001,0.02864173,0.00000012,-0.00000010,0.00006658,-0.00000023,-0
 .00000014,-0.35724370,0.00018468,-0.00089713,0.00000013,0.00043747,-0.
 00011363,0.,0.07656602,-0.02142062,-0.00000032,-0.07663376,-0.00119589
 ,0.00016516,-0.00000011,-0.00029008,0.00003954,0.,-0.02461721,0.000144
 90,0.00000007,0.02189214,0.00244284,-0.00000007,-0.00000006,-0.0018014
 5,0.00000005,0.00000001,0.00003200,-0.00000038,0.00000005,-0.00416721,
 0.00000042,-0.00000005,0.01301402,0.00095461,-0.00714010,0.00277657,0.
 00030919,0.00032964,-0.00029614,0.03686684,0.04157280,-0.09368825,-0.0
 0027710,0.00210556,-0.00565882,-0.03405264,0.00219106,-0.01068963,-0.0
 0220876,0.00038209,-0.00130272,0.00012031,0.03402525,-0.00431006,-0.08
 865041,0.00026958,-0.00139629,0.00312027,-0.03339752,0.02581069,0.0045
 6198,0.01862403,-0.00624729,-0.00049057,0.00022131,-0.00015427,-0.0965
 1169,-0.09963762,0.16635142,0.00235316,0.00261197,-0.00353868,0.093476
 85,0.08289941,-0.16630600,0.00095427,-0.00714033,-0.00277655,0.0003090
 6,0.00032973,0.00029616,0.03686783,0.04157337,0.09368854,-0.00027733,0
 .00210548,0.00565879,-0.00380091,-0.00347046,-0.00338973,-0.03405293,0
 .00219098,-0.01068916,0.00220886,0.00038201,-0.00130256,-0.00012025,0.
 03402555,-0.00431001,0.08865056,0.00026966,-0.00139615,-0.00312023,-0.
 00347040,-0.00811200,-0.00471910,-0.03339780,0.02580988,-0.00456213,-0
 .01862401,-0.00624729,0.00049044,-0.00022119,-0.00015425,0.09651250,0.
 09963775,0.16635119,-0.00235340,-0.00261189,-0.00353865,0.00338980,0.0
 0471917,0.00989480,-0.09347721,-0.08289984,-0.16630581,-0.74220126,0.1
 7607168,0.09276695,-0.00000007,-0.00000028,0.02588701,0.67944934,-0.23
 100639,0.,-0.65148837,-0.17209760,-0.09579477,-0.00000002,0.20191771,0
 .10955136,-0.00000002,0.,-0.05670668,-0.00000007,0.00000017,0.05771849
 ,0.06349522,0.04694818,-0.00000010,-0.02386703,-0.03005767,0.00000003,
 -0.15790410,-0.00915758,0.02082417,-0.00000021,0.02931200,-0.01037888,
 -0.00000004,-0.02147516,-0.02342250,0.00000006,-0.00000031,0.02567462,
 -0.00000012,0.00000010,0.00039918,-0.00000002,0.00000006,-0.11161314,0
 .00018363,0.01371321,-0.00000005,-0.00281351,0.00080989,0.00000004,0.0
 9130429,-0.03596882,-0.00000081,-0.08885447,-0.00525958,-0.01801888,0.
 00000008,0.00368118,0.00480706,-0.00000004,-0.02473463,0.00029104,0.00
 000021,0.02247249,0.01607412,0.00000004,-0.00000014,0.00436587,-0.0000
 0003,0.,-0.00054456,-0.00000040,0.00000017,-0.00262379,0.00000034,-0.0
 0000003,0.00076017,-0.00046324,-0.00286349,-0.00061507,-0.00064034,-0.
 00028613,0.00087802,0.01348625,0.01864452,-0.02994805,0.00008980,0.001
 92038,-0.00310726,-0.00928715,0.00522149,0.00011112,-0.00419554,-0.001
 95232,-0.00409229,0.00209879,0.01465901,0.00634370,-0.01848247,-0.0005
 1320,-0.00157668,0.00232828,-0.01642362,-0.00107732,0.00038896,0.00247
 930,0.00038958,-0.00020550,-0.00043956,-0.00043322,-0.02665785,-0.0204
 6693,0.04408310,-0.00052375,0.00072787,-0.00097869,0.02989536,0.017975
 02,-0.04196867,-0.00046372,-0.00286319,0.00061528,-0.00064010,-0.00028
 620,-0.00087801,0.01348541,0.01864503,0.02994895,0.00009022,0.00192015
 ,0.00310732,-0.00318532,-0.00099135,-0.00289722,-0.00928648,0.00522158
 ,0.00011139,0.00419597,-0.00195218,-0.00409248,-0.00209888,0.01466027,
 0.00634250,0.01848241,-0.00051357,-0.00157666,-0.00232829,-0.00099166,
 0.00029145,-0.00027569,-0.01642444,-0.00107622,-0.00038897,-0.00247856
 ,0.00038959,0.00020572,0.00043931,-0.00043321,0.02665834,0.02046694,0.
 04408008,0.00052421,-0.00072808,-0.00097900,0.00289703,0.00027593,-0.0
 0109213,-0.02989634,-0.01797554,-0.04196536,-0.01222000,0.00188095,0.0
 2313806,-0.00000013,-0.00000015,-0.01449470,-0.00059732,-0.00305068,0.
 ,-0.00140182,-0.00144430,0.00357141,-0.00000003,0.00218547,-0.00014572
 ,0.,0.00000003,-0.00039065,-0.00000002,0.00000008,0.00029949,0.0305445
 1,-0.00069821,0.,0.00245941,-0.00475237,0.00000004,-0.34523360,-0.0004
 0850,-0.01702697,0.00000017,0.00027310,-0.00367137,0.00000003,0.009436
 42,-0.03540546,0.00000039,-0.00000040,0.02455875,-0.00000010,0.0000001
 7,0.00094925,-0.00000015,0.00000084,-0.29275449,-0.00892069,0.01343611
 ,0.00000002,-0.00085490,0.00163083,0.,0.23655841,-0.09943572,0.0000004
 4,-0.22185503,-0.00567643,-0.00394780,-0.00000005,0.00019716,0.0021028
 6,0.,-0.11209760,0.00405334,-0.00000023,0.09443874,0.00679651,0.,0.000
 00012,0.00020737,0.00000003,-0.00000005,-0.00084577,0.00000014,0.,-0.0
 0312328,-0.00000002,0.00000002,0.00696234,-0.00440326,-0.00578395,0.00
 415046,0.00019727,0.00119021,-0.00088989,0.03783498,0.04506754,-0.0692
 1367,-0.00246340,0.01156885,-0.00464319,-0.02969466,0.00282422,-0.0028
 6734,-0.00396318,0.00019748,-0.00092856,0.00061454,0.05405589,0.026024
 60,-0.09413112,-0.00503490,-0.00450253,0.00811690,-0.04883948,-0.01398
 802,0.00323790,0.00920484,-0.00494054,-0.00024290,-0.00009509,-0.00000
 609,-0.07650468,-0.08479180,0.13518475,0.00601383,-0.00032623,-0.00160
 028,0.06904626,0.08268553,-0.12622896,-0.00440323,-0.00578423,-0.00415
 037,0.00019736,0.00119016,0.00088986,0.03783628,0.04506714,0.06921308,
 -0.00246440,0.01156930,0.00464302,-0.00147094,-0.00320321,-0.00155041,
 -0.02969506,0.00282407,-0.00286738,0.00396323,0.00019747,-0.00092863,-
 0.00061469,0.05405589,0.02602589,0.09413075,-0.00503507,-0.00450239,-0
 .00811699,-0.00320318,-0.00373817,-0.00667724,-0.04883917,-0.01398933,
 -0.00323817,-0.00920444,-0.00494023,0.00024298,0.00009492,-0.00000622,
 0.07650464,0.08479077,0.13518506,-0.00601430,0.00032648,-0.00160037,0.
 00155004,0.00667733,-0.00240889,-0.06904521,-0.08268506,-0.12622938,-0
 .00705075,0.01124689,-0.01649436,0.00000005,0.00000002,0.00038785,0.00
 056590,-0.00442967,-0.00000003,-0.00153702,-0.00083447,0.00172919,0.00
 000008,0.00221041,-0.00051273,0.,-0.00000003,-0.00145824,0.,0.,0.00088
 754,0.02261182,-0.00368608,0.00000014,0.00155041,-0.00523963,-0.000000
 02,-0.41368062,-0.00357415,0.01105230,0.00000028,0.00188218,-0.0007323
 7,0.00000008,0.04520951,-0.07329520,0.00000009,0.00000028,0.00690608,0
 .00000014,-0.00000006,0.00070721,-0.00000030,-0.00000014,-0.19312442,-
 0.01262948,0.00448754,0.00000010,-0.00086332,0.00321832,0.00000001,0.3
 5104062,-0.07731633,-0.00000053,-0.31424918,-0.00468080,0.00333745,-0.
 00000002,0.00120467,0.00006454,0.,-0.10297173,0.01629267,-0.00000027,0
 .09401528,-0.02097780,0.,0.00000005,-0.00381525,0.00000006,-0.00000009
 ,0.00018877,-0.00000023,0.00000018,-0.02895791,0.00000047,0.00000002,0
 .03726445,-0.00174886,-0.00380911,0.00167231,0.00014199,0.00032270,-0.
 00083403,0.01923781,0.01689924,-0.01274104,-0.01164927,0.00621625,-0.0
 2339974,0.00009117,-0.00107880,0.00018796,-0.00172321,-0.00043363,-0.0
 0027431,-0.00012910,0.03334398,0.02334030,-0.05066256,-0.01220238,0.00
 064141,0.00858583,-0.01961977,-0.02132937,0.00262408,0.00365485,-0.001
 01034,-0.00030789,-0.00000055,-0.00016262,-0.05185480,-0.04562872,0.10
 723397,0.01710110,-0.00160968,-0.00233994,0.03387019,0.04375672,-0.102
 80010,-0.00174865,-0.00380958,-0.00167256,0.00014203,0.00032267,0.0008
 3402,0.01924000,0.01689954,0.01274165,-0.01164939,0.00621632,0.0233994
 5,-0.00607285,-0.00000940,-0.00143270,0.00008886,-0.00107869,0.0001874
 6,0.00172285,-0.00043396,-0.00027433,0.00012906,0.03334396,0.02334233,
 0.05066274,-0.01220244,0.00064173,-0.00858600,-0.00000932,-0.00256601,
 -0.00017261,-0.01961956,-0.02133119,-0.00262422,-0.00365516,-0.0010101
 2,0.00030772,0.00000061,-0.00016267,0.05185520,0.04562831,0.10723511,-
 0.01710114,0.00160995,-0.00234012,0.00143232,0.00017234,-0.00092099,-0
 .03386987,-0.04375604,-0.10280125,-0.01570783,-0.00675923,-0.01042136,
 -0.00000011,-0.00000030,-0.00750815,0.01138629,-0.00346634,0.,-0.01030
 610,-0.00133338,0.00061830,0.00000007,0.00277568,0.00007685,0.,0.00000
 004,0.00088887,-0.00000004,0.00000004,-0.00096647,0.00756737,0.0103224
 4,0.00000019,-0.00036446,-0.00210061,-0.00000001,-0.17679388,0.0044197
 8,0.00729360,0.00000009,0.00067138,-0.00070050,-0.00000009,-0.07906575
 ,-0.08110390,0.00000025,0.00000036,0.02552611,-0.00000002,-0.00000017,
 -0.00035523,-0.00000013,-0.00000033,-0.39578894,0.00112962,0.00416411,
 -0.00000003,-0.00061284,-0.00027464,0.00000003,0.04223045,-0.01951072,
 -0.00000004,-0.04516085,-0.00037113,0.00121295,0.00000007,-0.00012435,
 0.00047943,-0.00000002,-0.02535226,0.00691552,0.00000029,0.01507610,-0
 .00648165,-0.00000007,0.00000006,0.00146522,0.00000004,-0.00000001,-0.
 00083502,-0.00000001,0.00000006,0.02355138,-0.00000003,-0.00000007,-0.
 00472933,-0.00218769,-0.00213039,0.00203658,-0.00005147,0.00046644,0.0
 0041472,0.06368016,0.04674252,-0.13867072,0.00120658,0.00538585,-0.004
 57273,-0.05832438,0.00202209,0.00064844,0.00066040,0.00007178,-0.00023
 706,-0.00044392,0.04809806,0.03379747,-0.10337284,0.00027263,-0.001063
 02,-0.00089567,-0.04741003,-0.03528913,0.00224244,0.01055385,-0.010186
 09,0.00004130,-0.00022867,0.00063394,-0.10127375,-0.07736874,0.1735335
 3,0.00715034,-0.00154059,-0.00972609,0.11631583,0.08631813,-0.14277015
 ,-0.00218777,-0.00213059,-0.00203664,-0.00005144,0.00046651,-0.0004147
 0,0.06368036,0.04674278,0.13867065,0.00120699,0.00538579,0.00457280,-0
 .00432320,-0.00305453,-0.02447617,-0.05832491,0.00202187,0.00064808,-0
 .00066032,0.00007184,-0.00023701,0.00044396,0.04809813,0.03379785,0.10
 337268,0.00027254,-0.00106323,0.00089563,-0.00305440,0.00214328,-0.017
 73397,-0.04740996,-0.03528899,-0.00224253,-0.01055401,-0.01018596,-0.0
 0004129,0.00022874,0.00063391,0.10127371,0.07736903,0.17353319,-0.0071
 5028,0.00154033,-0.00972614,0.02447633,0.01773390,-0.01148516,-0.11631
 594,-0.08631800,-0.14276987,0.00177349,-0.00316455,-0.01881682,0.00000
 003,0.00000031,0.00024137,-0.00059857,-0.00107581,0.00000007,0.0008499
 6,0.00166564,0.00176502,-0.00000003,-0.00108381,-0.00169693,0.00000003
 ,0.00000004,0.00040645,0.00000001,-0.00000007,-0.00053875,-0.00217998,
 -0.00141656,-0.00000002,0.00082284,-0.00129805,-0.00000006,0.43731661,
 0.00774364,0.01546854,-0.00000003,0.00128730,-0.00259687,0.00000007,0.
 40285929,-0.13812626,-0.00000009,-0.00000003,-0.00335376,-0.00000005,0
 .00000014,-0.00021783,-0.00000065,-0.00000007,1.56551707,0.00191622,-0
 .00382449,-0.00000004,-0.00024060,-0.00054917,0.00000004,-0.32360720,0
 .08888588,0.00000014,0.31894512,0.00069546,0.00008994,-0.00000003,-0.0
 0000057,0.00003943,0.,0.10809022,0.03969446,0.00000015,-0.09493904,-0.
 04600252,0.00000005,0.00000005,-0.00093669,0.00000002,-0.00000001,0.00
 002081,0.00000014,-0.00000013,0.05051747,-0.00000024,0.00000016,-0.065
 95775,-0.00045554,0.00474054,-0.00210382,-0.00041680,0.00063270,-0.000
 32383,-0.05617572,-0.25038811,0.56377658,0.00149304,-0.00692284,0.0131
 8422,0.04343733,-0.00346999,0.00074654,0.00374331,0.00043640,0.0012447
 6,0.00014554,-0.25411773,0.04278061,0.47327778,0.00521328,0.00308963,-
 0.00780002,0.24520826,-0.05597461,-0.00291482,-0.00876322,0.00182143,0
 .00021592,-0.00035408,0.00016467,0.55342814,0.45093901,-0.80623156,-0.
 01229118,-0.00127245,0.00817842,-0.55648581,-0.45495834,0.79329670,-0.
 00045563,0.00474087,0.00210378,-0.00041682,0.00063269,0.00032382,-0.05
 617654,-0.25038801,-0.56377594,0.00149339,-0.00692322,-0.01318419,0.01
 211771,0.00672979,0.01804775,0.04343790,-0.00347019,0.00074678,-0.0037
 4354,0.00043650,0.00124458,-0.00014557,-0.25411715,0.04277954,-0.47327
 796,0.00521353,0.00308907,0.00779996,0.00672945,0.00811306,0.01440909,
 0.24520787,-0.05597305,0.00291479,0.00876285,0.00182121,-0.00021597,0.
 00035406,0.00016465,-0.55342754,-0.45093885,-0.80623136,0.01229128,0.0
 0127217,0.00817777,-0.01804735,-0.01440826,0.00277033,0.55648478,0.454
 95802,0.79329737,0.00848017,-0.00062582,-0.04303981,0.00000004,-0.0000
 0014,0.00867478,-0.00034472,-0.00249297,0.,0.00077393,0.00123172,0.000
 64545,-0.00000004,-0.00119422,-0.00139854,-0.00000001,-0.00000002,-0.0
 0221877,0.00000002,0.,0.00123959,-0.01602233,-0.00097561,-0.00000022,0
 .00173236,0.00063892,0.,0.13552867,0.00734153,0.04691701,0.00000005,0.
 00410977,-0.00213220,0.,0.68760921,-0.09913081,0.00000001,-0.00000049,
 -0.01489184,-0.00000009,0.00000022,-0.00080401,-0.00000008,0.00000037,
 1.88291904,0.00045602,0.00077263,-0.00000007,-0.00009905,-0.00007318,-
 0.00000002,0.00655259,-0.02211566,0.00000043,-0.00322268,-0.00162995,0
 .00067776,0.00000010,0.00008003,0.00071981,0.00000002,-0.00074793,-0.0
 0725135,-0.00000017,0.00343096,-0.00156752,-0.00000015,0.00000012,-0.0
 0001380,0.00000002,0.00000002,0.00176097,-0.00000010,-0.00000018,-0.01
 694706,0.00000019,-0.00000017,-0.00248073,0.00371539,0.00166066,-0.001
 92052,-0.00103129,-0.00030155,-0.00047009,-0.06389558,-0.33847225,0.72
 171692,-0.00184322,-0.00056669,0.00062795,0.07239675,-0.00315883,-0.00
 260020,0.00272196,-0.00025128,0.00108286,-0.00066920,-0.34326229,0.030
 79882,0.61927987,0.00899259,0.00371056,-0.00494006,0.34213791,-0.02654
 512,-0.00077674,-0.01234592,0.00422478,-0.00020418,-0.00096178,0.00001
 108,0.71973671,0.62122347,-0.92513760,-0.00671052,0.00110869,0.0088400
 0,-0.71599983,-0.61270854,0.90326777,0.00371546,0.00166110,0.00192077,
 -0.00103124,-0.00030168,0.00047011,-0.06389570,-0.33847261,-0.72171719
 ,-0.00184369,-0.00056641,-0.00062791,-0.00934203,-0.00445810,0.0039545
 6,0.07239722,-0.00315865,-0.00260021,-0.00272193,-0.00025133,0.0010826
 2,0.00066919,-0.34326228,0.03079856,-0.61927979,0.00899264,0.00371073,
 0.00494026,-0.00445807,-0.00644693,0.00368408,0.34213769,-0.02654478,0
 .00077685,0.01234644,0.00422485,0.00020423,0.00096157,0.00001114,-0.71
 973629,-0.62122371,-0.92513850,0.00670999,-0.00110847,0.00884066,-0.00
 395442,-0.00368401,0.00879394,0.71599964,0.61270817,0.90326789,-0.0023
 9276,0.00000386,-0.03015702,-0.00000005,0.00000022,-0.00093699,-0.0006
 9486,0.00203715,0.00000004,0.00147075,0.00613070,0.00401607,0.,-0.0027
 3787,-0.00313272,0.00000003,-0.00000002,0.00550609,-0.00000003,-0.0000
 0001,-0.00467444,-0.01712802,0.01048435,0.00000014,0.00153734,0.001809
 04,-0.00000002,2.60540587,-0.01988162,0.03285079,-0.00000049,0.0000562
 2,0.00129473,-0.00000007,-0.89827037,-0.32286777,-0.00000013,-0.000000
 50,-0.00676121,-0.00000004,0.,-0.00275341,0.00000054,0.00000041,-0.323
 30255,0.01686963,-0.01691131,-0.00000023,-0.00201890,-0.00380059,0.,-2
 .60187916,0.98087628,-0.00000017,2.56311984,0.01041384,-0.00813584,0.0
 0000017,0.00025648,-0.00168030,0.00000002,0.97215003,0.29109334,0.0000
 0009,-0.96404414,-0.27877991,-0.00000010,-0.00000020,0.00050663,0.,0.0
 0000004,0.00061065,0.00000009,-0.00000003,0.60810912,-0.00000017,0.000
 00002,-0.59728048,0.00167297,0.00219286,-0.00048220,-0.00014718,-0.000
 70065,0.00193479,0.00603240,-0.03139027,0.06605730,0.01195386,-0.00938
 796,0.00748772,-0.02429305,0.00166651,0.00071292,0.00045008,0.00019399
 ,-0.00024888,-0.00058165,-0.04308645,-0.00118557,0.08545979,0.00193996
 ,-0.00124858,0.00220278,0.04050911,-0.00134276,-0.00043342,-0.00095323
 ,0.00084274,0.00028808,-0.00015285,0.00065553,0.08178004,0.07581376,-0
 .13764643,-0.00658390,0.00582814,-0.00597289,-0.07502418,-0.08403339,0
 .13980806,0.00167303,0.00219308,0.00048230,-0.00014717,-0.00070062,-0.
 00193477,0.00603157,-0.03139025,-0.06605750,0.01195470,-0.00938824,-0.
 00748753,0.00478102,-0.00122313,-0.00002661,-0.02429314,0.00166673,0.0
 0071309,-0.00044998,0.00019402,-0.00024889,0.00058173,-0.04308660,-0.0
 0118549,-0.08545981,0.00193979,-0.00124872,-0.00220263,-0.00122310,0.0
 0331286,0.00349759,0.04050915,-0.00134285,0.00043368,0.00095374,0.0008
 4274,-0.00028805,0.00015281,0.00065558,-0.08178080,-0.07581358,-0.1376
 4553,0.00658447,-0.00582845,-0.00597299,0.00002659,-0.00349761,0.00231
 298,0.07502409,0.08403309,0.13980721,6.14441536,-2.36173104,-0.7039823
 1,0.,0.00000022,-1.45481110,-6.11481375,2.38452489,0.00000004,6.086360
 01,2.35549411,0.64918098,0.,-2.37385237,-0.62395682,-0.00000002,0.,1.4
 6855581,0.00000004,0.,-1.47712421,-0.02711000,-0.02913511,-0.00000012,
 0.02970166,0.02065725,-0.00000003,-0.00569144,0.00870015,0.04999708,-0
 .00000029,-0.00864982,-0.03079469,0.00000011,0.00420171,-0.01639331,-0
 .00000012,-0.00000045,-0.01538200,-0.00000012,0.00000016,0.01217949,0.
 00000059,0.00000010,0.00140483,-0.00037613,0.00261619,-0.00000010,-0.0
 0106422,-0.00101533,0.00000009,0.00017755,0.00003571,-0.00000060,0.001
 22222,0.00284545,0.00731007,0.00000009,-0.00620208,-0.00138303,-0.0000
 0005,0.00577938,-0.00159782,-0.00000016,-0.00193251,-0.00427451,0.,-0.
 00000014,-0.00083067,0.,0.00000003,-0.00095759,0.,0.00000023,0.0042126
 8,-0.00000012,0.00000002,-0.00246623,-0.00105772,0.00186242,0.00012373
 ,-0.00009186,-0.00064183,0.00071153,0.00146111,-0.00214368,0.00001224,
 0.00001973,-0.00024504,-0.00075656,-0.00032299,-0.00265434,-0.00125297
 ,0.00274553,0.00208964,0.00347690,-0.00316994,-0.00075159,-0.00060601,
 0.00055309,0.00014796,-0.00002726,-0.00026121,0.00129692,-0.00144731,-
 0.00086759,-0.00041880,0.00123397,0.00105400,0.00033223,-0.00132674,0.
 00024991,0.00019781,-0.00120811,-0.00013583,-0.00017900,0.00002113,-0.
 00019529,0.00010041,0.00126046,-0.00105777,0.00186265,-0.00012356,-0.0
 0009183,-0.00064184,-0.00071160,0.00146113,-0.00214408,-0.00001200,0.0
 0002084,-0.00024519,0.00075668,-0.00000827,-0.00012858,-0.00010520,-0.
 00032408,-0.00265432,-0.00125285,-0.00274556,0.00208974,0.00347667,0.0
 0316986,-0.00075164,-0.00060523,-0.00055275,0.00014797,-0.00002746,0.0
 0026107,-0.00012880,-0.00014336,-0.00003263,0.00129704,-0.00144779,0.0
 0086772,0.00041916,0.00123396,-0.00105397,-0.00033244,-0.00132677,-0.0
 0025038,-0.00019796,-0.00120688,0.00013657,0.00017911,0.00002071,0.000
 10438,0.00003212,0.00001926,0.00019568,-0.00009999,0.00125971\\@



 WE LOSE BECAUSE WE WIN

 GAMBLERS,

 RECOLLECTING WHICH,

 TOSS THEIR DICE AGAIN....


                          EMILY DICKINSON  BOLTS OF MELODY NO. 533
 Job cpu time:       1 days  8 hours 25 minutes 38.3 seconds.
 Elapsed time:       0 days  1 hours 11 minutes  5.4 seconds.
 File lengths (MBytes):  RWF=   3072 Int=      0 D2E=      0 Chk=     48 Scr=      8
 Normal termination of Gaussian 16 at Fri Jun 25 13:05:16 2021.
