 Entering Gaussian System, Link 0=g16
 Input=meoh_mp2_opt_anaharm.gjf
 Output=meoh_mp2_opt_anaharm.log
 Initial command:
 /sw/contrib/gaussian/g16/A03/g16/l1.exe "/gscratch/scrubbed/gds001/Gau-27227.inp" -scrdir="/gscratch/scrubbed/gds001/"
 Entering Link 1 = /sw/contrib/gaussian/g16/A03/g16/l1.exe PID=     27228.
  
 Copyright (c) 1988,1990,1992,1993,1995,1998,2003,2009,2016,
            Gaussian, Inc.  All Rights Reserved.
  
 This is part of the Gaussian(R) 16 program.  It is based on
 the Gaussian(R) 09 system (copyright 2009, Gaussian, Inc.),
 the Gaussian(R) 03 system (copyright 2003, Gaussian, Inc.),
 the Gaussian(R) 98 system (copyright 1998, Gaussian, Inc.),
 the Gaussian(R) 94 system (copyright 1995, Gaussian, Inc.),
 the Gaussian 92(TM) system (copyright 1992, Gaussian, Inc.),
 the Gaussian 90(TM) system (copyright 1990, Gaussian, Inc.),
 the Gaussian 88(TM) system (copyright 1988, Gaussian, Inc.),
 the Gaussian 86(TM) system (copyright 1986, Carnegie Mellon
 University), and the Gaussian 82(TM) system (copyright 1983,
 Carnegie Mellon University). Gaussian is a federally registered
 trademark of Gaussian, Inc.
  
 This software contains proprietary and confidential information,
 including trade secrets, belonging to Gaussian, Inc.
  
 This software is provided under written license and may be
 used, copied, transmitted, or stored only in accord with that
 written license.
  
 The following legend is applicable only to US Government
 contracts under FAR:
  
                    RESTRICTED RIGHTS LEGEND
  
 Use, reproduction and disclosure by the US Government is
 subject to restrictions as set forth in subparagraphs (a)
 and (c) of the Commercial Computer Software - Restricted
 Rights clause in FAR 52.227-19.
  
 Gaussian, Inc.
 340 Quinnipiac St., Bldg. 40, Wallingford CT 06492
  
  
 ---------------------------------------------------------------
 Warning -- This program may not be used in any manner that
 competes with the business of Gaussian, Inc. or will provide
 assistance to any competitor of Gaussian, Inc.  The licensee
 of this program is prohibited from giving any competitor of
 Gaussian, Inc. access to this program.  By using this program,
 the user acknowledges that Gaussian, Inc. is engaged in the
 business of creating and licensing software in the field of
 computational chemistry and represents and warrants to the
 licensee that it is not a competitor of Gaussian, Inc. and that
 it will not use this program in any manner prohibited above.
 ---------------------------------------------------------------
  

 Cite this work as:
 Gaussian 16, Revision A.03,
 M. J. Frisch, G. W. Trucks, H. B. Schlegel, G. E. Scuseria, 
 M. A. Robb, J. R. Cheeseman, G. Scalmani, V. Barone, 
 G. A. Petersson, H. Nakatsuji, X. Li, M. Caricato, A. V. Marenich, 
 J. Bloino, B. G. Janesko, R. Gomperts, B. Mennucci, H. P. Hratchian, 
 J. V. Ortiz, A. F. Izmaylov, J. L. Sonnenberg, D. Williams-Young, 
 F. Ding, F. Lipparini, F. Egidi, J. Goings, B. Peng, A. Petrone, 
 T. Henderson, D. Ranasinghe, V. G. Zakrzewski, J. Gao, N. Rega, 
 G. Zheng, W. Liang, M. Hada, M. Ehara, K. Toyota, R. Fukuda, 
 J. Hasegawa, M. Ishida, T. Nakajima, Y. Honda, O. Kitao, H. Nakai, 
 T. Vreven, K. Throssell, J. A. Montgomery, Jr., J. E. Peralta, 
 F. Ogliaro, M. J. Bearpark, J. J. Heyd, E. N. Brothers, K. N. Kudin, 
 V. N. Staroverov, T. A. Keith, R. Kobayashi, J. Normand, 
 K. Raghavachari, A. P. Rendell, J. C. Burant, S. S. Iyengar, 
 J. Tomasi, M. Cossi, J. M. Millam, M. Klene, C. Adamo, R. Cammi, 
 J. W. Ochterski, R. L. Martin, K. Morokuma, O. Farkas, 
 J. B. Foresman, and D. J. Fox, Gaussian, Inc., Wallingford CT, 2016.
 
 ******************************************
 Gaussian 16:  ES64L-G16RevA.03 25-Dec-2016
                 6-Aug-2020 
 ******************************************
 %nprocshared=28
 Will use up to   28 processors via shared memory.
 %mem=41GB
 %chk=meoh.chk
 ---------------------------------------------
 # MP2/aug-cc-pVDZ Opt Freq(vibrot,anharmonic)
 ---------------------------------------------
 1/18=20,19=15,38=1,80=1/1,3;
 2/9=110,12=2,17=6,18=5,40=1/2;
 3/5=16,7=10,11=9,25=1,30=1,71=1/1,2,3;
 4//1;
 5/5=2,38=5/2;
 8/6=4,10=1/1;
 9/15=2,16=-3/6;
 10/5=1/2;
 6/7=2,8=2,9=2,10=2/1;
 7/12=2/1,2,3,16;
 1/18=20,19=15,80=1/3(2);
 2/9=110/2;
 99//99;
 2/9=110/2;
 3/5=16,7=10,11=9,25=1,30=1,71=1/1,2,3;
 4/5=5,16=3,69=1/1;
 5/5=2,38=5/2;
 8/6=4,10=1/1;
 9/15=2,16=-3/6;
 10/5=1/2;
 7/12=2/1,2,3,16;
 1/18=20,19=15,80=1/3(-8);
 2/9=110/2;
 6/7=2,8=2,9=2,10=2/1;
 99//99;
 ----
 meoh
 ----
 Symbolic Z-matrix:
 Charge =  0 Multiplicity = 1
 O                    -2.59401   1.03126   1.01292 
 H                    -1.62575   0.99867   1.09581 
 C                    -3.13229   0.55211   2.23151 
 H                    -4.22294   0.57558   2.17183 
 H                    -2.80072   1.19114   3.0536 
 H                    -2.80072  -0.4757    2.39819 
 

 GradGradGradGradGradGradGradGradGradGradGradGradGradGradGradGradGradGrad
 Berny optimization.
 Initialization pass.
                           ----------------------------
                           !    Initial Parameters    !
                           ! (Angstroms and Degrees)  !
 --------------------------                            --------------------------
 ! Name  Definition              Value          Derivative Info.                !
 --------------------------------------------------------------------------------
 ! R1    R(1,2)                  0.9723         estimate D2E/DX2                !
 ! R2    R(1,3)                  1.4157         estimate D2E/DX2                !
 ! R3    R(3,4)                  1.0925         estimate D2E/DX2                !
 ! R4    R(3,5)                  1.0928         estimate D2E/DX2                !
 ! R5    R(3,6)                  1.0928         estimate D2E/DX2                !
 ! A1    A(2,1,3)              107.0908         estimate D2E/DX2                !
 ! A2    A(1,3,4)              108.9816         estimate D2E/DX2                !
 ! A3    A(1,3,5)              109.5276         estimate D2E/DX2                !
 ! A4    A(1,3,6)              109.5276         estimate D2E/DX2                !
 ! A5    A(4,3,5)              109.356          estimate D2E/DX2                !
 ! A6    A(4,3,6)              109.356          estimate D2E/DX2                !
 ! A7    A(5,3,6)              110.0726         estimate D2E/DX2                !
 ! D1    D(2,1,3,4)           -180.0            estimate D2E/DX2                !
 ! D2    D(2,1,3,5)             60.4041         estimate D2E/DX2                !
 ! D3    D(2,1,3,6)            -60.4041         estimate D2E/DX2                !
 --------------------------------------------------------------------------------
 Trust Radius=3.00D-01 FncErr=1.00D-07 GrdErr=1.00D-07 EigMax=2.50D+02 EigMin=1.00D-04
 Number of steps in this run=     25 maximum allowed number of steps=    100.
 GradGradGradGradGradGradGradGradGradGradGradGradGradGradGradGradGradGrad

                          Input orientation:                          
 ---------------------------------------------------------------------
 Center     Atomic      Atomic             Coordinates (Angstroms)
 Number     Number       Type             X           Y           Z
 ---------------------------------------------------------------------
      1          8           0       -2.594015    1.031263    1.012915
      2          1           0       -1.625753    0.998669    1.095810
      3          6           0       -3.132292    0.552109    2.231509
      4          1           0       -4.222938    0.575576    2.171826
      5          1           0       -2.800723    1.191137    3.053596
      6          1           0       -2.800722   -0.475704    2.398191
 ---------------------------------------------------------------------
                    Distance matrix (angstroms):
                    1          2          3          4          5
     1  O    0.000000
     2  H    0.972350   0.000000
     3  C    1.415734   1.938785   0.000000
     4  H    2.050394   2.842919   1.092530   0.000000
     5  H    2.057344   2.291402   1.092759   1.783011   0.000000
     6  H    2.057344   2.291402   1.092759   1.783011   1.791065
                    6
     6  H    0.000000
 Stoichiometry    CH4O
 Framework group  CS[SG(CH2O),X(H2)]
 Deg. of freedom     8
 Full point group                 CS      NOp   2
 Largest Abelian subgroup         CS      NOp   2
 Largest concise Abelian subgroup CS      NOp   2
                         Standard orientation:                         
 ---------------------------------------------------------------------
 Center     Atomic      Atomic             Coordinates (Angstroms)
 Number     Number       Type             X           Y           Z
 ---------------------------------------------------------------------
      1          8           0       -0.050755   -0.752319    0.000000
      2          1           0        0.878656   -1.038079    0.000000
      3          6           0       -0.050755    0.663415   -0.000000
      4          1           0       -1.083876    1.018776   -0.000000
      5          1           0        0.457893    1.028682   -0.895533
      6          1           0        0.457893    1.028682    0.895533
 ---------------------------------------------------------------------
 Rotational constants (GHZ):         126.1834145          25.0916947          24.1653383
 Standard basis: Aug-CC-pVDZ (5D, 7F)
 There are    59 symmetry adapted cartesian basis functions of A'  symmetry.
 There are    27 symmetry adapted cartesian basis functions of A"  symmetry.
 There are    55 symmetry adapted basis functions of A'  symmetry.
 There are    27 symmetry adapted basis functions of A"  symmetry.
    82 basis functions,   130 primitive gaussians,    86 cartesian basis functions
     9 alpha electrons        9 beta electrons
       nuclear repulsion energy        40.3674486881 Hartrees.
 NAtoms=    6 NActive=    6 NUniq=    5 SFac= 1.44D+00 NAtFMM=   60 NAOKFM=F Big=F
 Integral buffers will be    131072 words long.
 Raffenetti 1 integral format.
 Two-electron integral symmetry is turned on.
 One-electron integrals computed using PRISM.
 NBasis=    82 RedAO= T EigKep=  6.43D-04  NBF=    55    27
 NBsUse=    82 1.00D-06 EigRej= -1.00D+00 NBFU=    55    27
 ExpMin= 2.97D-02 ExpMax= 1.17D+04 ExpMxC= 4.01D+02 IAcc=3 IRadAn=         5 AccDes= 0.00D+00
 Harris functional with IExCor=  205 and IRadAn=       5 diagonalized for initial guess.
 HarFok:  IExCor=  205 AccDes= 0.00D+00 IRadAn=         5 IDoV= 1 UseB2=F ITyADJ=14
 ICtDFT=  3500011 ScaDFX=  1.000000  1.000000  1.000000  1.000000
 FoFCou: FMM=F IPFlag=           0 FMFlag=      100000 FMFlg1=           0
         NFxFlg=           0 DoJE=T BraDBF=F KetDBF=T FulRan=T
         wScrn=  0.000000 ICntrl=       500 IOpCl=  0 I1Cent=   200000004 NGrid=           0
         NMat0=    1 NMatS0=      1 NMatT0=    0 NMatD0=    1 NMtDS0=    0 NMtDT0=    0
 Petite list used in FoFCou.
 Initial guess orbital symmetries:
       Occupied  (A') (A') (A') (A') (A') (A") (A') (A') (A")
       Virtual   (A') (A') (A') (A") (A') (A') (A") (A') (A') (A')
                 (A") (A') (A') (A") (A') (A') (A") (A') (A') (A')
                 (A") (A") (A') (A") (A') (A") (A') (A') (A') (A')
                 (A") (A') (A") (A') (A') (A") (A') (A') (A') (A")
                 (A") (A') (A') (A") (A') (A') (A') (A") (A") (A')
                 (A") (A') (A') (A") (A') (A") (A') (A") (A') (A')
                 (A') (A") (A') (A') (A") (A') (A') (A') (A") (A')
                 (A") (A') (A')
 The electronic state of the initial guess is 1-A'.
 Keep R1 ints in memory in symmetry-blocked form, NReq=11670553.
 Requested convergence on RMS density matrix=1.00D-08 within 128 cycles.
 Requested convergence on MAX density matrix=1.00D-06.
 Requested convergence on             energy=1.00D-06.
 No special actions if energy rises.
 SCF Done:  E(RHF) =  -115.060508391     A.U. after   11 cycles
            NFock= 11  Conv=0.43D-08     -V/T= 2.0016
 ExpMin= 2.97D-02 ExpMax= 1.17D+04 ExpMxC= 4.01D+02 IAcc=3 IRadAn=         5 AccDes= 0.00D+00
 HarFok:  IExCor=  205 AccDes= 0.00D+00 IRadAn=         5 IDoV=-2 UseB2=F ITyADJ=14
 ICtDFT= 12500011 ScaDFX=  1.000000  1.000000  1.000000  1.000000
 Range of M.O.s used for correlation:     3    82
 NBasis=    82 NAE=     9 NBE=     9 NFC=     2 NFV=     0
 NROrb=     80 NOA=     7 NOB=     7 NVA=    73 NVB=    73

 **** Warning!!: The largest alpha MO coefficient is  0.13422549D+02

 Fully direct method using O(ONN) memory.
 JobTyp=1 Pass  1:  I=   3 to   9 NPSUse= 28 ParTrn=T ParDer=T DoDerP=T.
 Spin components of T(2) and E(2):
     alpha-alpha T2 =       0.1293490402D-01 E2=     -0.4300119244D-01
     alpha-beta  T2 =       0.8052073675D-01 E2=     -0.2742695021D+00
     beta-beta   T2 =       0.1293490402D-01 E2=     -0.4300119244D-01
 ANorm=    0.1051851009D+01
 E2 =    -0.3602718869D+00 EUMP2 =    -0.11542078027799D+03
          IDoAtm=111111
          Differentiating once with respect to electric field.
                with respect to dipole field.
          Differentiating once with respect to nuclear coordinates.
 Keep R1 ints in memory in symmetry-blocked form, NReq=11672255.
          There are     1 degrees of freedom in the 1st order CPHF.  IDoFFX=0 NUNeed=     1.
 LinEq1:  Iter=  0 NonCon=     1 RMS=5.22D-03 Max=5.50D-02 NDo=     1
 AX will form     1 AO Fock derivatives at one time.
 LinEq1:  Iter=  1 NonCon=     1 RMS=1.26D-03 Max=7.58D-03 NDo=     1
 LinEq1:  Iter=  2 NonCon=     1 RMS=4.11D-04 Max=3.56D-03 NDo=     1
 LinEq1:  Iter=  3 NonCon=     1 RMS=9.20D-05 Max=4.76D-04 NDo=     1
 LinEq1:  Iter=  4 NonCon=     1 RMS=2.95D-05 Max=1.88D-04 NDo=     1
 LinEq1:  Iter=  5 NonCon=     1 RMS=4.19D-06 Max=2.71D-05 NDo=     1
 LinEq1:  Iter=  6 NonCon=     1 RMS=7.35D-07 Max=3.49D-06 NDo=     1
 LinEq1:  Iter=  7 NonCon=     1 RMS=1.20D-07 Max=7.29D-07 NDo=     1
 LinEq1:  Iter=  8 NonCon=     1 RMS=2.13D-08 Max=1.60D-07 NDo=     1
 LinEq1:  Iter=  9 NonCon=     1 RMS=3.91D-09 Max=2.61D-08 NDo=     1
 LinEq1:  Iter= 10 NonCon=     1 RMS=6.14D-10 Max=3.01D-09 NDo=     1
 LinEq1:  Iter= 11 NonCon=     0 RMS=9.56D-11 Max=5.23D-10 NDo=     1
 Linear equations converged to 1.000D-10 1.000D-09 after    11 iterations.
 End of Minotr F.D. properties file   721 does not exist.
 End of Minotr F.D. properties file   722 does not exist.
 End of Minotr F.D. properties file   788 does not exist.

 **********************************************************************

            Population analysis using the SCF density.

 **********************************************************************

 Orbital symmetries:
       Occupied  (A') (A') (A') (A') (A') (A") (A') (A') (A")
       Virtual   (A') (A') (A") (A') (A') (A') (A") (A') (A') (A')
                 (A") (A") (A') (A') (A') (A') (A") (A') (A') (A")
                 (A') (A") (A") (A') (A') (A') (A") (A') (A') (A")
                 (A') (A') (A") (A') (A') (A") (A') (A') (A') (A")
                 (A") (A') (A') (A") (A') (A') (A") (A') (A') (A")
                 (A") (A') (A') (A") (A') (A") (A') (A") (A') (A')
                 (A') (A") (A') (A') (A') (A") (A') (A') (A") (A')
                 (A") (A') (A')
 The electronic state is 1-A'.
 Alpha  occ. eigenvalues --  -20.56792 -11.27934  -1.36030  -0.92402  -0.68839
 Alpha  occ. eigenvalues --   -0.62329  -0.59604  -0.50193  -0.44829
 Alpha virt. eigenvalues --    0.03440   0.05151   0.05807   0.06590   0.11431
 Alpha virt. eigenvalues --    0.14064   0.15247   0.17202   0.20801   0.22313
 Alpha virt. eigenvalues --    0.24223   0.27966   0.28145   0.32201   0.33725
 Alpha virt. eigenvalues --    0.38568   0.39822   0.41954   0.43568   0.43912
 Alpha virt. eigenvalues --    0.46915   0.47150   0.51859   0.55490   0.57554
 Alpha virt. eigenvalues --    0.61220   0.62436   0.63580   0.65108   0.66513
 Alpha virt. eigenvalues --    0.67687   0.73209   0.74362   0.75038   0.91821
 Alpha virt. eigenvalues --    0.96920   0.99910   1.04986   1.10299   1.19881
 Alpha virt. eigenvalues --    1.23174   1.23916   1.37233   1.42725   1.53131
 Alpha virt. eigenvalues --    1.62397   1.72382   1.75311   1.77834   1.78852
 Alpha virt. eigenvalues --    1.87393   1.90788   2.09763   2.10160   2.11320
 Alpha virt. eigenvalues --    2.17200   2.22691   2.27073   2.30268   2.39463
 Alpha virt. eigenvalues --    2.52925   2.64142   2.69434   2.78319   2.88053
 Alpha virt. eigenvalues --    2.90974   3.05232   3.15834   3.74028   3.76222
 Alpha virt. eigenvalues --    3.78908   3.89409   4.26055
          Condensed to atoms (all electrons):
               1          2          3          4          5          6
     1  O    8.324394   0.310471   0.093583  -0.101590  -0.006983  -0.006983
     2  H    0.310471   0.591152  -0.029894   0.029947  -0.018440  -0.018440
     3  C    0.093583  -0.029894   3.889746   0.421544   0.376746   0.376746
     4  H   -0.101590   0.029947   0.421544   1.068091  -0.130761  -0.130761
     5  H   -0.006983  -0.018440   0.376746  -0.130761   0.985774  -0.087651
     6  H   -0.006983  -0.018440   0.376746  -0.130761  -0.087651   0.985774
 Mulliken charges:
               1
     1  O   -0.612892
     2  H    0.135204
     3  C    0.871530
     4  H   -0.156470
     5  H   -0.118686
     6  H   -0.118686
 Sum of Mulliken charges =  -0.00000
 Mulliken charges with hydrogens summed into heavy atoms:
               1
     1  O   -0.477688
     3  C    0.477688
 Electronic spatial extent (au):  <R**2>=             84.0485
 Charge=             -0.0000 electrons
 Dipole moment (field-independent basis, Debye):
    X=              1.4575    Y=              1.0917    Z=             -0.0000  Tot=              1.8211
 Quadrupole moment (field-independent basis, Debye-Ang):
   XX=            -11.6259   YY=            -13.6584   ZZ=            -13.7625
   XY=             -2.2300   XZ=              0.0000   YZ=             -0.0000
 Traceless Quadrupole moment (field-independent basis, Debye-Ang):
   XX=              1.3897   YY=             -0.6428   ZZ=             -0.7469
   XY=             -2.2300   XZ=              0.0000   YZ=             -0.0000
 Octapole moment (field-independent basis, Debye-Ang**2):
  XXX=              1.2669  YYY=             -3.5412  ZZZ=              0.0000  XYY=              2.2375
  XXY=             -2.1278  XXZ=              0.0000  XZZ=              0.7584  YZZ=             -0.1511
  YYZ=             -0.0000  XYZ=             -0.0000
 Hexadecapole moment (field-independent basis, Debye-Ang**3):
 XXXX=            -19.1531 YYYY=            -63.3031 ZZZZ=            -19.8664 XXXY=             -1.4017
 XXXZ=             -0.0000 YYYX=             -1.6129 YYYZ=              0.0000 ZZZX=             -0.0000
 ZZZY=              0.0000 XXYY=            -12.3468 XXZZ=             -6.9055 YYZZ=            -14.5038
 XXYZ=              0.0000 YYXZ=             -0.0000 ZZXY=              0.9715
 N-N= 4.036744868811D+01 E-N=-3.517507117552D+02  KE= 1.148738390040D+02
 Symmetry A'   KE= 1.083683904405D+02
 Symmetry A"   KE= 6.505448563541D+00
 Calling FoFJK, ICntrl=  10002127 FMM=F ISym2X=1 I1Cent= 0 IOpClX= 0 NMat=1 NMatS=1 NMatT=0.
 ***** Axes restored to original set *****
 -------------------------------------------------------------------
 Center     Atomic                   Forces (Hartrees/Bohr)
 Number     Number              X              Y              Z
 -------------------------------------------------------------------
      1        8           0.008284090    0.005707882   -0.014516402
      2        1          -0.007057525    0.000817935   -0.002080199
      3        6           0.003865170   -0.001713555    0.004357955
      4        1          -0.002744516    0.001054308   -0.002681343
      5        1          -0.001173611    0.001374363    0.009153771
      6        1          -0.001173608   -0.007240934    0.005766219
 -------------------------------------------------------------------
 Cartesian Forces:  Max     0.014516402 RMS     0.005742403

 GradGradGradGradGradGradGradGradGradGradGradGradGradGradGradGradGradGrad
 Berny optimization.
 FormGI is forming the generalized inverse of G from B-inverse, IUseBI=4.
 Internal  Forces:  Max     0.016960548 RMS     0.006911254
 Search for a local minimum.
 Step number   1 out of a maximum of   25
 All quantities printed in internal units (Hartrees-Bohrs-Radians)
 Mixed Optimization -- RFO/linear search
 Second derivative matrix not updated -- first step.
 The second derivative matrix:
                          R1        R2        R3        R4        R5
           R1           0.52900
           R2           0.00000   0.43109
           R3           0.00000   0.00000   0.34522
           R4           0.00000   0.00000   0.00000   0.34496
           R5           0.00000   0.00000   0.00000   0.00000   0.34496
           A1           0.00000   0.00000   0.00000   0.00000   0.00000
           A2           0.00000   0.00000   0.00000   0.00000   0.00000
           A3           0.00000   0.00000   0.00000   0.00000   0.00000
           A4           0.00000   0.00000   0.00000   0.00000   0.00000
           A5           0.00000   0.00000   0.00000   0.00000   0.00000
           A6           0.00000   0.00000   0.00000   0.00000   0.00000
           A7           0.00000   0.00000   0.00000   0.00000   0.00000
           D1           0.00000   0.00000   0.00000   0.00000   0.00000
           D2           0.00000   0.00000   0.00000   0.00000   0.00000
           D3           0.00000   0.00000   0.00000   0.00000   0.00000
                          A1        A2        A3        A4        A5
           A1           0.16000
           A2           0.00000   0.16000
           A3           0.00000   0.00000   0.16000
           A4           0.00000   0.00000   0.00000   0.16000
           A5           0.00000   0.00000   0.00000   0.00000   0.16000
           A6           0.00000   0.00000   0.00000   0.00000   0.00000
           A7           0.00000   0.00000   0.00000   0.00000   0.00000
           D1           0.00000   0.00000   0.00000   0.00000   0.00000
           D2           0.00000   0.00000   0.00000   0.00000   0.00000
           D3           0.00000   0.00000   0.00000   0.00000   0.00000
                          A6        A7        D1        D2        D3
           A6           0.16000
           A7           0.00000   0.16000
           D1           0.00000   0.00000   0.01484
           D2           0.00000   0.00000   0.00000   0.01484
           D3           0.00000   0.00000   0.00000   0.00000   0.01484
 ITU=  0
     Eigenvalues ---    0.01484   0.10393   0.10484   0.16000   0.16000
     Eigenvalues ---    0.16000   0.16000   0.34496   0.34496   0.34522
     Eigenvalues ---    0.43109   0.52900
 RFO step:  Lambda=-2.81265971D-03 EMin= 1.48365099D-02
 Linear search not attempted -- first point.
 Iteration  1 RMS(Cart)=  0.05010781 RMS(Int)=  0.00146766
 Iteration  2 RMS(Cart)=  0.00105269 RMS(Int)=  0.00092684
 Iteration  3 RMS(Cart)=  0.00000148 RMS(Int)=  0.00092684
 Iteration  4 RMS(Cart)=  0.00000000 RMS(Int)=  0.00092684
 ClnCor:  largest displacement from symmetrization is 9.14D-09 for atom     6.
 Variable       Old X    -DE/DX   Delta X   Delta X   Delta X     New X
                                 (Linear)    (Quad)   (Total)
    R1        1.83747  -0.00723   0.00000  -0.01360  -0.01360   1.82387
    R2        2.67535   0.01696   0.00000   0.03909   0.03909   2.71444
    R3        2.06458   0.00291   0.00000   0.00836   0.00836   2.07294
    R4        2.06501   0.00733   0.00000   0.02109   0.02109   2.08610
    R5        2.06501   0.00733   0.00000   0.02109   0.02109   2.08610
    A1        1.86909   0.00290   0.00000   0.01782   0.01782   1.88691
    A2        1.90209  -0.00798   0.00000  -0.05460  -0.05422   1.84787
    A3        1.91162   0.00849   0.00000   0.05501   0.05401   1.96563
    A4        1.91162   0.00849   0.00000   0.05501   0.05401   1.96563
    A5        1.90862  -0.00239   0.00000  -0.02036  -0.01998   1.88864
    A6        1.90862  -0.00239   0.00000  -0.02036  -0.01998   1.88864
    A7        1.92113  -0.00430   0.00000  -0.01537  -0.01737   1.90376
    D1       -3.14159  -0.00000   0.00000  -0.00000  -0.00000   3.14159
    D2        1.05425   0.00266   0.00000   0.02488   0.02668   1.08094
    D3       -1.05425  -0.00266   0.00000  -0.02488  -0.02668  -1.08094
         Item               Value     Threshold  Converged?
 Maximum Force            0.016961     0.000450     NO 
 RMS     Force            0.006911     0.000300     NO 
 Maximum Displacement     0.095345     0.001800     NO 
 RMS     Displacement     0.050002     0.001200     NO 
 Predicted change in Energy=-1.439378D-03
 GradGradGradGradGradGradGradGradGradGradGradGradGradGradGradGradGradGrad

                          Input orientation:                          
 ---------------------------------------------------------------------
 Center     Atomic      Atomic             Coordinates (Angstroms)
 Number     Number       Type             X           Y           Z
 ---------------------------------------------------------------------
      1          8           0       -2.590280    1.038375    0.994827
      2          1           0       -1.626655    1.018508    1.045355
      3          6           0       -3.112921    0.548773    2.239992
      4          1           0       -4.204893    0.586979    2.142826
      5          1           0       -2.820847    1.176995    3.099449
      6          1           0       -2.820846   -0.496580    2.441396
 ---------------------------------------------------------------------
                    Distance matrix (angstroms):
                    1          2          3          4          5
     1  O    0.000000
     2  H    0.965153   0.000000
     3  C    1.436418   1.963872   0.000000
     4  H    2.031905   2.835132   1.096953   0.000000
     5  H    2.121747   2.381284   1.103918   1.782927   0.000000
     6  H    2.121747   2.381284   1.103918   1.782927   1.798301
                    6
     6  H    0.000000
 Stoichiometry    CH4O
 Framework group  CS[SG(CH2O),X(H2)]
 Deg. of freedom     8
 Full point group                 CS      NOp   2
 Largest Abelian subgroup         CS      NOp   2
 Largest concise Abelian subgroup CS      NOp   2
                         Standard orientation:                         
 ---------------------------------------------------------------------
 Center     Atomic      Atomic             Coordinates (Angstroms)
 Number     Number       Type             X           Y           Z
 ---------------------------------------------------------------------
      1          8           0       -0.045616   -0.765391    0.000000
      2          1           0        0.871714   -1.065433    0.000000
      3          6           0       -0.045616    0.671028   -0.000000
      4          1           0       -1.100730    0.971091   -0.000000
      5          1           0        0.433819    1.095652   -0.899151
      6          1           0        0.433819    1.095652    0.899151
 ---------------------------------------------------------------------
 Rotational constants (GHZ):         126.5730188          24.2604582          23.4351698
 Standard basis: Aug-CC-pVDZ (5D, 7F)
 There are    59 symmetry adapted cartesian basis functions of A'  symmetry.
 There are    27 symmetry adapted cartesian basis functions of A"  symmetry.
 There are    55 symmetry adapted basis functions of A'  symmetry.
 There are    27 symmetry adapted basis functions of A"  symmetry.
    82 basis functions,   130 primitive gaussians,    86 cartesian basis functions
     9 alpha electrons        9 beta electrons
       nuclear repulsion energy        39.9259586394 Hartrees.
 NAtoms=    6 NActive=    6 NUniq=    5 SFac= 1.44D+00 NAtFMM=   60 NAOKFM=F Big=F
 Integral buffers will be    131072 words long.
 Raffenetti 1 integral format.
 Two-electron integral symmetry is turned on.
 One-electron integrals computed using PRISM.
 NBasis=    82 RedAO= T EigKep=  6.45D-04  NBF=    55    27
 NBsUse=    82 1.00D-06 EigRej= -1.00D+00 NBFU=    55    27
 Initial guess from the checkpoint file:  "meoh.chk"
 B after Tr=     0.000000    0.000000    0.000000
         Rot=    0.999983    0.000000    0.000000   -0.005777 Ang=  -0.66 deg.
 Initial guess orbital symmetries:
       Occupied  (A') (A') (A') (A') (A') (A") (A') (A') (A")
       Virtual   (A') (A') (A") (A') (A') (A') (A") (A') (A') (A')
                 (A") (A") (A') (A') (A') (A') (A") (A') (A') (A")
                 (A') (A") (A") (A') (A') (A') (A") (A') (A') (A")
                 (A') (A') (A") (A') (A') (A") (A') (A') (A') (A")
                 (A") (A') (A') (A") (A') (A') (A") (A') (A') (A")
                 (A") (A') (A') (A") (A') (A") (A') (A") (A') (A')
                 (A') (A") (A') (A') (A') (A") (A') (A') (A") (A')
                 (A") (A') (A')
 ExpMin= 2.97D-02 ExpMax= 1.17D+04 ExpMxC= 4.01D+02 IAcc=3 IRadAn=         5 AccDes= 0.00D+00
 Harris functional with IExCor=  205 and IRadAn=       5 diagonalized for initial guess.
 HarFok:  IExCor=  205 AccDes= 0.00D+00 IRadAn=         5 IDoV= 1 UseB2=F ITyADJ=14
 ICtDFT=  3500011 ScaDFX=  1.000000  1.000000  1.000000  1.000000
 FoFCou: FMM=F IPFlag=           0 FMFlag=      100000 FMFlg1=           0
         NFxFlg=           0 DoJE=T BraDBF=F KetDBF=T FulRan=T
         wScrn=  0.000000 ICntrl=       500 IOpCl=  0 I1Cent=   200000004 NGrid=           0
         NMat0=    1 NMatS0=      1 NMatT0=    0 NMatD0=    1 NMtDS0=    0 NMtDT0=    0
 Petite list used in FoFCou.
 Keep R1 ints in memory in symmetry-blocked form, NReq=11670465.
 Requested convergence on RMS density matrix=1.00D-08 within 128 cycles.
 Requested convergence on MAX density matrix=1.00D-06.
 Requested convergence on             energy=1.00D-06.
 No special actions if energy rises.
 SCF Done:  E(RHF) =  -115.060492825     A.U. after   10 cycles
            NFock= 10  Conv=0.36D-08     -V/T= 2.0023
 ExpMin= 2.97D-02 ExpMax= 1.17D+04 ExpMxC= 4.01D+02 IAcc=3 IRadAn=         5 AccDes= 0.00D+00
 HarFok:  IExCor=  205 AccDes= 0.00D+00 IRadAn=         5 IDoV=-2 UseB2=F ITyADJ=14
 ICtDFT= 12500011 ScaDFX=  1.000000  1.000000  1.000000  1.000000
 Range of M.O.s used for correlation:     3    82
 NBasis=    82 NAE=     9 NBE=     9 NFC=     2 NFV=     0
 NROrb=     80 NOA=     7 NOB=     7 NVA=    73 NVB=    73

 **** Warning!!: The largest alpha MO coefficient is  0.12946638D+02

 Fully direct method using O(ONN) memory.
 JobTyp=1 Pass  1:  I=   3 to   9 NPSUse= 28 ParTrn=T ParDer=T DoDerP=T.
 Spin components of T(2) and E(2):
     alpha-alpha T2 =       0.1306706744D-01 E2=     -0.4309402307D-01
     alpha-beta  T2 =       0.8145686220D-01 E2=     -0.2751909934D+00
     beta-beta   T2 =       0.1306706744D-01 E2=     -0.4309402307D-01
 ANorm=    0.1052421492D+01
 E2 =    -0.3613790396D+00 EUMP2 =    -0.11542187186493D+03
          IDoAtm=111111
          Differentiating once with respect to electric field.
                with respect to dipole field.
          Differentiating once with respect to nuclear coordinates.
 Keep R1 ints in memory in symmetry-blocked form, NReq=11672211.
          There are     1 degrees of freedom in the 1st order CPHF.  IDoFFX=0 NUNeed=     1.
 LinEq1:  Iter=  0 NonCon=     1 RMS=5.29D-03 Max=5.52D-02 NDo=     1
 AX will form     1 AO Fock derivatives at one time.
 LinEq1:  Iter=  1 NonCon=     1 RMS=1.29D-03 Max=7.18D-03 NDo=     1
 LinEq1:  Iter=  2 NonCon=     1 RMS=4.18D-04 Max=3.56D-03 NDo=     1
 LinEq1:  Iter=  3 NonCon=     1 RMS=9.66D-05 Max=5.18D-04 NDo=     1
 LinEq1:  Iter=  4 NonCon=     1 RMS=3.09D-05 Max=1.97D-04 NDo=     1
 LinEq1:  Iter=  5 NonCon=     1 RMS=4.47D-06 Max=3.08D-05 NDo=     1
 LinEq1:  Iter=  6 NonCon=     1 RMS=8.08D-07 Max=4.13D-06 NDo=     1
 LinEq1:  Iter=  7 NonCon=     1 RMS=1.32D-07 Max=8.59D-07 NDo=     1
 LinEq1:  Iter=  8 NonCon=     1 RMS=2.41D-08 Max=1.99D-07 NDo=     1
 LinEq1:  Iter=  9 NonCon=     1 RMS=4.38D-09 Max=2.69D-08 NDo=     1
 LinEq1:  Iter= 10 NonCon=     1 RMS=6.84D-10 Max=3.26D-09 NDo=     1
 LinEq1:  Iter= 11 NonCon=     1 RMS=1.09D-10 Max=5.82D-10 NDo=     1
 LinEq1:  Iter= 12 NonCon=     0 RMS=1.43D-11 Max=9.57D-11 NDo=     1
 Linear equations converged to 1.000D-10 1.000D-09 after    12 iterations.
 End of Minotr F.D. properties file   721 does not exist.
 End of Minotr F.D. properties file   722 does not exist.
 End of Minotr F.D. properties file   788 does not exist.
 Calling FoFJK, ICntrl=  10002127 FMM=F ISym2X=1 I1Cent= 0 IOpClX= 0 NMat=1 NMatS=1 NMatT=0.
 ***** Axes restored to original set *****
 -------------------------------------------------------------------
 Center     Atomic                   Forces (Hartrees/Bohr)
 Number     Number              X              Y              Z
 -------------------------------------------------------------------
      1        8          -0.000304903   -0.000816509    0.002076564
      2        1           0.000717771   -0.000128716    0.000327353
      3        6          -0.002021656   -0.000075828    0.000192846
      4        1          -0.000636733   -0.000010865    0.000027631
      5        1           0.001122760    0.000363541   -0.001372128
      6        1           0.001122760    0.000668377   -0.001252266
 -------------------------------------------------------------------
 Cartesian Forces:  Max     0.002076564 RMS     0.000966035

 GradGradGradGradGradGradGradGradGradGradGradGradGradGradGradGradGradGrad
 Berny optimization.
 Using GEDIIS/GDIIS optimizer.
 FormGI is forming the generalized inverse of G from B-inverse, IUseBI=4.
 Internal  Forces:  Max     0.002255801 RMS     0.001277439
 Search for a local minimum.
 Step number   2 out of a maximum of   25
 All quantities printed in internal units (Hartrees-Bohrs-Radians)
 Mixed Optimization -- RFO/linear search
 Update second derivatives using D2CorX and points    1    2
 DE= -1.09D-03 DEPred=-1.44D-03 R= 7.58D-01
 TightC=F SS=  1.41D+00  RLast= 1.20D-01 DXNew= 5.0454D-01 3.5859D-01
 Trust test= 7.58D-01 RLast= 1.20D-01 DXMaxT set to 3.59D-01
 The second derivative matrix:
                          R1        R2        R3        R4        R5
           R1           0.52897
           R2          -0.00123   0.43712
           R3           0.00219  -0.00475   0.34372
           R4           0.00041   0.00033  -0.00232   0.34417
           R5           0.00041   0.00033  -0.00232  -0.00079   0.34417
           A1          -0.00072   0.00226  -0.00066   0.00056   0.00056
           A2          -0.00072   0.00017   0.00283   0.00117   0.00117
           A3          -0.00269   0.00806  -0.00185   0.00221   0.00221
           A4          -0.00269   0.00806  -0.00185   0.00221   0.00221
           A5          -0.00007  -0.00040   0.00099   0.00024   0.00024
           A6          -0.00007  -0.00040   0.00099   0.00024   0.00024
           A7           0.00558  -0.01397  -0.00075  -0.00539  -0.00539
           D1          -0.00000   0.00000   0.00000   0.00000   0.00000
           D2          -0.00757   0.01833   0.00204   0.00748   0.00748
           D3           0.00757  -0.01833  -0.00204  -0.00748  -0.00748
                          A1        A2        A3        A4        A5
           A1           0.16061
           A2          -0.00057   0.15833
           A3           0.00205  -0.00232   0.16691
           A4           0.00205  -0.00232   0.00691   0.16691
           A5          -0.00029  -0.00039  -0.00111  -0.00111   0.15994
           A6          -0.00029  -0.00039  -0.00111  -0.00111  -0.00006
           A7          -0.00271   0.00626  -0.00857  -0.00857   0.00244
           D1           0.00000  -0.00000   0.00000   0.00000  -0.00000
           D2           0.00334  -0.00882   0.01034   0.01034  -0.00334
           D3          -0.00334   0.00882  -0.01034  -0.01034   0.00334
                          A6        A7        D1        D2        D3
           A6           0.15994
           A7           0.00244   0.16598
           D1          -0.00000  -0.00000   0.01484
           D2          -0.00334  -0.00548   0.00000   0.01871
           D3           0.00334   0.00548  -0.00000  -0.00387   0.01871
 ITU=  1  0
 Use linear search instead of GDIIS.
     Eigenvalues ---    0.01484   0.10412   0.10620   0.15904   0.16000
     Eigenvalues ---    0.16000   0.18649   0.34039   0.34496   0.34701
     Eigenvalues ---    0.43911   0.52920
 RFO step:  Lambda=-2.02179322D-05 EMin= 1.48365099D-02
 Quartic linear search produced a step of -0.17430.
 Iteration  1 RMS(Cart)=  0.00985276 RMS(Int)=  0.00012283
 Iteration  2 RMS(Cart)=  0.00005989 RMS(Int)=  0.00010628
 Iteration  3 RMS(Cart)=  0.00000000 RMS(Int)=  0.00010628
 ClnCor:  largest displacement from symmetrization is 3.21D-09 for atom     6.
 Variable       Old X    -DE/DX   Delta X   Delta X   Delta X     New X
                                 (Linear)    (Quad)   (Total)
    R1        1.82387   0.00074   0.00237  -0.00130   0.00107   1.82495
    R2        2.71444  -0.00226  -0.00681   0.00269  -0.00412   2.71032
    R3        2.07294   0.00063  -0.00146   0.00300   0.00154   2.07448
    R4        2.08610  -0.00056  -0.00368   0.00241  -0.00126   2.08484
    R5        2.08610  -0.00056  -0.00368   0.00241  -0.00126   2.08484
    A1        1.88691  -0.00057  -0.00311   0.00016  -0.00294   1.88397
    A2        1.84787   0.00134   0.00945  -0.00061   0.00879   1.85666
    A3        1.96563  -0.00223  -0.00941  -0.00319  -0.01250   1.95312
    A4        1.96563  -0.00223  -0.00941  -0.00319  -0.01250   1.95312
    A5        1.88864   0.00112   0.00348   0.00418   0.00761   1.89625
    A6        1.88864   0.00112   0.00348   0.00418   0.00761   1.89625
    A7        1.90376   0.00114   0.00303  -0.00068   0.00257   1.90633
    D1        3.14159  -0.00000   0.00000   0.00000   0.00000   3.14159
    D2        1.08094  -0.00098  -0.00465  -0.00295  -0.00781   1.07312
    D3       -1.08094   0.00098   0.00465   0.00295   0.00781  -1.07312
         Item               Value     Threshold  Converged?
 Maximum Force            0.002256     0.000450     NO 
 RMS     Force            0.001277     0.000300     NO 
 Maximum Displacement     0.018104     0.001800     NO 
 RMS     Displacement     0.009881     0.001200     NO 
 Predicted change in Energy=-5.563788D-05
 GradGradGradGradGradGradGradGradGradGradGradGradGradGradGradGradGradGrad

                          Input orientation:                          
 ---------------------------------------------------------------------
 Center     Atomic      Atomic             Coordinates (Angstroms)
 Number     Number       Type             X           Y           Z
 ---------------------------------------------------------------------
      1          8           0       -2.590510    1.037148    0.997948
      2          1           0       -1.626733    1.014741    1.054936
      3          6           0       -3.117997    0.549100    2.239161
      4          1           0       -4.211248    0.585508    2.146567
      5          1           0       -2.814978    1.180322    3.091745
      6          1           0       -2.814977   -0.493769    2.433489
 ---------------------------------------------------------------------
                    Distance matrix (angstroms):
                    1          2          3          4          5
     1  O    0.000000
     2  H    0.965720   0.000000
     3  C    1.434239   1.960376   0.000000
     4  H    2.037179   2.838242   1.097769   0.000000
     5  H    2.110656   2.363881   1.103250   1.787941   0.000000
     6  H    2.110656   2.363881   1.103250   1.787941   1.798855
                    6
     6  H    0.000000
 Stoichiometry    CH4O
 Framework group  CS[SG(CH2O),X(H2)]
 Deg. of freedom     8
 Full point group                 CS      NOp   2
 Largest Abelian subgroup         CS      NOp   2
 Largest concise Abelian subgroup CS      NOp   2
                         Standard orientation:                         
 ---------------------------------------------------------------------
 Center     Atomic      Atomic             Coordinates (Angstroms)
 Number     Number       Type             X           Y           Z
 ---------------------------------------------------------------------
      1          8           0       -0.046823   -0.763522   -0.000000
      2          1           0        0.871925   -1.061039    0.000000
      3          6           0       -0.046823    0.670717   -0.000000
      4          1           0       -1.100043    0.980275   -0.000000
      5          1           0        0.441824    1.082318   -0.899428
      6          1           0        0.441824    1.082318    0.899428
 ---------------------------------------------------------------------
 Rotational constants (GHZ):         126.0548386          24.3750199          23.5262669
 Standard basis: Aug-CC-pVDZ (5D, 7F)
 There are    59 symmetry adapted cartesian basis functions of A'  symmetry.
 There are    27 symmetry adapted cartesian basis functions of A"  symmetry.
 There are    55 symmetry adapted basis functions of A'  symmetry.
 There are    27 symmetry adapted basis functions of A"  symmetry.
    82 basis functions,   130 primitive gaussians,    86 cartesian basis functions
     9 alpha electrons        9 beta electrons
       nuclear repulsion energy        39.9713593301 Hartrees.
 NAtoms=    6 NActive=    6 NUniq=    5 SFac= 1.44D+00 NAtFMM=   60 NAOKFM=F Big=F
 Integral buffers will be    131072 words long.
 Raffenetti 1 integral format.
 Two-electron integral symmetry is turned on.
 One-electron integrals computed using PRISM.
 NBasis=    82 RedAO= T EigKep=  6.50D-04  NBF=    55    27
 NBsUse=    82 1.00D-06 EigRej= -1.00D+00 NBFU=    55    27
 Initial guess from the checkpoint file:  "meoh.chk"
 B after Tr=     0.000000   -0.000000    0.000000
         Rot=    0.999999   -0.000000    0.000000    0.001371 Ang=   0.16 deg.
 Initial guess orbital symmetries:
       Occupied  (A') (A') (A') (A') (A') (A") (A') (A') (A")
       Virtual   (A') (A') (A") (A') (A') (A') (A") (A') (A') (A')
                 (A") (A") (A') (A') (A') (A') (A") (A') (A') (A")
                 (A') (A") (A") (A') (A') (A') (A") (A') (A') (A")
                 (A') (A') (A") (A') (A') (A") (A') (A') (A') (A")
                 (A') (A") (A') (A") (A') (A') (A") (A') (A") (A')
                 (A") (A') (A') (A") (A') (A") (A') (A") (A') (A')
                 (A') (A") (A') (A') (A') (A") (A') (A') (A") (A')
                 (A") (A') (A')
 Keep R1 ints in memory in symmetry-blocked form, NReq=11670465.
 Requested convergence on RMS density matrix=1.00D-08 within 128 cycles.
 Requested convergence on MAX density matrix=1.00D-06.
 Requested convergence on             energy=1.00D-06.
 No special actions if energy rises.
 SCF Done:  E(RHF) =  -115.060698189     A.U. after    9 cycles
            NFock=  9  Conv=0.41D-08     -V/T= 2.0023
 ExpMin= 2.97D-02 ExpMax= 1.17D+04 ExpMxC= 4.01D+02 IAcc=3 IRadAn=         5 AccDes= 0.00D+00
 HarFok:  IExCor=  205 AccDes= 0.00D+00 IRadAn=         5 IDoV=-2 UseB2=F ITyADJ=14
 ICtDFT= 12500011 ScaDFX=  1.000000  1.000000  1.000000  1.000000
 Range of M.O.s used for correlation:     3    82
 NBasis=    82 NAE=     9 NBE=     9 NFC=     2 NFV=     0
 NROrb=     80 NOA=     7 NOB=     7 NVA=    73 NVB=    73

 **** Warning!!: The largest alpha MO coefficient is  0.13028548D+02

 Fully direct method using O(ONN) memory.
 JobTyp=1 Pass  1:  I=   3 to   9 NPSUse= 28 ParTrn=T ParDer=T DoDerP=T.
 Spin components of T(2) and E(2):
     alpha-alpha T2 =       0.1304939722D-01 E2=     -0.4307441912D-01
     alpha-beta  T2 =       0.8136128456D-01 E2=     -0.2750837486D+00
     beta-beta   T2 =       0.1304939722D-01 E2=     -0.4307441912D-01
 ANorm=    0.1052359292D+01
 E2 =    -0.3612325868D+00 EUMP2 =    -0.11542193077614D+03
          IDoAtm=111111
          Differentiating once with respect to electric field.
                with respect to dipole field.
          Differentiating once with respect to nuclear coordinates.
 Keep R1 ints in memory in symmetry-blocked form, NReq=11672211.
          There are     1 degrees of freedom in the 1st order CPHF.  IDoFFX=0 NUNeed=     1.
 LinEq1:  Iter=  0 NonCon=     1 RMS=5.28D-03 Max=5.52D-02 NDo=     1
 AX will form     1 AO Fock derivatives at one time.
 LinEq1:  Iter=  1 NonCon=     1 RMS=1.29D-03 Max=7.26D-03 NDo=     1
 LinEq1:  Iter=  2 NonCon=     1 RMS=4.17D-04 Max=3.51D-03 NDo=     1
 LinEq1:  Iter=  3 NonCon=     1 RMS=9.62D-05 Max=5.10D-04 NDo=     1
 LinEq1:  Iter=  4 NonCon=     1 RMS=3.08D-05 Max=1.95D-04 NDo=     1
 LinEq1:  Iter=  5 NonCon=     1 RMS=4.44D-06 Max=3.01D-05 NDo=     1
 LinEq1:  Iter=  6 NonCon=     1 RMS=7.97D-07 Max=4.06D-06 NDo=     1
 LinEq1:  Iter=  7 NonCon=     1 RMS=1.30D-07 Max=8.37D-07 NDo=     1
 LinEq1:  Iter=  8 NonCon=     1 RMS=2.36D-08 Max=1.93D-07 NDo=     1
 LinEq1:  Iter=  9 NonCon=     1 RMS=4.29D-09 Max=2.64D-08 NDo=     1
 LinEq1:  Iter= 10 NonCon=     1 RMS=6.74D-10 Max=3.25D-09 NDo=     1
 LinEq1:  Iter= 11 NonCon=     1 RMS=1.07D-10 Max=5.78D-10 NDo=     1
 LinEq1:  Iter= 12 NonCon=     0 RMS=1.40D-11 Max=9.39D-11 NDo=     1
 Linear equations converged to 1.000D-10 1.000D-09 after    12 iterations.
 End of Minotr F.D. properties file   721 does not exist.
 End of Minotr F.D. properties file   722 does not exist.
 End of Minotr F.D. properties file   788 does not exist.
 Calling FoFJK, ICntrl=  10002127 FMM=F ISym2X=1 I1Cent= 0 IOpClX= 0 NMat=1 NMatS=1 NMatT=0.
 ***** Axes restored to original set *****
 -------------------------------------------------------------------
 Center     Atomic                   Forces (Hartrees/Bohr)
 Number     Number              X              Y              Z
 -------------------------------------------------------------------
      1        8          -0.000029169    0.000112291   -0.000285581
      2        1           0.000002023   -0.000024820    0.000063122
      3        6          -0.000225363   -0.000212873    0.000541384
      4        1           0.000225694    0.000050717   -0.000128985
      5        1           0.000013407   -0.000040053   -0.000125402
      6        1           0.000013407    0.000114738   -0.000064538
 -------------------------------------------------------------------
 Cartesian Forces:  Max     0.000541384 RMS     0.000181657

 GradGradGradGradGradGradGradGradGradGradGradGradGradGradGradGradGradGrad
 Berny optimization.
 Using GEDIIS/GDIIS optimizer.
 FormGI is forming the generalized inverse of G from B-inverse, IUseBI=4.
 Internal  Forces:  Max     0.000212301 RMS     0.000118554
 Search for a local minimum.
 Step number   3 out of a maximum of   25
 All quantities printed in internal units (Hartrees-Bohrs-Radians)
 Mixed Optimization -- En-DIIS/RFO-DIIS
 Update second derivatives using D2CorX and points    1    2    3
 DE= -5.89D-05 DEPred=-5.56D-05 R= 1.06D+00
 TightC=F SS=  1.41D+00  RLast= 2.58D-02 DXNew= 6.0308D-01 7.7466D-02
 Trust test= 1.06D+00 RLast= 2.58D-02 DXMaxT set to 3.59D-01
 The second derivative matrix:
                          R1        R2        R3        R4        R5
           R1           0.52865
           R2          -0.00141   0.44261
           R3           0.00325  -0.01071   0.34781
           R4           0.00128  -0.00210  -0.00177   0.34330
           R5           0.00128  -0.00210  -0.00177  -0.00166   0.34330
           A1           0.00006   0.00045  -0.00050  -0.00044  -0.00044
           A2          -0.00111  -0.00177   0.00600   0.00319   0.00319
           A3          -0.00136   0.00829  -0.00528  -0.00130  -0.00130
           A4          -0.00136   0.00829  -0.00528  -0.00130  -0.00130
           A5          -0.00145   0.00204   0.00148   0.00247   0.00247
           A6          -0.00145   0.00204   0.00148   0.00247   0.00247
           A7           0.00625  -0.01860   0.00292  -0.00460  -0.00460
           D1          -0.00000   0.00000   0.00000   0.00000   0.00000
           D2          -0.00886   0.02504  -0.00245   0.00716   0.00716
           D3           0.00886  -0.02504   0.00245  -0.00716  -0.00716
                          A1        A2        A3        A4        A5
           A1           0.15937
           A2           0.00133   0.15808
           A3          -0.00168   0.00026   0.15926
           A4          -0.00168   0.00026  -0.00074   0.15926
           A5           0.00239  -0.00375   0.00619   0.00619   0.15423
           A6           0.00239  -0.00375   0.00619   0.00619  -0.00577
           A7          -0.00236   0.00865  -0.01098  -0.01098   0.00252
           D1           0.00000  -0.00000  -0.00000  -0.00000   0.00000
           D2           0.00366  -0.01285   0.01550   0.01550  -0.00506
           D3          -0.00366   0.01285  -0.01550  -0.01550   0.00506
                          A6        A7        D1        D2        D3
           A6           0.15423
           A7           0.00252   0.16907
           D1           0.00000   0.00000   0.01484
           D2          -0.00506  -0.00942  -0.00000   0.02325
           D3           0.00506   0.00942   0.00000  -0.00842   0.02325
 ITU=  1  1  0
 Use linear search instead of GDIIS.
     Eigenvalues ---    0.01484   0.10501   0.10607   0.15487   0.15978
     Eigenvalues ---    0.16000   0.17821   0.34033   0.34496   0.34819
     Eigenvalues ---    0.44622   0.52888
 RFO step:  Lambda=-9.08187114D-07 EMin= 1.48365099D-02
 Quartic linear search produced a step of  0.00242.
 Iteration  1 RMS(Cart)=  0.00056167 RMS(Int)=  0.00000034
 Iteration  2 RMS(Cart)=  0.00000028 RMS(Int)=  0.00000020
 ClnCor:  largest displacement from symmetrization is 1.06D-11 for atom     6.
 Variable       Old X    -DE/DX   Delta X   Delta X   Delta X     New X
                                 (Linear)    (Quad)   (Total)
    R1        1.82495   0.00001   0.00000   0.00001   0.00002   1.82496
    R2        2.71032   0.00021  -0.00001   0.00049   0.00048   2.71079
    R3        2.07448  -0.00021   0.00000  -0.00060  -0.00060   2.07389
    R4        2.08484  -0.00012  -0.00000  -0.00034  -0.00034   2.08450
    R5        2.08484  -0.00012  -0.00000  -0.00034  -0.00034   2.08450
    A1        1.88397  -0.00012  -0.00001  -0.00079  -0.00079   1.88318
    A2        1.85666  -0.00021   0.00002  -0.00132  -0.00130   1.85536
    A3        1.95312  -0.00004  -0.00003  -0.00029  -0.00032   1.95280
    A4        1.95312  -0.00004  -0.00003  -0.00029  -0.00032   1.95280
    A5        1.89625   0.00012   0.00002   0.00074   0.00076   1.89700
    A6        1.89625   0.00012   0.00002   0.00074   0.00076   1.89700
    A7        1.90633   0.00006   0.00001   0.00046   0.00046   1.90679
    D1        3.14159  -0.00000   0.00000  -0.00000   0.00000   3.14159
    D2        1.07312   0.00001  -0.00002   0.00008   0.00006   1.07319
    D3       -1.07312  -0.00001   0.00002  -0.00008  -0.00006  -1.07319
         Item               Value     Threshold  Converged?
 Maximum Force            0.000212     0.000450     YES
 RMS     Force            0.000119     0.000300     YES
 Maximum Displacement     0.001100     0.001800     YES
 RMS     Displacement     0.000562     0.001200     YES
 Predicted change in Energy=-4.544863D-07
 Optimization completed.
    -- Stationary point found.
                           ----------------------------
                           !   Optimized Parameters   !
                           ! (Angstroms and Degrees)  !
 --------------------------                            --------------------------
 ! Name  Definition              Value          Derivative Info.                !
 --------------------------------------------------------------------------------
 ! R1    R(1,2)                  0.9657         -DE/DX =    0.0                 !
 ! R2    R(1,3)                  1.4342         -DE/DX =    0.0002              !
 ! R3    R(3,4)                  1.0978         -DE/DX =   -0.0002              !
 ! R4    R(3,5)                  1.1033         -DE/DX =   -0.0001              !
 ! R5    R(3,6)                  1.1033         -DE/DX =   -0.0001              !
 ! A1    A(2,1,3)              107.9434         -DE/DX =   -0.0001              !
 ! A2    A(1,3,4)              106.3789         -DE/DX =   -0.0002              !
 ! A3    A(1,3,5)              111.9057         -DE/DX =    0.0                 !
 ! A4    A(1,3,6)              111.9057         -DE/DX =    0.0                 !
 ! A5    A(4,3,5)              108.647          -DE/DX =    0.0001              !
 ! A6    A(4,3,6)              108.647          -DE/DX =    0.0001              !
 ! A7    A(5,3,6)              109.2247         -DE/DX =    0.0001              !
 ! D1    D(2,1,3,4)            180.0            -DE/DX =    0.0                 !
 ! D2    D(2,1,3,5)             61.4854         -DE/DX =    0.0                 !
 ! D3    D(2,1,3,6)            -61.4854         -DE/DX =    0.0                 !
 --------------------------------------------------------------------------------
 GradGradGradGradGradGradGradGradGradGradGradGradGradGradGradGradGradGrad

                          Input orientation:                          
 ---------------------------------------------------------------------
 Center     Atomic      Atomic             Coordinates (Angstroms)
 Number     Number       Type             X           Y           Z
 ---------------------------------------------------------------------
      1          8           0       -2.590510    1.037148    0.997948
      2          1           0       -1.626733    1.014741    1.054936
      3          6           0       -3.117997    0.549100    2.239161
      4          1           0       -4.211248    0.585508    2.146567
      5          1           0       -2.814978    1.180322    3.091745
      6          1           0       -2.814977   -0.493769    2.433489
 ---------------------------------------------------------------------
                    Distance matrix (angstroms):
                    1          2          3          4          5
     1  O    0.000000
     2  H    0.965720   0.000000
     3  C    1.434239   1.960376   0.000000
     4  H    2.037179   2.838242   1.097769   0.000000
     5  H    2.110656   2.363881   1.103250   1.787941   0.000000
     6  H    2.110656   2.363881   1.103250   1.787941   1.798855
                    6
     6  H    0.000000
 Stoichiometry    CH4O
 Framework group  CS[SG(CH2O),X(H2)]
 Deg. of freedom     8
 Full point group                 CS      NOp   2
 Largest Abelian subgroup         CS      NOp   2
 Largest concise Abelian subgroup CS      NOp   2
                         Standard orientation:                         
 ---------------------------------------------------------------------
 Center     Atomic      Atomic             Coordinates (Angstroms)
 Number     Number       Type             X           Y           Z
 ---------------------------------------------------------------------
      1          8           0       -0.046823   -0.763522   -0.000000
      2          1           0        0.871925   -1.061039   -0.000000
      3          6           0       -0.046823    0.670717    0.000000
      4          1           0       -1.100043    0.980275    0.000000
      5          1           0        0.441824    1.082318   -0.899428
      6          1           0        0.441824    1.082318    0.899428
 ---------------------------------------------------------------------
 Rotational constants (GHZ):         126.0548386          24.3750199          23.5262669

 **********************************************************************

            Population analysis using the SCF density.

 **********************************************************************

 Orbital symmetries:
       Occupied  (A') (A') (A') (A') (A') (A") (A') (A') (A")
       Virtual   (A') (A') (A") (A') (A') (A') (A") (A') (A') (A')
                 (A") (A") (A') (A') (A') (A') (A") (A') (A') (A")
                 (A') (A") (A") (A') (A') (A') (A") (A') (A') (A")
                 (A') (A') (A") (A') (A') (A") (A') (A') (A') (A")
                 (A') (A") (A') (A") (A') (A') (A") (A') (A") (A')
                 (A") (A') (A') (A") (A') (A") (A') (A") (A') (A')
                 (A') (A") (A') (A') (A') (A") (A') (A') (A") (A')
                 (A") (A') (A')
 The electronic state is 1-A'.
 Alpha  occ. eigenvalues --  -20.56969 -11.28422  -1.35564  -0.92393  -0.68745
 Alpha  occ. eigenvalues --   -0.61621  -0.58910  -0.50396  -0.45112
 Alpha virt. eigenvalues --    0.03447   0.05167   0.05810   0.06563   0.11481
 Alpha virt. eigenvalues --    0.14020   0.15328   0.17158   0.20812   0.22224
 Alpha virt. eigenvalues --    0.24391   0.27956   0.28024   0.32429   0.33564
 Alpha virt. eigenvalues --    0.38252   0.39270   0.41932   0.43598   0.43940
 Alpha virt. eigenvalues --    0.46133   0.47092   0.51657   0.55120   0.57483
 Alpha virt. eigenvalues --    0.60776   0.62469   0.63190   0.65304   0.66041
 Alpha virt. eigenvalues --    0.68107   0.72415   0.74285   0.75357   0.91516
 Alpha virt. eigenvalues --    0.96793   0.99778   1.04018   1.10651   1.19329
 Alpha virt. eigenvalues --    1.22997   1.23118   1.36987   1.42964   1.52042
 Alpha virt. eigenvalues --    1.61675   1.71465   1.76387   1.76927   1.79042
 Alpha virt. eigenvalues --    1.87267   1.89653   2.07875   2.10245   2.10433
 Alpha virt. eigenvalues --    2.17564   2.22613   2.25043   2.30691   2.38578
 Alpha virt. eigenvalues --    2.52235   2.61330   2.69350   2.76570   2.87355
 Alpha virt. eigenvalues --    2.88742   3.03520   3.14478   3.73769   3.75418
 Alpha virt. eigenvalues --    3.78982   3.88657   4.27147
          Condensed to atoms (all electrons):
               1          2          3          4          5          6
     1  O    8.324642   0.312804   0.096241  -0.101873  -0.008730  -0.008730
     2  H    0.312804   0.584961  -0.028786   0.029008  -0.016272  -0.016272
     3  C    0.096241  -0.028786   3.924294   0.423967   0.380630   0.380630
     4  H   -0.101873   0.029008   0.423967   1.043894  -0.121284  -0.121284
     5  H   -0.008730  -0.016272   0.380630  -0.121284   0.942888  -0.081831
     6  H   -0.008730  -0.016272   0.380630  -0.121284  -0.081831   0.942888
 Mulliken charges:
               1
     1  O   -0.614353
     2  H    0.134557
     3  C    0.823025
     4  H   -0.152428
     5  H   -0.095401
     6  H   -0.095401
 Sum of Mulliken charges =  -0.00000
 Mulliken charges with hydrogens summed into heavy atoms:
               1
     1  O   -0.479796
     3  C    0.479796
 Electronic spatial extent (au):  <R**2>=             85.4461
 Charge=             -0.0000 electrons
 Dipole moment (field-independent basis, Debye):
    X=              1.4475    Y=              1.1199    Z=             -0.0000  Tot=              1.8302
 Quadrupole moment (field-independent basis, Debye-Ang):
   XX=            -11.7080   YY=            -13.5180   ZZ=            -13.8024
   XY=             -2.1684   XZ=             -0.0000   YZ=              0.0000
 Traceless Quadrupole moment (field-independent basis, Debye-Ang):
   XX=              1.3015   YY=             -0.5085   ZZ=             -0.7930
   XY=             -2.1684   XZ=             -0.0000   YZ=              0.0000
 Octapole moment (field-independent basis, Debye-Ang**2):
  XXX=              1.1834  YYY=             -3.6173  ZZZ=             -0.0000  XYY=              2.4528
  XXY=             -2.2042  XXZ=             -0.0000  XZZ=              0.7535  YZZ=             -0.0724
  YYZ=              0.0000  XYZ=              0.0000
 Hexadecapole moment (field-independent basis, Debye-Ang**3):
 XXXX=            -19.2209 YYYY=            -64.6553 ZZZZ=            -20.0545 XXXY=             -1.4259
 XXXZ=             -0.0000 YYYX=             -1.5247 YYYZ=              0.0000 ZZZX=             -0.0000
 ZZZY=             -0.0000 XXYY=            -12.6775 XXZZ=             -6.9902 YYZZ=            -14.6143
 XXYZ=              0.0000 YYXZ=              0.0000 ZZXY=              1.0073
 N-N= 3.997135933011D+01 E-N=-3.509029180035D+02  KE= 1.148014153853D+02
 Symmetry A'   KE= 1.083251560403D+02
 Symmetry A"   KE= 6.476259344956D+00
 1\1\GINC-N2151\FOpt\RMP2-FC\Aug-CC-pVDZ\C1H4O1\GDS001\06-Aug-2020\0\\#
  MP2/aug-cc-pVDZ Opt Freq(vibrot,anharmonic)\\meoh\\0,1\O,-2.590509667
 2,1.0371477757,0.9979483637\H,-1.6267334021,1.0147407111,1.0549356223\
 C,-3.1179967461,0.5491004103,2.2391605324\H,-4.2112477249,0.5855076863
 ,2.1465674779\H,-2.8149777527,1.1803216711,3.091745179\H,-2.814976988,
 -0.4937690506,2.4334893356\\Version=ES64L-G16RevA.03\State=1-A'\HF=-11
 5.0606982\MP2=-115.4219308\RMSD=4.110e-09\RMSF=1.817e-04\Dipole=0.3471
 697,-0.2111436,0.5369854\PG=CS [SG(C1H2O1),X(H2)]\\@


     "IF I COULD JUST GET IT ON PAPER"
 LIFE AND INK, THEY RUN OUT AT THE SAME TIME,
 OR SO SAID MY OLD FRIEND THE SQUID.
     -- JIMMY BUFFETT, 1981
 Job cpu time:       0 days  0 hours  4 minutes 15.5 seconds.
 Elapsed time:       0 days  0 hours  0 minutes 11.7 seconds.
 File lengths (MBytes):  RWF=     72 Int=      0 D2E=      0 Chk=      8 Scr=      8
 Normal termination of Gaussian 16 at Thu Aug  6 19:40:58 2020.
 Link1:  Proceeding to internal job step number  2.
 ----------------------------------------------------------------------
 #N Geom=AllCheck Guess=TCheck SCRF=Check GenChk RMP2(FC)/Aug-CC-pVDZ F
 req
 ----------------------------------------------------------------------
 1/10=4,29=7,30=1,38=21,40=1,80=1/1,6,3;
 2/12=2,40=1/2;
 3/5=16,7=10,11=1,14=-4,25=1,30=1,70=2,71=2,116=1,140=1/1,2,3;
 4/5=101,69=2/1;
 5/5=2,38=6,98=1/2;
 8/6=3,8=1,10=1,19=11,30=-1/1;
 9/15=3,16=-3/6;
 11/6=1,8=1,15=11,17=12,24=-1,27=1,28=-2,29=300,32=6,42=3/1,2,10;
 10/6=2,21=1,60=-2/2;
 8/6=4,8=1,10=1,19=11,30=-1/11,4;
 10/5=1,20=4,60=-2/2;
 11/12=2,14=11,16=1,17=2,28=-2,42=3/2,10,12;
 6/7=2,8=2,9=2,10=2,22=-1/1;
 7/10=1,12=2,25=1,44=2,70=1,71=2/1,2,3,16;
 1/38=20,80=1/6(3);
 7/8=1,25=202,44=-1,70=1,71=1,92=10/16,17;
 1/10=4,30=1,38=20,80=1/3;
 99//99;
 3/5=16,7=10,11=1,14=-2,25=1,30=1,70=5,71=2,116=1,140=1/1,2,3;
 4/5=5,16=3,69=2/1;
 5/5=2,38=5,98=1/2;
 8/6=3,8=1,10=1,19=11,30=-1/1;
 9/15=3,16=-3/6;
 11/6=1,8=1,15=11,17=12,24=-1,27=1,28=-2,29=300,32=6,42=3/1,2,10;
 10/6=2,21=1,60=-2/2;
 8/6=4,8=1,10=1,19=11,30=-1/11,4;
 10/5=1,20=4,60=-2/2;
 11/12=2,14=11,16=1,17=2,28=-2,42=3/2,10,12;
 6/7=2,8=2,9=2,10=2,22=-1/1;
 7/7=1,10=1,12=2,25=1,44=2,70=1,71=1/1,2,3,16;
 1/38=20,80=1/6(-12);
 7/8=1,25=202,44=-1,70=1,71=1,92=10/16,17;
 1/10=4,30=1,38=20,80=1/3;
 99//99;
 Structure from the checkpoint file:  "meoh.chk"
 ----
 meoh
 ----
 Charge =  0 Multiplicity = 1
 Redundant internal coordinates found in file.  (old form).
 O,0,-2.5905096672,1.0371477757,0.9979483637
 H,0,-1.6267334021,1.0147407111,1.0549356223
 C,0,-3.1179967461,0.5491004103,2.2391605324
 H,0,-4.2112477249,0.5855076863,2.1465674779
 H,0,-2.8149777527,1.1803216711,3.091745179
 H,0,-2.814976988,-0.4937690506,2.4334893356
 Recover connectivity data from disk.
 Numerical evaluation of third derivatives.
 Nuclear step= 0.010000 Angstroms, electric field step= 0.000333 atomic units, NStep=1.

 GradGradGradGradGradGradGradGradGradGradGradGradGradGradGradGradGradGrad
 Berny optimization.
 Initialization pass.
                           ----------------------------
                           !    Initial Parameters    !
                           ! (Angstroms and Degrees)  !
 --------------------------                            --------------------------
 ! Name  Definition              Value          Derivative Info.                !
 --------------------------------------------------------------------------------
 ! R1    R(1,2)                  0.9657         calculate D2E/DX2 analytically  !
 ! R2    R(1,3)                  1.4342         calculate D2E/DX2 analytically  !
 ! R3    R(3,4)                  1.0978         calculate D2E/DX2 analytically  !
 ! R4    R(3,5)                  1.1033         calculate D2E/DX2 analytically  !
 ! R5    R(3,6)                  1.1033         calculate D2E/DX2 analytically  !
 ! A1    A(2,1,3)              107.9434         calculate D2E/DX2 analytically  !
 ! A2    A(1,3,4)              106.3789         calculate D2E/DX2 analytically  !
 ! A3    A(1,3,5)              111.9057         calculate D2E/DX2 analytically  !
 ! A4    A(1,3,6)              111.9057         calculate D2E/DX2 analytically  !
 ! A5    A(4,3,5)              108.647          calculate D2E/DX2 analytically  !
 ! A6    A(4,3,6)              108.647          calculate D2E/DX2 analytically  !
 ! A7    A(5,3,6)              109.2247         calculate D2E/DX2 analytically  !
 ! D1    D(2,1,3,4)            180.0            calculate D2E/DX2 analytically  !
 ! D2    D(2,1,3,5)             61.4854         calculate D2E/DX2 analytically  !
 ! D3    D(2,1,3,6)            -61.4854         calculate D2E/DX2 analytically  !
 --------------------------------------------------------------------------------
 Trust Radius=3.00D-01 FncErr=1.00D-07 GrdErr=1.00D-07 EigMax=2.50D+02 EigMin=1.00D-04
 Number of steps in this run=      2 maximum allowed number of steps=      2.
 GradGradGradGradGradGradGradGradGradGradGradGradGradGradGradGradGradGrad

                          Input orientation:                          
 ---------------------------------------------------------------------
 Center     Atomic      Atomic             Coordinates (Angstroms)
 Number     Number       Type             X           Y           Z
 ---------------------------------------------------------------------
      1          8           0       -2.590510    1.037148    0.997948
      2          1           0       -1.626733    1.014741    1.054936
      3          6           0       -3.117997    0.549100    2.239161
      4          1           0       -4.211248    0.585508    2.146567
      5          1           0       -2.814978    1.180322    3.091745
      6          1           0       -2.814977   -0.493769    2.433489
 ---------------------------------------------------------------------
                    Distance matrix (angstroms):
                    1          2          3          4          5
     1  O    0.000000
     2  H    0.965720   0.000000
     3  C    1.434239   1.960376   0.000000
     4  H    2.037179   2.838242   1.097769   0.000000
     5  H    2.110656   2.363881   1.103250   1.787941   0.000000
     6  H    2.110656   2.363881   1.103250   1.787941   1.798855
                    6
     6  H    0.000000
 Stoichiometry    CH4O
 Framework group  CS[SG(CH2O),X(H2)]
 Deg. of freedom     8
 Full point group                 CS      NOp   2
 Largest Abelian subgroup         CS      NOp   2
 Largest concise Abelian subgroup CS      NOp   2
                         Standard orientation:                         
 ---------------------------------------------------------------------
 Center     Atomic      Atomic             Coordinates (Angstroms)
 Number     Number       Type             X           Y           Z
 ---------------------------------------------------------------------
      1          8           0       -0.046823   -0.763522    0.000000
      2          1           0        0.871925   -1.061039    0.000000
      3          6           0       -0.046823    0.670717   -0.000000
      4          1           0       -1.100043    0.980275   -0.000000
      5          1           0        0.441824    1.082318   -0.899428
      6          1           0        0.441824    1.082318    0.899428
 ---------------------------------------------------------------------
 Rotational constants (GHZ):         126.0548386          24.3750199          23.5262669
 Standard basis: Aug-CC-pVDZ (5D, 7F)
 There are    59 symmetry adapted cartesian basis functions of A'  symmetry.
 There are    27 symmetry adapted cartesian basis functions of A"  symmetry.
 There are    55 symmetry adapted basis functions of A'  symmetry.
 There are    27 symmetry adapted basis functions of A"  symmetry.
    82 basis functions,   130 primitive gaussians,    86 cartesian basis functions
     9 alpha electrons        9 beta electrons
       nuclear repulsion energy        39.9713593301 Hartrees.
 NAtoms=    6 NActive=    6 NUniq=    5 SFac= 1.44D+00 NAtFMM=   60 NAOKFM=F Big=F
 Integral buffers will be    131072 words long.
 Raffenetti 1 integral format.
 Two-electron integral symmetry is turned on.
 One-electron integrals computed using PRISM.
 NBasis=    82 RedAO= T EigKep=  6.50D-04  NBF=    55    27
 NBsUse=    82 1.00D-06 EigRej= -1.00D+00 NBFU=    55    27
 Initial guess from the checkpoint file:  "meoh.chk"
 B after Tr=    -0.000000    0.000000   -0.000000
         Rot=    1.000000    0.000000    0.000000   -0.000000 Ang=   0.00 deg.
 Initial guess orbital symmetries:
       Occupied  (A') (A') (A') (A') (A') (A") (A') (A') (A")
       Virtual   (A') (A') (A") (A') (A') (A') (A") (A') (A') (A')
                 (A") (A") (A') (A') (A') (A') (A") (A') (A') (A")
                 (A') (A") (A") (A') (A') (A') (A") (A') (A') (A")
                 (A') (A') (A") (A') (A') (A") (A') (A') (A') (A")
                 (A') (A") (A') (A") (A') (A') (A") (A') (A") (A')
                 (A") (A') (A') (A") (A') (A") (A') (A") (A') (A')
                 (A') (A") (A') (A') (A') (A") (A') (A') (A") (A')
                 (A") (A') (A')
 Keep R1 ints in memory in symmetry-blocked form, NReq=11670465.
 Requested convergence on RMS density matrix=1.00D-08 within 128 cycles.
 Requested convergence on MAX density matrix=1.00D-06.
 Requested convergence on             energy=1.00D-06.
 No special actions if energy rises.
 SCF Done:  E(RHF) =  -115.060698189     A.U. after    1 cycles
            NFock=  1  Conv=0.54D-09     -V/T= 2.0023
 ExpMin= 2.97D-02 ExpMax= 1.17D+04 ExpMxC= 4.01D+02 IAcc=3 IRadAn=         5 AccDes= 0.00D+00
 HarFok:  IExCor=  205 AccDes= 0.00D+00 IRadAn=         5 IDoV=-2 UseB2=F ITyADJ=14
 ICtDFT= 12500011 ScaDFX=  1.000000  1.000000  1.000000  1.000000
 Range of M.O.s used for correlation:     3    82
 NBasis=    82 NAE=     9 NBE=     9 NFC=     2 NFV=     0
 NROrb=     80 NOA=     7 NOB=     7 NVA=    73 NVB=    73

 **** Warning!!: The largest alpha MO coefficient is  0.13028548D+02

 Disk-based method using ON**2 memory for  7 occupieds at a time.
 Permanent disk used for amplitudes=      526257 words.
 Estimated scratch disk usage=     6680028 words.
 Actual    scratch disk usage=     6680028 words.
 JobTyp=1 Pass  1:  I=   3 to   9 NPSUse= 28 ParTrn=T ParDer=T DoDerP=T.
 (rs|ai) integrals will be sorted in core.
 Spin components of T(2) and E(2):
     alpha-alpha T2 =       0.1304939727D-01 E2=     -0.4307441924D-01
     alpha-beta  T2 =       0.8136128473D-01 E2=     -0.2750837490D+00
     beta-beta   T2 =       0.1304939727D-01 E2=     -0.4307441924D-01
 ANorm=    0.1052359292D+01
 E2 =    -0.3612325875D+00 EUMP2 =    -0.11542193077679D+03
 G2DrvN: will do     7 centers at a time, making    1 passes.
 Calling FoFCou, ICntrl=  3107 FMM=F I1Cent=   0 AccDes= 0.00D+00.
 End of G2Drv F.D. properties file   721 does not exist.
 End of G2Drv F.D. properties file   722 does not exist.
 End of G2Drv F.D. properties file   788 does not exist.
          IDoAtm=111111
          Differentiating once with respect to electric field.
                with respect to dipole field.
          Differentiating once with respect to nuclear coordinates.
 Keep R1 ints in memory in symmetry-blocked form, NReq=11671375.
          There are    21 degrees of freedom in the 1st order CPHF.  IDoFFX=6 NUNeed=    21.
     18 vectors produced by pass  0 Test12= 3.13D-15 4.76D-09 XBig12= 4.61D+00 7.08D-01.
 AX will form    18 AO Fock derivatives at one time.
     18 vectors produced by pass  1 Test12= 3.13D-15 4.76D-09 XBig12= 1.79D-01 8.51D-02.
     18 vectors produced by pass  2 Test12= 3.13D-15 4.76D-09 XBig12= 5.05D-03 1.47D-02.
     18 vectors produced by pass  3 Test12= 3.13D-15 4.76D-09 XBig12= 5.48D-05 1.38D-03.
     18 vectors produced by pass  4 Test12= 3.13D-15 4.76D-09 XBig12= 2.93D-07 1.10D-04.
     18 vectors produced by pass  5 Test12= 3.13D-15 4.76D-09 XBig12= 1.50D-09 7.64D-06.
     16 vectors produced by pass  6 Test12= 3.13D-15 4.76D-09 XBig12= 1.02D-11 6.18D-07.
      3 vectors produced by pass  7 Test12= 3.13D-15 4.76D-09 XBig12= 4.63D-14 4.29D-08.
 InvSVY:  IOpt=1 It=  1 EMax= 2.22D-15
 Solved reduced A of dimension   127 with    21 vectors.
 End of Minotr F.D. properties file   721 does not exist.
 End of Minotr F.D. properties file   722 does not exist.
 End of Minotr F.D. properties file   788 does not exist.
 MDV=  5502926848.
 Form MO integral derivatives with frozen-active canonical formalism.
 Discarding MO integrals.
 Reordered first order wavefunction length =       863298
 In DefCFB: NBatch=  1 ICI=  9 ICA= 73 LFMax= 73
            Large arrays: LIAPS=    18532656 LIARS=     9887850 words.
 Semi-Direct transformation.
 ModeAB=           4 MOrb=             9 LenV=    5502611618
 LASXX=      2277171 LTotXX=     2277171 LenRXX=     4636512
 LTotAB=     2359341 MaxLAS=     2324700 LenRXY=           0
 NonZer=     6913683 LenScr=    10485760 LnRSAI=     2324700
 LnScr1=     3670016 LExtra=           0 Total=     21116988
 MaxDsk=          -1 SrtSym=           T ITran=            4
 JobTyp=0 Pass  1:  I=   1 to   9.
 (rs|ai) integrals will be sorted in core.
 Spin components of T(2) and E(2):
     alpha-alpha T2 =       0.1304939727D-01 E2=     -0.4307441924D-01
     alpha-beta  T2 =       0.8136128473D-01 E2=     -0.2750837490D+00
     beta-beta   T2 =       0.1304939727D-01 E2=     -0.4307441924D-01
 ANorm=    0.1488260783D+01
 E2 =    -0.3612325875D+00 EUMP2 =    -0.11542193077679D+03
          IDoAtm=111111
          Differentiating once with respect to electric field.
                with respect to dipole field.
          Differentiating once with respect to nuclear coordinates.
          There are     1 degrees of freedom in the 1st order CPHF.  IDoFFX=0 NUNeed=     1.
 LinEq1:  Iter=  0 NonCon=     1 RMS=5.28D-03 Max=5.52D-02 NDo=     1
 LinEq1:  Iter=  1 NonCon=     1 RMS=1.29D-03 Max=7.26D-03 NDo=     1
 LinEq1:  Iter=  2 NonCon=     1 RMS=4.17D-04 Max=3.51D-03 NDo=     1
 LinEq1:  Iter=  3 NonCon=     1 RMS=9.62D-05 Max=5.10D-04 NDo=     1
 LinEq1:  Iter=  4 NonCon=     1 RMS=3.08D-05 Max=1.95D-04 NDo=     1
 LinEq1:  Iter=  5 NonCon=     1 RMS=4.44D-06 Max=3.01D-05 NDo=     1
 LinEq1:  Iter=  6 NonCon=     1 RMS=7.97D-07 Max=4.06D-06 NDo=     1
 LinEq1:  Iter=  7 NonCon=     1 RMS=1.30D-07 Max=8.37D-07 NDo=     1
 LinEq1:  Iter=  8 NonCon=     1 RMS=2.36D-08 Max=1.93D-07 NDo=     1
 LinEq1:  Iter=  9 NonCon=     1 RMS=4.29D-09 Max=2.64D-08 NDo=     1
 LinEq1:  Iter= 10 NonCon=     1 RMS=6.74D-10 Max=3.25D-09 NDo=     1
 LinEq1:  Iter= 11 NonCon=     1 RMS=1.07D-10 Max=5.78D-10 NDo=     1
 LinEq1:  Iter= 12 NonCon=     0 RMS=1.40D-11 Max=9.39D-11 NDo=     1
 Linear equations converged to 1.000D-10 1.000D-09 after    12 iterations.
 End of Minotr F.D. properties file   721 does not exist.
 End of Minotr F.D. properties file   722 does not exist.
 End of Minotr F.D. properties file   788 does not exist.
 Symmetrizing basis deriv contribution to polar:
 IMax=3 JMax=2 DiffMx= 0.00D+00
 G2DrvN: will do     7 centers at a time, making    1 passes.
 Calling FoFCou, ICntrl=  3107 FMM=F I1Cent=   0 AccDes= 0.00D+00.
 End of G2Drv F.D. properties file   721 does not exist.
 End of G2Drv F.D. properties file   722 does not exist.
 End of G2Drv F.D. properties file   788 does not exist.
 R2 and R3 integrals will be kept in memory, NReq=    14818822.
 DD1Dir will call FoFMem   1 times, MxPair=        90
 NAB=    45 NAA=     0 NBB=     0.
 Discarding MO integrals.

 **********************************************************************

            Population analysis using the MP2 density.

 **********************************************************************

 Orbital symmetries:
       Occupied  (A') (A') (A') (A') (A') (A") (A') (A') (A")
       Virtual   (A') (A') (A") (A') (A') (A') (A") (A') (A') (A')
                 (A") (A") (A') (A') (A') (A') (A") (A') (A') (A")
                 (A') (A") (A") (A') (A') (A') (A") (A') (A') (A")
                 (A') (A') (A") (A') (A') (A") (A') (A') (A') (A")
                 (A') (A") (A') (A") (A') (A') (A") (A') (A") (A')
                 (A") (A') (A') (A") (A') (A") (A') (A") (A') (A')
                 (A') (A") (A') (A') (A') (A") (A') (A') (A") (A')
                 (A") (A') (A')
 The electronic state is 1-A'.
 Alpha  occ. eigenvalues --  -20.56969 -11.28422  -1.35564  -0.92393  -0.68745
 Alpha  occ. eigenvalues --   -0.61621  -0.58910  -0.50396  -0.45112
 Alpha virt. eigenvalues --    0.03447   0.05167   0.05810   0.06563   0.11481
 Alpha virt. eigenvalues --    0.14020   0.15328   0.17158   0.20812   0.22224
 Alpha virt. eigenvalues --    0.24391   0.27956   0.28024   0.32429   0.33564
 Alpha virt. eigenvalues --    0.38252   0.39270   0.41932   0.43598   0.43940
 Alpha virt. eigenvalues --    0.46133   0.47092   0.51657   0.55120   0.57483
 Alpha virt. eigenvalues --    0.60776   0.62469   0.63190   0.65304   0.66041
 Alpha virt. eigenvalues --    0.68107   0.72415   0.74285   0.75357   0.91516
 Alpha virt. eigenvalues --    0.96793   0.99778   1.04018   1.10651   1.19329
 Alpha virt. eigenvalues --    1.22997   1.23118   1.36987   1.42964   1.52042
 Alpha virt. eigenvalues --    1.61675   1.71465   1.76387   1.76927   1.79042
 Alpha virt. eigenvalues --    1.87267   1.89653   2.07875   2.10245   2.10433
 Alpha virt. eigenvalues --    2.17564   2.22613   2.25043   2.30691   2.38578
 Alpha virt. eigenvalues --    2.52235   2.61330   2.69350   2.76570   2.87355
 Alpha virt. eigenvalues --    2.88742   3.03520   3.14478   3.73769   3.75418
 Alpha virt. eigenvalues --    3.78982   3.88657   4.27147
          Condensed to atoms (all electrons):
               1          2          3          4          5          6
     1  O    8.245173   0.285907   0.082623  -0.107530  -0.009985  -0.009985
     2  H    0.285907   0.663084  -0.044117   0.030033  -0.018162  -0.018162
     3  C    0.082623  -0.044117   4.213305   0.333938   0.301414   0.301414
     4  H   -0.107530   0.030033   0.333938   1.236100  -0.156483  -0.156483
     5  H   -0.009985  -0.018162   0.301414  -0.156483   1.120717  -0.113969
     6  H   -0.009985  -0.018162   0.301414  -0.156483  -0.113969   1.120717
 Mulliken charges:
               1
     1  O   -0.486202
     2  H    0.101417
     3  C    0.811424
     4  H   -0.179576
     5  H   -0.123531
     6  H   -0.123531
 Sum of Mulliken charges =   0.00000
 Mulliken charges with hydrogens summed into heavy atoms:
               1
     1  O   -0.384785
     3  C    0.384785
 APT charges:
               1
     1  O   -0.590600
     2  H    0.239628
     3  C    0.467177
     4  H   -0.009901
     5  H   -0.053152
     6  H   -0.053152
 Sum of APT charges =  -0.00000
 APT charges with hydrogens summed into heavy atoms:
               1
     1  O   -0.350972
     3  C    0.350972
 Electronic spatial extent (au):  <R**2>=             86.2719
 Charge=             -0.0000 electrons
 Dipole moment (field-independent basis, Debye):
    X=              1.3600    Y=              1.0393    Z=             -0.0000  Tot=              1.7116
 Quadrupole moment (field-independent basis, Debye-Ang):
   XX=            -12.0817   YY=            -13.8438   ZZ=            -14.2136
   XY=             -2.1196   XZ=             -0.0000   YZ=             -0.0000
 Traceless Quadrupole moment (field-independent basis, Debye-Ang):
   XX=              1.2980   YY=             -0.4641   ZZ=             -0.8339
   XY=             -2.1196   XZ=             -0.0000   YZ=             -0.0000
 Octapole moment (field-independent basis, Debye-Ang**2):
[...]
 085520,0.00082999,-0.00103310,-0.01029347,-0.01872004,0.01077943,0.010
 06222,0.01775959,-0.00940751,0.00059872,-0.00155721,0.00217495,-0.0010
 3310,0.00305118,0.02617884,0.01077943,-0.04189599,-0.02559072,-0.01088
 490,0.04116232,-0.00043263,-0.00267684,-0.00287733,0.00145388,0.000921
 85,0.00266214,-0.00182013,0.01376598,0.02099375,-0.00063898,0.00316442
 ,0.00508011,0.00107593,-0.00025399,0.00147591,-0.00247587,0.00056900,0
 .00046317,0.00083969,0.01097087,0.01694169,0.02730645,0.00031098,0.000
 32790,0.00018264,-0.01405496,-0.01739604,0.00207113,0.00009153,-0.0073
 8344,-0.00066916,0.00060129,-0.00166690,0.02230709,0.02677640,0.034732
 01,0.00074252,0.00008267,-0.00050784,-0.02345417,-0.02649064,-0.023816
 51,-0.00043262,0.00391971,-0.00028356,0.00145388,-0.00248816,0.0013213
 2,-0.00182012,-0.02437819,0.00599540,-0.00063897,-0.00577703,0.0015643
 2,0.00036192,0.00245810,-0.00099741,0.00107591,-0.00122468,-0.00382298
 ,0.00578791,0.00003915,0.00019364,0.00089103,-0.02322616,0.05216538,-0
 .01108946,-0.00073343,0.00007251,0.00035722,-0.00112045,-0.00181263,-0
 .00106126,0.02626557,-0.04679592,0.00168946,0.00322051,-0.00208456,-0.
 00087750,0.00112943,-0.00139738,0.00886076,-0.01055941,-0.00049174,0.0
 0033186,0.00045718,-0.00025246,-0.00240450,0.00063772,-0.00135732,-0.0
 0760007,0.00511457,0.00558346,-0.01830521,0.00283766,-0.00857569,-0.00
 721680,-0.00907493,0.01093556,0.00260994,0.00062216,-0.00158228,-0.003
 76831,0.00001736,-0.00066210,-0.00156292,-0.00028849,0.00096402,-0.000
 04415,-0.00156292,0.00269820,0.00073368,0.00098116,-0.00114550,0.01241
 565,-0.00522477,0.01328772,0.00073947,0.00059934,-0.00152425,-0.104445
 90,0.00132360,0.02377483,0.00802026,0.00025544,0.00018053,0.00034345,0
 .03551269,-0.31190272,-0.00336625,0.00802025,0.00653115,-0.00064965,0.
 00034345,-0.00055789,-0.09031639,-0.10368951,-0.08896832,0.00081392,0.
 00016880,-0.00042930,0.00056498,-0.00000753,0.00001916,0.08331679,-0.0
 0372448,0.00947230,-0.08265905,0.00028324,-0.00147758,-0.00054391,-0.0
 0000264,-0.00019164,-0.00008106,-0.00314996,-0.00570124,0.00027598,0.0
 0405909,0.01307073,-0.00072033,-0.00054391,-0.00030816,0.00000671,-0.0
 0008106,-0.00001736,0.00801115,0.00027597,-0.00629458,-0.01032328,0.00
 218322,0.00837675,0.00123287,-0.00178892,-0.00304688,-0.00007304,0.000
 01725,0.00047761,0.00398695,0.03394740,0.06233816,-0.00101832,0.004777
 39,0.00362526,-0.00233913,0.00039564,-0.00030161,-0.01462477,-0.000000
 03,-0.00021600,0.00015068,0.03527465,0.06303966,0.14333817,-0.00121217
 ,-0.00159975,-0.00362338,-0.03594103,-0.06796412,0.00670654,0.00439569
 ,-0.01615648,0.00086106,0.00032047,-0.00041813,0.05459407,0.13185043,0
 .12842951,0.00025142,-0.00089918,-0.00212870,-0.06230488,-0.13684198,-
 0.10303386,0.00123286,0.00338507,-0.00101247,-0.00007304,-0.00033793,0
 .00033795,0.00398704,-0.06731466,0.02252182,-0.00101832,-0.00596712,-0
 .00059950,-0.00178933,0.00148294,-0.00010822,-0.00233922,-0.00485750,-
 0.01275785,0.01778626,-0.00058644,-0.00007481,0.00016869,-0.06301196,0
 .23060893,-0.04828833,0.00071629,-0.00410051,0.00178916,-0.00101209,0.
 00704182,0.00117457,0.06875171,-0.22071758,0.00464100,-0.00123418,-0.0
 0370026,0.00063048,-0.00000110,-0.00055932,0.01594769,-0.03680059,-0.0
 3913986,0.00100970,-0.00093505,0.00037205,-0.00108927,0.01160127,-0.00
 669234,-0.02113959,0.02736965,0.04971973,-0.79314426,0.05926489,0.0376
 1095,-0.15072474,-0.02604254,0.09360274,0.75287868,-0.03346929,0.08512
 077,-0.72392263,-0.05628581,-0.06796143,0.02491163,0.04334310,0.071164
 62,0.14314825,0.02491165,-0.12152180,-0.11023203,-0.03045943,0.1366528
 7,0.04628970,-0.02192413,0.05575795,-0.02590566,0.01238368,-0.03149447
 ,-0.09881927,-0.00012853,0.02699214,-0.00470891,-0.00993469,-0.0012120
 6,0.00580880,0.02394790,-0.11049289,0.00032691,-0.00470894,0.03711645,
 0.02526608,0.00580883,-0.01370114,-0.06090484,-0.02092181,-0.06551071,
 -0.00433403,-0.00617469,0.01570359,-0.00274852,0.00093866,-0.00238721,
 0.07865069,-0.00100610,0.00255881,-0.07105933,0.00028900,0.00229926,0.
 00606233,-0.00039073,-0.00018756,-0.00249304,-0.00456613,-0.00144582,0
 .00101475,0.00611353,0.00116268,-0.00073501,0.00606232,-0.01073485,0.0
 0099371,-0.00249304,0.00517253,0.01161277,0.00101475,-0.00362755,-0.01
 554815,-0.00456040,0.01096760,-0.00084504,0.00022581,-0.00329281,-0.00
 015093,-0.00025551,0.00045690,-0.00010775,0.01510582,0.02484809,-0.000
 25441,0.00227790,0.00301824,0.00371834,-0.00085100,-0.00012071,-0.0025
 3077,0.00016861,-0.00028691,0.00170635,0.01214054,0.02203852,0.0326474
 5,0.00072609,-0.00040091,-0.00037132,-0.01541886,-0.02032845,0.0042749
 2,0.00370635,0.00141899,-0.00059675,-0.00079635,-0.00391611,0.01922278
 ,0.03139792,0.04390230,0.00009670,-0.00075607,-0.00140224,-0.02236163,
 -0.03239480,-0.03933141,-0.00084504,0.00207740,-0.00256477,-0.00015093
 ,-0.00012411,0.00050856,-0.00010770,-0.02798440,0.00790495,-0.00025441
 ,-0.00372357,0.00065845,-0.00236020,0.00323461,-0.00063602,0.00371828,
 -0.00228856,0.00117981,0.00230828,0.00028300,-0.00151667,0.00052566,-0
 .02198186,0.06412012,-0.01384028,-0.00059750,-0.00142765,0.00034768,-0
 .00193516,-0.00090154,-0.00115705,0.02652007,-0.06145407,0.00370967,-0
 .00392884,0.00011847,-0.00055178,0.00302836,-0.00268635,0.00580581,-0.
 01259076,0.00182065,-0.00042374,0.00073243,-0.00037549,-0.00266879,0.0
 0094309,-0.00067153,-0.00587117,0.01181571,0.00179425,-0.00800550,0.00
 398932,-0.00937000,-0.01014571,-0.01034186,0.01286517,0.00242115,0.001
 51494,-0.00385284,-0.00370236,0.00071111,0.00013508,-0.00085347,-0.000
 62106,0.00005667,-0.00180852,-0.00085347,0.00197005,0.00157949,-0.0001
 3792,0.00035321,0.02187406,-0.00522905,0.01329863,0.00330864,0.0007669
 2,-0.00195046,-0.30349057,-0.00625607,0.01821417,0.01038654,-0.0007877
 2,-0.00012680,0.00224959,0.03934559,-0.24687200,0.01591057,0.01038654,
 -0.00411708,0.00200336,0.00224959,-0.00496346,-0.10006463,-0.07839646,
 -0.07831818,-0.01133639,-0.00404999,0.01030001,-0.00133284,-0.00013469
 ,0.00034254,0.28290161,-0.00369923,0.00940832,-0.26085819,0.00286167,0
 .00001927,0.00091460,0.00021203,-0.00029334,-0.00132206,-0.00118704,-0
 .01346958,0.01309444,0.00468958,0.01569419,-0.00727787,0.00091459,-0.0
 0194712,-0.00053923,-0.00132207,0.00254913,0.00301929,0.01309444,-0.04
 162287,-0.01192698,-0.01227901,0.04209428,-0.00247666,-0.00223035,-0.0
 0641914,-0.00034730,0.00040536,0.00121986,-0.00229690,0.01456770,0.047
 72248,-0.00468710,0.00171301,0.01032885,0.00860091,0.00002978,-0.00184
 382,-0.00816970,-0.00016670,0.00004652,0.00024275,0.01862607,0.0466734
 7,0.10469648,-0.00275716,0.00164132,-0.00155812,-0.01590354,-0.0440009
 0,0.00192924,0.00235465,-0.00704095,0.00040162,-0.00003341,0.00011320,
 0.05679709,0.10804627,0.13896446,-0.00577408,-0.00447554,-0.00315329,-
 0.05104378,-0.10115919,-0.12506067,-0.00247666,0.00600513,-0.00318095,
 -0.00034730,-0.00112765,0.00061708,-0.00229684,-0.04317027,0.02501989,
 -0.00468710,-0.00828924,0.00639594,0.00120705,0.00017154,-0.00231009,0
 .00860085,-0.00133581,-0.00715470,0.00806389,-0.00015149,0.00018185,-0
 .00017889,-0.05232250,0.19558074,-0.05203059,0.00595148,-0.00359186,0.
 00115017,0.00144781,-0.00251660,-0.00473277,0.04641050,-0.18249945,0.0
 0139229,-0.00246045,-0.00173007,0.00040760,0.00009727,-0.00002213,0.02
 890007,-0.05538037,-0.00994286,-0.00234982,0.00406758,0.00207987,-0.00
 180827,0.00594778,-0.00382274,-0.02654188,0.04772819,0.01343793,-0.016
 23692,-0.00394868,-0.00151353,0.01004235,0.00206298,-0.00594895,0.0030
 0614,0.00141055,-0.00358734,-0.00340608,-0.00003892,-0.00017261,-0.000
 27307,-0.00049523,-0.00018143,0.00009898,-0.00027307,0.00041450,0.0012
 5947,0.00003069,-0.00024740,0.02215007,0.00012617,-0.00032086,0.002349
 16,0.00135694,-0.00345099,-0.37982406,-0.00066754,0.00614010,-0.001245
 13,-0.00107436,0.00040657,0.00081636,0.03232047,-0.15829377,0.00169772
 ,-0.00124513,0.00881714,0.00273233,0.00081636,-0.00134862,-0.08219836,
 -0.02989589,-0.09401712,-0.01038009,0.00021095,-0.00053651,-0.00210843
 ,-0.00075461,0.00191915,0.36466677,-0.02188850,0.05566777,-0.33785213,
 0.00352772,-0.00236266,-0.00141082,-0.00015039,0.00014550,-0.00059835,
 -0.01510412,-0.03849020,-0.01367017,0.01207031,0.04241031,-0.00897180,
 -0.00141083,0.00067064,0.00038249,-0.00059835,0.00143197,0.03841359,-0
 .01367018,-0.00909900,-0.03069790,0.01375450,0.01283782,0.00073040,-0.
 00053215,-0.00344078,0.00007961,0.00032417,0.00022757,-0.00467099,-0.0
 0345196,0.01140140,-0.00716306,0.01800427,0.00758366,0.01584108,-0.000
 23670,0.00033299,-0.00368960,0.00036249,-0.00031218,0.00008379,0.01988
 260,0.05661997,0.06795520,-0.00825711,0.00011904,-0.00254508,-0.013437
 79,-0.05562442,-0.00174835,0.00159154,-0.00335530,-0.00031177,0.000398
 89,0.00008794,0.03527250,0.05881259,0.08632249,-0.01846011,0.00238332,
 -0.00389122,-0.01427021,-0.06310698,-0.07671344,0.00073040,0.00273315,
 -0.00215686,0.00007961,-0.00039235,-0.00005417,-0.00467095,-0.00523811
 ,0.01069914,-0.00716306,-0.01834778,-0.00671004,-0.00481703,0.00168652
 ,-0.00048205,0.01584103,0.00136412,-0.00242428,0.00455564,-0.00005306,
 0.00011414,-0.00005941,-0.03858206,0.13361733,-0.02396038,0.01861896,-
 0.00182199,0.00446994,-0.00090653,-0.00113539,-0.00007936,0.01955857,-
 0.12834981,-0.00111891,-0.00072550,-0.00059802,-0.00047517,-0.00037451
 ,-0.00033838,0.01228413,-0.01481776,0.00932511,-0.00789239,-0.00045848
 ,-0.00195021,-0.00150164,0.00130268,-0.00245047,-0.00129602,0.01507358
 ,-0.00398803,-0.01743259,0.00331726,-0.00818107,-0.00843654,0.00233744
 ,-0.01320662,0.01872968,-0.00064875,0.00164994,-0.01774368,-0.00171743
 ,0.00059651,0.00040929,0.00092946,-0.00046573,0.00436782,0.00040929,-0
 .00028348,-0.00236384,-0.00075967,0.00116758,0.00177113,-0.00346721,0.
 00881785,-0.00036557,0.00079060,-0.00201066,-0.09799462,-0.00095044,0.
 02277642,0.00406793,-0.00026578,-0.00041825,0.00042775,0.02918278,-0.3
 4574044,0.00241714,0.00406793,0.01403029,0.00067594,0.00042775,-0.0013
 3793,-0.07421799,-0.08675267,-0.15922060,-0.00034584,-0.00160825,0.004
 09013,-0.00033774,0.00029146,-0.00074126,0.05460057,0.00056562,-0.0014
 3844,-0.05287939,0.00015466,0.00190017,-0.00018849,0.00017036,-0.00067
 832,-0.00043589,0.00190492,0.01540502,0.00853271,0.00122398,-0.0017711
 4,-0.00039333,-0.00018849,0.00230542,-0.00043326,-0.00043589,0.0002588
 6,-0.00484460,0.00853271,-0.00294048,-0.00311291,-0.00106793,0.0005249
 3,-0.00136119,-0.00011303,-0.00357833,-0.00014134,-0.00078107,0.000124
 67,0.02099417,0.06953002,0.06923042,-0.00051880,0.00057255,0.00529623,
 -0.01872841,0.00129156,-0.00421064,-0.01258839,-0.00038478,0.00034225,
 0.00034451,0.04939840,0.06568411,0.11673268,-0.00642136,-0.00786349,-0
 .00456716,-0.05724582,-0.04507008,0.00168838,-0.00335889,-0.00575816,0
 .00012075,0.00031640,0.00023813,0.06113683,0.14684826,0.16303895,-0.00
 183070,-0.00133664,0.00036125,-0.06431468,-0.11682367,-0.15839729,-0.0
 0136119,0.00251998,-0.00254303,-0.00014134,0.00048698,0.00062327,0.020
 99431,-0.09806220,0.00333292,-0.00051880,-0.00402647,0.00348788,-0.000
 24443,0.01336201,0.00319942,-0.01872854,-0.00209561,-0.01288136,0.0059
 6222,0.00019949,0.00062354,0.00001401,-0.07780949,0.24229315,-0.043008
 40,0.00594856,-0.00699224,-0.00227323,-0.01196264,-0.00888215,-0.02564
 546,0.08571970,-0.21416094,0.00035654,-0.00326727,0.00291255,0.0003504
 8,0.00004212,-0.00004316,0.01111856,-0.07312397,-0.01357023,0.00303318
 ,-0.00550375,-0.00050998,-0.00675830,0.01690203,0.00051712,-0.00810046
 ,0.06495085,0.01069371,0.00117391,-0.00140443,-0.00217889,0.00357176,0
 .00496127,-0.01284570,-0.00045827,0.00086788,-0.00220721,0.00116851,-0
 .00029742,0.00113293,-0.00039570,-0.00007004,-0.00114970,0.00075641,-0
 .00039570,0.00198369,0.00017812,0.00047946,-0.00218056,-0.00032413,0.0
 0317423,-0.00807276,0.00045786,-0.00005539,0.00014088,0.07682895,-0.00
 077256,0.00115635,-0.00507521,-0.00091755,-0.00045397,0.00082769,-0.17
 724816,1.34623152,0.00196479,-0.00507521,0.01206813,0.00233353,0.00082
 770,-0.00223353,0.45077972,0.44984983,0.37904601,0.00274607,0.00102120
 ,-0.00259713,0.00015961,0.00032334,-0.00082232,-0.34721202,0.02233536,
 -0.05680426,0.34183830,-0.00069190,-0.00137201,0.00012856,-0.00000396,
 -0.00008033,-0.00005397,0.01653284,0.05680417,-0.00180863,-0.02118211,
 -0.06784424,0.00175966,0.00012856,-0.00164842,0.00001006,-0.00005397,0
 .00003571,-0.04204714,-0.00180862,0.06069268,0.05387129,-0.00182394,-0
 .06392265,-0.00156878,0.00121767,0.00585079,-0.00066385,0.00034125,-0.
 00001193,0.13512495,-0.24337650,-0.32562103,0.00123402,-0.01112958,-0.
 01222397,-0.14011394,0.00027493,-0.00160959,0.00903408,-0.00024422,0.0
 0017174,0.00000430,-0.24090807,-0.27328159,-0.67386391,0.00647881,0.00
 370501,0.00601000,0.24597931,0.27130565,-0.00454070,-0.00383609,0.0024
 6155,-0.00027759,-0.00063864,0.00130114,-0.32610923,-0.69140211,-0.653
 37439,0.00621476,0.00301156,0.00496252,0.32249364,0.68124477,0.6333209
 1,-0.00156878,-0.00487655,0.00345454,-0.00066385,-0.00024173,-0.000241
 16,0.13512438,0.39997941,-0.07265275,0.00123401,0.01647471,-0.00136990
 ,0.00598761,-0.01158076,0.00221913,-0.14011337,0.00289137,0.00287121,-
 0.00865299,0.00036789,0.00037933,-0.00086179,0.39850457,-1.13045648,0.
 23007021,-0.00897660,0.00878738,-0.00245203,0.00696786,-0.00029123,0.0
 1162052,-0.39975509,1.11870980,-0.00351191,0.00421717,-0.00201925,-0.0
 0003691,-0.00021885,0.00109355,-0.07469148,0.24760842,0.20380110,0.000
 13766,0.00054642,-0.00011984,0.00951250,-0.02242924,0.01132826,0.06859
 014,-0.22972391,-0.21408383,0.00275813,-0.00613403,0.00279773,0.015600
 20,0.01407614,-0.02746626,0.00021530,0.00111094,-0.00282536,0.00142618
 ,-0.00016525,-0.00136900,-0.00075169,0.00003695,0.00054653,0.00042026,
 -0.00075169,0.00024714,-0.00009396,0.00092245,-0.00143675,-0.00831084,
 0.00893717,-0.02272921,-0.00061917,-0.00074905,0.00190500,-0.37041812,
 0.00465568,-0.00463972,-0.01709235,-0.00176016,-0.00074102,0.00003556,
 -0.20972208,1.65567014,-0.01184042,-0.01709235,0.03210916,0.00447648,0
 .00003557,-0.00081748,0.53336720,0.49566517,0.58998085,0.00064919,-0.0
 0033879,0.00086161,0.00009248,0.00014200,-0.00036113,0.00635710,0.0051
 8782,-0.01319375,0.00076152,0.00044801,-0.00013170,0.00000609,0.000080
 08,0.00154699,0.00034366,-0.00253172,-0.01480149,-0.00095746,-0.000860
 36,-0.00142847,-0.00113938,0.00000609,-0.00014480,-0.00020365,0.000343
 66,0.00080810,0.00643876,-0.00095745,-0.01274294,0.00218809,-0.0009120
 1,0.00053239,0.00234412,0.00035958,0.00539067,-0.00055739,0.00049042,-
 0.00088682,0.18649589,-0.30668535,-0.41663605,-0.00393015,-0.00119796,
 -0.00467601,-0.17789796,-0.00438233,-0.00162228,0.01297701,0.00009716,
 -0.00053615,0.00057161,-0.29900485,-0.25033803,-0.84670677,0.00385698,
 0.00579970,0.00102628,0.30144291,0.23974300,-0.00347852,-0.00213383,0.
 00092104,-0.00074318,0.00004888,0.00114390,-0.41717932,-0.85087914,-0.
 87167108,0.00758125,0.00394988,0.00738127,0.41986703,0.83363647,0.8701
 8486,0.00234412,-0.00393488,0.00370209,-0.00055739,0.00024493,-0.00098
 335,0.18649514,0.50832409,-0.09617346,-0.00393014,0.00406196,-0.002607
 80,-0.00645450,-0.00200988,-0.00604725,-0.17789721,0.00557792,0.004964
 98,-0.00921520,0.00043504,0.00055266,-0.00112160,0.50307052,-1.3851498
 8,0.36905585,-0.00798765,0.00901497,0.00049343,0.00559038,0.00695377,0
 .01537773,-0.50668621,1.36366349,0.00043787,0.00589564,-0.00566627,-0.
 00061033,-0.00059887,0.00005509,-0.10180243,0.37322822,0.26314149,0.00
 292392,-0.00243016,0.00416599,-0.00305881,-0.00150461,-0.00795998,0.10
 210977,-0.37459021,-0.25373632,-0.00475497,-0.00267402,-0.00423016,0.0
 0680061,0.00773714,-0.02086517,-0.00310651,0.00060736,-0.00154467,0.00
 217512,-0.00132576,0.00602548,-0.00034219,-0.00019229,-0.00502219,0.00
 337170,-0.00034219,0.00676119,0.00048905,0.00001949,-0.00506408,-0.004
 11410,0.00049671,-0.00126323,0.00136933,-0.00044587,0.00113395,2.76849
 835,0.01190685,-0.00204064,-0.00999626,0.00002569,-0.00236586,-0.00128
 772,-0.12538873,-0.34599664,-0.03028176,-0.00999628,0.01945150,-0.0000
 6533,-0.00128772,0.00040276,0.31889495,0.07627914,-0.50999789,0.012237
 85,0.00346009,-0.00879977,-0.00026996,0.00159008,-0.00404393,-2.826662
 29,0.09974268,-0.25367176,2.79258640,-0.00708862,-0.00124051,0.0034107
 9,-0.00022737,0.00032111,0.00096526,0.10188816,0.60135102,0.01285633,-
 0.09834121,-0.58983327,0.01802795,0.00341080,-0.00857378,0.00057826,0.
 00096526,-0.00175422,-0.25912819,0.01285632,0.57370932,0.25010748,-0.0
 1455406,-0.55854142,-0.00013113,-0.00024899,0.00267722,-0.00008399,-0.
 00164650,-0.00119629,0.03045439,-0.02114153,-0.02844698,0.01105400,-0.
 00480958,-0.00742489,-0.04679424,-0.00075561,0.00043195,0.00074939,-0.
 00036513,0.00052618,0.00047093,-0.03667466,-0.05319054,-0.11600980,0.0
 0735382,-0.00293327,-0.00292055,0.02899451,0.05347147,0.00090456,-0.00
 089027,0.00192410,0.00016973,0.00016253,-0.00017827,-0.04884949,-0.117
 25251,-0.11406628,0.01236393,-0.00484451,-0.00478585,0.03528151,0.1206
 3134,0.11462959,-0.00013113,-0.00164115,0.00212982,-0.00008399,0.00202
 034,0.00024552,0.03045432,0.03485504,-0.00642911,0.01105400,0.00857863
 ,-0.00216061,0.00550098,0.00144706,0.00012976,-0.04679418,-0.00006284,
 0.00105389,-0.00155887,0.00015174,0.00051529,0.00017424,0.06012439,-0.
 19775735,0.03815833,-0.01380547,-0.00766508,0.00024223,-0.00114791,0.0
 0169421,0.00219341,-0.04525992,0.20215903,0.00117695,0.00008079,0.0013
 0215,0.00037296,0.00048263,-0.00016738,-0.01078800,0.03940103,0.030500
 58,0.00404405,0.00216619,-0.00005405,-0.00089058,-0.00292130,0.0024767
 0,0.00608462,-0.03920934,-0.03405800,6.87667887,-0.22546447,-1.4472837
 2,0.57341589,-0.02351846,-1.39671784,-6.86838420,0.20850057,-0.5302729
 2,6.85330780,0.21978563,1.45350979,0.03950637,-0.20782623,-1.45827334,
 -0.55897332,0.03950636,1.36856958,0.52855791,-0.04643481,-1.35843685,-
 0.00293058,0.01829670,-0.04653254,0.01175070,-0.01360757,0.03460707,-0
 .01261967,0.00430135,-0.00778310,-0.01456060,-0.00256655,0.00688835,0.
 00909832,-0.00247500,-0.00016527,-0.01093927,-0.01456059,0.02352243,0.
 00652733,0.00909832,-0.01267319,0.00629446,0.00407471,-0.00892597,-0.0
 0223893,0.00001047,-0.00002665,0.00204310,0.00002851,-0.00007249,-0.00
 151839,0.00014160,-0.00036018,0.00149038,0.00005168,0.00010191,-0.0028
 4383,0.00190247,-0.00107019,0.00085870,-0.00205058,0.00376232,0.001396
 55,-0.00003233,-0.00287376,-0.00013143,-0.00284383,0.00621621,-0.00483
 839,0.00085870,-0.00291643,0.00521505,0.00139656,0.00075970,0.00008226
 ,0.00054426,-0.00404394,-0.00156258,0.00047517,0.00215903,0.00064131,-
 0.00114177,-0.00282696,0.00265899,0.00016212,-0.00081510,0.00011192,0.
 00069332,0.00008355,-0.00181326,0.00171404,0.00119105,0.00156375,-0.00
 126932,-0.00114786,-0.00239349,-0.00026774,-0.00094398,-0.00021003,0.0
 0001095,-0.00021690,0.00015949,-0.00018725,0.00111819,-0.00127263,-0.0
 0114373,-0.00125865,-0.00048405,0.00069911,0.00334899,0.00013486,-0.00
 067440,-0.00174865,0.00022198,0.00043687,0.00024900,0.00139675,0.00075
 487,-0.00053356,-0.00156257,-0.00181844,0.00125719,0.00064130,0.002761
 44,-0.00129221,0.00265895,0.00043649,-0.00070723,0.00011192,-0.0005645
 5,-0.00041104,-0.00003637,-0.00000069,0.00000308,-0.00181322,-0.000388
 23,0.00026409,-0.00014725,0.00125907,0.00009325,-0.00063508,0.00010420
 ,-0.00175833,0.00020103,-0.00015920,0.00029663,-0.00011518,-0.00000159
 ,-0.00000050,-0.00007272,-0.00081424,0.00110487,-0.00209924,0.00256024
 ,-0.00033172,0.00051012,-0.00372769,0.00210789,0.00028109,0.00066541,-
 0.00093433,0.00015508,-0.00039257,-0.00026454,0.00000273,0.00012541,-0
 .00005714,0.00115021,0.00076920,-0.00052017\\@


 WE DON'T KNOW ONE MILLIONTH OF ONE PERCENT ABOUT
 ANYTHING.
                                     T. A. EDISON.
 Job cpu time:       0 days  3 hours 18 minutes 38.5 seconds.
 Elapsed time:       0 days  0 hours  7 minutes 25.2 seconds.
 File lengths (MBytes):  RWF=    344 Int=      0 D2E=      0 Chk=     44 Scr=      8
 Normal termination of Gaussian 16 at Thu Aug  6 19:48:28 2020.
