 Entering Gaussian System, Link 0=g16
 Input=nch_mp2_avtz_opt_anharm.gjf
 Output=nch_mp2_avtz_opt_anharm.log
 Initial command:
 /sw/contrib/gaussian/g16/A03/g16/l1.exe "/gscratch/scrubbed/gds001/Gau-19417.inp" -scrdir="/gscratch/scrubbed/gds001/"
 Entering Link 1 = /sw/contrib/gaussian/g16/A03/g16/l1.exe PID=     19422.
  
 Copyright (c) 1988,1990,1992,1993,1995,1998,2003,2009,2016,
            Gaussian, Inc.  All Rights Reserved.
  
 This is part of the Gaussian(R) 16 program.  It is based on
 the Gaussian(R) 09 system (copyright 2009, Gaussian, Inc.),
 the Gaussian(R) 03 system (copyright 2003, Gaussian, Inc.),
 the Gaussian(R) 98 system (copyright 1998, Gaussian, Inc.),
 the Gaussian(R) 94 system (copyright 1995, Gaussian, Inc.),
 the Gaussian 92(TM) system (copyright 1992, Gaussian, Inc.),
 the Gaussian 90(TM) system (copyright 1990, Gaussian, Inc.),
 the Gaussian 88(TM) system (copyright 1988, Gaussian, Inc.),
 the Gaussian 86(TM) system (copyright 1986, Carnegie Mellon
 University), and the Gaussian 82(TM) system (copyright 1983,
 Carnegie Mellon University). Gaussian is a federally registered
 trademark of Gaussian, Inc.
  
 This software contains proprietary and confidential information,
 including trade secrets, belonging to Gaussian, Inc.
  
 This software is provided under written license and may be
 used, copied, transmitted, or stored only in accord with that
 written license.
  
 The following legend is applicable only to US Government
 contracts under FAR:
  
                    RESTRICTED RIGHTS LEGEND
  
 Use, reproduction and disclosure by the US Government is
 subject to restrictions as set forth in subparagraphs (a)
 and (c) of the Commercial Computer Software - Restricted
 Rights clause in FAR 52.227-19.
  
 Gaussian, Inc.
 340 Quinnipiac St., Bldg. 40, Wallingford CT 06492
  
  
 ---------------------------------------------------------------
 Warning -- This program may not be used in any manner that
 competes with the business of Gaussian, Inc. or will provide
 assistance to any competitor of Gaussian, Inc.  The licensee
 of this program is prohibited from giving any competitor of
 Gaussian, Inc. access to this program.  By using this program,
 the user acknowledges that Gaussian, Inc. is engaged in the
 business of creating and licensing software in the field of
 computational chemistry and represents and warrants to the
 licensee that it is not a competitor of Gaussian, Inc. and that
 it will not use this program in any manner prohibited above.
 ---------------------------------------------------------------
  

 Cite this work as:
 Gaussian 16, Revision A.03,
 M. J. Frisch, G. W. Trucks, H. B. Schlegel, G. E. Scuseria, 
 M. A. Robb, J. R. Cheeseman, G. Scalmani, V. Barone, 
 G. A. Petersson, H. Nakatsuji, X. Li, M. Caricato, A. V. Marenich, 
 J. Bloino, B. G. Janesko, R. Gomperts, B. Mennucci, H. P. Hratchian, 
 J. V. Ortiz, A. F. Izmaylov, J. L. Sonnenberg, D. Williams-Young, 
 F. Ding, F. Lipparini, F. Egidi, J. Goings, B. Peng, A. Petrone, 
 T. Henderson, D. Ranasinghe, V. G. Zakrzewski, J. Gao, N. Rega, 
 G. Zheng, W. Liang, M. Hada, M. Ehara, K. Toyota, R. Fukuda, 
 J. Hasegawa, M. Ishida, T. Nakajima, Y. Honda, O. Kitao, H. Nakai, 
 T. Vreven, K. Throssell, J. A. Montgomery, Jr., J. E. Peralta, 
 F. Ogliaro, M. J. Bearpark, J. J. Heyd, E. N. Brothers, K. N. Kudin, 
 V. N. Staroverov, T. A. Keith, R. Kobayashi, J. Normand, 
 K. Raghavachari, A. P. Rendell, J. C. Burant, S. S. Iyengar, 
 J. Tomasi, M. Cossi, J. M. Millam, M. Klene, C. Adamo, R. Cammi, 
 J. W. Ochterski, R. L. Martin, K. Morokuma, O. Farkas, 
 J. B. Foresman, and D. J. Fox, Gaussian, Inc., Wallingford CT, 2016.
 
 ******************************************
 Gaussian 16:  ES64L-G16RevA.03 25-Dec-2016
                20-Dec-2021 
 ******************************************
 %nprocshared=28
 Will use up to   28 processors via shared memory.
 %mem=41GB
 ----------------------------------------------
 # MP2/aug-cc-pVTZ opt freq=(vibrot,anharmonic)
 ----------------------------------------------
 1/18=20,19=15,38=1,80=1/1,3;
 2/9=110,12=2,17=6,18=5,40=1/2;
 3/5=16,6=1,7=10,11=9,25=1,30=1,71=1/1,2,3;
 4//1;
 5/5=2,38=5/2;
 8/6=4,10=1/1;
 9/15=2,16=-3/6;
 10/5=1/2;
 6/7=2,8=2,9=2,10=2/1;
 7/12=2/1,2,3,16;
 1/18=20,19=15,80=1/3(2);
 2/9=110/2;
 99//99;
 2/9=110/2;
 3/5=16,6=1,7=10,11=9,25=1,30=1,71=1/1,2,3;
 4/5=5,16=3,69=1/1;
 5/5=2,38=5/2;
 8/6=4,10=1/1;
 9/15=2,16=-3/6;
 10/5=1/2;
 7/12=2/1,2,3,16;
 1/18=20,19=15,80=1/3(-8);
 2/9=110/2;
 6/7=2,8=2,9=2,10=2/1;
 99//99;
 ----
 bleh
 ----
 Symbolic Z-matrix:
 Charge =  0 Multiplicity = 1
 N
 C                    1    R1
 X                    2     1.       1     90. 
 H                    2    R2       3     90.      1     180.     0
       Variables:
  R1                    1.5                      
  R2                    1.                       
 

 GradGradGradGradGradGradGradGradGradGradGradGradGradGradGradGradGradGrad
 Berny optimization.
 Initialization pass.
                           ----------------------------
                           !    Initial Parameters    !
                           ! (Angstroms and Degrees)  !
 --------------------------                            --------------------------
 ! Name  Definition              Value          Derivative Info.                !
 --------------------------------------------------------------------------------
 ! R1    R(1,2)                  1.5            estimate D2E/DX2                !
 ! R2    R(2,3)                  1.0            estimate D2E/DX2                !
 ! A1    L(1,2,3,-1,-1)        180.0            estimate D2E/DX2                !
 ! A2    L(1,2,3,-2,-2)        180.0            estimate D2E/DX2                !
 --------------------------------------------------------------------------------
 Trust Radius=3.00D-01 FncErr=1.00D-07 GrdErr=1.00D-07 EigMax=2.50D+02 EigMin=1.00D-04
 Number of steps in this run=     20 maximum allowed number of steps=    100.
 GradGradGradGradGradGradGradGradGradGradGradGradGradGradGradGradGradGrad

                          Input orientation:                          
 ---------------------------------------------------------------------
 Center     Atomic      Atomic             Coordinates (Angstroms)
 Number     Number       Type             X           Y           Z
 ---------------------------------------------------------------------
      1          7           0        0.000000    0.000000    0.000000
      2          6           0        0.000000    0.000000    1.500000
      3          1           0        0.000000    0.000000    2.500000
 ---------------------------------------------------------------------
                    Distance matrix (angstroms):
                    1          2          3
     1  N    0.000000
     2  C    1.500000   0.000000
     3  H    2.500000   1.000000   0.000000
 Stoichiometry    CHN
 Framework group  C*V[C*(HCN)]
 Deg. of freedom     2
 Full point group                 C*V     NOp   4
 Largest Abelian subgroup         C2V     NOp   4
 Largest concise Abelian subgroup C1      NOp   1
                         Standard orientation:                         
 ---------------------------------------------------------------------
 Center     Atomic      Atomic             Coordinates (Angstroms)
 Number     Number       Type             X           Y           Z
 ---------------------------------------------------------------------
      1          7           0        0.000000    0.000000    0.821429
      2          6           0        0.000000    0.000000   -0.678571
      3          1           0        0.000000    0.000000   -1.678571
 ---------------------------------------------------------------------
 Rotational constants (GHZ):           0.0000000          28.5352946          28.5352946
 Standard basis: Aug-CC-pVTZ (5D, 7F)
 There are    61 symmetry adapted cartesian basis functions of A1  symmetry.
 There are    12 symmetry adapted cartesian basis functions of A2  symmetry.
 There are    31 symmetry adapted cartesian basis functions of B1  symmetry.
 There are    31 symmetry adapted cartesian basis functions of B2  symmetry.
 There are    49 symmetry adapted basis functions of A1  symmetry.
 There are    12 symmetry adapted basis functions of A2  symmetry.
 There are    27 symmetry adapted basis functions of B1  symmetry.
 There are    27 symmetry adapted basis functions of B2  symmetry.
   115 basis functions,   171 primitive gaussians,   135 cartesian basis functions
     7 alpha electrons        7 beta electrons
       nuclear repulsion energy        19.4737213619 Hartrees.
 NAtoms=    3 NActive=    3 NUniq=    3 SFac= 1.00D+00 NAtFMM=   60 NAOKFM=F Big=F
 Integral buffers will be    131072 words long.
 Raffenetti 1 integral format.
 Two-electron integral symmetry is turned on.
 One-electron integrals computed using PRISM.
 NBasis=   115 RedAO= T EigKep=  1.02D-04  NBF=    49    12    27    27
 NBsUse=   115 1.00D-06 EigRej= -1.00D+00 NBFU=    49    12    27    27
 ExpMin= 2.53D-02 ExpMax= 1.14D+04 ExpMxC= 3.89D+02 IAcc=3 IRadAn=         5 AccDes= 0.00D+00
 Harris functional with IExCor=  205 and IRadAn=       5 diagonalized for initial guess.
 HarFok:  IExCor=  205 AccDes= 0.00D+00 IRadAn=         5 IDoV= 1 UseB2=F ITyADJ=14
 ICtDFT=  3500011 ScaDFX=  1.000000  1.000000  1.000000  1.000000
 FoFCou: FMM=F IPFlag=           0 FMFlag=      100000 FMFlg1=           0
         NFxFlg=           0 DoJE=T BraDBF=F KetDBF=T FulRan=T
         wScrn=  0.000000 ICntrl=       500 IOpCl=  0 I1Cent=   200000004 NGrid=           0
         NMat0=    1 NMatS0=      1 NMatT0=    0 NMatD0=    1 NMtDS0=    0 NMtDT0=    0
 Petite list used in FoFCou.
 Initial guess orbital symmetries:
       Occupied  (SG) (SG) (SG) (SG) (SG) (PI) (PI)
       Virtual   (PI) (PI) (SG) (SG) (PI) (PI) (SG) (SG) (SG) (PI)
                 (PI) (SG) (DLTA) (DLTA) (PI) (PI) (SG) (SG) (PI)
                 (PI) (SG) (DLTA) (DLTA) (PI) (PI) (PI) (PI) (SG)
                 (SG) (SG) (PI) (PI) (DLTA) (DLTA) (SG) (SG) (PI)
                 (PI) (PHI) (PHI) (DLTA) (DLTA) (SG) (PI) (PI)
                 (DLTA) (DLTA) (PI) (PI) (SG) (PHI) (PHI) (PI)
                 (PI) (SG) (DLTA) (DLTA) (SG) (PI) (PI) (SG) (DLTA)
                 (DLTA) (SG) (PI) (PI) (SG) (PI) (PI) (SG) (SG)
                 (PI) (PI) (DLTA) (DLTA) (PI) (PI) (DLTA) (DLTA)
                 (PHI) (PHI) (SG) (PI) (PI) (SG) (DLTA) (DLTA)
                 (SG) (PI) (PI) (PHI) (PHI) (DLTA) (DLTA) (PI)
                 (PI) (DLTA) (DLTA) (SG) (PI) (PI) (SG) (SG) (PI)
                 (PI) (SG) (SG) (SG)
 The electronic state of the initial guess is 1-SG.
 Keep R1 ints in memory in symmetry-blocked form, NReq=35952813.
 Requested convergence on RMS density matrix=1.00D-08 within 128 cycles.
 Requested convergence on MAX density matrix=1.00D-06.
 Requested convergence on             energy=1.00D-06.
 No special actions if energy rises.
 SCF Done:  E(RHF) =  -92.7130516490     A.U. after   11 cycles
            NFock= 11  Conv=0.13D-08     -V/T= 2.0107
 ExpMin= 2.53D-02 ExpMax= 1.14D+04 ExpMxC= 3.89D+02 IAcc=3 IRadAn=         5 AccDes= 0.00D+00
 HarFok:  IExCor=  205 AccDes= 0.00D+00 IRadAn=         5 IDoV=-2 UseB2=F ITyADJ=14
 ICtDFT= 12500011 ScaDFX=  1.000000  1.000000  1.000000  1.000000
 Range of M.O.s used for correlation:     3   115
 NBasis=   115 NAE=     7 NBE=     7 NFC=     2 NFV=     0
 NROrb=    113 NOA=     5 NOB=     5 NVA=   108 NVB=   108

 **** Warning!!: The largest alpha MO coefficient is  0.37118349D+02

 Fully direct method using O(ONN) memory.
 JobTyp=1 Pass  1:  I=   3 to   7 NPSUse= 28 ParTrn=T ParDer=T DoDerP=T.
 Spin components of T(2) and E(2):
     alpha-alpha T2 =       0.3095889959D-01 E2=     -0.5670682147D-01
     alpha-beta  T2 =       0.1649640429D+00 E2=     -0.3278617320D+00
     beta-beta   T2 =       0.3095889959D-01 E2=     -0.5670682147D-01
 ANorm=    0.1107646984D+01
 E2 =    -0.4412753749D+00 EUMP2 =    -0.93154327023983D+02
          IDoAtm=111
          Differentiating once with respect to electric field.
                with respect to dipole field.
          Differentiating once with respect to nuclear coordinates.
 Keep R1 ints in memory in symmetry-blocked form, NReq=35954169.
          There are     1 degrees of freedom in the 1st order CPHF.  IDoFFX=0 NUNeed=     1.
 LinEq1:  Iter=  0 NonCon=     1 RMS=1.20D-02 Max=1.13D-01 NDo=     1
 AX will form     1 AO Fock derivatives at one time.
 LinEq1:  Iter=  1 NonCon=     1 RMS=3.51D-03 Max=3.35D-02 NDo=     1
 LinEq1:  Iter=  2 NonCon=     1 RMS=3.08D-03 Max=3.81D-02 NDo=     1
 LinEq1:  Iter=  3 NonCon=     1 RMS=1.11D-03 Max=1.48D-02 NDo=     1
 LinEq1:  Iter=  4 NonCon=     1 RMS=3.50D-04 Max=3.56D-03 NDo=     1
 LinEq1:  Iter=  5 NonCon=     1 RMS=5.25D-05 Max=3.01D-04 NDo=     1
 LinEq1:  Iter=  6 NonCon=     1 RMS=5.45D-06 Max=3.61D-05 NDo=     1
 LinEq1:  Iter=  7 NonCon=     1 RMS=5.72D-07 Max=4.25D-06 NDo=     1
 LinEq1:  Iter=  8 NonCon=     1 RMS=6.72D-08 Max=4.51D-07 NDo=     1
 LinEq1:  Iter=  9 NonCon=     1 RMS=7.07D-09 Max=4.40D-08 NDo=     1
 LinEq1:  Iter= 10 NonCon=     1 RMS=5.93D-10 Max=4.06D-09 NDo=     1
 LinEq1:  Iter= 11 NonCon=     0 RMS=4.54D-11 Max=4.03D-10 NDo=     1
 Linear equations converged to 1.000D-10 1.000D-09 after    11 iterations.
 End of Minotr F.D. properties file   721 does not exist.
 End of Minotr F.D. properties file   722 does not exist.
 End of Minotr F.D. properties file   788 does not exist.

 **********************************************************************

            Population analysis using the SCF density.

 **********************************************************************

 Orbital symmetries:
       Occupied  (SG) (SG) (SG) (SG) (SG) (PI) (PI)
       Virtual   (SG) (PI) (PI) (SG) (PI) (PI) (SG) (SG) (PI) (PI)
                 (SG) (SG) (PI) (PI) (DLTA) (DLTA) (SG) (SG) (PI)
                 (PI) (SG) (DLTA) (DLTA) (PI) (PI) (SG) (PI) (PI)
                 (SG) (SG) (PI) (PI) (DLTA) (DLTA) (SG) (SG) (PHI)
                 (PHI) (PI) (PI) (DLTA) (DLTA) (SG) (PI) (PI) (DLTA)
                 (DLTA) (PI) (PI) (SG) (PHI) (PHI) (PI) (PI) (SG)
                 (DLTA) (DLTA) (SG) (PI) (PI) (SG) (DLTA) (DLTA)
                 (SG) (PI) (PI) (SG) (PI) (PI) (SG) (SG) (PI) (PI)
                 (DLTA) (DLTA) (PHI) (PHI) (DLTA) (DLTA) (PI) (PI)
                 (SG) (PI) (PI) (SG) (DLTA) (DLTA) (PI) (PI) (SG)
                 (PHI) (PHI) (DLTA) (DLTA) (PI) (PI) (DLTA) (DLTA)
                 (SG) (PI) (PI) (SG) (SG) (PI) (PI) (SG) (SG) (SG)
 The electronic state is 1-SG.
 Alpha  occ. eigenvalues --  -15.69617 -11.39248  -1.10130  -0.88738  -0.57851
 Alpha  occ. eigenvalues --   -0.41999  -0.41999
 Alpha virt. eigenvalues --    0.02149   0.04101   0.04101   0.06867   0.09779
 Alpha virt. eigenvalues --    0.09779   0.12520   0.14659   0.16845   0.16845
 Alpha virt. eigenvalues --    0.20177   0.25784   0.28917   0.28917   0.29303
 Alpha virt. eigenvalues --    0.29303   0.37236   0.37684   0.44453   0.44453
 Alpha virt. eigenvalues --    0.47363   0.54341   0.54341   0.56578   0.56578
 Alpha virt. eigenvalues --    0.59355   0.62700   0.62700   0.73524   0.80686
 Alpha virt. eigenvalues --    0.86846   0.86846   0.87488   0.87488   0.89437
 Alpha virt. eigenvalues --    1.02599   1.06958   1.06958   1.07874   1.07874
 Alpha virt. eigenvalues --    1.08608   1.08608   1.14116   1.19505   1.19505
 Alpha virt. eigenvalues --    1.36592   1.36592   1.45196   1.45196   1.45287
 Alpha virt. eigenvalues --    1.59671   1.59671   1.64400   1.64400   1.69173
 Alpha virt. eigenvalues --    1.69303   1.69303   1.91192   1.94106   1.94106
 Alpha virt. eigenvalues --    2.02959   2.06462   2.06462   2.24440   2.37542
 Alpha virt. eigenvalues --    2.37542   2.62015   2.93406   2.93406   2.98376
 Alpha virt. eigenvalues --    3.28899   3.30574   3.30574   3.36022   3.36022
 Alpha virt. eigenvalues --    3.42250   3.42250   3.42323   3.42323   3.50102
 Alpha virt. eigenvalues --    3.50102   3.78626   3.94163   3.94163   4.05020
 Alpha virt. eigenvalues --    4.21220   4.21220   4.73445   4.73445   4.83298
 Alpha virt. eigenvalues --    4.91546   4.91546   5.08289   5.08289   5.11101
 Alpha virt. eigenvalues --    5.11101   5.17417   5.17417   5.26977   5.50891
 Alpha virt. eigenvalues --    5.50891   5.67022   6.02422   6.13944   6.13944
 Alpha virt. eigenvalues --    6.84468  10.32249  14.82418
          Condensed to atoms (all electrons):
               1          2          3
     1  N    6.675219   0.623847  -0.010372
     2  C    0.623847   5.699550   0.125100
     3  H   -0.010372   0.125100   0.148079
 Mulliken charges:
               1
     1  N   -0.288694
     2  C   -0.448498
     3  H    0.737192
 Sum of Mulliken charges =   0.00000
 Mulliken charges with hydrogens summed into heavy atoms:
               1
     1  N   -0.288694
     2  C    0.288694
 Electronic spatial extent (au):  <R**2>=             63.2001
 Charge=              0.0000 electrons
 Dipole moment (field-independent basis, Debye):
    X=              0.0000    Y=              0.0000    Z=             -3.4381  Tot=              3.4381
 Quadrupole moment (field-independent basis, Debye-Ang):
   XX=            -13.2917   YY=            -13.2917   ZZ=             -8.9327
   XY=              0.0000   XZ=              0.0000   YZ=              0.0000
 Traceless Quadrupole moment (field-independent basis, Debye-Ang):
   XX=             -1.4530   YY=             -1.4530   ZZ=              2.9060
   XY=              0.0000   XZ=              0.0000   YZ=              0.0000
 Octapole moment (field-independent basis, Debye-Ang**2):
  XXX=              0.0000  YYY=              0.0000  ZZZ=             -8.7086  XYY=              0.0000
  XXY=              0.0000  XXZ=             -0.6217  XZZ=              0.0000  YZZ=              0.0000
  YYZ=             -0.6217  XYZ=              0.0000
 Hexadecapole moment (field-independent basis, Debye-Ang**3):
 XXXX=            -16.2343 YYYY=            -16.2343 ZZZZ=            -48.1745 XXXY=              0.0000
 XXXZ=              0.0000 YYYX=              0.0000 YYYZ=              0.0000 ZZZX=              0.0000
 ZZZY=              0.0000 XXYY=             -5.4114 XXZZ=            -12.5753 YYZZ=            -12.5753
 XXYZ=              0.0000 YYXZ=              0.0000 ZZXY=              0.0000
 N-N= 1.947372136186D+01 E-N=-2.551146100031D+02  KE= 9.173269721802D+01
 Symmetry A1   KE= 8.670998738244D+01
 Symmetry A2   KE=-2.288759758167D-51
 Symmetry B1   KE= 2.511354917790D+00
 Symmetry B2   KE= 2.511354917790D+00
 Calling FoFJK, ICntrl=  10002127 FMM=F ISym2X=1 I1Cent= 0 IOpClX= 0 NMat=1 NMatS=1 NMatT=0.
 ***** Axes restored to original set *****
 -------------------------------------------------------------------
 Center     Atomic                   Forces (Hartrees/Bohr)
 Number     Number              X              Y              Z
 -------------------------------------------------------------------
      1        7          -0.000000000   -0.000000000    0.209436339
      2        6          -0.000000000   -0.000000000   -0.279076796
      3        1          -0.000000000   -0.000000000    0.069640457
 -------------------------------------------------------------------
 Cartesian Forces:  Max     0.279076796 RMS     0.118601682

 GradGradGradGradGradGradGradGradGradGradGradGradGradGradGradGradGradGrad
 Berny optimization.
 FormGI is forming the generalized inverse of G from B-inverse, IUseBI=4.
 Internal  Forces:  Max     0.209436339 RMS     0.110355532
 Search for a local minimum.
 Step number   1 out of a maximum of   20
 All quantities printed in internal units (Hartrees-Bohrs-Radians)
 Mixed Optimization -- RFO/linear search
 Second derivative matrix not updated -- first step.
 The second derivative matrix:
                          R1        R2        A1        A2
           R1           0.32377
           R2           0.00000   0.47688
           A1           0.00000   0.00000   0.01425
           A2           0.00000   0.00000   0.00000   0.01425
 ITU=  0
     Eigenvalues ---    0.01425   0.01425   0.32377   0.47688
 RFO step:  Lambda=-1.09506720D-01 EMin= 1.42535758D-02
 Linear search not attempted -- first point.
 Maximum step size (   0.300) exceeded in Quadratic search.
    -- Step size scaled by   0.603
 Iteration  1 RMS(Cart)=  0.07165631 RMS(Int)=  0.04566782
 Iteration  2 RMS(Cart)=  0.03728762 RMS(Int)=  0.00000000
 Iteration  3 RMS(Cart)=  0.00000000 RMS(Int)=  0.00000000
 ClnCor:  largest displacement from symmetrization is 1.07D-14 for atom     2.
 Variable       Old X    -DE/DX   Delta X   Delta X   Delta X     New X
                                 (Linear)    (Quad)   (Total)
    R1        2.83459  -0.20944   0.00000  -0.29134  -0.29134   2.54325
    R2        1.88973   0.06964   0.00000   0.07158   0.07158   1.96131
    A1        3.14159  -0.00000   0.00000   0.00000   0.00000   3.14159
    A2        3.14159  -0.00000   0.00000  -0.00000   0.00000   3.14159
         Item               Value     Threshold  Converged?
 Maximum Force            0.209436     0.000450     NO 
 RMS     Force            0.110356     0.000300     NO 
 Maximum Displacement     0.170364     0.001800     NO 
 RMS     Displacement     0.107352     0.001200     NO 
 Predicted change in Energy=-5.103903D-02
 GradGradGradGradGradGradGradGradGradGradGradGradGradGradGradGradGradGrad

                          Input orientation:                          
 ---------------------------------------------------------------------
 Center     Atomic      Atomic             Coordinates (Angstroms)
 Number     Number       Type             X           Y           Z
 ---------------------------------------------------------------------
      1          7           0        0.000000    0.000000    0.090153
      2          6           0        0.000000    0.000000    1.435985
      3          1           0        0.000000    0.000000    2.473863
 ---------------------------------------------------------------------
                    Distance matrix (angstroms):
                    1          2          3
     1  N    0.000000
     2  C    1.345832   0.000000
     3  H    2.383710   1.037878   0.000000
 Stoichiometry    CHN
 Framework group  C*V[C*(HCN)]
 Deg. of freedom     2
 Full point group                 C*V     NOp   4
 Largest Abelian subgroup         C2V     NOp   4
 Largest concise Abelian subgroup C1      NOp   1
                         Standard orientation:                         
 ---------------------------------------------------------------------
 Center     Atomic      Atomic             Coordinates (Angstroms)
 Number     Number       Type             X           Y           Z
 ---------------------------------------------------------------------
      1          7           0        0.000000    0.000000    0.747050
      2          6           0        0.000000    0.000000   -0.598782
      3          1           0        0.000000    0.000000   -1.636660
 ---------------------------------------------------------------------
 Rotational constants (GHZ):           0.0000000          34.3349604          34.3349604
 Standard basis: Aug-CC-pVTZ (5D, 7F)
 There are    61 symmetry adapted cartesian basis functions of A1  symmetry.
 There are    12 symmetry adapted cartesian basis functions of A2  symmetry.
 There are    31 symmetry adapted cartesian basis functions of B1  symmetry.
 There are    31 symmetry adapted cartesian basis functions of B2  symmetry.
 There are    49 symmetry adapted basis functions of A1  symmetry.
 There are    12 symmetry adapted basis functions of A2  symmetry.
 There are    27 symmetry adapted basis functions of B1  symmetry.
 There are    27 symmetry adapted basis functions of B2  symmetry.
   115 basis functions,   171 primitive gaussians,   135 cartesian basis functions
     7 alpha electrons        7 beta electrons
       nuclear repulsion energy        21.1274484725 Hartrees.
 NAtoms=    3 NActive=    3 NUniq=    3 SFac= 1.00D+00 NAtFMM=   60 NAOKFM=F Big=F
 Integral buffers will be    131072 words long.
 Raffenetti 1 integral format.
 Two-electron integral symmetry is turned on.
 One-electron integrals computed using PRISM.
 NBasis=   115 RedAO= T EigKep=  9.79D-05  NBF=    49    12    27    27
 NBsUse=   115 1.00D-06 EigRej= -1.00D+00 NBFU=    49    12    27    27
 Initial guess from the checkpoint file:  "/gscratch/scrubbed/gds001/Gau-19422.chk"
 B after Tr=     0.000000    0.000000   -0.000000
         Rot=    1.000000    0.000000    0.000000    0.000000 Ang=   0.00 deg.
 Initial guess orbital symmetries:
       Occupied  (SG) (SG) (SG) (SG) (SG) (PI) (PI)
       Virtual   (SG) (PI) (PI) (SG) (PI) (PI) (SG) (SG) (PI) (PI)
                 (SG) (SG) (PI) (PI) (DLTA) (DLTA) (SG) (SG) (PI)
                 (PI) (SG) (DLTA) (DLTA) (PI) (PI) (SG) (PI) (PI)
                 (SG) (SG) (PI) (PI) (DLTA) (DLTA) (SG) (SG) (PHI)
                 (PHI) (PI) (PI) (DLTA) (DLTA) (SG) (PI) (PI) (DLTA)
                 (DLTA) (PI) (PI) (SG) (PHI) (PHI) (PI) (PI) (SG)
                 (DLTA) (DLTA) (SG) (PI) (PI) (SG) (DLTA) (DLTA)
                 (SG) (PI) (PI) (SG) (PI) (PI) (SG) (SG) (PI) (PI)
                 (DLTA) (DLTA) (PHI) (PHI) (DLTA) (DLTA) (PI) (PI)
                 (SG) (PI) (PI) (SG) (DLTA) (DLTA) (PI) (PI) (SG)
                 (PHI) (PHI) (DLTA) (DLTA) (PI) (PI) (DLTA) (DLTA)
                 (SG) (PI) (PI) (SG) (SG) (PI) (PI) (SG) (SG) (SG)
 ExpMin= 2.53D-02 ExpMax= 1.14D+04 ExpMxC= 3.89D+02 IAcc=3 IRadAn=         5 AccDes= 0.00D+00
 Harris functional with IExCor=  205 and IRadAn=       5 diagonalized for initial guess.
 HarFok:  IExCor=  205 AccDes= 0.00D+00 IRadAn=         5 IDoV= 1 UseB2=F ITyADJ=14
 ICtDFT=  3500011 ScaDFX=  1.000000  1.000000  1.000000  1.000000
 FoFCou: FMM=F IPFlag=           0 FMFlag=      100000 FMFlg1=           0
         NFxFlg=           0 DoJE=T BraDBF=F KetDBF=T FulRan=T
         wScrn=  0.000000 ICntrl=       500 IOpCl=  0 I1Cent=   200000004 NGrid=           0
         NMat0=    1 NMatS0=      1 NMatT0=    0 NMatD0=    1 NMtDS0=    0 NMtDT0=    0
 Petite list used in FoFCou.
 Keep R1 ints in memory in symmetry-blocked form, NReq=35953605.
 Requested convergence on RMS density matrix=1.00D-08 within 128 cycles.
 Requested convergence on MAX density matrix=1.00D-06.
 Requested convergence on             energy=1.00D-06.
 No special actions if energy rises.
 SCF Done:  E(RHF) =  -92.8223571192     A.U. after   11 cycles
            NFock= 11  Conv=0.19D-08     -V/T= 2.0094
 ExpMin= 2.53D-02 ExpMax= 1.14D+04 ExpMxC= 3.89D+02 IAcc=3 IRadAn=         5 AccDes= 0.00D+00
 HarFok:  IExCor=  205 AccDes= 0.00D+00 IRadAn=         5 IDoV=-2 UseB2=F ITyADJ=14
 ICtDFT= 12500011 ScaDFX=  1.000000  1.000000  1.000000  1.000000
 Range of M.O.s used for correlation:     3   115
 NBasis=   115 NAE=     7 NBE=     7 NFC=     2 NFV=     0
 NROrb=    113 NOA=     5 NOB=     5 NVA=   108 NVB=   108

 **** Warning!!: The largest alpha MO coefficient is  0.29407485D+02

 Fully direct method using O(ONN) memory.
 JobTyp=1 Pass  1:  I=   3 to   7 NPSUse= 28 ParTrn=T ParDer=T DoDerP=T.
 Spin components of T(2) and E(2):
     alpha-alpha T2 =       0.2259729866D-01 E2=     -0.4965411024D-01
     alpha-beta  T2 =       0.1252587595D+00 E2=     -0.2964994374D+00
     beta-beta   T2 =       0.2259729866D-01 E2=     -0.4965411024D-01
 ANorm=    0.1081874927D+01
 E2 =    -0.3958076579D+00 EUMP2 =    -0.93218164777104D+02
          IDoAtm=111
          Differentiating once with respect to electric field.
                with respect to dipole field.
          Differentiating once with respect to nuclear coordinates.
 Keep R1 ints in memory in symmetry-blocked form, NReq=35954609.
          There are     1 degrees of freedom in the 1st order CPHF.  IDoFFX=0 NUNeed=     1.
 LinEq1:  Iter=  0 NonCon=     1 RMS=8.46D-03 Max=7.82D-02 NDo=     1
 AX will form     1 AO Fock derivatives at one time.
 LinEq1:  Iter=  1 NonCon=     1 RMS=2.12D-03 Max=1.56D-02 NDo=     1
 LinEq1:  Iter=  2 NonCon=     1 RMS=8.18D-04 Max=6.85D-03 NDo=     1
 LinEq1:  Iter=  3 NonCon=     1 RMS=4.77D-04 Max=5.34D-03 NDo=     1
 LinEq1:  Iter=  4 NonCon=     1 RMS=8.10D-05 Max=7.37D-04 NDo=     1
 LinEq1:  Iter=  5 NonCon=     1 RMS=1.54D-05 Max=1.64D-04 NDo=     1
 LinEq1:  Iter=  6 NonCon=     1 RMS=2.27D-06 Max=1.36D-05 NDo=     1
 LinEq1:  Iter=  7 NonCon=     1 RMS=2.78D-07 Max=2.47D-06 NDo=     1
 LinEq1:  Iter=  8 NonCon=     1 RMS=2.86D-08 Max=1.78D-07 NDo=     1
 LinEq1:  Iter=  9 NonCon=     1 RMS=2.65D-09 Max=1.79D-08 NDo=     1
 LinEq1:  Iter= 10 NonCon=     1 RMS=2.19D-10 Max=2.21D-09 NDo=     1
 LinEq1:  Iter= 11 NonCon=     0 RMS=2.05D-11 Max=1.64D-10 NDo=     1
 Linear equations converged to 1.000D-10 1.000D-09 after    11 iterations.
 End of Minotr F.D. properties file   721 does not exist.
 End of Minotr F.D. properties file   722 does not exist.
 End of Minotr F.D. properties file   788 does not exist.
 Calling FoFJK, ICntrl=  10002127 FMM=F ISym2X=1 I1Cent= 0 IOpClX= 0 NMat=1 NMatS=1 NMatT=0.
 ***** Axes restored to original set *****
 -------------------------------------------------------------------
 Center     Atomic                   Forces (Hartrees/Bohr)
 Number     Number              X              Y              Z
 -------------------------------------------------------------------
      1        7          -0.000000000   -0.000000000    0.193462927
      2        6          -0.000000000   -0.000000000   -0.221146090
      3        1          -0.000000000   -0.000000000    0.027683163
 -------------------------------------------------------------------
 Cartesian Forces:  Max     0.221146090 RMS     0.098375615

 GradGradGradGradGradGradGradGradGradGradGradGradGradGradGradGradGradGrad
 Berny optimization.
 Using GEDIIS/GDIIS optimizer.
 Internal  Forces:  Max     0.193462927 RMS     0.097716761
 Search for a local minimum.
 Step number   2 out of a maximum of   20
 All quantities printed in internal units (Hartrees-Bohrs-Radians)
 Mixed Optimization -- RFO/linear search
 Update second derivatives using D2CorX and points    1    2
 DE= -6.38D-02 DEPred=-5.10D-02 R= 1.25D+00
 TightC=F SS=  1.41D+00  RLast= 3.00D-01 DXNew= 5.0454D-01 9.0000D-01
 Trust test= 1.25D+00 RLast= 3.00D-01 DXMaxT set to 5.05D-01
 The second derivative matrix:
                          R1        R2        A1        A2
           R1           0.05976
           R2           0.02007   0.66786
           A1           0.00000   0.00000   0.01425
           A2           0.00000   0.00000   0.00000   0.01425
 ITU=  1  0
 Use linear search instead of GDIIS.
     Eigenvalues ---    0.01425   0.01425   0.05910   0.66852
 RFO step:  Lambda=-8.19975895D-03 EMin= 1.42535758D-02
 Quartic linear search produced a step of  1.19123.
 Iteration  1 RMS(Cart)=  0.08160319 RMS(Int)=  0.17203787
 Iteration  2 RMS(Cart)=  0.08164966 RMS(Int)=  0.07203787
 Iteration  3 RMS(Cart)=  0.05881867 RMS(Int)=  0.00000000
 Iteration  4 RMS(Cart)=  0.00000000 RMS(Int)=  0.00000000
 ClnCor:  largest displacement from symmetrization is 2.96D-14 for atom     2.
 Variable       Old X    -DE/DX   Delta X   Delta X   Delta X     New X
                                 (Linear)    (Quad)   (Total)
    R1        2.54325  -0.19346  -0.34705  -0.19703  -0.54408   1.99918
    R2        1.96131   0.02768   0.08527  -0.08504   0.00023   1.96153
    A1        3.14159  -0.00000   0.00000   0.00000   0.00000   3.14159
    A2        3.14159  -0.00000   0.00000  -0.00000   0.00000   3.14159
         Item               Value     Threshold  Converged?
 Maximum Force            0.193463     0.000450     NO 
 RMS     Force            0.097717     0.000300     NO 
 Maximum Displacement     0.362641     0.001800     NO 
 RMS     Displacement     0.222071     0.001200     NO 
 Predicted change in Energy=-9.642232D-02
 GradGradGradGradGradGradGradGradGradGradGradGradGradGradGradGradGradGrad

                          Input orientation:                          
 ---------------------------------------------------------------------
 Center     Atomic      Atomic             Coordinates (Angstroms)
 Number     Number       Type             X           Y           Z
 ---------------------------------------------------------------------
      1          7           0        0.000000    0.000000    0.282054
      2          6           0        0.000000    0.000000    1.339974
      3          1           0        0.000000    0.000000    2.377972
 ---------------------------------------------------------------------
                    Distance matrix (angstroms):
                    1          2          3
     1  N    0.000000
     2  C    1.057919   0.000000
     3  H    2.095918   1.037998   0.000000
 Stoichiometry    CHN
 Framework group  C*V[C*(HCN)]
 Deg. of freedom     2
 Full point group                 C*V     NOp   4
 Largest Abelian subgroup         C2V     NOp   4
 Largest concise Abelian subgroup C1      NOp   1
                         Standard orientation:                         
 ---------------------------------------------------------------------
 Center     Atomic      Atomic             Coordinates (Angstroms)
 Number     Number       Type             X           Y           Z
 ---------------------------------------------------------------------
      1          7           0        0.000000    0.000000    0.603102
      2          6           0        0.000000    0.000000   -0.454817
      3          1           0        0.000000    0.000000   -1.492815
 ---------------------------------------------------------------------
 Rotational constants (GHZ):           0.0000000          51.8859518          51.8859518
 Standard basis: Aug-CC-pVTZ (5D, 7F)
 There are    61 symmetry adapted cartesian basis functions of A1  symmetry.
 There are    12 symmetry adapted cartesian basis functions of A2  symmetry.
 There are    31 symmetry adapted cartesian basis functions of B1  symmetry.
 There are    31 symmetry adapted cartesian basis functions of B2  symmetry.
 There are    49 symmetry adapted basis functions of A1  symmetry.
 There are    12 symmetry adapted basis functions of A2  symmetry.
 There are    27 symmetry adapted basis functions of B1  symmetry.
 There are    27 symmetry adapted basis functions of B2  symmetry.
   115 basis functions,   171 primitive gaussians,   135 cartesian basis functions
     7 alpha electrons        7 beta electrons
       nuclear repulsion energy        25.8348283779 Hartrees.
 NAtoms=    3 NActive=    3 NUniq=    3 SFac= 1.00D+00 NAtFMM=   60 NAOKFM=F Big=F
 Integral buffers will be    131072 words long.
 Raffenetti 1 integral format.
 Two-electron integral symmetry is turned on.
 One-electron integrals computed using PRISM.
 NBasis=   115 RedAO= T EigKep=  7.10D-05  NBF=    49    12    27    27
 NBsUse=   115 1.00D-06 EigRej= -1.00D+00 NBFU=    49    12    27    27
 Initial guess from the checkpoint file:  "/gscratch/scrubbed/gds001/Gau-19422.chk"
 B after Tr=     0.000000    0.000000    0.000000
         Rot=    1.000000    0.000000    0.000000    0.000000 Ang=   0.00 deg.
 Initial guess orbital symmetries:
       Occupied  (SG) (SG) (SG) (SG) (SG) (PI) (PI)
       Virtual   (SG) (PI) (PI) (SG) (PI) (PI) (SG) (SG) (PI) (PI)
                 (SG) (SG) (PI) (PI) (DLTA) (DLTA) (SG) (SG) (PI)
                 (PI) (SG) (DLTA) (DLTA) (PI) (PI) (SG) (PI) (PI)
                 (SG) (SG) (PI) (PI) (DLTA) (DLTA) (SG) (SG) (PHI)
                 (PHI) (PI) (PI) (DLTA) (DLTA) (SG) (PI) (PI) (DLTA)
                 (DLTA) (SG) (PI) (PI) (PHI) (PHI) (PI) (PI) (DLTA)
                 (DLTA) (SG) (SG) (PI) (PI) (SG) (DLTA) (DLTA)
                 (SG) (PI) (PI) (SG) (PI) (PI) (SG) (PI) (PI) (DLTA)
                 (DLTA) (DLTA) (DLTA) (PHI) (PHI) (SG) (PI) (PI)
                 (SG) (PI) (PI) (DLTA) (DLTA) (SG) (PI) (PI) (SG)
                 (PHI) (PHI) (DLTA) (DLTA) (PI) (PI) (SG) (DLTA)
                 (DLTA) (PI) (PI) (SG) (SG) (PI) (PI) (SG) (SG)
                 (SG)
 ExpMin= 2.53D-02 ExpMax= 1.14D+04 ExpMxC= 3.89D+02 IAcc=3 IRadAn=         5 AccDes= 0.00D+00
 Harris functional with IExCor=  205 and IRadAn=       5 diagonalized for initial guess.
 HarFok:  IExCor=  205 AccDes= 0.00D+00 IRadAn=         5 IDoV= 1 UseB2=F ITyADJ=14
 ICtDFT=  3500011 ScaDFX=  1.000000  1.000000  1.000000  1.000000
 FoFCou: FMM=F IPFlag=           0 FMFlag=      100000 FMFlg1=           0
         NFxFlg=           0 DoJE=T BraDBF=F KetDBF=T FulRan=T
         wScrn=  0.000000 ICntrl=       500 IOpCl=  0 I1Cent=   200000004 NGrid=           0
         NMat0=    1 NMatS0=      1 NMatT0=    0 NMatD0=    1 NMtDS0=    0 NMtDT0=    0
 Petite list used in FoFCou.
 Keep R1 ints in memory in symmetry-blocked form, NReq=35954617.
 Requested convergence on RMS density matrix=1.00D-08 within 128 cycles.
 Requested convergence on MAX density matrix=1.00D-06.
 Requested convergence on             energy=1.00D-06.
 No special actions if energy rises.
 SCF Done:  E(RHF) =  -92.8970417059     A.U. after   10 cycles
            NFock= 10  Conv=0.58D-08     -V/T= 1.9950
 ExpMin= 2.53D-02 ExpMax= 1.14D+04 ExpMxC= 3.89D+02 IAcc=3 IRadAn=         5 AccDes= 0.00D+00
 HarFok:  IExCor=  205 AccDes= 0.00D+00 IRadAn=         5 IDoV=-2 UseB2=F ITyADJ=14
 ICtDFT= 12500011 ScaDFX=  1.000000  1.000000  1.000000  1.000000
 Range of M.O.s used for correlation:     3   115
 NBasis=   115 NAE=     7 NBE=     7 NFC=     2 NFV=     0
 NROrb=    113 NOA=     5 NOB=     5 NVA=   108 NVB=   108

 **** Warning!!: The largest alpha MO coefficient is  0.48577542D+02

 Fully direct method using O(ONN) memory.
 JobTyp=1 Pass  1:  I=   3 to   7 NPSUse= 28 ParTrn=T ParDer=T DoDerP=T.
 Spin components of T(2) and E(2):
     alpha-alpha T2 =       0.1315892797D-01 E2=     -0.4024604292D-01
     alpha-beta  T2 =       0.7794354047D-01 E2=     -0.2519912859D+00
     beta-beta   T2 =       0.1315892797D-01 E2=     -0.4024604292D-01
 ANorm=    0.1050838425D+01
 E2 =    -0.3324833718D+00 EUMP2 =    -0.93229525077699D+02
          IDoAtm=111
          Differentiating once with respect to electric field.
                with respect to dipole field.
          Differentiating once with respect to nuclear coordinates.
 Keep R1 ints in memory in symmetry-blocked form, NReq=35955753.
          There are     1 degrees of freedom in the 1st order CPHF.  IDoFFX=0 NUNeed=     1.
 LinEq1:  Iter=  0 NonCon=     1 RMS=4.35D-03 Max=3.58D-02 NDo=     1
 AX will form     1 AO Fock derivatives at one time.
 LinEq1:  Iter=  1 NonCon=     1 RMS=1.03D-03 Max=1.01D-02 NDo=     1
 LinEq1:  Iter=  2 NonCon=     1 RMS=2.46D-04 Max=2.55D-03 NDo=     1
 LinEq1:  Iter=  3 NonCon=     1 RMS=5.56D-05 Max=3.33D-04 NDo=     1
 LinEq1:  Iter=  4 NonCon=     1 RMS=2.68D-05 Max=2.08D-04 NDo=     1
 LinEq1:  Iter=  5 NonCon=     1 RMS=3.84D-06 Max=2.85D-05 NDo=     1
 LinEq1:  Iter=  6 NonCon=     1 RMS=3.96D-07 Max=2.60D-06 NDo=     1
 LinEq1:  Iter=  7 NonCon=     1 RMS=4.34D-08 Max=5.07D-07 NDo=     1
 LinEq1:  Iter=  8 NonCon=     1 RMS=4.40D-09 Max=2.65D-08 NDo=     1
 LinEq1:  Iter=  9 NonCon=     1 RMS=3.41D-10 Max=2.16D-09 NDo=     1
 LinEq1:  Iter= 10 NonCon=     0 RMS=2.49D-11 Max=2.21D-10 NDo=     1
 Linear equations converged to 1.000D-10 1.000D-09 after    10 iterations.
 End of Minotr F.D. properties file   721 does not exist.
 End of Minotr F.D. properties file   722 does not exist.
 End of Minotr F.D. properties file   788 does not exist.
 Calling FoFJK, ICntrl=  10002127 FMM=F ISym2X=1 I1Cent= 0 IOpClX= 0 NMat=1 NMatS=1 NMatT=0.
 ***** Axes restored to original set *****
 -------------------------------------------------------------------
 Center     Atomic                   Forces (Hartrees/Bohr)
 Number     Number              X              Y              Z
 -------------------------------------------------------------------
      1        7          -0.000000000   -0.000000000   -0.327523649
      2        6          -0.000000000   -0.000000000    0.308534393
      3        1          -0.000000000   -0.000000000    0.018989256
 -------------------------------------------------------------------
 Cartesian Forces:  Max     0.327523649 RMS     0.150120620

 GradGradGradGradGradGradGradGradGradGradGradGradGradGradGradGradGradGrad
 Berny optimization.
 Using GEDIIS/GDIIS optimizer.
 Internal  Forces:  Max     0.327523649 RMS     0.164036835
 Search for a local minimum.
 Step number   3 out of a maximum of   20
 All quantities printed in internal units (Hartrees-Bohrs-Radians)
 Mixed Optimization -- RFO/linear search
 Update second derivatives using D2CorX and points    2    3
 DE= -1.14D-02 DEPred=-9.64D-02 R= 1.18D-01
 Trust test= 1.18D-01 RLast= 5.44D-01 DXMaxT set to 5.05D-01
 The second derivative matrix:
                          R1        R2        A1        A2
           R1           0.95756
           R2          -0.01570   0.66157
           A1           0.00000   0.00000   0.01425
           A2           0.00000   0.00000   0.00000   0.01425
 ITU=  0  1  0
 Use linear search instead of GDIIS.
     Eigenvalues ---    0.01425   0.01425   0.66074   0.95839
 RFO step:  Lambda=-7.54054334D-04 EMin= 1.42535758D-02
 Quartic linear search produced a step of -0.37955.
 Iteration  1 RMS(Cart)=  0.08931729 RMS(Int)=  0.00353386
 Iteration  2 RMS(Cart)=  0.00288539 RMS(Int)=  0.00000000
 Iteration  3 RMS(Cart)=  0.00000000 RMS(Int)=  0.00000000
 ClnCor:  largest displacement from symmetrization is 6.94D-15 for atom     2.
 Variable       Old X    -DE/DX   Delta X   Delta X   Delta X     New X
                                 (Linear)    (Quad)   (Total)
    R1        1.99918   0.32752   0.20650   0.00056   0.20707   2.20625
    R2        1.96153   0.01899  -0.00009   0.03375   0.03366   1.99519
    A1        3.14159  -0.00000   0.00000  -0.00000   0.00000   3.14159
    A2        3.14159  -0.00000   0.00000  -0.00000   0.00000   3.14159
         Item               Value     Threshold  Converged?
 Maximum Force            0.327524     0.000450     NO 
 RMS     Force            0.164037     0.000300     NO 
 Maximum Displacement     0.149266     0.001800     NO 
 RMS     Displacement     0.092178     0.001200     NO 
 Predicted change in Energy=-4.766484D-02
 GradGradGradGradGradGradGradGradGradGradGradGradGradGradGradGradGradGrad

                          Input orientation:                          
 ---------------------------------------------------------------------
 Center     Atomic      Atomic             Coordinates (Angstroms)
 Number     Number       Type             X           Y           Z
 ---------------------------------------------------------------------
      1          7           0        0.000000    0.000000    0.203066
      2          6           0        0.000000    0.000000    1.370561
      3          1           0        0.000000    0.000000    2.426373
 ---------------------------------------------------------------------
                    Distance matrix (angstroms):
                    1          2          3
     1  N    0.000000
     2  C    1.167495   0.000000
     3  H    2.223306   1.055812   0.000000
 Stoichiometry    CHN
 Framework group  C*V[C*(HCN)]
 Deg. of freedom     2
 Full point group                 C*V     NOp   4
 Largest Abelian subgroup         C2V     NOp   4
 Largest concise Abelian subgroup C1      NOp   1
                         Standard orientation:                         
 ---------------------------------------------------------------------
 Center     Atomic      Atomic             Coordinates (Angstroms)
 Number     Number       Type             X           Y           Z
 ---------------------------------------------------------------------
      1          7           0        0.000000    0.000000    0.659163
      2          6           0        0.000000    0.000000   -0.508332
      3          1           0        0.000000    0.000000   -1.564144
 ---------------------------------------------------------------------
 Rotational constants (GHZ):           0.0000000          43.7126771          43.7126771
 Standard basis: Aug-CC-pVTZ (5D, 7F)
 There are    61 symmetry adapted cartesian basis functions of A1  symmetry.
 There are    12 symmetry adapted cartesian basis functions of A2  symmetry.
 There are    31 symmetry adapted cartesian basis functions of B1  symmetry.
 There are    31 symmetry adapted cartesian basis functions of B2  symmetry.
 There are    49 symmetry adapted basis functions of A1  symmetry.
 There are    12 symmetry adapted basis functions of A2  symmetry.
 There are    27 symmetry adapted basis functions of B1  symmetry.
 There are    27 symmetry adapted basis functions of B2  symmetry.
   115 basis functions,   171 primitive gaussians,   135 cartesian basis functions
     7 alpha electrons        7 beta electrons
       nuclear repulsion energy        23.7101865064 Hartrees.
 NAtoms=    3 NActive=    3 NUniq=    3 SFac= 1.00D+00 NAtFMM=   60 NAOKFM=F Big=F
 Integral buffers will be    131072 words long.
 Raffenetti 1 integral format.
 Two-electron integral symmetry is turned on.
 One-electron integrals computed using PRISM.
 NBasis=   115 RedAO= T EigKep=  8.49D-05  NBF=    49    12    27    27
 NBsUse=   115 1.00D-06 EigRej= -1.00D+00 NBFU=    49    12    27    27
 Initial guess from the checkpoint file:  "/gscratch/scrubbed/gds001/Gau-19422.chk"
 B after Tr=     0.000000    0.000000    0.000000
         Rot=    1.000000    0.000000    0.000000    0.000000 Ang=   0.00 deg.
 Initial guess orbital symmetries:
       Occupied  (SG) (SG) (SG) (SG) (SG) (PI) (PI)
       Virtual   (SG) (SG) (PI) (PI) (SG) (PI) (PI) (SG) (PI) (PI)
                 (SG) (SG) (DLTA) (DLTA) (PI) (PI) (SG) (SG) (PI)
                 (PI) (DLTA) (DLTA) (SG) (PI) (PI) (SG) (PI) (PI)
                 (SG) (SG) (PI) (PI) (DLTA) (DLTA) (SG) (PI) (PI)
                 (PHI) (PHI) (SG) (DLTA) (DLTA) (PI) (PI) (DLTA)
                 (DLTA) (SG) (SG) (PI) (PI) (PI) (PI) (PHI) (PHI)
                 (DLTA) (DLTA) (SG) (SG) (PI) (PI) (SG) (DLTA)
                 (DLTA) (SG) (PI) (PI) (SG) (PI) (PI) (SG) (PI)
                 (PI) (DLTA) (DLTA) (PHI) (PHI) (DLTA) (DLTA) (SG)
                 (PI) (PI) (SG) (DLTA) (DLTA) (PI) (PI) (SG) (SG)
                 (PI) (PI) (PHI) (PHI) (DLTA) (DLTA) (PI) (PI)
                 (SG) (DLTA) (DLTA) (PI) (PI) (SG) (SG) (PI) (PI)
                 (SG) (SG) (SG)
 ExpMin= 2.53D-02 ExpMax= 1.14D+04 ExpMxC= 3.89D+02 IAcc=3 IRadAn=         5 AccDes= 0.00D+00
 Harris functional with IExCor=  205 and IRadAn=       5 diagonalized for initial guess.
 HarFok:  IExCor=  205 AccDes= 0.00D+00 IRadAn=         5 IDoV= 1 UseB2=F ITyADJ=14
 ICtDFT=  3500011 ScaDFX=  1.000000  1.000000  1.000000  1.000000
 FoFCou: FMM=F IPFlag=           0 FMFlag=      100000 FMFlg1=           0
         NFxFlg=           0 DoJE=T BraDBF=F KetDBF=T FulRan=T
         wScrn=  0.000000 ICntrl=       500 IOpCl=  0 I1Cent=   200000004 NGrid=           0
         NMat0=    1 NMatS0=      1 NMatT0=    0 NMatD0=    1 NMtDS0=    0 NMtDT0=    0
 Petite list used in FoFCou.
 Keep R1 ints in memory in symmetry-blocked form, NReq=35954177.
 Requested convergence on RMS density matrix=1.00D-08 within 128 cycles.
 Requested convergence on MAX density matrix=1.00D-06.
 Requested convergence on             energy=1.00D-06.
 No special actions if energy rises.
 SCF Done:  E(RHF) =  -92.9066098687     A.U. after   10 cycles
            NFock= 10  Conv=0.72D-08     -V/T= 2.0030
 ExpMin= 2.53D-02 ExpMax= 1.14D+04 ExpMxC= 3.89D+02 IAcc=3 IRadAn=         5 AccDes= 0.00D+00
 HarFok:  IExCor=  205 AccDes= 0.00D+00 IRadAn=         5 IDoV=-2 UseB2=F ITyADJ=14
 ICtDFT= 12500011 ScaDFX=  1.000000  1.000000  1.000000  1.000000
 Range of M.O.s used for correlation:     3   115
 NBasis=   115 NAE=     7 NBE=     7 NFC=     2 NFV=     0
 NROrb=    113 NOA=     5 NOB=     5 NVA=   108 NVB=   108

 **** Warning!!: The largest alpha MO coefficient is  0.44255808D+02

 Fully direct method using O(ONN) memory.
 JobTyp=1 Pass  1:  I=   3 to   7 NPSUse= 28 ParTrn=T ParDer=T DoDerP=T.
 Spin components of T(2) and E(2):
     alpha-alpha T2 =       0.1596747014D-01 E2=     -0.4320363087D-01
     alpha-beta  T2 =       0.9255388379D-01 E2=     -0.2666752436D+00
     beta-beta   T2 =       0.1596747014D-01 E2=     -0.4320363087D-01
 ANorm=    0.1060419174D+01
 E2 =    -0.3530825053D+00 EUMP2 =    -0.93259692374051D+02
          IDoAtm=111
          Differentiating once with respect to electric field.
                with respect to dipole field.
          Differentiating once with respect to nuclear coordinates.
 Keep R1 ints in memory in symmetry-blocked form, NReq=35955225.
          There are     1 degrees of freedom in the 1st order CPHF.  IDoFFX=0 NUNeed=     1.
 LinEq1:  Iter=  0 NonCon=     1 RMS=5.64D-03 Max=4.89D-02 NDo=     1
 AX will form     1 AO Fock derivatives at one time.
 LinEq1:  Iter=  1 NonCon=     1 RMS=1.37D-03 Max=1.33D-02 NDo=     1
 LinEq1:  Iter=  2 NonCon=     1 RMS=2.81D-04 Max=2.18D-03 NDo=     1
 LinEq1:  Iter=  3 NonCon=     1 RMS=5.70D-05 Max=5.19D-04 NDo=     1
 LinEq1:  Iter=  4 NonCon=     1 RMS=2.51D-05 Max=2.12D-04 NDo=     1
 LinEq1:  Iter=  5 NonCon=     1 RMS=7.15D-06 Max=5.47D-05 NDo=     1
 LinEq1:  Iter=  6 NonCon=     1 RMS=8.33D-07 Max=6.69D-06 NDo=     1
 LinEq1:  Iter=  7 NonCon=     1 RMS=9.99D-08 Max=9.65D-07 NDo=     1
 LinEq1:  Iter=  8 NonCon=     1 RMS=9.09D-09 Max=5.43D-08 NDo=     1
 LinEq1:  Iter=  9 NonCon=     1 RMS=7.06D-10 Max=4.87D-09 NDo=     1
 LinEq1:  Iter= 10 NonCon=     0 RMS=4.41D-11 Max=2.74D-10 NDo=     1
 Linear equations converged to 1.000D-10 1.000D-09 after    10 iterations.
 End of Minotr F.D. properties file   721 does not exist.
 End of Minotr F.D. properties file   722 does not exist.
 End of Minotr F.D. properties file   788 does not exist.
 Calling FoFJK, ICntrl=  10002127 FMM=F ISym2X=1 I1Cent= 0 IOpClX= 0 NMat=1 NMatS=1 NMatT=0.
 ***** Axes restored to original set *****
 -------------------------------------------------------------------
 Center     Atomic                   Forces (Hartrees/Bohr)
 Number     Number              X              Y              Z
 -------------------------------------------------------------------
      1        7          -0.000000000   -0.000000000    0.001200255
      2        6          -0.000000000   -0.000000000   -0.008148481
      3        1          -0.000000000   -0.000000000    0.006948227
 -------------------------------------------------------------------
 Cartesian Forces:  Max     0.008148481 RMS     0.003591908

 GradGradGradGradGradGradGradGradGradGradGradGradGradGradGradGradGradGrad
 Berny optimization.
 Using GEDIIS/GDIIS optimizer.
 Internal  Forces:  Max     0.006948227 RMS     0.003525566
 Search for a local minimum.
 Step number   4 out of a maximum of   20
 All quantities printed in internal units (Hartrees-Bohrs-Radians)
 Mixed Optimization -- RFO/linear search
 Update second derivatives using D2CorX and points    2    3    4
 DE= -3.02D-02 DEPred=-4.77D-02 R= 6.33D-01
 TightC=F SS=  1.41D+00  RLast= 2.10D-01 DXNew= 8.4853D-01 6.2936D-01
 Trust test= 6.33D-01 RLast= 2.10D-01 DXMaxT set to 6.29D-01
 The second derivative matrix:
                          R1        R2        A1        A2
           R1           1.59503
           R2          -0.04619   0.64184
           A1           0.00000   0.00000   0.01425
           A2           0.00000   0.00000   0.00000   0.01425
 ITU=  1  0  1  0
 Use linear search instead of GDIIS.
     Eigenvalues ---    0.01425   0.01425   0.63960   1.59726
 RFO step:  Lambda=-7.54292551D-05 EMin= 1.42535758D-02
 Quartic linear search produced a step of -0.00032.
 Iteration  1 RMS(Cart)=  0.00431066 RMS(Int)=  0.00000000
 Iteration  2 RMS(Cart)=  0.00000000 RMS(Int)=  0.00000000
 ClnCor:  largest displacement from symmetrization is 5.55D-17 for atom     1.
 Variable       Old X    -DE/DX   Delta X   Delta X   Delta X     New X
                                 (Linear)    (Quad)   (Total)
    R1        2.20625  -0.00120  -0.00007  -0.00040  -0.00046   2.20578
    R2        1.99519   0.00695  -0.00001   0.01079   0.01078   2.00598
    A1        3.14159  -0.00000   0.00000   0.00000   0.00000   3.14159
    A2        3.14159  -0.00000   0.00000   0.00000   0.00000   3.14159
         Item               Value     Threshold  Converged?
 Maximum Force            0.006948     0.000450     NO 
 RMS     Force            0.003526     0.000300     NO 
 Maximum Displacement     0.007034     0.001800     NO 
 RMS     Displacement     0.004311     0.001200     NO 
 Predicted change in Energy=-3.776275D-05
 GradGradGradGradGradGradGradGradGradGradGradGradGradGradGradGradGradGrad

                          Input orientation:                          
 ---------------------------------------------------------------------
 Center     Atomic      Atomic             Coordinates (Angstroms)
 Number     Number       Type             X           Y           Z
 ---------------------------------------------------------------------
      1          7           0        0.000000    0.000000    0.201327
      2          6           0        0.000000    0.000000    1.368578
      3          1           0        0.000000    0.000000    2.430095
 ---------------------------------------------------------------------
                    Distance matrix (angstroms):
                    1          2          3
     1  N    0.000000
     2  C    1.167250   0.000000
     3  H    2.228768   1.061517   0.000000
 Stoichiometry    CHN
 Framework group  C*V[C*(HCN)]
 Deg. of freedom     2
 Full point group                 C*V     NOp   4
 Largest Abelian subgroup         C2V     NOp   4
 Largest concise Abelian subgroup C1      NOp   1
                         Standard orientation:                         
 ---------------------------------------------------------------------
 Center     Atomic      Atomic             Coordinates (Angstroms)
 Number     Number       Type             X           Y           Z
 ---------------------------------------------------------------------
      1          7           0        0.000000    0.000000    0.659448
      2          6           0        0.000000    0.000000   -0.507803
      3          1           0        0.000000    0.000000   -1.569320
 ---------------------------------------------------------------------
 Rotational constants (GHZ):           0.0000000          43.6576864          43.6576864
 Standard basis: Aug-CC-pVTZ (5D, 7F)
 There are    61 symmetry adapted cartesian basis functions of A1  symmetry.
 There are    12 symmetry adapted cartesian basis functions of A2  symmetry.
 There are    31 symmetry adapted cartesian basis functions of B1  symmetry.
 There are    31 symmetry adapted cartesian basis functions of B2  symmetry.
 There are    49 symmetry adapted basis functions of A1  symmetry.
 There are    12 symmetry adapted basis functions of A2  symmetry.
 There are    27 symmetry adapted basis functions of B1  symmetry.
 There are    27 symmetry adapted basis functions of B2  symmetry.
   115 basis functions,   171 primitive gaussians,   135 cartesian basis functions
     7 alpha electrons        7 beta electrons
       nuclear repulsion energy        23.6939262861 Hartrees.
 NAtoms=    3 NActive=    3 NUniq=    3 SFac= 1.00D+00 NAtFMM=   60 NAOKFM=F Big=F
 Integral buffers will be    131072 words long.
 Raffenetti 1 integral format.
 Two-electron integral symmetry is turned on.
 One-electron integrals computed using PRISM.
 NBasis=   115 RedAO= T EigKep=  8.62D-05  NBF=    49    12    27    27
 NBsUse=   115 1.00D-06 EigRej= -1.00D+00 NBFU=    49    12    27    27
 Initial guess from the checkpoint file:  "/gscratch/scrubbed/gds001/Gau-19422.chk"
 B after Tr=     0.000000    0.000000   -0.000000
         Rot=    1.000000    0.000000    0.000000    0.000000 Ang=   0.00 deg.
 Initial guess orbital symmetries:
       Occupied  (SG) (SG) (SG) (SG) (SG) (PI) (PI)
       Virtual   (SG) (SG) (PI) (PI) (SG) (PI) (PI) (SG) (PI) (PI)
                 (SG) (SG) (DLTA) (DLTA) (PI) (PI) (SG) (SG) (PI)
                 (PI) (DLTA) (DLTA) (SG) (PI) (PI) (SG) (PI) (PI)
                 (SG) (SG) (PI) (PI) (DLTA) (DLTA) (SG) (SG) (PHI)
                 (PHI) (PI) (PI) (DLTA) (DLTA) (SG) (PI) (PI) (DLTA)
                 (DLTA) (SG) (PI) (PI) (PI) (PI) (PHI) (PHI) (DLTA)
                 (DLTA) (SG) (SG) (PI) (PI) (SG) (DLTA) (DLTA)
                 (PI) (PI) (SG) (SG) (PI) (PI) (SG) (PI) (PI) (DLTA)
                 (DLTA) (PHI) (PHI) (DLTA) (DLTA) (SG) (PI) (PI)
                 (SG) (DLTA) (DLTA) (PI) (PI) (SG) (SG) (PI) (PI)
                 (PHI) (PHI) (DLTA) (DLTA) (SG) (PI) (PI) (DLTA)
                 (DLTA) (SG) (PI) (PI) (SG) (PI) (PI) (SG) (SG)
                 (SG)
 Keep R1 ints in memory in symmetry-blocked form, NReq=35954177.
 Requested convergence on RMS density matrix=1.00D-08 within 128 cycles.
 Requested convergence on MAX density matrix=1.00D-06.
 Requested convergence on             energy=1.00D-06.
 No special actions if energy rises.
 SCF Done:  E(RHF) =  -92.9066548753     A.U. after    7 cycles
            NFock=  7  Conv=0.98D-08     -V/T= 2.0031
 ExpMin= 2.53D-02 ExpMax= 1.14D+04 ExpMxC= 3.89D+02 IAcc=3 IRadAn=         5 AccDes= 0.00D+00
 HarFok:  IExCor=  205 AccDes= 0.00D+00 IRadAn=         5 IDoV=-2 UseB2=F ITyADJ=14
 ICtDFT= 12500011 ScaDFX=  1.000000  1.000000  1.000000  1.000000
 Range of M.O.s used for correlation:     3   115
 NBasis=   115 NAE=     7 NBE=     7 NFC=     2 NFV=     0
 NROrb=    113 NOA=     5 NOB=     5 NVA=   108 NVB=   108

 **** Warning!!: The largest alpha MO coefficient is  0.43914957D+02

 Fully direct method using O(ONN) memory.
 JobTyp=1 Pass  1:  I=   3 to   7 NPSUse= 28 ParTrn=T ParDer=T DoDerP=T.
 Spin components of T(2) and E(2):
     alpha-alpha T2 =       0.1596779367D-01 E2=     -0.4320120666D-01
     alpha-beta  T2 =       0.9259271354D-01 E2=     -0.2666856575D+00
     beta-beta   T2 =       0.1596779367D-01 E2=     -0.4320120666D-01
 ANorm=    0.1060437787D+01
 E2 =    -0.3530880708D+00 EUMP2 =    -0.93259742946109D+02
          IDoAtm=111
          Differentiating once with respect to electric field.
                with respect to dipole field.
          Differentiating once with respect to nuclear coordinates.
 Keep R1 ints in memory in symmetry-blocked form, NReq=35955181.
          There are     1 degrees of freedom in the 1st order CPHF.  IDoFFX=0 NUNeed=     1.
 LinEq1:  Iter=  0 NonCon=     1 RMS=5.64D-03 Max=4.87D-02 NDo=     1
 AX will form     1 AO Fock derivatives at one time.
 LinEq1:  Iter=  1 NonCon=     1 RMS=1.37D-03 Max=1.32D-02 NDo=     1
 LinEq1:  Iter=  2 NonCon=     1 RMS=2.82D-04 Max=2.17D-03 NDo=     1
 LinEq1:  Iter=  3 NonCon=     1 RMS=5.89D-05 Max=5.53D-04 NDo=     1
 LinEq1:  Iter=  4 NonCon=     1 RMS=2.68D-05 Max=2.29D-04 NDo=     1
 LinEq1:  Iter=  5 NonCon=     1 RMS=7.19D-06 Max=5.52D-05 NDo=     1
 LinEq1:  Iter=  6 NonCon=     1 RMS=8.35D-07 Max=6.67D-06 NDo=     1
 LinEq1:  Iter=  7 NonCon=     1 RMS=1.00D-07 Max=9.67D-07 NDo=     1
 LinEq1:  Iter=  8 NonCon=     1 RMS=9.13D-09 Max=5.46D-08 NDo=     1
 LinEq1:  Iter=  9 NonCon=     1 RMS=7.10D-10 Max=4.89D-09 NDo=     1
 LinEq1:  Iter= 10 NonCon=     0 RMS=4.46D-11 Max=2.86D-10 NDo=     1
 Linear equations converged to 1.000D-10 1.000D-09 after    10 iterations.
 End of Minotr F.D. properties file   721 does not exist.
 End of Minotr F.D. properties file   722 does not exist.
 End of Minotr F.D. properties file   788 does not exist.
 Calling FoFJK, ICntrl=  10002127 FMM=F ISym2X=1 I1Cent= 0 IOpClX= 0 NMat=1 NMatS=1 NMatT=0.
 ***** Axes restored to original set *****
 -------------------------------------------------------------------
 Center     Atomic                   Forces (Hartrees/Bohr)
 Number     Number              X              Y              Z
 -------------------------------------------------------------------
      1        7          -0.000000000   -0.000000000    0.000535074
      2        6          -0.000000000   -0.000000000   -0.002914368
      3        1          -0.000000000   -0.000000000    0.002379294
 -------------------------------------------------------------------
 Cartesian Forces:  Max     0.002914368 RMS     0.001266705

 GradGradGradGradGradGradGradGradGradGradGradGradGradGradGradGradGradGrad
 Berny optimization.
 Using GEDIIS/GDIIS optimizer.
 Internal  Forces:  Max     0.002379294 RMS     0.001219359
 Search for a local minimum.
 Step number   5 out of a maximum of   20
 All quantities printed in internal units (Hartrees-Bohrs-Radians)
 Mixed Optimization -- RFO/linear search
 Update second derivatives using D2CorX and points    2    3    4    5
 DE= -5.06D-05 DEPred=-3.78D-05 R= 1.34D+00
 TightC=F SS=  1.41D+00  RLast= 1.08D-02 DXNew= 1.0584D+00 3.2377D-02
 Trust test= 1.34D+00 RLast= 1.08D-02 DXMaxT set to 6.29D-01
 The second derivative matrix:
                          R1        R2        A1        A2
           R1           1.58464
           R2           0.00619   0.42401
           A1           0.00000   0.00000   0.01425
           A2           0.00000   0.00000   0.00000   0.01425
 ITU=  1  1  0  1  0
 Use linear search instead of GDIIS.
     Eigenvalues ---    0.01425   0.01425   0.42398   1.58468
 RFO step:  Lambda=-2.10697055D-08 EMin= 1.42535758D-02
 Quartic linear search produced a step of  0.53382.
 Iteration  1 RMS(Cart)=  0.00227279 RMS(Int)=  0.00000000
 Iteration  2 RMS(Cart)=  0.00000000 RMS(Int)=  0.00000000
 ClnCor:  largest displacement from symmetrization is 1.11D-16 for atom     1.
 Variable       Old X    -DE/DX   Delta X   Delta X   Delta X     New X
                                 (Linear)    (Quad)   (Total)
    R1        2.20578  -0.00054  -0.00025  -0.00011  -0.00036   2.20542
    R2        2.00598   0.00238   0.00576  -0.00002   0.00574   2.01172
    A1        3.14159  -0.00000   0.00000   0.00000   0.00000   3.14159
    A2        3.14159  -0.00000   0.00000  -0.00000   0.00000   3.14159
         Item               Value     Threshold  Converged?
 Maximum Force            0.002379     0.000450     NO 
 RMS     Force            0.001219     0.000300     NO 
 Maximum Displacement     0.003706     0.001800     NO 
 RMS     Displacement     0.002273     0.001200     NO 
 Predicted change in Energy=-6.774874D-06
 GradGradGradGradGradGradGradGradGradGradGradGradGradGradGradGradGradGrad

                          Input orientation:                          
 ---------------------------------------------------------------------
 Center     Atomic      Atomic             Coordinates (Angstroms)
 Number     Number       Type             X           Y           Z
 ---------------------------------------------------------------------
      1          7           0        0.000000    0.000000    0.200442
      2          6           0        0.000000    0.000000    1.367502
      3          1           0        0.000000    0.000000    2.432056
 ---------------------------------------------------------------------
                    Distance matrix (angstroms):
                    1          2          3
     1  N    0.000000
     2  C    1.167059   0.000000
     3  H    2.231613   1.064554   0.000000
 Stoichiometry    CHN
 Framework group  C*V[C*(HCN)]
 Deg. of freedom     2
 Full point group                 C*V     NOp   4
 Largest Abelian subgroup         C2V     NOp   4
 Largest concise Abelian subgroup C1      NOp   1
                         Standard orientation:                         
 ---------------------------------------------------------------------
 Center     Atomic      Atomic             Coordinates (Angstroms)
 Number     Number       Type             X           Y           Z
 ---------------------------------------------------------------------
      1          7           0        0.000000    0.000000    0.659569
      2          6           0        0.000000    0.000000   -0.507490
      3          1           0        0.000000    0.000000   -1.572044
 ---------------------------------------------------------------------
 Rotational constants (GHZ):           0.0000000          43.6322634          43.6322634
 Standard basis: Aug-CC-pVTZ (5D, 7F)
 There are    61 symmetry adapted cartesian basis functions of A1  symmetry.
 There are    12 symmetry adapted cartesian basis functions of A2  symmetry.
 There are    31 symmetry adapted cartesian basis functions of B1  symmetry.
 There are    31 symmetry adapted cartesian basis functions of B2  symmetry.
 There are    49 symmetry adapted basis functions of A1  symmetry.
 There are    12 symmetry adapted basis functions of A2  symmetry.
 There are    27 symmetry adapted basis functions of B1  symmetry.
 There are    27 symmetry adapted basis functions of B2  symmetry.
   115 basis functions,   171 primitive gaussians,   135 cartesian basis functions
     7 alpha electrons        7 beta electrons
       nuclear repulsion energy        23.6863948871 Hartrees.
 NAtoms=    3 NActive=    3 NUniq=    3 SFac= 1.00D+00 NAtFMM=   60 NAOKFM=F Big=F
 Integral buffers will be    131072 words long.
 Raffenetti 1 integral format.
 Two-electron integral symmetry is turned on.
 One-electron integrals computed using PRISM.
 NBasis=   115 RedAO= T EigKep=  8.69D-05  NBF=    49    12    27    27
 NBsUse=   115 1.00D-06 EigRej= -1.00D+00 NBFU=    49    12    27    27
 Initial guess from the checkpoint file:  "/gscratch/scrubbed/gds001/Gau-19422.chk"
 B after Tr=     0.000000    0.000000    0.000000
         Rot=    1.000000    0.000000    0.000000    0.000000 Ang=   0.00 deg.
 Initial guess orbital symmetries:
       Occupied  (SG) (SG) (SG) (SG) (SG) (PI) (PI)
       Virtual   (SG) (SG) (PI) (PI) (SG) (PI) (PI) (SG) (PI) (PI)
                 (SG) (SG) (DLTA) (DLTA) (PI) (PI) (SG) (SG) (PI)
                 (PI) (DLTA) (DLTA) (SG) (PI) (PI) (SG) (PI) (PI)
                 (SG) (SG) (PI) (PI) (DLTA) (DLTA) (SG) (SG) (PHI)
                 (PHI) (PI) (PI) (DLTA) (DLTA) (SG) (PI) (PI) (DLTA)
                 (DLTA) (SG) (PI) (PI) (PI) (PI) (PHI) (PHI) (DLTA)
                 (DLTA) (SG) (SG) (PI) (PI) (SG) (DLTA) (DLTA)
                 (PI) (PI) (SG) (SG) (PI) (PI) (SG) (PI) (PI) (DLTA)
                 (DLTA) (PHI) (PHI) (DLTA) (DLTA) (SG) (PI) (PI)
                 (SG) (DLTA) (DLTA) (PI) (PI) (SG) (SG) (PI) (PI)
                 (PHI) (PHI) (DLTA) (DLTA) (SG) (PI) (PI) (DLTA)
                 (DLTA) (SG) (PI) (PI) (SG) (PI) (PI) (SG) (SG)
                 (SG)
 Keep R1 ints in memory in symmetry-blocked form, NReq=35954177.
 Requested convergence on RMS density matrix=1.00D-08 within 128 cycles.
 Requested convergence on MAX density matrix=1.00D-06.
 Requested convergence on             energy=1.00D-06.
 No special actions if energy rises.
 SCF Done:  E(RHF) =  -92.9066709280     A.U. after    7 cycles
            NFock=  7  Conv=0.48D-08     -V/T= 2.0031
 ExpMin= 2.53D-02 ExpMax= 1.14D+04 ExpMxC= 3.89D+02 IAcc=3 IRadAn=         5 AccDes= 0.00D+00
 HarFok:  IExCor=  205 AccDes= 0.00D+00 IRadAn=         5 IDoV=-2 UseB2=F ITyADJ=14
 ICtDFT= 12500011 ScaDFX=  1.000000  1.000000  1.000000  1.000000
 Range of M.O.s used for correlation:     3   115
 NBasis=   115 NAE=     7 NBE=     7 NFC=     2 NFV=     0
 NROrb=    113 NOA=     5 NOB=     5 NVA=   108 NVB=   108

 **** Warning!!: The largest alpha MO coefficient is  0.43731689D+02

 Fully direct method using O(ONN) memory.
 JobTyp=1 Pass  1:  I=   3 to   7 NPSUse= 28 ParTrn=T ParDer=T DoDerP=T.
 Spin components of T(2) and E(2):
     alpha-alpha T2 =       0.1596619598D-01 E2=     -0.4319811158D-01
     alpha-beta  T2 =       0.9260462184D-01 E2=     -0.2666827199D+00
     beta-beta   T2 =       0.1596619598D-01 E2=     -0.4319811158D-01
 ANorm=    0.1060441896D+01
 E2 =    -0.3530789430D+00 EUMP2 =    -0.93259749871007D+02
          IDoAtm=111
          Differentiating once with respect to electric field.
                with respect to dipole field.
          Differentiating once with respect to nuclear coordinates.
 Keep R1 ints in memory in symmetry-blocked form, NReq=35955181.
          There are     1 degrees of freedom in the 1st order CPHF.  IDoFFX=0 NUNeed=     1.
 LinEq1:  Iter=  0 NonCon=     1 RMS=5.64D-03 Max=4.87D-02 NDo=     1
 AX will form     1 AO Fock derivatives at one time.
 LinEq1:  Iter=  1 NonCon=     1 RMS=1.37D-03 Max=1.32D-02 NDo=     1
 LinEq1:  Iter=  2 NonCon=     1 RMS=2.82D-04 Max=2.17D-03 NDo=     1
 LinEq1:  Iter=  3 NonCon=     1 RMS=5.98D-05 Max=5.70D-04 NDo=     1
 LinEq1:  Iter=  4 NonCon=     1 RMS=2.75D-05 Max=2.36D-04 NDo=     1
 LinEq1:  Iter=  5 NonCon=     1 RMS=7.21D-06 Max=5.54D-05 NDo=     1
 LinEq1:  Iter=  6 NonCon=     1 RMS=8.36D-07 Max=6.66D-06 NDo=     1
 LinEq1:  Iter=  7 NonCon=     1 RMS=1.00D-07 Max=9.67D-07 NDo=     1
 LinEq1:  Iter=  8 NonCon=     1 RMS=9.15D-09 Max=5.47D-08 NDo=     1
 LinEq1:  Iter=  9 NonCon=     1 RMS=7.12D-10 Max=4.90D-09 NDo=     1
 LinEq1:  Iter= 10 NonCon=     0 RMS=4.49D-11 Max=2.92D-10 NDo=     1
 Linear equations converged to 1.000D-10 1.000D-09 after    10 iterations.
 End of Minotr F.D. properties file   721 does not exist.
 End of Minotr F.D. properties file   722 does not exist.
 End of Minotr F.D. properties file   788 does not exist.
 Calling FoFJK, ICntrl=  10002127 FMM=F ISym2X=1 I1Cent= 0 IOpClX= 0 NMat=1 NMatS=1 NMatT=0.
 ***** Axes restored to original set *****
 -------------------------------------------------------------------
 Center     Atomic                   Forces (Hartrees/Bohr)
 Number     Number              X              Y              Z
 -------------------------------------------------------------------
      1        7          -0.000000000   -0.000000000    0.000056154
      2        6          -0.000000000   -0.000000000   -0.000061975
      3        1          -0.000000000   -0.000000000    0.000005821
 -------------------------------------------------------------------
 Cartesian Forces:  Max     0.000061975 RMS     0.000027944

 GradGradGradGradGradGradGradGradGradGradGradGradGradGradGradGradGradGrad
 Berny optimization.
 Using GEDIIS/GDIIS optimizer.
 Internal  Forces:  Max     0.000056154 RMS     0.000028227
 Search for a local minimum.
 Step number   6 out of a maximum of   20
 All quantities printed in internal units (Hartrees-Bohrs-Radians)
 Mixed Optimization -- En-DIIS/RFO-DIIS
 Update second derivatives using D2CorX and points    2    3    4    5    6
 DE= -6.92D-06 DEPred=-6.77D-06 R= 1.02D+00
 TightC=F SS=  1.41D+00  RLast= 5.75D-03 DXNew= 1.0584D+00 1.7251D-02
 Trust test= 1.02D+00 RLast= 5.75D-03 DXMaxT set to 6.29D-01
 The second derivative matrix:
                          R1        R2        A1        A2
           R1           1.58086
           R2           0.01613   0.41458
           A1           0.00000   0.00000   0.01425
           A2           0.00000   0.00000   0.00000   0.01425
 ITU=  1  1  1  0  1
 Use linear search instead of GDIIS.
     Eigenvalues ---    0.01425   0.01425   0.41435   1.58108
 RFO step:  Lambda= 0.00000000D+00 EMin= 1.42535758D-02
 Quartic linear search produced a step of  0.00394.
 Iteration  1 RMS(Cart)=  0.00001265 RMS(Int)=  0.00000000
 Iteration  2 RMS(Cart)=  0.00000000 RMS(Int)=  0.00000000
 ClnCor:  largest displacement from symmetrization is 5.55D-17 for atom     1.
 Variable       Old X    -DE/DX   Delta X   Delta X   Delta X     New X
                                 (Linear)    (Quad)   (Total)
    R1        2.20542  -0.00006  -0.00000  -0.00003  -0.00004   2.20539
    R2        2.01172   0.00001   0.00002  -0.00001   0.00002   2.01173
    A1        3.14159  -0.00000   0.00000   0.00000   0.00000   3.14159
    A2        3.14159  -0.00000   0.00000   0.00000   0.00000   3.14159
         Item               Value     Threshold  Converged?
 Maximum Force            0.000056     0.000450     YES
 RMS     Force            0.000028     0.000300     YES
 Maximum Displacement     0.000019     0.001800     YES
 RMS     Displacement     0.000013     0.001200     YES
 Predicted change in Energy=-1.046634D-09
 Optimization completed.
    -- Stationary point found.
                           ----------------------------
                           !   Optimized Parameters   !
                           ! (Angstroms and Degrees)  !
 --------------------------                            --------------------------
 ! Name  Definition              Value          Derivative Info.                !
 --------------------------------------------------------------------------------
 ! R1    R(1,2)                  1.1671         -DE/DX =   -0.0001              !
 ! R2    R(2,3)                  1.0646         -DE/DX =    0.0                 !
 ! A1    L(1,2,3,-1,-1)        180.0            -DE/DX =    0.0                 !
 ! A2    L(1,2,3,-2,-2)        180.0            -DE/DX =    0.0                 !
 --------------------------------------------------------------------------------
 GradGradGradGradGradGradGradGradGradGradGradGradGradGradGradGradGradGrad

                          Input orientation:                          
 ---------------------------------------------------------------------
 Center     Atomic      Atomic             Coordinates (Angstroms)
 Number     Number       Type             X           Y           Z
 ---------------------------------------------------------------------
      1          7           0        0.000000    0.000000    0.200442
      2          6           0        0.000000    0.000000    1.367502
      3          1           0        0.000000    0.000000    2.432056
 ---------------------------------------------------------------------
                    Distance matrix (angstroms):
                    1          2          3
     1  N    0.000000
     2  C    1.167059   0.000000
     3  H    2.231613   1.064554   0.000000
 Stoichiometry    CHN
 Framework group  C*V[C*(HCN)]
 Deg. of freedom     2
 Full point group                 C*V     NOp   4
 Largest Abelian subgroup         C2V     NOp   4
 Largest concise Abelian subgroup C1      NOp   1
                         Standard orientation:                         
 ---------------------------------------------------------------------
 Center     Atomic      Atomic             Coordinates (Angstroms)
 Number     Number       Type             X           Y           Z
 ---------------------------------------------------------------------
      1          7           0        0.000000    0.000000    0.659569
      2          6           0        0.000000    0.000000   -0.507490
      3          1           0        0.000000    0.000000   -1.572044
 ---------------------------------------------------------------------
 Rotational constants (GHZ):           0.0000000          43.6322634          43.6322634

 **********************************************************************

            Population analysis using the SCF density.

 **********************************************************************

 Orbital symmetries:
       Occupied  (SG) (SG) (SG) (SG) (SG) (PI) (PI)
       Virtual   (SG) (SG) (PI) (PI) (SG) (PI) (PI) (SG) (PI) (PI)
                 (SG) (SG) (DLTA) (DLTA) (PI) (PI) (SG) (SG) (PI)
                 (PI) (DLTA) (DLTA) (SG) (PI) (PI) (SG) (PI) (PI)
                 (SG) (SG) (PI) (PI) (DLTA) (DLTA) (SG) (SG) (PHI)
                 (PHI) (PI) (PI) (DLTA) (DLTA) (SG) (PI) (PI) (DLTA)
                 (DLTA) (SG) (PI) (PI) (PI) (PI) (PHI) (PHI) (DLTA)
                 (DLTA) (SG) (SG) (PI) (PI) (SG) (DLTA) (DLTA)
                 (PI) (PI) (SG) (SG) (PI) (PI) (SG) (PI) (PI) (DLTA)
                 (DLTA) (PHI) (PHI) (DLTA) (DLTA) (SG) (PI) (PI)
                 (SG) (DLTA) (DLTA) (PI) (PI) (SG) (SG) (PI) (PI)
                 (PHI) (PHI) (DLTA) (DLTA) (SG) (PI) (PI) (DLTA)
                 (DLTA) (SG) (PI) (PI) (SG) (PI) (PI) (SG) (SG)
                 (SG)
 The electronic state is 1-SG.
 Alpha  occ. eigenvalues --  -15.60511 -11.29737  -1.23068  -0.81572  -0.58296
 Alpha  occ. eigenvalues --   -0.49279  -0.49279
 Alpha virt. eigenvalues --    0.02302   0.07152   0.07277   0.07277   0.12749
 Alpha virt. eigenvalues --    0.13486   0.13486   0.14586   0.19499   0.19499
 Alpha virt. eigenvalues --    0.22397   0.26611   0.29396   0.29396   0.30256
 Alpha virt. eigenvalues --    0.30256   0.37484   0.40630   0.43879   0.43879
 Alpha virt. eigenvalues --    0.55001   0.55001   0.56094   0.57867   0.57867
 Alpha virt. eigenvalues --    0.60278   0.65363   0.65363   0.77876   0.85291
 Alpha virt. eigenvalues --    0.87485   0.87485   0.87880   0.87880   0.95869
 Alpha virt. eigenvalues --    1.06823   1.07870   1.07870   1.08738   1.08738
 Alpha virt. eigenvalues --    1.11980   1.11980   1.23556   1.23690   1.23690
 Alpha virt. eigenvalues --    1.34286   1.34286   1.41373   1.58502   1.58502
 Alpha virt. eigenvalues --    1.63549   1.63549   1.65183   1.65183   1.76257
 Alpha virt. eigenvalues --    1.76257   1.87441   1.92111   2.06675   2.06675
 Alpha virt. eigenvalues --    2.07425   2.25809   2.25809   2.40074   2.40074
 Alpha virt. eigenvalues --    2.43550   2.57712   2.95593   2.95593   3.00296
 Alpha virt. eigenvalues --    3.30886   3.30886   3.38988   3.38988   3.43924
 Alpha virt. eigenvalues --    3.43924   3.44988   3.44988   3.71022   3.79049
 Alpha virt. eigenvalues --    3.79049   3.87649   4.21797   4.21797   4.35931
 Alpha virt. eigenvalues --    4.35931   4.50053   4.61578   4.74242   4.74242
 Alpha virt. eigenvalues --    4.96588   4.96588   5.22628   5.22628   5.33298
 Alpha virt. eigenvalues --    5.36832   5.36832   5.49371   5.49371   5.72502
 Alpha virt. eigenvalues --    5.73995   5.73995   6.35761   6.81977   6.81977
 Alpha virt. eigenvalues --    6.94206  14.20786  17.78672
          Condensed to atoms (all electrons):
               1          2          3
     1  N    6.747946   0.652248  -0.063694
     2  C    0.652248   5.726005   0.035532
     3  H   -0.063694   0.035532   0.277877
 Mulliken charges:
               1
     1  N   -0.336500
     2  C   -0.413785
     3  H    0.750285
 Sum of Mulliken charges =   0.00000
 Mulliken charges with hydrogens summed into heavy atoms:
               1
     1  N   -0.336500
     2  C    0.336500
 Electronic spatial extent (au):  <R**2>=             50.1882
 Charge=              0.0000 electrons
 Dipole moment (field-independent basis, Debye):
    X=              0.0000    Y=              0.0000    Z=             -3.3010  Tot=              3.3010
 Quadrupole moment (field-independent basis, Debye-Ang):
   XX=            -12.0344   YY=            -12.0344   ZZ=             -9.5167
   XY=              0.0000   XZ=              0.0000   YZ=              0.0000
 Traceless Quadrupole moment (field-independent basis, Debye-Ang):
   XX=             -0.8392   YY=             -0.8392   ZZ=              1.6784
   XY=              0.0000   XZ=              0.0000   YZ=              0.0000
 Octapole moment (field-independent basis, Debye-Ang**2):
  XXX=              0.0000  YYY=              0.0000  ZZZ=             -8.1532  XYY=              0.0000
  XXY=              0.0000  XXZ=             -0.4444  XZZ=              0.0000  YZZ=              0.0000
  YYZ=             -0.4444  XYZ=              0.0000
 Hexadecapole moment (field-independent basis, Debye-Ang**3):
 XXXX=            -12.6659 YYYY=            -12.6659 ZZZZ=            -35.4320 XXXY=              0.0000
 XXXZ=              0.0000 YYYX=              0.0000 YYYZ=              0.0000 ZZZX=              0.0000
 ZZZY=              0.0000 XXYY=             -4.2220 XXZZ=             -9.2895 YYZZ=             -9.2895
 XXYZ=              0.0000 YYXZ=              0.0000 ZZXY=              0.0000
 N-N= 2.368639488712D+01 E-N=-2.647670081536D+02  KE= 9.261573455571D+01
 Symmetry A1   KE= 8.725915339904D+01
 Symmetry A2   KE=-4.736812578167D-51
[...]
       q_i = q_i^e + (q_i^J)*J(J+1) + (q_i^K)*K(K+-1)^2

 q^e constants (in cm^-1)
 ------------------------

 Q(     3)    0.7028778595D-02

 q^J constants (in cm^-1)
 ------------------------

 Q(     3)                 NaN

 q^K constants (in cm^-1)
 ------------------------

 Q(     3)                 NaN

     ==================================================
                     Resonance Analysis
     ==================================================

 Thresholds
 ----------
 1-2 Fermi resonances:
     - Maximum Frequency difference (cm^-1)          :    200.000
     - Minimum Difference PT2 vs Variational (cm^-1) :      1.000
 2-2 Darling-Dennison resonances:
     - Maximum Frequency difference (cm^-1)          :    100.000
     - Minimum value of off-diagonal term (cm^-1)    :     10.000
 1-1 Darling-Dennison resonances:
     - Maximum Frequency difference (cm^-1)          :    100.000
     - Minimum value of off-diagonal term (cm^-1)    :     10.000

 Fermi resonances
 ----------------
  No Fermi resonance found

 Darling-Dennison resonances
 ---------------------------
  No 2-2 Darling-Dennison resonance found
  No 1-1 Darling-Dennison resonance found

     ==================================================
                     Anharmonic X Matrix
     ==================================================

 PT2 model: Deperturbed VPT2 (DVPT2)
 Ref.: V. Barone, J. Chem. Phys. 122, 1, 014108 (2005)

 Coriolis contributions to X Matrix (in cm^-1)
 ---------------------------------------------
                1             2             3
      1  0.000000D+00
      2  0.000000D+00  0.000000D+00
      3  0.711286D+01  0.136595D+00  0.000000D+00

 3rd Deriv. contributions to X Matrix (in cm^-1)
 -----------------------------------------------
                1             2             3
      1 -0.118313D+03
      2 -0.245497D+02 -0.230132D+02
      3  0.104306D+03  0.240026D+01 -0.235099D+02

 4th Deriv. contributions to X Matrix (in cm^-1)
 -----------------------------------------------
                1             2             3
      1  0.640070D+02
      2  0.109624D+02  0.106429D+02
      3 -0.260921D+03 -0.105274D+02  0.950036D+02

 Total Anharmonic X Matrix (in cm^-1)
 ------------------------------------
                1             2             3
      1 -0.543057D+02
      2 -0.135873D+02 -0.123703D+02
      3 -0.149503D+03 -0.799051D+01  0.714937D+02

     ==================================================
                    Anharmonic Xl Matrix
     ==================================================

 Scheme used to remove resonant terms is the same as for the X matrix.

 Total Anharmonic Xl Matrix (in cm^-1)
 ------------------------------------
                3
      3 -0.212649D+02

     ==================================================
          Vibrational U- l-type doubling constants
     ==================================================

 Scheme used to remove resonant terms is the same as for the X matrix.

 Total matrix of U- l-type doubling constants (in cm^-1)
 --------------------------------------------------------
   Mode       Real part       Imag. part
     3    -0.316984D+02     0.000000D+00

     ==================================================
                Anharmonic Zero Point Energy
     ==================================================

 Anharmonic X0 Term
 ------------------
 U term         : cm-1 =     0.00000 ; Kcal/mol =   0.000 ; KJ/mol =   0.000
 Coriolis       : cm-1 =    -1.45542 ; Kcal/mol =  -0.004 ; KJ/mol =  -0.017
 Anharmonic     : cm-1 =    26.71889 ; Kcal/mol =   0.076 ; KJ/mol =   0.320
 Total X0       : cm-1 =    25.26347 ; Kcal/mol =   0.072 ; KJ/mol =   0.302

 Anharmonic Zero Point Energy
 ----------------------------
 Harmonic       : cm-1 =  3461.93877 ; Kcal/mol =   9.898 ; KJ/mol =  41.414
 Anharmonic Pot.: cm-1 =    -4.22446 ; Kcal/mol =  -0.012 ; KJ/mol =  -0.051
 Watson+Coriolis: cm-1 =     2.16931 ; Kcal/mol =   0.006 ; KJ/mol =   0.026
 Total Anharm   : cm-1 =  3459.88362 ; Kcal/mol =   9.892 ; KJ/mol =  41.389

     ==================================================
          Vibrational Energies at Anharmonic Level
     ==================================================

 Units: Vibrational energies and rotational constants in cm^-1.
 NOTE: Transition energies are given with respect to the ground state.

 Reference Data
 --------------
                              E(harm)  E(anharm)     Ba(x)      Ca(y)
 Equilibrium Geometry                              1.455416   1.455416
 Ground State                 3461.939  3459.884        NaN        NaN

 Fundamental Bands
 -----------------
    Mode(n,l)    Status       E(harm)  E(anharm)     Ba(x)      Ca(y)
       1(1,+0)   active      3466.558  3201.650        NaN        NaN
       2(1,+0)   active      2021.633  1982.109        NaN        NaN
       3(1,-1)   active       717.843   832.313        NaN        NaN
       3(1,+1)   active       717.843   832.313        NaN        NaN

 Overtones
 ---------
    Mode(n,l)                 E(harm)  E(anharm)     Ba(x)      Ca(y)
       1(2,+0)               6933.116  6294.689        NaN        NaN
       2(2,+0)               4043.267  3939.476        NaN        NaN
       3(2,-2)               1435.686  1765.083        NaN        NaN
       3(2,+0)               1435.686  1850.143        NaN        NaN
       3(2,+2)               1435.686  1765.083        NaN        NaN

 Combination Bands
 -----------------
    Mode(n,l)   Mode(n,l)    E(harm)  E(anharm)     Ba(x)      Ca(y)
       2(1,+0)     1(1,+0)   5488.191  5170.171        NaN        NaN
       3(1,-1)     1(1,+0)   4184.401  3884.460        NaN        NaN
       3(1,+1)     1(1,+0)   4184.401  3884.460        NaN        NaN
       3(1,-1)     2(1,+0)   2739.477  2806.431        NaN        NaN
       3(1,+1)     2(1,+0)   2739.477  2806.431        NaN        NaN

 WARNING: Anharmonic transition moments for symmetric and linear tops
          are not yet fully implemented.

     ==================================================
               Anharmonic Transition Moments
     ==================================================

 Electric dipole : Fundamental Bands
 ------------------------------------------------------------------------
   Mode(n,l)                          X               Y               Z
      1(1)                      -0.214938D-11    0.384723D-12   -0.381949D-01
      2(1)                      -0.307722D-12    0.357526D-13    0.278436D-02
      3(1)                       0.163558D-03   -0.581831D-01   -0.281304D-12

 Electric dipole : Overtones
 ------------------------------------------------------------------------
   Mode(n,l)                          X               Y               Z
      1(2)                      -0.500504D-11    0.101143D-11    0.310037D-02
      2(2)                      -0.214529D-14   -0.171237D-13   -0.261458D-03
      3(2)                      -0.156204D-21    0.369622D-14    0.393715D-02

 Electric dipole : Combination Bands
 ------------------------------------------------------------------------
   Mode(n,l)   Mode(n,l)              X               Y               Z
      2(1)        1(1)          -0.153937D-11    0.110028D-12    0.153809D-02
      3(1)        1(1)           0.258306D-03   -0.130157D-02   -0.337679D-10
      3(1)        2(1)           0.108573D-02   -0.140833D-02    0.318032D-12

     ==================================================
              Anharmonic Infrared Spectroscopy
     ==================================================

 Units: Transition energies (E) in cm^-1
        Integrated intensity (I) in km.mol^-1

 Fundamental Bands
 -----------------
   Mode(n,l)                E(harm)   E(anharm)        I(harm)       I(anharm)
      1(1,+0)               3466.558   3201.650     77.03859348     75.63842457
      2(1,+0)               2021.633   1982.109      0.23194933      0.24884876
      3(1,-1)                717.843    832.313     36.11153714     45.62898013
      3(1,+1)                717.843    832.313     36.11153714     45.62898013

 Overtones
 ---------
   Mode(n,l)                E(harm)   E(anharm)                      I(anharm)
      1(2,+0)               6933.116   6294.689                      0.97985023
      2(2,+0)               4043.267   3939.476                      0.00436114
      3(2,-2)               1435.686   1765.083                      0.44308416
      3(2,+0)               1435.686   1850.143                      0.46443641
      3(2,+2)               1435.686   1765.083                      0.44308416

 Combination Bands
 -----------------
   Mode(n,l)   Mode(n,l)    E(harm)   E(anharm)                      I(anharm)
      2(1,+0)     1(1,+0)   5488.191   5170.171                      0.19807337
      3(1,-1)     1(1,+0)   4184.401   3884.460                      0.11076348
      3(1,+1)     1(1,+0)   4184.401   3884.460                      0.11076348
      3(1,-1)     2(1,+0)   2739.477   2806.431                      0.14371503
      3(1,+1)     2(1,+0)   2739.477   2806.431                      0.14371503

 Units: Transition energies (E) in cm^-1
        Dipole strengths (DS) in 10^-40 esu^2.cm^2

 Fundamental Bands
 -----------------
   Mode(n,l)                E(harm)   E(anharm)       DS(harm)      DS(anharm)
      1(1,+0)               3466.558   3201.650     88.65787102     94.24883506
      2(1,+0)               2021.633   1982.109      0.45771815      0.50085896
      3(1,-1)                717.843    832.313    200.68910937    218.70645131
      3(1,+1)                717.843    832.313    200.68910937    218.70645131

 Overtones
 ---------
   Mode(n,l)                E(harm)   E(anharm)                     DS(anharm)
      1(2,+0)               6933.116   6294.689                      0.62100174
      2(2,+0)               4043.267   3939.476                      0.00441640
      3(2,-2)               1435.686   1765.083                      1.00144809
      3(2,+0)               1435.686   1850.143                      1.00144809
      3(2,+2)               1435.686   1765.083                      1.00144809

 Combination Bands
 -----------------
   Mode(n,l)   Mode(n,l)    E(harm)   E(anharm)                     DS(anharm)
      2(1,+0)     1(1,+0)   5488.191   5170.171                      0.15283702
      3(1,-1)     1(1,+0)   4184.401   3884.460                      0.11375573
      3(1,+1)     1(1,+0)   4184.401   3884.460                      0.11375573
      3(1,-1)     2(1,+0)   2739.477   2806.431                      0.20429384
      3(1,+1)     2(1,+0)   2739.477   2806.431                      0.20429384


 GradGradGradGradGradGradGradGradGradGradGradGradGradGradGradGradGradGrad
 Berny optimization.
 Internal  Forces:  Max     0.000056178 RMS     0.000028239
 Search for a local minimum.
 Step number   1 out of a maximum of    2
 All quantities printed in internal units (Hartrees-Bohrs-Radians)
 Second derivative matrix not updated -- analytic derivatives used.
 The second derivative matrix:
                          R1        R2        A1        A2
           R1           1.07885
           R2          -0.01553   0.40899
           A1           0.00000   0.00000   0.05819
           A2           0.00000   0.00000   0.00000   0.05819
 ITU=  0
     Eigenvalues ---    0.05819   0.05819   0.40863   1.07921
 Angle between quadratic step and forces=   7.36 degrees.
 Linear search not attempted -- first point.
 Iteration  1 RMS(Cart)=  0.00001918 RMS(Int)=  0.00000000
 Iteration  2 RMS(Cart)=  0.00000000 RMS(Int)=  0.00000000
 ClnCor:  largest displacement from symmetrization is 5.55D-17 for atom     1.
 Variable       Old X    -DE/DX   Delta X   Delta X   Delta X     New X
                                 (Linear)    (Quad)   (Total)
    R1        2.20542  -0.00006   0.00000  -0.00005  -0.00005   2.20537
    R2        2.01172   0.00001   0.00000   0.00001   0.00001   2.01173
    A1        3.14159  -0.00000   0.00000   0.00000   0.00000   3.14159
    A2        3.14159  -0.00000   0.00000   0.00000   0.00000   3.14159
         Item               Value     Threshold  Converged?
 Maximum Force            0.000056     0.000450     YES
 RMS     Force            0.000028     0.000300     YES
 Maximum Displacement     0.000031     0.001800     YES
 RMS     Displacement     0.000019     0.001200     YES
 Predicted change in Energy=-1.493217D-09
 Optimization completed.
    -- Stationary point found.
                           ----------------------------
                           !   Optimized Parameters   !
                           ! (Angstroms and Degrees)  !
 --------------------------                            --------------------------
 ! Name  Definition              Value          Derivative Info.                !
 --------------------------------------------------------------------------------
 ! R1    R(1,2)                  1.1671         -DE/DX =   -0.0001              !
 ! R2    R(2,3)                  1.0646         -DE/DX =    0.0                 !
 ! A1    L(1,2,3,-1,-1)        180.0            -DE/DX =    0.0                 !
 ! A2    L(1,2,3,-2,-2)        180.0            -DE/DX =    0.0                 !
 --------------------------------------------------------------------------------
 GradGradGradGradGradGradGradGradGradGradGradGradGradGradGradGradGradGrad


 ----------------------------------------------------------------------

 Electric dipole moment (input orientation):
 (Debye = 10**-18 statcoulomb cm , SI units = C m)
                  (au)            (Debye)         (10**-30 SI)
   Tot        0.118985D+01      0.302430D+01      0.100880D+02
   x          0.000000D+00      0.000000D+00      0.000000D+00
   y          0.000000D+00      0.000000D+00      0.000000D+00
   z          0.118985D+01      0.302430D+01      0.100880D+02

 Dipole polarizability, Alpha (input orientation).
 (esu units = cm**3 , SI units = C**2 m**2 J**-1)
 Alpha(0;0):
               (au)            (10**-24 esu)      (10**-40 SI)
   iso        0.167647D+02      0.248427D+01      0.276412D+01
   aniso      0.815801D+01      0.120889D+01      0.134507D+01
   xx         0.140454D+02      0.208131D+01      0.231577D+01
   yx         0.000000D+00      0.000000D+00      0.000000D+00
   yy         0.140454D+02      0.208131D+01      0.231577D+01
   zx         0.000000D+00      0.000000D+00      0.000000D+00
   zy         0.000000D+00      0.000000D+00      0.000000D+00
   zz         0.222034D+02      0.329020D+01      0.366084D+01

 ----------------------------------------------------------------------

 Dipole orientation:
     7          0.00000000          0.00000000          0.37878140
     6          0.00000000          0.00000000          2.58420354
     1          0.00000000          0.00000000          4.59591957

 Electric dipole moment (dipole orientation):
 (Debye = 10**-18 statcoulomb cm , SI units = C m)
                  (au)            (Debye)         (10**-30 SI)
   Tot        0.118985D+01      0.302430D+01      0.100880D+02
   x          0.000000D+00      0.000000D+00      0.000000D+00
   y          0.000000D+00      0.000000D+00      0.000000D+00
   z          0.118985D+01      0.302430D+01      0.100880D+02

 Dipole polarizability, Alpha (dipole orientation).
 (esu units = cm**3 , SI units = C**2 m**2 J**-1)
 Alpha(0;0):
               (au)            (10**-24 esu)      (10**-40 SI)
   iso        0.167647D+02      0.248427D+01      0.276412D+01
   aniso      0.815801D+01      0.120889D+01      0.134507D+01
   xx         0.140454D+02      0.208131D+01      0.231577D+01
   yx         0.000000D+00      0.000000D+00      0.000000D+00
   yy         0.140454D+02      0.208131D+01      0.231577D+01
   zx         0.000000D+00      0.000000D+00      0.000000D+00
   zy         0.000000D+00      0.000000D+00      0.000000D+00
   zz         0.222034D+02      0.329020D+01      0.366084D+01

 ----------------------------------------------------------------------
 1\1\GINC-N2132\Freq\RMP2-FC\Aug-CC-pVTZ\C1H1N1\GDS001\20-Dec-2021\0\\#
 N Geom=AllCheck Guess=TCheck SCRF=Check GenChk RMP2(FC)/Aug-CC-pVTZ Fr
 eq\\bleh\\0,1\N,0.,0.,0.2004424823\C,0.,0.,1.3675016191\H,0.,0.,2.4320
 558985\\Version=ES64L-G16RevA.03\State=1-SG\HF=-92.9066709\MP2=-93.259
 7499\RMSD=9.955e-10\RMSF=2.795e-05\ZeroPoint=0.0157738\Thermal=0.01834
 61\Dipole=0.,0.,1.189851\DipoleDeriv=-0.3073182,0.,0.,0.,-0.3073182,0.
 ,0.,0.,0.1368584,0.0527672,0.,0.,0.,0.0527672,0.,0.,0.,-0.39292,0.2545
 511,0.,0.,0.,0.2545511,0.,0.,0.,0.2560617\Polar=14.0453526,0.,14.04535
 26,0.,0.,22.2033626\Quadrupole=-0.4699707,-0.4699707,0.9399413,0.,0.,0
 .\PG=C*V [C*(H1C1N1)]\NImag=0\\0.01198933,0.,0.01198933,0.,0.,1.078851
 05,-0.02510512,0.,0.,0.05259670,0.,-0.02510512,0.,0.,0.05259670,0.,0.,
 -1.09438535,0.,0.,1.51890845,0.01311578,0.,0.,-0.02749159,0.,0.,0.0143
 7580,0.,0.01311578,0.,0.,-0.02749159,0.,0.,0.01437580,0.,0.,0.01553430
 ,0.,0.,-0.42452310,0.,0.,0.40898879\\0.,0.,-0.00005618,0.,0.,0.0000619
 9,0.,0.,-0.00000581\\0.,0.,0.,-0.06641018,0.,0.,0.,0.,0.03580898,0.,0.
 ,0.,0.,0.,0.,0.07942940,0.,0.,0.13101682,0.,0.,0.,0.,0.03060121,0.,0.,
 -0.21044623,0.,0.,0.,0.,0.,0.,0.,0.,0.,-0.01301922,0.,0.,-0.16682580,0
 .,0.,0.17984502,0.,0.,0.,0.,0.,0.,0.06641018,0.,0.,0.,0.,0.,0.,0.,-0.0
 3580898,0.,0.,0.,-0.07942940,0.,0.,-0.13101682,0.,0.,0.,0.,0.,0.,0.,0.
 ,0.,0.,-0.03060121,0.,0.,0.21044623,0.,0.,0.,0.01301922,0.,0.,0.166825
 80,0.,0.,-0.17984502,0.,0.17014424,0.,0.17014424,0.,0.,-1.50445157,-0.
 16007871,0.,0.,0.16560914,0.,-0.16007872,0.,0.,0.16560914,0.,0.,1.5033
 7992,0.,0.,-1.67297972,-0.01006553,0.,0.,-0.00553043,0.,0.,0.01559596,
 0.,-0.01006553,0.,0.,-0.00553043,0.,0.,0.01559596,0.,0.,0.00107165,0.,
 0.,0.16959980,0.,0.,-0.17067145,-0.07200325,0.,-0.07200325,0.,0.,0.526
 44704,0.08028995,0.,0.,0.10430800,0.,0.08028995,0.,0.,0.10430800,0.,0.
 ,-0.52271441,0.,0.,-0.76145126,-0.00828670,0.,0.,-0.18459795,0.,0.,0.1
 9288464,0.,-0.00828670,0.,0.,-0.18459795,0.,0.,0.19288464,0.,0.,-0.003
 73263,0.,0.,1.28416568,0.,0.,-1.28043305,0.00429612,0.,-0.01008368,0.,
 0.,-0.05737172,0.00780164,0.,0.,0.23662366,0.,0.01215319,0.,0.,0.07074
 158,0.,0.,0.08917485,0.,0.,-0.88426081,-0.01209775,0.,0.,-0.24442531,0
 .,0.,0.25652305,0.,-0.00206950,0.,0.,-0.08289478,0.,0.,0.08496428,0.,0
 .,-0.03180313,0.,0.,0.79508597,0.,0.,-0.76328287,-0.01008242,0.,0.0042
 9726,0.00000011,0.,-0.05737219,0.01215170,0.,-0.00000014,0.07074269,0.
 ,0.00780026,0.,0.,0.23662465,-0.00000014,0.,0.08917528,0.00000023,0.,-
 0.88426046,-0.00206927,0.,0.00000004,-0.08289440,0.,-0.00000009,0.0849
 6367,0.,-0.01209751,0.,0.,-0.24442491,0.,0.,0.25652242,0.00000003,0.,-
 0.03180308,-0.00000008,0.,0.79508520,0.00000005,0.,-0.76328213,-0.3056
 2157,-0.00000002,-0.30562157,0.,0.,1.58116082,0.29909661,0.00000003,0.
 ,-0.30317466,0.,0.29909663,0.00000001,-0.00000002,-0.30317469,0.,0.,-1
 .58202036,0.,0.,1.64848548,0.00652497,0.,0.,0.00407804,0.,0.,-0.010603
 01,0.,0.00652495,-0.00000001,-0.00000001,0.00407807,0.,0.,-0.01060302,
 0.,0.,0.00085955,0.,0.,-0.06646511,0.,0.,0.06560555,-0.03567571,0.,-0.
 03567570,-0.00000010,-0.00000003,0.18400923,0.02461511,0.00000001,-0.0
 0000002,-0.85180927,0.00000001,0.02461511,-0.00000003,0.,-0.85180926,0
 .00000013,0.00000004,-0.16979593,0.00000002,0.00000002,3.81752175,0.01
 106062,0.,0.00000013,0.82719415,0.,-0.00000015,-0.83825477,0.,0.011060
 61,0.00000006,0.,0.82719415,-0.00000006,0.,-0.83825476,-0.00000003,0.,
 -0.01421329,0.00000003,0.,-3.64772581,0.,0.,3.66193908\\@


 I am not a vegetarian because I love animals;
 I am a vegetarian because I hate plants.
                               -- A. Whitney Brown
 Job cpu time:       0 days  2 hours 58 minutes 31.4 seconds.
 Elapsed time:       0 days  0 hours  6 minutes 33.2 seconds.
 File lengths (MBytes):  RWF=    792 Int=      0 D2E=      0 Chk=     44 Scr=      8
 Normal termination of Gaussian 16 at Mon Dec 20 12:32:29 2021.
