 Entering Gaussian System, Link 0=g16
 Input=hcn_mp2_opt_anharm.gjf
 Output=hcn_mp2_opt_anharm.log
 Initial command:
 /sw/contrib/gaussian/g16/A03/g16/l1.exe "/gscratch/scrubbed/gds001/Gau-32561.inp" -scrdir="/gscratch/scrubbed/gds001/"
 Entering Link 1 = /sw/contrib/gaussian/g16/A03/g16/l1.exe PID=     32562.
  
 Copyright (c) 1988,1990,1992,1993,1995,1998,2003,2009,2016,
            Gaussian, Inc.  All Rights Reserved.
  
 This is part of the Gaussian(R) 16 program.  It is based on
 the Gaussian(R) 09 system (copyright 2009, Gaussian, Inc.),
 the Gaussian(R) 03 system (copyright 2003, Gaussian, Inc.),
 the Gaussian(R) 98 system (copyright 1998, Gaussian, Inc.),
 the Gaussian(R) 94 system (copyright 1995, Gaussian, Inc.),
 the Gaussian 92(TM) system (copyright 1992, Gaussian, Inc.),
 the Gaussian 90(TM) system (copyright 1990, Gaussian, Inc.),
 the Gaussian 88(TM) system (copyright 1988, Gaussian, Inc.),
 the Gaussian 86(TM) system (copyright 1986, Carnegie Mellon
 University), and the Gaussian 82(TM) system (copyright 1983,
 Carnegie Mellon University). Gaussian is a federally registered
 trademark of Gaussian, Inc.
  
 This software contains proprietary and confidential information,
 including trade secrets, belonging to Gaussian, Inc.
  
 This software is provided under written license and may be
 used, copied, transmitted, or stored only in accord with that
 written license.
  
 The following legend is applicable only to US Government
 contracts under FAR:
  
                    RESTRICTED RIGHTS LEGEND
  
 Use, reproduction and disclosure by the US Government is
 subject to restrictions as set forth in subparagraphs (a)
 and (c) of the Commercial Computer Software - Restricted
 Rights clause in FAR 52.227-19.
  
 Gaussian, Inc.
 340 Quinnipiac St., Bldg. 40, Wallingford CT 06492
  
  
 ---------------------------------------------------------------
 Warning -- This program may not be used in any manner that
 competes with the business of Gaussian, Inc. or will provide
 assistance to any competitor of Gaussian, Inc.  The licensee
 of this program is prohibited from giving any competitor of
 Gaussian, Inc. access to this program.  By using this program,
 the user acknowledges that Gaussian, Inc. is engaged in the
 business of creating and licensing software in the field of
 computational chemistry and represents and warrants to the
 licensee that it is not a competitor of Gaussian, Inc. and that
 it will not use this program in any manner prohibited above.
 ---------------------------------------------------------------
  

 Cite this work as:
 Gaussian 16, Revision A.03,
 M. J. Frisch, G. W. Trucks, H. B. Schlegel, G. E. Scuseria, 
 M. A. Robb, J. R. Cheeseman, G. Scalmani, V. Barone, 
 G. A. Petersson, H. Nakatsuji, X. Li, M. Caricato, A. V. Marenich, 
 J. Bloino, B. G. Janesko, R. Gomperts, B. Mennucci, H. P. Hratchian, 
 J. V. Ortiz, A. F. Izmaylov, J. L. Sonnenberg, D. Williams-Young, 
 F. Ding, F. Lipparini, F. Egidi, J. Goings, B. Peng, A. Petrone, 
 T. Henderson, D. Ranasinghe, V. G. Zakrzewski, J. Gao, N. Rega, 
 G. Zheng, W. Liang, M. Hada, M. Ehara, K. Toyota, R. Fukuda, 
 J. Hasegawa, M. Ishida, T. Nakajima, Y. Honda, O. Kitao, H. Nakai, 
 T. Vreven, K. Throssell, J. A. Montgomery, Jr., J. E. Peralta, 
 F. Ogliaro, M. J. Bearpark, J. J. Heyd, E. N. Brothers, K. N. Kudin, 
 V. N. Staroverov, T. A. Keith, R. Kobayashi, J. Normand, 
 K. Raghavachari, A. P. Rendell, J. C. Burant, S. S. Iyengar, 
 J. Tomasi, M. Cossi, J. M. Millam, M. Klene, C. Adamo, R. Cammi, 
 J. W. Ochterski, R. L. Martin, K. Morokuma, O. Farkas, 
 J. B. Foresman, and D. J. Fox, Gaussian, Inc., Wallingford CT, 2016.
 
 ******************************************
 Gaussian 16:  ES64L-G16RevA.03 25-Dec-2016
                 4-Aug-2020 
 ******************************************
 %nprocshared=28
 Will use up to   28 processors via shared memory.
 %mem=41GB
 %chk=hcn.chk
 ---------------------------------------------
 # MP2/aug-cc-pVDZ Opt Freq(vibrot,anharmonic)
 ---------------------------------------------
 1/18=20,19=15,38=1,80=1/1,3;
 2/9=110,12=2,17=6,18=5,40=1/2;
 3/5=16,7=10,11=9,25=1,30=1,71=1/1,2,3;
 4//1;
 5/5=2,38=5/2;
 8/6=4,10=1/1;
 9/15=2,16=-3/6;
 10/5=1/2;
 6/7=2,8=2,9=2,10=2/1;
 7/12=2/1,2,3,16;
 1/18=20,19=15,80=1/3(2);
 2/9=110/2;
 99//99;
 2/9=110/2;
 3/5=16,7=10,11=9,25=1,30=1,71=1/1,2,3;
 4/5=5,16=3,69=1/1;
 5/5=2,38=5/2;
 8/6=4,10=1/1;
 9/15=2,16=-3/6;
 10/5=1/2;
 7/12=2/1,2,3,16;
 1/18=20,19=15,80=1/3(-8);
 2/9=110/2;
 6/7=2,8=2,9=2,10=2/1;
 99//99;
 ---
 hcn
 ---
 Symbolic Z-matrix:
 Charge =  0 Multiplicity = 1
 N                    -2.23863  0.         0.00001 
 C                    -1.0556    0.       -0.00001 
 H                     0.02973   0.00001  -0.00003 
 

 GradGradGradGradGradGradGradGradGradGradGradGradGradGradGradGradGradGrad
 Berny optimization.
 Initialization pass.
                           ----------------------------
                           !    Initial Parameters    !
                           ! (Angstroms and Degrees)  !
 --------------------------                            --------------------------
 ! Name  Definition              Value          Derivative Info.                !
 --------------------------------------------------------------------------------
 ! R1    R(1,2)                  1.183          estimate D2E/DX2                !
 ! R2    R(2,3)                  1.0853         estimate D2E/DX2                !
 ! A1    L(1,2,3,-2,-1)        179.9998         estimate D2E/DX2                !
 ! A2    L(1,2,3,-3,-2)        179.9999         estimate D2E/DX2                !
 --------------------------------------------------------------------------------
 Trust Radius=3.00D-01 FncErr=1.00D-07 GrdErr=1.00D-07 EigMax=2.50D+02 EigMin=1.00D-04
 Number of steps in this run=     20 maximum allowed number of steps=    100.
 GradGradGradGradGradGradGradGradGradGradGradGradGradGradGradGradGradGrad

                          Input orientation:                          
 ---------------------------------------------------------------------
 Center     Atomic      Atomic             Coordinates (Angstroms)
 Number     Number       Type             X           Y           Z
 ---------------------------------------------------------------------
      1          7           0       -2.238627   -0.000002    0.000008
      2          6           0       -1.055599    0.000002   -0.000008
      3          1           0        0.029725    0.000008   -0.000026
 ---------------------------------------------------------------------
                    Distance matrix (angstroms):
                    1          2          3
     1  N    0.000000
     2  C    1.183028   0.000000
     3  H    2.268352   1.085324   0.000000
 Stoichiometry    CHN
 Framework group  C*V[C*(HCN)]
 Deg. of freedom     2
 Full point group                 C*V     NOp   4
 Largest Abelian subgroup         C2V     NOp   4
 Largest concise Abelian subgroup C1      NOp   1
                         Standard orientation:                         
 ---------------------------------------------------------------------
 Center     Atomic      Atomic             Coordinates (Angstroms)
 Number     Number       Type             X           Y           Z
 ---------------------------------------------------------------------
      1          7           0       -0.000000   -0.000000    0.669037
      2          6           0        0.000000    0.000000   -0.513991
      3          1           0        0.000000    0.000000   -1.599315
 ---------------------------------------------------------------------
 Rotational constants (GHZ):           0.0000000          42.3885820          42.3885820
 Standard basis: Aug-CC-pVDZ (5D, 7F)
 There are    31 symmetry adapted cartesian basis functions of A1  symmetry.
 There are     4 symmetry adapted cartesian basis functions of A2  symmetry.
 There are    12 symmetry adapted cartesian basis functions of B1  symmetry.
 There are    12 symmetry adapted cartesian basis functions of B2  symmetry.
 There are    27 symmetry adapted basis functions of A1  symmetry.
 There are     4 symmetry adapted basis functions of A2  symmetry.
 There are    12 symmetry adapted basis functions of B1  symmetry.
 There are    12 symmetry adapted basis functions of B2  symmetry.
    55 basis functions,    97 primitive gaussians,    59 cartesian basis functions
     7 alpha electrons        7 beta electrons
       nuclear repulsion energy        23.3453734857 Hartrees.
 NAtoms=    3 NActive=    3 NUniq=    3 SFac= 1.00D+00 NAtFMM=   60 NAOKFM=F Big=F
 Integral buffers will be    131072 words long.
 Raffenetti 1 integral format.
 Two-electron integral symmetry is turned on.
 One-electron integrals computed using PRISM.
 NBasis=    55 RedAO= T EigKep=  6.85D-04  NBF=    27     4    12    12
 NBsUse=    55 1.00D-06 EigRej= -1.00D+00 NBFU=    27     4    12    12
 ExpMin= 2.97D-02 ExpMax= 9.05D+03 ExpMxC= 3.09D+02 IAcc=3 IRadAn=         5 AccDes= 0.00D+00
 Harris functional with IExCor=  205 and IRadAn=       5 diagonalized for initial guess.
 HarFok:  IExCor=  205 AccDes= 0.00D+00 IRadAn=         5 IDoV= 1 UseB2=F ITyADJ=14
 ICtDFT=  3500011 ScaDFX=  1.000000  1.000000  1.000000  1.000000
 FoFCou: FMM=F IPFlag=           0 FMFlag=      100000 FMFlg1=           0
         NFxFlg=           0 DoJE=T BraDBF=F KetDBF=T FulRan=T
         wScrn=  0.000000 ICntrl=       500 IOpCl=  0 I1Cent=   200000004 NGrid=           0
         NMat0=    1 NMatS0=      1 NMatT0=    0 NMatD0=    1 NMtDS0=    0 NMtDT0=    0
 Petite list used in FoFCou.
 Initial guess orbital symmetries:
       Occupied  (SG) (SG) (SG) (SG) (SG) (PI) (PI)
       Virtual   (PI) (PI) (SG) (SG) (PI) (PI) (SG) (SG) (PI) (PI)
                 (SG) (SG) (DLTA) (DLTA) (PI) (PI) (SG) (SG) (PI)
                 (PI) (SG) (DLTA) (DLTA) (PI) (PI) (PI) (PI) (SG)
                 (SG) (SG) (SG) (PI) (PI) (PI) (PI) (DLTA) (DLTA)
                 (SG) (PI) (PI) (SG) (DLTA) (DLTA) (SG) (PI) (PI)
                 (SG) (SG)
 The electronic state of the initial guess is 1-SG.
 Keep R1 ints in memory in symmetry-blocked form, NReq=7000358.
 Requested convergence on RMS density matrix=1.00D-08 within 128 cycles.
 Requested convergence on MAX density matrix=1.00D-06.
 Requested convergence on             energy=1.00D-06.
 No special actions if energy rises.
 SCF Done:  E(RHF) =  -92.8822143808     A.U. after   10 cycles
            NFock= 10  Conv=0.61D-08     -V/T= 2.0046
 ExpMin= 2.97D-02 ExpMax= 9.05D+03 ExpMxC= 3.09D+02 IAcc=3 IRadAn=         5 AccDes= 0.00D+00
 HarFok:  IExCor=  205 AccDes= 0.00D+00 IRadAn=         5 IDoV=-2 UseB2=F ITyADJ=14
 ICtDFT= 12500011 ScaDFX=  1.000000  1.000000  1.000000  1.000000
 Range of M.O.s used for correlation:     3    55
 NBasis=    55 NAE=     7 NBE=     7 NFC=     2 NFV=     0
 NROrb=     53 NOA=     5 NOB=     5 NVA=    48 NVB=    48

 **** Warning!!: The largest alpha MO coefficient is  0.12327407D+02

 Fully direct method using O(ONN) memory.
 JobTyp=1 Pass  1:  I=   3 to   7 NPSUse= 28 ParTrn=T ParDer=T DoDerP=T.
 Spin components of T(2) and E(2):
     alpha-alpha T2 =       0.1574780003D-01 E2=     -0.3858346194D-01
     alpha-beta  T2 =       0.8938991451D-01 E2=     -0.2242387137D+00
     beta-beta   T2 =       0.1574780003D-01 E2=     -0.3858346194D-01
 ANorm=    0.1058718808D+01
 E2 =    -0.3014056376D+00 EUMP2 =    -0.93183620018431D+02
          IDoAtm=111
          Differentiating once with respect to electric field.
                with respect to dipole field.
          Differentiating once with respect to nuclear coordinates.
 Keep R1 ints in memory in symmetry-blocked form, NReq=7001578.
          There are     1 degrees of freedom in the 1st order CPHF.  IDoFFX=0 NUNeed=     1.
 LinEq1:  Iter=  0 NonCon=     1 RMS=8.31D-03 Max=5.54D-02 NDo=     1
 AX will form     1 AO Fock derivatives at one time.
 LinEq1:  Iter=  1 NonCon=     1 RMS=1.88D-03 Max=9.63D-03 NDo=     1
 LinEq1:  Iter=  2 NonCon=     1 RMS=6.87D-04 Max=3.85D-03 NDo=     1
 LinEq1:  Iter=  3 NonCon=     1 RMS=3.20D-04 Max=2.46D-03 NDo=     1
 LinEq1:  Iter=  4 NonCon=     1 RMS=6.59D-05 Max=4.06D-04 NDo=     1
 LinEq1:  Iter=  5 NonCon=     1 RMS=9.97D-06 Max=6.48D-05 NDo=     1
 LinEq1:  Iter=  6 NonCon=     1 RMS=1.10D-06 Max=5.60D-06 NDo=     1
 LinEq1:  Iter=  7 NonCon=     1 RMS=1.19D-07 Max=6.76D-07 NDo=     1
 LinEq1:  Iter=  8 NonCon=     1 RMS=1.04D-08 Max=5.09D-08 NDo=     1
 LinEq1:  Iter=  9 NonCon=     1 RMS=5.75D-10 Max=3.38D-09 NDo=     1
 LinEq1:  Iter= 10 NonCon=     0 RMS=4.29D-11 Max=2.31D-10 NDo=     1
 Linear equations converged to 1.000D-10 1.000D-09 after    10 iterations.
 End of Minotr F.D. properties file   721 does not exist.
 End of Minotr F.D. properties file   722 does not exist.
 End of Minotr F.D. properties file   788 does not exist.

 **********************************************************************

            Population analysis using the SCF density.

 **********************************************************************

 Orbital symmetries:
       Occupied  (SG) (SG) (SG) (SG) (SG) (PI) (PI)
       Virtual   (SG) (SG) (PI) (PI) (PI) (PI) (SG) (SG) (PI) (PI)
                 (SG) (SG) (PI) (PI) (DLTA) (DLTA) (SG) (SG) (PI)
                 (PI) (SG) (PI) (PI) (DLTA) (DLTA) (SG) (PI) (PI)
                 (SG) (SG) (SG) (PI) (PI) (DLTA) (DLTA) (PI) (PI)
                 (SG) (PI) (PI) (SG) (SG) (DLTA) (DLTA) (PI) (PI)
                 (SG) (SG)
 The electronic state is 1-SG.
 Alpha  occ. eigenvalues --  -15.62125 -11.31470  -1.22728  -0.81022  -0.58290
 Alpha  occ. eigenvalues --   -0.48784  -0.48784
 Alpha virt. eigenvalues --    0.02859   0.08190   0.08330   0.08330   0.15601
 Alpha virt. eigenvalues --    0.15601   0.15722   0.18059   0.24150   0.24150
 Alpha virt. eigenvalues --    0.26484   0.33498   0.40935   0.40935   0.43155
 Alpha virt. eigenvalues --    0.43155   0.49857   0.56709   0.66047   0.66047
 Alpha virt. eigenvalues --    0.75382   0.81517   0.81517   0.81694   0.81694
 Alpha virt. eigenvalues --    0.86878   0.99039   0.99039   1.08376   1.27463
 Alpha virt. eigenvalues --    1.50669   1.58048   1.58048   1.63564   1.63564
 Alpha virt. eigenvalues --    1.66999   1.66999   1.87496   2.20553   2.20553
 Alpha virt. eigenvalues --    2.33144   2.56535   2.57460   2.57460   2.93217
 Alpha virt. eigenvalues --    2.93217   3.36859   3.62368
          Condensed to atoms (all electrons):
               1          2          3
     1  N    6.739216   0.691375  -0.001418
     2  C    0.691375   4.837199   0.162746
     3  H   -0.001418   0.162746   0.718179
 Mulliken charges:
               1
     1  N   -0.429173
     2  C    0.308680
     3  H    0.120493
 Sum of Mulliken charges =  -0.00000
 Mulliken charges with hydrogens summed into heavy atoms:
               1
     1  N   -0.429173
     2  C    0.429173
 Electronic spatial extent (au):  <R**2>=             51.1005
 Charge=             -0.0000 electrons
 Dipole moment (field-independent basis, Debye):
    X=              0.0000    Y=              0.0000    Z=             -3.3437  Tot=              3.3437
 Quadrupole moment (field-independent basis, Debye-Ang):
   XX=            -12.1532   YY=            -12.1532   ZZ=             -9.4764
   XY=             -0.0000   XZ=              0.0000   YZ=              0.0000
 Traceless Quadrupole moment (field-independent basis, Debye-Ang):
   XX=             -0.8922   YY=             -0.8922   ZZ=              1.7845
   XY=             -0.0000   XZ=              0.0000   YZ=              0.0000
 Octapole moment (field-independent basis, Debye-Ang**2):
  XXX=              0.0000  YYY=              0.0000  ZZZ=             -8.4924  XYY=              0.0000
  XXY=              0.0000  XXZ=             -0.4302  XZZ=              0.0000  YZZ=              0.0000
  YYZ=             -0.4302  XYZ=             -0.0000
 Hexadecapole moment (field-independent basis, Debye-Ang**3):
 XXXX=            -12.9526 YYYY=            -12.9526 ZZZZ=            -36.0314 XXXY=             -0.0000
 XXXZ=              0.0000 YYYX=             -0.0000 YYYZ=              0.0000 ZZZX=              0.0000
 ZZZY=              0.0000 XXYY=             -4.3175 XXZZ=             -9.6044 YYZZ=             -9.6044
 XXYZ=              0.0000 YYXZ=              0.0000 ZZXY=             -0.0000
 N-N= 2.334537348574D+01 E-N=-2.638513545732D+02  KE= 9.246022615233D+01
 Symmetry A1   KE= 8.716498415695D+01
 Symmetry A2   KE= 1.332252003432D-41
 Symmetry B1   KE= 2.647620997691D+00
 Symmetry B2   KE= 2.647620997691D+00
 Calling FoFJK, ICntrl=  10002127 FMM=F ISym2X=1 I1Cent= 0 IOpClX= 0 NMat=1 NMatS=1 NMatT=0.
 ***** Axes restored to original set *****
 -------------------------------------------------------------------
 Center     Atomic                   Forces (Hartrees/Bohr)
 Number     Number              X              Y              Z
 -------------------------------------------------------------------
      1        7           0.000159260    0.000000001   -0.000000002
      2        6           0.005396253    0.000000021   -0.000000077
      3        1          -0.005555513   -0.000000022    0.000000079
 -------------------------------------------------------------------
 Cartesian Forces:  Max     0.005555513 RMS     0.002582175

 GradGradGradGradGradGradGradGradGradGradGradGradGradGradGradGradGradGrad
 Berny optimization.
 FormGI is forming the generalized inverse of G from B-inverse, IUseBI=4.
 Internal  Forces:  Max     0.005555513 RMS     0.002778898
 Search for a local minimum.
 Step number   1 out of a maximum of   20
 All quantities printed in internal units (Hartrees-Bohrs-Radians)
 Mixed Optimization -- RFO/linear search
 Second derivative matrix not updated -- first step.
 The second derivative matrix:
                          R1        R2        A1        A2
           R1           1.13835
           R2           0.00000   0.35359
           A1           0.00000   0.00000   0.00297
           A2           0.00000   0.00000   0.00000   0.00297
 ITU=  0
     Eigenvalues ---    0.00297   0.00297   0.35359   1.13835
 RFO step:  Lambda=-8.72883520D-05 EMin= 2.96684637D-03
 Linear search not attempted -- first point.
 Iteration  1 RMS(Cart)=  0.00644152 RMS(Int)=  0.00000000
 Iteration  2 RMS(Cart)=  0.00000000 RMS(Int)=  0.00000000
 ClnCor:  largest displacement from symmetrization is 4.25D-09 for atom     2.
 Variable       Old X    -DE/DX   Delta X   Delta X   Delta X     New X
                                 (Linear)    (Quad)   (Total)
    R1        2.23560  -0.00016   0.00000  -0.00014  -0.00014   2.23546
    R2        2.05097  -0.00556   0.00000  -0.01571  -0.01571   2.03526
    A1        3.14159   0.00000   0.00000  -0.00000   0.00000   3.14159
    A2        3.14159  -0.00000   0.00000   0.00000   0.00000   3.14159
         Item               Value     Threshold  Converged?
 Maximum Force            0.005556     0.000450     NO 
 RMS     Force            0.002779     0.000300     NO 
 Maximum Displacement     0.010519     0.001800     NO 
 RMS     Displacement     0.006442     0.001200     NO 
 Predicted change in Energy=-4.365495D-05
 GradGradGradGradGradGradGradGradGradGradGradGradGradGradGradGradGradGrad

                          Input orientation:                          
 ---------------------------------------------------------------------
 Center     Atomic      Atomic             Coordinates (Angstroms)
 Number     Number       Type             X           Y           Z
 ---------------------------------------------------------------------
      1          7           0       -2.235807   -0.000002    0.000008
      2          6           0       -1.052853    0.000002   -0.000009
      3          1           0        0.024159    0.000007   -0.000024
 ---------------------------------------------------------------------
                    Distance matrix (angstroms):
                    1          2          3
     1  N    0.000000
     2  C    1.182954   0.000000
     3  H    2.259966   1.077012   0.000000
 Stoichiometry    CHN
 Framework group  C*V[C*(HCN)]
 Deg. of freedom     2
 Full point group                 C*V     NOp   4
 Largest Abelian subgroup         C2V     NOp   4
 Largest concise Abelian subgroup C1      NOp   1
                         Standard orientation:                         
 ---------------------------------------------------------------------
 Center     Atomic      Atomic             Coordinates (Angstroms)
 Number     Number       Type             X           Y           Z
 ---------------------------------------------------------------------
      1          7           0       -0.000000   -0.000000    0.668406
      2          6           0        0.000000    0.000000   -0.514548
      3          1           0        0.000000    0.000000   -1.591559
 ---------------------------------------------------------------------
 Rotational constants (GHZ):           0.0000000          42.4918633          42.4918633
 Standard basis: Aug-CC-pVDZ (5D, 7F)
 There are    31 symmetry adapted cartesian basis functions of A1  symmetry.
 There are     4 symmetry adapted cartesian basis functions of A2  symmetry.
 There are    12 symmetry adapted cartesian basis functions of B1  symmetry.
 There are    12 symmetry adapted cartesian basis functions of B2  symmetry.
 There are    27 symmetry adapted basis functions of A1  symmetry.
 There are     4 symmetry adapted basis functions of A2  symmetry.
 There are    12 symmetry adapted basis functions of B1  symmetry.
 There are    12 symmetry adapted basis functions of B2  symmetry.
    55 basis functions,    97 primitive gaussians,    59 cartesian basis functions
     7 alpha electrons        7 beta electrons
       nuclear repulsion energy        23.3751874745 Hartrees.
 NAtoms=    3 NActive=    3 NUniq=    3 SFac= 1.00D+00 NAtFMM=   60 NAOKFM=F Big=F
 Integral buffers will be    131072 words long.
 Raffenetti 1 integral format.
 Two-electron integral symmetry is turned on.
 One-electron integrals computed using PRISM.
 NBasis=    55 RedAO= T EigKep=  6.80D-04  NBF=    27     4    12    12
 NBsUse=    55 1.00D-06 EigRej= -1.00D+00 NBFU=    27     4    12    12
 Initial guess from the checkpoint file:  "hcn.chk"
 B after Tr=    -0.000000    0.000000    0.000000
         Rot=    1.000000   -0.000000    0.000000    0.000000 Ang=   0.00 deg.
 Initial guess orbital symmetries:
       Occupied  (SG) (SG) (SG) (SG) (SG) (PI) (PI)
       Virtual   (SG) (SG) (PI) (PI) (PI) (PI) (SG) (SG) (PI) (PI)
                 (SG) (SG) (PI) (PI) (DLTA) (DLTA) (SG) (SG) (PI)
                 (PI) (SG) (PI) (PI) (DLTA) (DLTA) (SG) (PI) (PI)
                 (SG) (SG) (SG) (PI) (PI) (DLTA) (DLTA) (PI) (PI)
                 (SG) (PI) (PI) (SG) (SG) (DLTA) (DLTA) (PI) (PI)
                 (SG) (SG)
 Keep R1 ints in memory in symmetry-blocked form, NReq=7000358.
 Requested convergence on RMS density matrix=1.00D-08 within 128 cycles.
 Requested convergence on MAX density matrix=1.00D-06.
 Requested convergence on             energy=1.00D-06.
 No special actions if energy rises.
 SCF Done:  E(RHF) =  -92.8824127881     A.U. after    8 cycles
            NFock=  8  Conv=0.62D-08     -V/T= 2.0044
 ExpMin= 2.97D-02 ExpMax= 9.05D+03 ExpMxC= 3.09D+02 IAcc=3 IRadAn=         5 AccDes= 0.00D+00
 HarFok:  IExCor=  205 AccDes= 0.00D+00 IRadAn=         5 IDoV=-2 UseB2=F ITyADJ=14
 ICtDFT= 12500011 ScaDFX=  1.000000  1.000000  1.000000  1.000000
 Range of M.O.s used for correlation:     3    55
 NBasis=    55 NAE=     7 NBE=     7 NFC=     2 NFV=     0
 NROrb=     53 NOA=     5 NOB=     5 NVA=    48 NVB=    48

 **** Warning!!: The largest alpha MO coefficient is  0.12474807D+02

 Fully direct method using O(ONN) memory.
 JobTyp=1 Pass  1:  I=   3 to   7 NPSUse= 28 ParTrn=T ParDer=T DoDerP=T.
 Spin components of T(2) and E(2):
     alpha-alpha T2 =       0.1573354594D-01 E2=     -0.3856941211D-01
     alpha-beta  T2 =       0.8926064938D-01 E2=     -0.2241068530D+00
     beta-beta   T2 =       0.1573354594D-01 E2=     -0.3856941211D-01
 ANorm=    0.1058644294D+01
 E2 =    -0.3012456772D+00 EUMP2 =    -0.93183658465281D+02
          IDoAtm=111
          Differentiating once with respect to electric field.
                with respect to dipole field.
          Differentiating once with respect to nuclear coordinates.
 Keep R1 ints in memory in symmetry-blocked form, NReq=7001622.
          There are     1 degrees of freedom in the 1st order CPHF.  IDoFFX=0 NUNeed=     1.
 LinEq1:  Iter=  0 NonCon=     1 RMS=8.30D-03 Max=5.54D-02 NDo=     1
 AX will form     1 AO Fock derivatives at one time.
 LinEq1:  Iter=  1 NonCon=     1 RMS=1.87D-03 Max=9.61D-03 NDo=     1
 LinEq1:  Iter=  2 NonCon=     1 RMS=6.80D-04 Max=3.81D-03 NDo=     1
 LinEq1:  Iter=  3 NonCon=     1 RMS=3.17D-04 Max=2.44D-03 NDo=     1
 LinEq1:  Iter=  4 NonCon=     1 RMS=6.53D-05 Max=4.04D-04 NDo=     1
 LinEq1:  Iter=  5 NonCon=     1 RMS=9.87D-06 Max=6.44D-05 NDo=     1
 LinEq1:  Iter=  6 NonCon=     1 RMS=1.09D-06 Max=5.65D-06 NDo=     1
 LinEq1:  Iter=  7 NonCon=     1 RMS=1.18D-07 Max=6.71D-07 NDo=     1
 LinEq1:  Iter=  8 NonCon=     1 RMS=1.03D-08 Max=5.14D-08 NDo=     1
 LinEq1:  Iter=  9 NonCon=     1 RMS=5.65D-10 Max=3.35D-09 NDo=     1
 LinEq1:  Iter= 10 NonCon=     0 RMS=4.12D-11 Max=2.16D-10 NDo=     1
 Linear equations converged to 1.000D-10 1.000D-09 after    10 iterations.
 End of Minotr F.D. properties file   721 does not exist.
 End of Minotr F.D. properties file   722 does not exist.
 End of Minotr F.D. properties file   788 does not exist.
 Calling FoFJK, ICntrl=  10002127 FMM=F ISym2X=1 I1Cent= 0 IOpClX= 0 NMat=1 NMatS=1 NMatT=0.
 ***** Axes restored to original set *****
 -------------------------------------------------------------------
 Center     Atomic                   Forces (Hartrees/Bohr)
 Number     Number              X              Y              Z
 -------------------------------------------------------------------
      1        7           0.000280857    0.000000001   -0.000000004
      2        6          -0.000994071   -0.000000004    0.000000014
      3        1           0.000713214    0.000000003   -0.000000010
 -------------------------------------------------------------------
 Cartesian Forces:  Max     0.000994071 RMS     0.000418427

 GradGradGradGradGradGradGradGradGradGradGradGradGradGradGradGradGradGrad
 Berny optimization.
 Using GEDIIS/GDIIS optimizer.
 Internal  Forces:  Max     0.000713214 RMS     0.000383260
 Search for a local minimum.
 Step number   2 out of a maximum of   20
 All quantities printed in internal units (Hartrees-Bohrs-Radians)
 Mixed Optimization -- En-DIIS/RFO-DIIS
 Update second derivatives using D2CorX and points    1    2
 DE= -3.84D-05 DEPred=-4.37D-05 R= 8.81D-01
 TightC=F SS=  1.41D+00  RLast= 1.57D-02 DXNew= 5.0454D-01 4.7126D-02
 Trust test= 8.81D-01 RLast= 1.57D-02 DXMaxT set to 3.00D-01
 The second derivative matrix:
                          R1        R2        A1        A2
           R1           1.13821
           R2          -0.01788   0.39924
           A1           0.00000   0.00000   0.00297
           A2           0.00000   0.00000  -0.00000   0.00297
 ITU=  1  0
 Use linear search instead of GDIIS.
     Eigenvalues ---    0.00297   0.00297   0.39881   1.13865
 RFO step:  Lambda=-6.28663564D-08 EMin= 2.96684637D-03
 Quartic linear search produced a step of -0.11107.
 Iteration  1 RMS(Cart)=  0.00067012 RMS(Int)=  0.00000000
 SLEqS3 Cycle:    91 Max:0.288520E-08 RMS:0.159733E-08 Conv:0.399044E-14
 SLEqS3 Cycle:    91 Max:0.113329E-12 RMS:0.627409E-13 Conv:0.399044E-14
 Iteration  2 RMS(Cart)=  0.00000000 RMS(Int)=  0.00000001
 ClnCor:  largest displacement from symmetrization is 8.79D-09 for atom     2.
 Variable       Old X    -DE/DX   Delta X   Delta X   Delta X     New X
                                 (Linear)    (Quad)   (Total)
    R1        2.23546  -0.00028   0.00002  -0.00024  -0.00022   2.23524
    R2        2.03526   0.00071   0.00174  -0.00000   0.00174   2.03700
    A1        3.14159   0.00000  -0.00000   0.00000   0.00000   3.14159
    A2        3.14159   0.00000  -0.00000   0.00000   0.00000   3.14159
         Item               Value     Threshold  Converged?
 Maximum Force            0.000713     0.000450     NO 
 RMS     Force            0.000383     0.000300     NO 
 Maximum Displacement     0.001087     0.001800     YES
 RMS     Displacement     0.000670     0.001200     YES
 Predicted change in Energy=-6.640288D-07
 GradGradGradGradGradGradGradGradGradGradGradGradGradGradGradGradGradGrad

                          Input orientation:                          
 ---------------------------------------------------------------------
 Center     Atomic      Atomic             Coordinates (Angstroms)
 Number     Number       Type             X           Y           Z
 ---------------------------------------------------------------------
      1          7           0       -2.236036   -0.000002    0.000008
      2          6           0       -1.053199    0.000002   -0.000009
      3          1           0        0.024734    0.000007   -0.000024
 ---------------------------------------------------------------------
                    Distance matrix (angstroms):
                    1          2          3
     1  N    0.000000
     2  C    1.182838   0.000000
     3  H    2.260770   1.077933   0.000000
 Stoichiometry    CHN
 Framework group  C*V[C*(HCN)]
 Deg. of freedom     2
 Full point group                 C*V     NOp   4
 Largest Abelian subgroup         C2V     NOp   4
 Largest concise Abelian subgroup C1      NOp   1
                         Standard orientation:                         
 ---------------------------------------------------------------------
 Center     Atomic      Atomic             Coordinates (Angstroms)
 Number     Number       Type             X           Y           Z
 ---------------------------------------------------------------------
      1          7           0       -0.000000   -0.000000    0.668414
      2          6           0        0.000000    0.000000   -0.514424
      3          1           0        0.000000    0.000000   -1.592356
 ---------------------------------------------------------------------
 Rotational constants (GHZ):           0.0000000          42.4880075          42.4880075
 Standard basis: Aug-CC-pVDZ (5D, 7F)
 There are    31 symmetry adapted cartesian basis functions of A1  symmetry.
 There are     4 symmetry adapted cartesian basis functions of A2  symmetry.
 There are    12 symmetry adapted cartesian basis functions of B1  symmetry.
 There are    12 symmetry adapted cartesian basis functions of B2  symmetry.
 There are    27 symmetry adapted basis functions of A1  symmetry.
 There are     4 symmetry adapted basis functions of A2  symmetry.
 There are    12 symmetry adapted basis functions of B1  symmetry.
 There are    12 symmetry adapted basis functions of B2  symmetry.
    55 basis functions,    97 primitive gaussians,    59 cartesian basis functions
     7 alpha electrons        7 beta electrons
       nuclear repulsion energy        23.3739308952 Hartrees.
 NAtoms=    3 NActive=    3 NUniq=    3 SFac= 1.00D+00 NAtFMM=   60 NAOKFM=F Big=F
 Integral buffers will be    131072 words long.
 Raffenetti 1 integral format.
 Two-electron integral symmetry is turned on.
 One-electron integrals computed using PRISM.
 NBasis=    55 RedAO= T EigKep=  6.80D-04  NBF=    27     4    12    12
 NBsUse=    55 1.00D-06 EigRej= -1.00D+00 NBFU=    27     4    12    12
 Initial guess from the checkpoint file:  "hcn.chk"
 B after Tr=     0.000000   -0.000000   -0.000000
         Rot=    1.000000   -0.000000   -0.000000   -0.000000 Ang=   0.00 deg.
 Initial guess orbital symmetries:
       Occupied  (SG) (SG) (SG) (SG) (SG) (PI) (PI)
       Virtual   (SG) (SG) (PI) (PI) (PI) (PI) (SG) (SG) (PI) (PI)
                 (SG) (SG) (PI) (PI) (DLTA) (DLTA) (SG) (SG) (PI)
                 (PI) (SG) (PI) (PI) (DLTA) (DLTA) (SG) (PI) (PI)
                 (SG) (SG) (SG) (PI) (PI) (DLTA) (DLTA) (PI) (PI)
                 (SG) (PI) (PI) (SG) (DLTA) (DLTA) (SG) (PI) (PI)
                 (SG) (SG)
 Keep R1 ints in memory in symmetry-blocked form, NReq=7000358.
 Requested convergence on RMS density matrix=1.00D-08 within 128 cycles.
 Requested convergence on MAX density matrix=1.00D-06.
 Requested convergence on             energy=1.00D-06.
 No special actions if energy rises.
 SCF Done:  E(RHF) =  -92.8824244312     A.U. after    7 cycles
            NFock=  7  Conv=0.82D-08     -V/T= 2.0044
 ExpMin= 2.97D-02 ExpMax= 9.05D+03 ExpMxC= 3.09D+02 IAcc=3 IRadAn=         5 AccDes= 0.00D+00
 HarFok:  IExCor=  205 AccDes= 0.00D+00 IRadAn=         5 IDoV=-2 UseB2=F ITyADJ=14
 ICtDFT= 12500011 ScaDFX=  1.000000  1.000000  1.000000  1.000000
 Range of M.O.s used for correlation:     3    55
 NBasis=    55 NAE=     7 NBE=     7 NFC=     2 NFV=     0
 NROrb=     53 NOA=     5 NOB=     5 NVA=    48 NVB=    48

 **** Warning!!: The largest alpha MO coefficient is  0.12458714D+02

 Fully direct method using O(ONN) memory.
 JobTyp=1 Pass  1:  I=   3 to   7 NPSUse= 28 ParTrn=T ParDer=T DoDerP=T.
 Spin components of T(2) and E(2):
     alpha-alpha T2 =       0.1573129408D-01 E2=     -0.3856670700D-01
     alpha-beta  T2 =       0.8925568600D-01 E2=     -0.2241012765D+00
     beta-beta   T2 =       0.1573129408D-01 E2=     -0.3856670700D-01
 ANorm=    0.1058639823D+01
 E2 =    -0.3012346904D+00 EUMP2 =    -0.93183659121649D+02
          IDoAtm=111
          Differentiating once with respect to electric field.
                with respect to dipole field.
          Differentiating once with respect to nuclear coordinates.
 Keep R1 ints in memory in symmetry-blocked form, NReq=7001622.
          There are     1 degrees of freedom in the 1st order CPHF.  IDoFFX=0 NUNeed=     1.
 LinEq1:  Iter=  0 NonCon=     1 RMS=8.30D-03 Max=5.54D-02 NDo=     1
 AX will form     1 AO Fock derivatives at one time.
 LinEq1:  Iter=  1 NonCon=     1 RMS=1.87D-03 Max=9.61D-03 NDo=     1
 LinEq1:  Iter=  2 NonCon=     1 RMS=6.80D-04 Max=3.81D-03 NDo=     1
 LinEq1:  Iter=  3 NonCon=     1 RMS=3.17D-04 Max=2.44D-03 NDo=     1
 LinEq1:  Iter=  4 NonCon=     1 RMS=6.53D-05 Max=4.04D-04 NDo=     1
 LinEq1:  Iter=  5 NonCon=     1 RMS=9.87D-06 Max=6.44D-05 NDo=     1
 LinEq1:  Iter=  6 NonCon=     1 RMS=1.09D-06 Max=5.64D-06 NDo=     1
 LinEq1:  Iter=  7 NonCon=     1 RMS=1.18D-07 Max=6.71D-07 NDo=     1
 LinEq1:  Iter=  8 NonCon=     1 RMS=1.03D-08 Max=5.13D-08 NDo=     1
 LinEq1:  Iter=  9 NonCon=     1 RMS=5.65D-10 Max=3.35D-09 NDo=     1
 LinEq1:  Iter= 10 NonCon=     0 RMS=4.13D-11 Max=2.17D-10 NDo=     1
 Linear equations converged to 1.000D-10 1.000D-09 after    10 iterations.
 End of Minotr F.D. properties file   721 does not exist.
 End of Minotr F.D. properties file   722 does not exist.
 End of Minotr F.D. properties file   788 does not exist.
 Calling FoFJK, ICntrl=  10002127 FMM=F ISym2X=1 I1Cent= 0 IOpClX= 0 NMat=1 NMatS=1 NMatT=0.
 ***** Axes restored to original set *****
 -------------------------------------------------------------------
 Center     Atomic                   Forces (Hartrees/Bohr)
 Number     Number              X              Y              Z
 -------------------------------------------------------------------
      1        7           0.000021660    0.000000000   -0.000000000
      2        6          -0.000021790   -0.000000000    0.000000000
      3        1           0.000000131    0.000000000   -0.000000000
 -------------------------------------------------------------------
 Cartesian Forces:  Max     0.000021790 RMS     0.000010241

 GradGradGradGradGradGradGradGradGradGradGradGradGradGradGradGradGradGrad
 Berny optimization.
 Using GEDIIS/GDIIS optimizer.
 Internal  Forces:  Max     0.000021660 RMS     0.000010830
 Search for a local minimum.
 Step number   3 out of a maximum of   20
 All quantities printed in internal units (Hartrees-Bohrs-Radians)
 Mixed Optimization -- En-DIIS/RFO-DIIS
 Swapping is turned off.
 Update second derivatives using D2CorX and points    1    2    3
 DE= -6.56D-07 DEPred=-6.64D-07 R= 9.88D-01
 Trust test= 9.88D-01 RLast= 1.75D-03 DXMaxT set to 3.00D-01
 The second derivative matrix:
                          R1        R2        A1        A2
           R1           1.12681
           R2          -0.00679   0.40892
           A1           0.00000   0.00000   0.00297
           A2           0.00000   0.00000  -0.00000   0.00297
 ITU=  0  1  0
     Eigenvalues ---    0.00297   0.00297   0.40886   1.12688
 En-DIIS/RFO-DIIS/Sim-DIIS IScMMF=       -3 using points:     3    2
 RFO step:  Lambda=-3.99658256D-10.
 DidBck=F Rises=F RFO-DIIS coefs:    1.00137   -0.00137
 Iteration  1 RMS(Cart)=  0.00000785 RMS(Int)=  0.00000000
 Iteration  2 RMS(Cart)=  0.00000000 RMS(Int)=  0.00000000
 ClnCor:  largest displacement from symmetrization is 2.10D-11 for atom     2.
 Variable       Old X    -DE/DX   Delta X   Delta X   Delta X     New X
                                 (Linear)    (Quad)   (Total)
    R1        2.23524  -0.00002  -0.00000  -0.00002  -0.00002   2.23522
    R2        2.03700   0.00000   0.00000  -0.00000   0.00000   2.03700
    A1        3.14159  -0.00000   0.00000   0.00000   0.00000   3.14159
    A2        3.14159   0.00000   0.00000   0.00000   0.00000   3.14159
         Item               Value     Threshold  Converged?
 Maximum Force            0.000022     0.000450     YES
 RMS     Force            0.000011     0.000300     YES
 Maximum Displacement     0.000013     0.001800     YES
 RMS     Displacement     0.000008     0.001200     YES
 Predicted change in Energy=-2.081699D-10
 Optimization completed.
    -- Stationary point found.
                           ----------------------------
                           !   Optimized Parameters   !
                           ! (Angstroms and Degrees)  !
 --------------------------                            --------------------------
 ! Name  Definition              Value          Derivative Info.                !
 --------------------------------------------------------------------------------
 ! R1    R(1,2)                  1.1828         -DE/DX =    0.0                 !
 ! R2    R(2,3)                  1.0779         -DE/DX =    0.0                 !
 ! A1    L(1,2,3,-2,-1)        180.0            -DE/DX =    0.0                 !
 ! A2    L(1,2,3,-3,-2)        180.0            -DE/DX =    0.0                 !
 --------------------------------------------------------------------------------
 GradGradGradGradGradGradGradGradGradGradGradGradGradGradGradGradGradGrad

                          Input orientation:                          
 ---------------------------------------------------------------------
 Center     Atomic      Atomic             Coordinates (Angstroms)
 Number     Number       Type             X           Y           Z
 ---------------------------------------------------------------------
      1          7           0       -2.236036   -0.000002    0.000008
      2          6           0       -1.053199    0.000002   -0.000009
      3          1           0        0.024734    0.000007   -0.000024
 ---------------------------------------------------------------------
                    Distance matrix (angstroms):
                    1          2          3
     1  N    0.000000
     2  C    1.182838   0.000000
     3  H    2.260770   1.077933   0.000000
 Stoichiometry    CHN
 Framework group  C*V[C*(HCN)]
 Deg. of freedom     2
 Full point group                 C*V     NOp   4
 Largest Abelian subgroup         C2V     NOp   4
 Largest concise Abelian subgroup C1      NOp   1
                         Standard orientation:                         
 ---------------------------------------------------------------------
 Center     Atomic      Atomic             Coordinates (Angstroms)
 Number     Number       Type             X           Y           Z
 ---------------------------------------------------------------------
      1          7           0       -0.000000   -0.000000    0.668414
      2          6           0        0.000000    0.000000   -0.514424
      3          1           0        0.000000    0.000000   -1.592356
 ---------------------------------------------------------------------
 Rotational constants (GHZ):           0.0000000          42.4880075          42.4880075

 **********************************************************************

            Population analysis using the SCF density.

 **********************************************************************

 Orbital symmetries:
       Occupied  (SG) (SG) (SG) (SG) (SG) (PI) (PI)
       Virtual   (SG) (SG) (PI) (PI) (PI) (PI) (SG) (SG) (PI) (PI)
                 (SG) (SG) (PI) (PI) (DLTA) (DLTA) (SG) (SG) (PI)
                 (PI) (SG) (PI) (PI) (DLTA) (DLTA) (SG) (PI) (PI)
                 (SG) (SG) (SG) (PI) (PI) (DLTA) (DLTA) (PI) (PI)
                 (SG) (PI) (PI) (SG) (DLTA) (DLTA) (SG) (PI) (PI)
                 (SG) (SG)
 The electronic state is 1-SG.
 Alpha  occ. eigenvalues --  -15.62133 -11.31416  -1.22748  -0.81299  -0.58317
 Alpha  occ. eigenvalues --   -0.48801  -0.48801
 Alpha virt. eigenvalues --    0.02863   0.08199   0.08332   0.08332   0.15590
 Alpha virt. eigenvalues --    0.15590   0.15721   0.18101   0.24143   0.24143
 Alpha virt. eigenvalues --    0.26602   0.33569   0.41001   0.41001   0.43145
 Alpha virt. eigenvalues --    0.43145   0.49803   0.56887   0.66002   0.66002
 Alpha virt. eigenvalues --    0.75380   0.81635   0.81635   0.81687   0.81687
 Alpha virt. eigenvalues --    0.86865   0.99033   0.99033   1.08660   1.27470
 Alpha virt. eigenvalues --    1.50819   1.58179   1.58179   1.63548   1.63548
 Alpha virt. eigenvalues --    1.67002   1.67002   1.87447   2.20974   2.20974
 Alpha virt. eigenvalues --    2.33718   2.57452   2.57452   2.57743   2.93523
 Alpha virt. eigenvalues --    2.93523   3.36856   3.63735
          Condensed to atoms (all electrons):
               1          2          3
     1  N    6.740209   0.692809  -0.000270
     2  C    0.692809   4.825576   0.154230
     3  H   -0.000270   0.154230   0.740680
 Mulliken charges:
               1
     1  N   -0.432747
     2  C    0.327386
     3  H    0.105361
 Sum of Mulliken charges =   0.00000
 Mulliken charges with hydrogens summed into heavy atoms:
               1
     1  N   -0.432747
     2  C    0.432747
 Electronic spatial extent (au):  <R**2>=             51.0141
 Charge=              0.0000 electrons
 Dipole moment (field-independent basis, Debye):
    X=             -0.0000    Y=              0.0000    Z=             -3.3329  Tot=              3.3329
 Quadrupole moment (field-independent basis, Debye-Ang):
   XX=            -12.1428   YY=            -12.1428   ZZ=             -9.5027
   XY=              0.0000   XZ=             -0.0000   YZ=              0.0000
 Traceless Quadrupole moment (field-independent basis, Debye-Ang):
   XX=             -0.8800   YY=             -0.8800   ZZ=              1.7601
   XY=              0.0000   XZ=             -0.0000   YZ=              0.0000
 Octapole moment (field-independent basis, Debye-Ang**2):
  XXX=             -0.0000  YYY=              0.0000  ZZZ=             -8.4130  XYY=             -0.0000
  XXY=              0.0000  XXZ=             -0.4387  XZZ=             -0.0000  YZZ=             -0.0000
  YYZ=             -0.4387  XYZ=              0.0000
 Hexadecapole moment (field-independent basis, Debye-Ang**3):
 XXXX=            -12.9357 YYYY=            -12.9357 ZZZZ=            -36.0971 XXXY=              0.0000
 XXXZ=             -0.0000 YYYX=              0.0000 YYYZ=              0.0000 ZZZX=             -0.0000
 ZZZY=              0.0000 XXYY=             -4.3119 XXZZ=             -9.5700 YYZZ=             -9.5700
 XXYZ=              0.0000 YYXZ=             -0.0000 ZZXY=              0.0000
 N-N= 2.337393089525D+01 E-N=-2.639146498385D+02  KE= 9.247221111252D+01
 Symmetry A1   KE= 8.717693986499D+01
 Symmetry A2   KE= 1.005052967194D-42
 Symmetry B1   KE= 2.647635623768D+00
 Symmetry B2   KE= 2.647635623768D+00
 1\1\GINC-N2161\FOpt\RMP2-FC\Aug-CC-pVDZ\C1H1N1\GDS001\04-Aug-2020\0\\#
  MP2/aug-cc-pVDZ Opt Freq(vibrot,anharmonic)\\hcn\\0,1\N,-2.2360363778
 ,-0.0000021661,0.0000082143\C,-1.0531985785,0.0000024391,-0.0000086467
 \H,0.0247339563,0.0000066359,-0.0000240123\\Version=ES64L-G16RevA.03\S
 tate=1-SG\HF=-92.8824244\MP2=-93.1836591\RMSD=8.177e-09\RMSF=1.024e-05
 \Dipole=1.1914564,0.0000046,-0.000017\PG=C*V [C*(H1C1N1)]\\@


 PATIENCE IS THE ABILITY TO IDLE YOUR MOTOR WHEN
 YOU FEEL LIKE STRIPPING YOUR GEARS.
 Job cpu time:       0 days  0 hours  3 minutes 20.7 seconds.
 Elapsed time:       0 days  0 hours  0 minutes  8.8 seconds.
 File lengths (MBytes):  RWF=     72 Int=      0 D2E=      0 Chk=      8 Scr=      8
 Normal termination of Gaussian 16 at Tue Aug  4 16:28:32 2020.
 Link1:  Proceeding to internal job step number  2.
 ----------------------------------------------------------------------
 #N Geom=AllCheck Guess=TCheck SCRF=Check GenChk RMP2(FC)/Aug-CC-pVDZ F
 req
 ----------------------------------------------------------------------
 1/10=4,29=7,30=1,38=21,40=1,80=1/1,6,3;
 2/12=2,40=1/2;
 3/5=16,7=10,11=1,14=-4,25=1,30=1,70=2,71=2,116=1,140=1/1,2,3;
 4/5=101,69=2/1;
 5/5=2,38=6,98=1/2;
 8/6=3,8=1,10=1,19=11,30=-1/1;
 9/15=3,16=-3/6;
 11/6=1,8=1,15=11,17=12,24=-1,27=1,28=-2,29=300,32=6,42=3/1,2,10;
 10/6=2,21=1,60=-2/2;
 8/6=4,8=1,10=1,19=11,30=-1/11,4;
 10/5=1,20=4,60=-2/2;
 11/12=2,14=11,16=1,17=2,28=-2,42=3/2,10,12;
 6/7=2,8=2,9=2,10=2,22=-1/1;
 7/10=1,12=2,25=1,44=2,70=1,71=2/1,2,3,16;
 1/38=20,80=1/6(3);
 7/8=1,25=202,44=-1,70=1,71=1,92=10/16,17;
 1/10=4,30=1,38=20,80=1/3;
 99//99;
 3/5=16,7=10,11=1,14=-2,25=1,30=1,70=5,71=2,116=1,140=1/1,2,3;
 4/5=5,16=3,69=2/1;
 5/5=2,38=5,98=1/2;
 8/6=3,8=1,10=1,19=11,30=-1/1;
 9/15=3,16=-3/6;
 11/6=1,8=1,15=11,17=12,24=-1,27=1,28=-2,29=300,32=6,42=3/1,2,10;
 10/6=2,21=1,60=-2/2;
 8/6=4,8=1,10=1,19=11,30=-1/11,4;
 10/5=1,20=4,60=-2/2;
 11/12=2,14=11,16=1,17=2,28=-2,42=3/2,10,12;
 6/7=2,8=2,9=2,10=2,22=-1/1;
 7/7=1,10=1,12=2,25=1,44=2,70=1,71=1/1,2,3,16;
 1/38=20,80=1/6(-12);
 7/8=1,25=202,44=-1,70=1,71=1,92=10/16,17;
 1/10=4,30=1,38=20,80=1/3;
 99//99;
 Structure from the checkpoint file:  "hcn.chk"
 ---
 hcn
 ---
 Charge =  0 Multiplicity = 1
 Redundant internal coordinates found in file.  (old form).
 N,0,-2.2360363778,-0.0000021661,0.0000082143
 C,0,-1.0531985785,0.0000024391,-0.0000086467
 H,0,0.0247339563,0.0000066359,-0.0000240123
 Recover connectivity data from disk.
 Numerical evaluation of third derivatives.
 Nuclear step= 0.010000 Angstroms, electric field step= 0.000333 atomic units, NStep=1.

 GradGradGradGradGradGradGradGradGradGradGradGradGradGradGradGradGradGrad
 Berny optimization.
 Initialization pass.
                           ----------------------------
                           !    Initial Parameters    !
                           ! (Angstroms and Degrees)  !
 --------------------------                            --------------------------
 ! Name  Definition              Value          Derivative Info.                !
 --------------------------------------------------------------------------------
 ! R1    R(1,2)                  1.1828         calculate D2E/DX2 analytically  !
 ! R2    R(2,3)                  1.0779         calculate D2E/DX2 analytically  !
 ! A1    L(1,2,3,-2,-1)        180.0            calculate D2E/DX2 analytically  !
 ! A2    L(1,2,3,-3,-2)        180.0            calculate D2E/DX2 analytically  !
 --------------------------------------------------------------------------------
 Trust Radius=3.00D-01 FncErr=1.00D-07 GrdErr=1.00D-07 EigMax=2.50D+02 EigMin=1.00D-04
 Number of steps in this run=      2 maximum allowed number of steps=      2.
 GradGradGradGradGradGradGradGradGradGradGradGradGradGradGradGradGradGrad

                          Input orientation:                          
 ---------------------------------------------------------------------
 Center     Atomic      Atomic             Coordinates (Angstroms)
 Number     Number       Type             X           Y           Z
 ---------------------------------------------------------------------
      1          7           0       -2.236036   -0.000002    0.000008
      2          6           0       -1.053199    0.000002   -0.000009
      3          1           0        0.024734    0.000007   -0.000024
 ---------------------------------------------------------------------
                    Distance matrix (angstroms):
                    1          2          3
     1  N    0.000000
     2  C    1.182838   0.000000
     3  H    2.260770   1.077933   0.000000
 Stoichiometry    CHN
 Framework group  C*V[C*(HCN)]
 Deg. of freedom     2
 Full point group                 C*V     NOp   4
 Largest Abelian subgroup         C2V     NOp   4
 Largest concise Abelian subgroup C1      NOp   1
                         Standard orientation:                         
 ---------------------------------------------------------------------
 Center     Atomic      Atomic             Coordinates (Angstroms)
 Number     Number       Type             X           Y           Z
 ---------------------------------------------------------------------
      1          7           0       -0.000000   -0.000000    0.668414
      2          6           0        0.000000    0.000000   -0.514424
      3          1           0        0.000000    0.000000   -1.592356
 ---------------------------------------------------------------------
 Rotational constants (GHZ):           0.0000000          42.4880075          42.4880075
 Standard basis: Aug-CC-pVDZ (5D, 7F)
 There are    31 symmetry adapted cartesian basis functions of A1  symmetry.
 There are     4 symmetry adapted cartesian basis functions of A2  symmetry.
 There are    12 symmetry adapted cartesian basis functions of B1  symmetry.
 There are    12 symmetry adapted cartesian basis functions of B2  symmetry.
 There are    27 symmetry adapted basis functions of A1  symmetry.
 There are     4 symmetry adapted basis functions of A2  symmetry.
 There are    12 symmetry adapted basis functions of B1  symmetry.
 There are    12 symmetry adapted basis functions of B2  symmetry.
    55 basis functions,    97 primitive gaussians,    59 cartesian basis functions
     7 alpha electrons        7 beta electrons
       nuclear repulsion energy        23.3739308952 Hartrees.
 NAtoms=    3 NActive=    3 NUniq=    3 SFac= 1.00D+00 NAtFMM=   60 NAOKFM=F Big=F
 Integral buffers will be    131072 words long.
 Raffenetti 1 integral format.
 Two-electron integral symmetry is turned on.
 One-electron integrals computed using PRISM.
 NBasis=    55 RedAO= T EigKep=  6.80D-04  NBF=    27     4    12    12
 NBsUse=    55 1.00D-06 EigRej= -1.00D+00 NBFU=    27     4    12    12
 Initial guess from the checkpoint file:  "hcn.chk"
 B after Tr=    -0.000000   -0.000000    0.000000
         Rot=    1.000000    0.000000    0.000000   -0.000000 Ang=   0.00 deg.
 Initial guess orbital symmetries:
       Occupied  (SG) (SG) (SG) (SG) (SG) (PI) (PI)
       Virtual   (SG) (SG) (PI) (PI) (PI) (PI) (SG) (SG) (PI) (PI)
                 (SG) (SG) (PI) (PI) (DLTA) (DLTA) (SG) (SG) (PI)
                 (PI) (SG) (PI) (PI) (DLTA) (DLTA) (SG) (PI) (PI)
                 (SG) (SG) (SG) (PI) (PI) (DLTA) (DLTA) (PI) (PI)
                 (SG) (PI) (PI) (SG) (DLTA) (DLTA) (SG) (PI) (PI)
                 (SG) (SG)
 Keep R1 ints in memory in symmetry-blocked form, NReq=7000358.
 Requested convergence on RMS density matrix=1.00D-08 within 128 cycles.
 Requested convergence on MAX density matrix=1.00D-06.
 Requested convergence on             energy=1.00D-06.
 No special actions if energy rises.
 SCF Done:  E(RHF) =  -92.8824244312     A.U. after    1 cycles
            NFock=  1  Conv=0.49D-09     -V/T= 2.0044
 ExpMin= 2.97D-02 ExpMax= 9.05D+03 ExpMxC= 3.09D+02 IAcc=3 IRadAn=         5 AccDes= 0.00D+00
 HarFok:  IExCor=  205 AccDes= 0.00D+00 IRadAn=         5 IDoV=-2 UseB2=F ITyADJ=14
 ICtDFT= 12500011 ScaDFX=  1.000000  1.000000  1.000000  1.000000
 Range of M.O.s used for correlation:     3    55
 NBasis=    55 NAE=     7 NBE=     7 NFC=     2 NFV=     0
 NROrb=     53 NOA=     5 NOB=     5 NVA=    48 NVB=    48

 **** Warning!!: The largest alpha MO coefficient is  0.12458714D+02

 Disk-based method using ON**2 memory for  5 occupieds at a time.
 Permanent disk used for amplitudes=      136584 words.
 Estimated scratch disk usage=     2040466 words.
 Actual    scratch disk usage=     2040466 words.
 JobTyp=1 Pass  1:  I=   3 to   7 NPSUse= 28 ParTrn=T ParDer=T DoDerP=T.
 (rs|ai) integrals will be sorted in core.
 Spin components of T(2) and E(2):
     alpha-alpha T2 =       0.1573129397D-01 E2=     -0.3856670682D-01
     alpha-beta  T2 =       0.8925568548D-01 E2=     -0.2241012757D+00
     beta-beta   T2 =       0.1573129397D-01 E2=     -0.3856670682D-01
 ANorm=    0.1058639822D+01
 E2 =    -0.3012346893D+00 EUMP2 =    -0.93183659120532D+02
 G2DrvN: will do     4 centers at a time, making    1 passes.
 Calling FoFCou, ICntrl=  3107 FMM=F I1Cent=   0 AccDes= 0.00D+00.
 End of G2Drv F.D. properties file   721 does not exist.
 End of G2Drv F.D. properties file   722 does not exist.
 End of G2Drv F.D. properties file   788 does not exist.
          IDoAtm=111
          Differentiating once with respect to electric field.
                with respect to dipole field.
          Differentiating once with respect to nuclear coordinates.
 Keep R1 ints in memory in symmetry-blocked form, NReq=7000962.
          There are    12 degrees of freedom in the 1st order CPHF.  IDoFFX=6 NUNeed=    12.
      9 vectors produced by pass  0 Test12= 2.80D-15 8.33D-09 XBig12= 8.52D+00 1.37D+00.
 AX will form     9 AO Fock derivatives at one time.
      9 vectors produced by pass  1 Test12= 2.80D-15 8.33D-09 XBig12= 1.72D+00 3.81D-01.
      9 vectors produced by pass  2 Test12= 2.80D-15 8.33D-09 XBig12= 4.32D-02 7.42D-02.
      9 vectors produced by pass  3 Test12= 2.80D-15 8.33D-09 XBig12= 4.17D-04 5.87D-03.
      9 vectors produced by pass  4 Test12= 2.80D-15 8.33D-09 XBig12= 1.98D-06 4.21D-04.
      9 vectors produced by pass  5 Test12= 2.80D-15 8.33D-09 XBig12= 5.80D-09 1.91D-05.
      7 vectors produced by pass  6 Test12= 2.80D-15 8.33D-09 XBig12= 2.95D-11 1.87D-06.
      3 vectors produced by pass  7 Test12= 2.80D-15 8.33D-09 XBig12= 1.13D-13 9.78D-08.
 InvSVY:  IOpt=1 It=  1 EMax= 8.88D-16
 Solved reduced A of dimension    64 with     9 vectors.
 End of Minotr F.D. properties file   721 does not exist.
 End of Minotr F.D. properties file   722 does not exist.
 End of Minotr F.D. properties file   788 does not exist.
 MDV=  5502926848.
 Form MO integral derivatives with frozen-active canonical formalism.
 Discarding MO integrals.
 Reordered first order wavefunction length =       225792
 In DefCFB: NBatch=  1 ICI=  7 ICA= 48 LFMax= 48
            Large arrays: LIAPS=     4361280 LIARS=     3469200 words.
 Semi-Direct transformation.
 ModeAB=           2 MOrb=             7 LenV=    5502693503
 LASXX=       522879 LTotXX=      522879 LenRXX=      522879
 LTotAB=      551152 MaxLAS=      681450 LenRXY=      681450
 NonZer=     1045758 LenScr=     1572864 LnRSAI=           0
 LnScr1=           0 LExtra=           0 Total=      2777193
 MaxDsk=          -1 SrtSym=           F ITran=            4
 JobTyp=0 Pass  1:  I=   1 to   7.
 (rs|ai) integrals will be sorted in core.
 Spin components of T(2) and E(2):
     alpha-alpha T2 =       0.1573129397D-01 E2=     -0.3856670682D-01
     alpha-beta  T2 =       0.8925568548D-01 E2=     -0.2241012757D+00
     beta-beta   T2 =       0.1573129397D-01 E2=     -0.3856670682D-01
 ANorm=    0.1497142794D+01
 E2 =    -0.3012346893D+00 EUMP2 =    -0.93183659120532D+02
          IDoAtm=111
          Differentiating once with respect to electric field.
                with respect to dipole field.
          Differentiating once with respect to nuclear coordinates.
          There are     1 degrees of freedom in the 1st order CPHF.  IDoFFX=0 NUNeed=     1.
 LinEq1:  Iter=  0 NonCon=     1 RMS=8.30D-03 Max=5.54D-02 NDo=     1
 LinEq1:  Iter=  1 NonCon=     1 RMS=1.87D-03 Max=9.61D-03 NDo=     1
 LinEq1:  Iter=  2 NonCon=     1 RMS=6.80D-04 Max=3.81D-03 NDo=     1
 LinEq1:  Iter=  3 NonCon=     1 RMS=3.17D-04 Max=2.44D-03 NDo=     1
 LinEq1:  Iter=  4 NonCon=     1 RMS=6.53D-05 Max=4.04D-04 NDo=     1
 LinEq1:  Iter=  5 NonCon=     1 RMS=9.87D-06 Max=6.44D-05 NDo=     1
 LinEq1:  Iter=  6 NonCon=     1 RMS=1.09D-06 Max=5.64D-06 NDo=     1
 LinEq1:  Iter=  7 NonCon=     1 RMS=1.18D-07 Max=6.71D-07 NDo=     1
 LinEq1:  Iter=  8 NonCon=     1 RMS=1.03D-08 Max=5.13D-08 NDo=     1
 LinEq1:  Iter=  9 NonCon=     1 RMS=5.65D-10 Max=3.35D-09 NDo=     1
 LinEq1:  Iter= 10 NonCon=     0 RMS=4.13D-11 Max=2.17D-10 NDo=     1
 Linear equations converged to 1.000D-10 1.000D-09 after    10 iterations.
 End of Minotr F.D. properties file   721 does not exist.
 End of Minotr F.D. properties file   722 does not exist.
 End of Minotr F.D. properties file   788 does not exist.
 Symmetrizing basis deriv contribution to polar:
 IMax=3 JMax=2 DiffMx= 0.00D+00
 G2DrvN: will do     4 centers at a time, making    1 passes.
 Calling FoFCou, ICntrl=  3107 FMM=F I1Cent=   0 AccDes= 0.00D+00.
 End of G2Drv F.D. properties file   721 does not exist.
 End of G2Drv F.D. properties file   722 does not exist.
 End of G2Drv F.D. properties file   788 does not exist.
 R2 and R3 integrals will be kept in memory, NReq=     3954670.
 DD1Dir will call FoFMem   1 times, MxPair=        56
 NAB=    28 NAA=     0 NBB=     0.
 Discarding MO integrals.

 **********************************************************************

            Population analysis using the MP2 density.

 **********************************************************************

 Orbital symmetries:
       Occupied  (SG) (SG) (SG) (SG) (SG) (PI) (PI)
       Virtual   (SG) (SG) (PI) (PI) (PI) (PI) (SG) (SG) (PI) (PI)
                 (SG) (SG) (PI) (PI) (DLTA) (DLTA) (SG) (SG) (PI)
                 (PI) (SG) (PI) (PI) (DLTA) (DLTA) (SG) (PI) (PI)
                 (SG) (SG) (SG) (PI) (PI) (DLTA) (DLTA) (PI) (PI)
                 (SG) (PI) (PI) (SG) (DLTA) (DLTA) (SG) (PI) (PI)
                 (SG) (SG)
 The electronic state is 1-SG.
 Alpha  occ. eigenvalues --  -15.62133 -11.31416  -1.22748  -0.81299  -0.58317
 Alpha  occ. eigenvalues --   -0.48801  -0.48801
 Alpha virt. eigenvalues --    0.02863   0.08199   0.08332   0.08332   0.15590
 Alpha virt. eigenvalues --    0.15590   0.15721   0.18101   0.24143   0.24143
 Alpha virt. eigenvalues --    0.26602   0.33569   0.41001   0.41001   0.43145
 Alpha virt. eigenvalues --    0.43145   0.49803   0.56887   0.66002   0.66002
 Alpha virt. eigenvalues --    0.75380   0.81635   0.81635   0.81687   0.81687
 Alpha virt. eigenvalues --    0.86865   0.99033   0.99033   1.08660   1.27470
 Alpha virt. eigenvalues --    1.50819   1.58179   1.58179   1.63548   1.63548
 Alpha virt. eigenvalues --    1.67002   1.67002   1.87447   2.20974   2.20974
 Alpha virt. eigenvalues --    2.33718   2.57452   2.57452   2.57743   2.93523
 Alpha virt. eigenvalues --    2.93523   3.36856   3.63735
          Condensed to atoms (all electrons):
               1          2          3
     1  N    6.841584   0.454452   0.046510
     2  C    0.454452   5.228953   0.023800
     3  H    0.046510   0.023800   0.879938
 Mulliken charges:
               1
     1  N   -0.342546
     2  C    0.292795
     3  H    0.049751
 Sum of Mulliken charges =   0.00000
 Mulliken charges with hydrogens summed into heavy atoms:
               1
     1  N   -0.342546
     2  C    0.342546
 APT charges:
               1
     1  N   -0.146262
     2  C   -0.109647
     3  H    0.255909
 Sum of APT charges =   0.00000
 APT charges with hydrogens summed into heavy atoms:
               1
     1  N   -0.146262
     2  C    0.146262
 Electronic spatial extent (au):  <R**2>=             51.2391
 Charge=              0.0000 electrons
 Dipole moment (field-independent basis, Debye):
    X=              0.0000    Y=              0.0000    Z=             -3.0284  Tot=              3.0284
 Quadrupole moment (field-independent basis, Debye-Ang):
   XX=            -12.0054   YY=            -12.0054   ZZ=            -10.0804
   XY=             -0.0000   XZ=             -0.0000   YZ=              0.0000
 Traceless Quadrupole moment (field-independent basis, Debye-Ang):
   XX=             -0.6417   YY=             -0.6417   ZZ=              1.2833
   XY=             -0.0000   XZ=             -0.0000   YZ=              0.0000
 Octapole moment (field-independent basis, Debye-Ang**2):
  XXX=              0.0000  YYY=              0.0000  ZZZ=             -7.9478  XYY=              0.0000
  XXY=              0.0000  XXZ=             -0.3064  XZZ=              0.0000  YZZ=              0.0000
  YYZ=             -0.3064  XYZ=             -0.0000
 Hexadecapole moment (field-independent basis, Debye-Ang**3):
 XXXX=            -12.6632 YYYY=            -12.6632 ZZZZ=            -38.8360 XXXY=             -0.0000
 XXXZ=              0.0000 YYYX=             -0.0000 YYYZ=              0.0000 ZZZX=              0.0000
 ZZZY=              0.0000 XXYY=             -4.2211 XXZZ=             -9.9056 YYZZ=             -9.9056
 XXYZ=              0.0000 YYXZ=              0.0000 ZZXY=             -0.0000
 N-N= 2.337393089525D+01 E-N=-2.642780947105D+02  KE= 9.288830974429D+01
 Symmetry A1   KE= 8.716417481138D+01
 Symmetry A2   KE= 1.562528452997D-02
 Symmetry B1   KE= 2.854254824189D+00
 Symmetry B2   KE= 2.854254824189D+00
  Exact polarizability:  13.851   0.000  13.851  -0.000  -0.000  22.801
 Approx polarizability:  12.658   0.000  12.658  -0.000  -0.000  24.269
 Calling FoFJK, ICntrl=  10100127 FMM=F ISym2X=1 I1Cent= 0 IOpClX= 0 NMat=1 NMatS=1 NMatT=0.
 Full mass-weighted force constant matrix:
 Low frequencies ---   -0.0015   -0.0013   -0.0011    5.4660    5.4660  700.7155
 Low frequencies ---  700.7155 1990.1809 3456.2008
 Diagonal vibrational polarizability:
        2.1229312       2.1229312       0.1711177
 Harmonic frequencies (cm**-1), IR intensities (KM/Mole), Raman scattering
 activities (A**4/AMU), depolarization ratios for plane and unpolarized
 incident light, reduced masses (AMU), force constants (mDyne/A),
 and normal coordinates:
                      1                      2                      3
                     PI                     PI                     SG
 Frequencies --    700.7155               700.7155              1990.1809
 Red. masses --      1.3371                 1.3371                 5.7709
 Frc consts  --      0.3868                 0.3868                13.4671
 IR Inten    --     38.7335                38.7335                 0.5433
  Atom  AN      X      Y      Z        X      Y      Z        X      Y      Z
     1   7     0.00   0.06  -0.00     0.06  -0.00   0.00    -0.00   0.00   0.44
     2   6    -0.00  -0.16   0.00    -0.16   0.00  -0.00     0.00  -0.00  -0.45
     3   1     0.00   0.99   0.00     0.99  -0.00  -0.00    -0.00   0.00  -0.78
                      4
                     SG
 Frequencies --   3456.2008
 Red. masses --      1.1592
 Frc consts  --      8.1587
 IR Inten    --     74.3170
  Atom  AN      X      Y      Z
     1   7    -0.00   0.00   0.03
     2   6     0.00  -0.00  -0.11
     3   1    -0.00   0.00   0.99

 -------------------
 - Thermochemistry -
 -------------------
 Temperature   298.150 Kelvin.  Pressure   1.00000 Atm.
 Atom     1 has atomic number  7 and mass  14.00307
 Atom     2 has atomic number  6 and mass  12.00000
 Atom     3 has atomic number  1 and mass   1.00783
 Molecular mass:    27.01090 amu.
 Principal axes and moments of inertia in atomic units:
                           1         2         3
     Eigenvalues --     0.00000  42.47648  42.47648
           X           -0.00000   0.75552  -0.65512
           Y           -0.00000   0.65512   0.75552
           Z            1.00000   0.00000  -0.00000
 This molecule is a prolate symmetric top.
 Rotational symmetry number  1.
 Rotational temperature (Kelvin)      2.03910
 Rotational constant (GHZ):          42.488007
 Zero-point vibrational energy      40959.0 (Joules/Mol)
                                    9.78944 (Kcal/Mol)
 Vibrational temperatures:   1008.17  1008.17  2863.43  4972.70
          (Kelvin)
 
 Zero-point correction=                           0.015600 (Hartree/Particle)
 Thermal correction to Energy=                    0.018186
 Thermal correction to Enthalpy=                  0.019130
 Thermal correction to Gibbs Free Energy=        -0.003829
 Sum of electronic and zero-point Energies=            -93.168059
 Sum of electronic and thermal Energies=               -93.165473
 Sum of electronic and thermal Enthalpies=             -93.164529
 Sum of electronic and thermal Free Energies=          -93.187488
 
                     E (Thermal)             CV                S
                      KCal/Mol        Cal/Mol-Kelvin    Cal/Mol-Kelvin
 Total                   11.412              6.636             48.322
 Electronic               0.000              0.000              0.000
 Translational            0.889              2.981             35.816
 Rotational               0.592              1.987             11.894
 Vibrational              9.931              1.668              0.612
                       Q            Log10(Q)             Ln(Q)
 Total Bot       0.576929D+02          1.761123          4.055134
 Total V=0       0.864634D+09          8.936832         20.577816
 Vib (Bot)       0.715096D-07         -7.145636        -16.453434
 Vib (V=0)       0.107170D+01          0.030074          0.069248
 Electronic      0.100000D+01          0.000000          0.000000
 Translational   0.551776D+07          6.741762         15.523482
 Rotational      0.146216D+03          2.164996          4.985087

     ==================================================
      Anharmonic Data: Displacement Vectors Definition
     ==================================================

 Framework definition based on atomic masses: C*V 
 NOTE: Degenerate modes will be reoriented, following the conventions
       from: L. Henry, G. Amat, J. Mol. Spectrosc. 1961, 5, 319
 Linear top along axis: Z
                 1             2             3             4 
      1   0.133435D-05  0.558879D-01 -0.252416D-18  0.332460D-19
      2   0.558879D-01 -0.133435D-05  0.850987D-19 -0.112110D-19
      3  -0.286775D-18  0.840574D-18  0.183855D+00 -0.242529D-01
      4  -0.326570D-05 -0.136781D+00  0.615369D-18 -0.815269D-19
      5  -0.136781D+00  0.326570D-05 -0.208942D-18  0.273367D-19
      6   0.308646D-18 -0.904631D-18 -0.187413D+00  0.105771D+00
      7   0.203442D-04  0.852099D+00 -0.382689D-17  0.508220D-18
      8   0.852099D+00 -0.203442D-04  0.130796D-17 -0.169761D-18
      9   0.309558D-18 -0.901243D-18 -0.323045D+00 -0.922418D+00
                 1             2             3             4 
      1   0.558879D-01  0.779270D-17 -0.252416D-18  0.332460D-19
      2  -0.481623D-17  0.558879D-01  0.850987D-19 -0.112110D-19
      3   0.840567D-18 -0.286795D-18  0.183855D+00 -0.242529D-01
      4  -0.136781D+00 -0.193221D-16  0.615369D-18 -0.815269D-19
      5  -0.487086D-17 -0.136781D+00 -0.208942D-18  0.273367D-19
      6  -0.904624D-18  0.308668D-18 -0.187413D+00  0.105771D+00
      7   0.852099D+00  0.121790D-15 -0.382689D-17  0.508220D-18
      8   0.124941D-15  0.852099D+00  0.130796D-17 -0.169761D-18
      9  -0.901236D-18  0.309579D-18 -0.323045D+00 -0.922418D+00

 **********************************************************************

                  Harmonic vibro-rotational analysis

 **********************************************************************


     ==================================================
               Analysis of the Rotor Symmetry
     ==================================================

 Framework Group : C*V 
 Rotor Type      : Linear Molecule
 Inertia moments : X=    11.89463 , Y=    11.89463 , Z=     0.00000
 Representation  : Ir Representation, Iz < Ix < Iy

 Axes Definition for the Symmetric-Top Representation
 ----------------------------------------------------
 Axis Z automatically chosen to be collinear with Z from Eckart orient.
 NOTE: In Vibro-rotational analysis, this will be referred to as the
       spectroscopic orientation.

     ==================================================
        Vibro-Rotational Analysis Based on Symmetry
     ==================================================

 Representation SG  
 ------------------
    Z Translation
    2 Vibrations with frequencies:
   3456.20   1990.18

 Representation PI   (doubly degenerate)
 --------------------------------------
    X Translation
    Y Translation
    X Rotation
    Y Rotation
    1 Vibrations with frequencies:
    700.72

 Input/Output information
 ------------------------
 Normal modes will be PRINTED in DESCENDING order (imag. freq. first)
   and sorted by irreducible representation
 The connection between this new numbering (A) and the one used before
   (H) is reported in the present equivalency table:
 ----+------+------+------+------+
 (H) |     1|     2|     3|     4|
 (A) |    3a|    3b|     2|     1|
 ----+------+------+------+------+
 NOTE: Degenerate modes are referenced by the same number in the following

 Normal modes will be READ in ASCENDING order (imag. freq. first)
 WARNING: Symmetry operations not available for non-Abelian groups.

     ==================================================
                   Coriolis Couplings
     ==================================================

 Coriolis Couplings along the X axis
 -----------------------------------
                1             2             3a            3b
      1   0.000000D+00
      2   0.000000D+00  0.000000D+00
      3a -0.984732D+00  0.174079D+00  0.000000D+00
      3b  0.000000D+00  0.000000D+00  0.000000D+00  0.000000D+00

 Coriolis Couplings along the Y axis
 -----------------------------------
                1             2             3a            3b
      1   0.000000D+00
      2   0.000000D+00  0.000000D+00
      3a  0.000000D+00  0.000000D+00  0.000000D+00
      3b  0.984732D+00 -0.174079D+00  0.000000D+00  0.000000D+00

 Coriolis Couplings along the Z axis
 -----------------------------------
                1             2             3a            3b
      1   0.000000D+00
      2   0.000000D+00  0.000000D+00
      3a  0.000000D+00  0.000000D+00  0.000000D+00
      3b  0.000000D+00  0.000000D+00  0.100000D+01  0.000000D+00

    2 Coriolis couplings larger than .100D-02 along the X axis
    2 Coriolis couplings larger than .100D-02 along the Y axis
    1 Coriolis couplings larger than .100D-02 along the Z axis

     ==================================================
      Inertia Moments Derivatives w.r.t. Normal Modes
     ==================================================

 Units: amu^1/2.Ang

                 Ixx        Ixy        Iyy        Ixz        Iyz        Izz
 Q(     1)    -1.20075   -0.00000   -1.20075   -0.00000   -0.00000    0.00000
 Q(     2)    -6.79240    0.00000   -6.79240   -0.00000   -0.00000    0.00000
 Q(    3a)    -0.00000    0.00000   -0.00000    0.00000   -0.00000   -0.00000
 Q(    3b)     0.00000    0.00000    0.00000   -0.00000    0.00000    0.00000

     ==================================================
               Vibro-rotational Alpha Matrix
     ==================================================

 Vibro-Rot alpha Matrix (in cm^-1)
 ---------------------------------
                 A(z)           B(x)           C(y)
 Q(     1)       -0.00000       -0.00369       -0.00369
 Q(     2)       -0.00000       -0.01021       -0.01021
 Q(     3)       -0.00000 -4279413.69476 -4279413.69476

 Vibro-Rot alpha Matrix (in MHz)
 -------------------------------
                 A(z)           B(x)           C(y)
 Q(     1)       -0.00000     -110.59220     -110.59220
 Q(     2)       -0.00000     -305.95698     -305.95698
 Q(     3)       -0.00000******************************

     ==================================================
          Quartic Centrifugal Distortion Constants
     ==================================================

 NOTE: Values in Cartesian coords. refer to the structure in Eckart orientation.

 Quartic Centrifugal Distortion Constants Tau Prime
 --------------------------------------------------
                      cm^-1                    MHz
 TauP aaaa      0.0000000000D+00         0.0000000000D+00
 TauP bbaa      0.0000000000D+00         0.0000000000D+00
 TauP bbbb     -0.1126638661D-04        -0.3377577734D+00
 cm-1                       MHz
 De    0.2816596652D-05         0.8443944335D-01

     ==================================================
            Rotational l-type doubling constants
     ==================================================
 Ref.: J.K.G. Watson, J. Mol. Spectry. 101, 83 (1983)
       q_i = q_i^e + (q_i^J)*J(J+1) + (q_i^K)*K(K+-1)^2

 q^e constants (in cm^-1)
 ------------------------

 Q(     3)    0.6784516302D-02

 q^J constants (in cm^-1)
 ------------------------

 Q(     3)   -0.3421309994D+02

 q^K constants (in cm^-1)
 ------------------------

 Q(     3)    0.3421309994D+02

     ==================================================
       Average Coordinates and Mean Square Amplitudes
     ==================================================

 NOTE: Temperature is given in K between parentheses
       For Cartesian and internal coords., units are given between
       parentheses next to each label

 Mean Square Amplitudes of Normal Coordinates (in amu.bohr^2)
 -----------------------------------------------------------
 Mode    <Q^2> (0)    <Q^2> (298.15)    <Q^2> (298.15) class.
    1     0.017418       0.017418          0.082457
    2     0.030248       0.030252          0.248680
    3     0.085912       0.091959          2.006050
    4     0.085912       0.091959          2.006050

 Mean Square Amplitudes of Cartesian Coordinates
 -----------------------------------------------
    Label        <(S-Se)^2>^1/2 (0)    <(S-Se)^2>^1/2 (298.15)
 X(1)  (Angs)        0.008669              0.008968
 Y(1)  (Angs)        0.008669              0.008968
 Z(1)  (Angs)        0.017006              0.017007
 X(2)  (Angs)        0.021215              0.021949
 Y(2)  (Angs)        0.021215              0.021949
 Z(2)  (Angs)        0.018764              0.018765
 X(3)  (Angs)        0.132165              0.136738
 Y(3)  (Angs)        0.132165              0.136738
 Z(3)  (Angs)        0.070951              0.070952
 ***** Axes restored to original set *****
 -------------------------------------------------------------------
 Center     Atomic                   Forces (Hartrees/Bohr)
 Number     Number              X              Y              Z
 -------------------------------------------------------------------
      1        7           0.000021658    0.000000000   -0.000000000
      2        6          -0.000021787   -0.000000000    0.000000000
      3        1           0.000000129    0.000000000   -0.000000000
 -------------------------------------------------------------------
 Cartesian Forces:  Max     0.000021787 RMS     0.000010240
 FormGI is forming the generalized inverse of G from B-inverse, IUseBI=4.
 NDeriv=      4 NFrqRd=  0 NDerD0=      0 MskFDP=       0 MskDFD=       0 MskDF0=       0
 At 1st pt F.D. properties file   721 does not exist.
 At 1st pt F.D. properties file   722 does not exist.
 D2Numr ... symmetry will not be used.
 Standard basis: Aug-CC-pVDZ (5D, 7F)
    55 basis functions,    97 primitive gaussians,    59 cartesian basis functions
     7 alpha electrons        7 beta electrons
       nuclear repulsion energy        23.3737718683 Hartrees.
 NAtoms=    3 NActive=    3 NUniq=    3 SFac= 1.00D+00 NAtFMM=   60 NAOKFM=F Big=F
 Integral buffers will be    131072 words long.
 Raffenetti 1 integral format.
 Two-electron integral symmetry is turned off.
 One-electron integrals computed using PRISM.
 NBasis=    55 RedAO= T EigKep=  6.80D-04  NBF=    55
 NBsUse=    55 1.00D-06 EigRej= -1.00D+00 NBFU=    55
 Initial guess from the checkpoint file:  "hcn.chk"
 B after Tr=     0.000570    0.000000   -0.000000
         Rot=    1.000000   -0.000000    0.000464   -0.000000 Ang=   0.05 deg.
 Keep R1 ints in memory in canonical form, NReq=6994805.
 Requested convergence on RMS density matrix=1.00D-08 within 128 cycles.
 Requested convergence on MAX density matrix=1.00D-06.
 Requested convergence on             energy=1.00D-06.
 No special actions if energy rises.
 SCF Done:  E(RHF) =  -92.8824190260     A.U. after    8 cycles
            NFock=  8  Conv=0.49D-08     -V/T= 2.0044
 ExpMin= 2.97D-02 ExpMax= 9.05D+03 ExpMxC= 3.09D+02 IAcc=3 IRadAn=         5 AccDes= 0.00D+00
 HarFok:  IExCor=  205 AccDes= 0.00D+00 IRadAn=         5 IDoV=-2 UseB2=F ITyADJ=14
 ICtDFT= 12500011 ScaDFX=  1.000000  1.000000  1.000000  1.000000
 Range of M.O.s used for correlation:     3    55
 NBasis=    55 NAE=     7 NBE=     7 NFC=     2 NFV=     0
 NROrb=     53 NOA=     5 NOB=     5 NVA=    48 NVB=    48

 **** Warning!!: The largest alpha MO coefficient is  0.12458004D+02

 Disk-based method using ON**2 memory for  5 occupieds at a time.
 Permanent disk used for amplitudes=      136584 words.
 Estimated scratch disk usage=     2040466 words.
 Actual    scratch disk usage=     2040466 words.
 JobTyp=1 Pass  1:  I=   3 to   7 NPSUse= 28 ParTrn=T ParDer=T DoDerP=T.
 (rs|ai) integrals will be sorted in core.
 Spin components of T(2) and E(2):
     alpha-alpha T2 =       0.1573150259D-01 E2=     -0.3856691613D-01
     alpha-beta  T2 =       0.8925752969D-01 E2=     -0.2241029418D+00
     beta-beta   T2 =       0.1573150259D-01 E2=     -0.3856691613D-01
 ANorm=    0.1058640890D+01
 E2 =    -0.3012367741D+00 EUMP2 =    -0.93183655800066D+02
 G2DrvN: will do     4 centers at a time, making    1 passes.
 Calling FoFCou, ICntrl=  3107 FMM=F I1Cent=   0 AccDes= 0.00D+00.
 End of G2Drv F.D. properties file   721 does not exist.
 End of G2Drv F.D. properties file   722 does not exist.
 End of G2Drv F.D. properties file   788 does not exist.
          IDoAtm=111
          Differentiating once with respect to electric field.
                with respect to dipole field.
          Differentiating once with respect to nuclear coordinates.
 Keep R1 ints in memory in canonical form, NReq=6995400.
          There are    12 degrees of freedom in the 1st order CPHF.  IDoFFX=6 NUNeed=    12.
      9 vectors produced by pass  0 Test12= 2.80D-15 8.33D-09 XBig12= 8.52D+00 1.37D+00.
 AX will form     9 AO Fock derivatives at one time.
      9 vectors produced by pass  1 Test12= 2.80D-15 8.33D-09 XBig12= 1.72D+00 3.80D-01.
      9 vectors produced by pass  2 Test12= 2.80D-15 8.33D-09 XBig12= 4.32D-02 7.42D-02.
      9 vectors produced by pass  3 Test12= 2.80D-15 8.33D-09 XBig12= 4.17D-04 5.89D-03.
      9 vectors produced by pass  4 Test12= 2.80D-15 8.33D-09 XBig12= 1.98D-06 4.21D-04.
      9 vectors produced by pass  5 Test12= 2.80D-15 8.33D-09 XBig12= 5.81D-09 1.90D-05.
      9 vectors produced by pass  6 Test12= 2.80D-15 8.33D-09 XBig12= 2.96D-11 1.87D-06.
      3 vectors produced by pass  7 Test12= 2.80D-15 8.33D-09 XBig12= 2.05D-13 1.25D-07.
      1 vectors produced by pass  8 Test12= 2.80D-15 8.33D-09 XBig12= 1.57D-15 1.52D-08.
 InvSVY:  IOpt=1 It=  1 EMax= 1.22D-15
 Solved reduced A of dimension    67 with     9 vectors.
 End of Minotr F.D. properties file   721 does not exist.
 End of Minotr F.D. properties file   722 does not exist.
 End of Minotr F.D. properties file   788 does not exist.
 MDV=  5502926848.
 Form MO integral derivatives with frozen-active canonical formalism.
 Discarding MO integrals.
[...]
      1  0.000000D+00
      2  0.000000D+00  0.000000D+00
      3  0.705721D+01  0.137102D+00  0.000000D+00

 3rd Deriv. contributions to X Matrix (in cm^-1)
 -----------------------------------------------
                1             2             3
      1 -0.114333D+03
      2 -0.238366D+02 -0.230949D+02
      3  0.129719D+03  0.389330D+01 -0.457592D+02

 4th Deriv. contributions to X Matrix (in cm^-1)
 -----------------------------------------------
                1             2             3
      1  0.599956D+02
      2  0.999943D+01  0.107029D+02
      3 -0.261524D+03 -0.973142D+01  0.965163D+02

 Total Anharmonic X Matrix (in cm^-1)
 ------------------------------------
                1             2             3
      1 -0.543371D+02
      2 -0.138371D+02 -0.123920D+02
      3 -0.124748D+03 -0.570101D+01  0.507571D+02

     ==================================================
                    Anharmonic Xl Matrix
     ==================================================

 Scheme used to remove resonant terms is the same as for the X matrix.

 Total Anharmonic Xl Matrix (in cm^-1)
 ------------------------------------
                3
      3 -0.163436D+02

     ==================================================
          Vibrational U- l-type doubling constants
     ==================================================

 Scheme used to remove resonant terms is the same as for the X matrix.

 Total matrix of U- l-type doubling constants (in cm^-1)
 --------------------------------------------------------
   Mode       Real part       Imag. part
     3    -0.214203D+02     0.000000D+00

     ==================================================
                Anharmonic Zero Point Energy
     ==================================================

 Anharmonic X0 Term
 ------------------
 U term         : cm-1 =     0.00000 ; Kcal/mol =   0.000 ; KJ/mol =   0.000
 Coriolis       : cm-1 =    -1.41725 ; Kcal/mol =  -0.004 ; KJ/mol =  -0.017
 Anharmonic     : cm-1 =    15.43501 ; Kcal/mol =   0.044 ; KJ/mol =   0.185
 Total X0       : cm-1 =    14.01776 ; Kcal/mol =   0.040 ; KJ/mol =   0.168

 Anharmonic Zero Point Energy
 ----------------------------
 Harmonic       : cm-1 =  3423.90639 ; Kcal/mol =   9.789 ; KJ/mol =  40.959
 Anharmonic Pot.: cm-1 =   -22.77095 ; Kcal/mol =  -0.065 ; KJ/mol =  -0.272
 Watson+Coriolis: cm-1 =     2.17991 ; Kcal/mol =   0.006 ; KJ/mol =   0.026
 Total Anharm   : cm-1 =  3403.31535 ; Kcal/mol =   9.731 ; KJ/mol =  40.713

     ==================================================
          Vibrational Energies at Anharmonic Level
     ==================================================

 Units: Vibrational energies and rotational constants in cm^-1.
 NOTE: Transition energies are given with respect to the ground state.

 Reference Data
 --------------
                              E(harm)  E(anharm)     Ba(x)      Ca(y)
 Equilibrium Geometry                              1.417247   1.417247
 Ground State                 3423.906  3403.315**********************

 Fundamental Bands
 -----------------
    Mode(n,l)    Status       E(harm)  E(anharm)     Ba(x)      Ca(y)
       1(1,+0)   active      3456.201  3215.860**********************
       2(1,+0)   active      1990.181  1952.777**********************
       3(1,-1)   active       700.716   771.419**********************
       3(1,+1)   active       700.716   771.419**********************

 Overtones
 ---------
    Mode(n,l)                 E(harm)  E(anharm)     Ba(x)      Ca(y)
       1(2,+0)               6912.402  6323.046**********************
       2(2,+0)               3980.362  3880.771**********************
       3(2,-2)               1401.431  1611.665**********************
       3(2,+0)               1401.431  1677.039**********************
       3(2,+2)               1401.431  1611.665**********************

 Combination Bands
 -----------------
    Mode(n,l)   Mode(n,l)    E(harm)  E(anharm)     Ba(x)      Ca(y)
       2(1,+0)     1(1,+0)   5446.382  5154.800**********************
       3(1,-1)     1(1,+0)   4156.916  3862.531**********************
       3(1,+1)     1(1,+0)   4156.916  3862.531**********************
       3(1,-1)     2(1,+0)   2690.896  2718.495**********************
       3(1,+1)     2(1,+0)   2690.896  2718.495**********************

 WARNING: Anharmonic transition moments for symmetric and linear tops
          are not yet fully implemented.

     ==================================================
               Anharmonic Transition Moments
     ==================================================

 Electric dipole : Fundamental Bands
 ------------------------------------------------------------------------
   Mode(n,l)                          X               Y               Z
      1(1)                      -0.877541D-09    0.494831D-08   -0.375497D-01
      2(1)                       0.314885D-09   -0.177548D-08    0.434930D-02
      3(1)                      -0.551787D-01   -0.259402D-01    0.731876D-09

 Electric dipole : Overtones
 ------------------------------------------------------------------------
   Mode(n,l)                          X               Y               Z
      1(2)                       0.261335D-14    0.108537D-13    0.315346D-02
      2(2)                       0.582825D-17   -0.233078D-14   -0.408838D-03
      3(2)                       0.379428D-12    0.183610D-12    0.386370D-02

 Electric dipole : Combination Bands
 ------------------------------------------------------------------------
   Mode(n,l)   Mode(n,l)              X               Y               Z
      2(1)        1(1)           0.254851D-14   -0.219136D-13    0.158237D-02
      3(1)        1(1)          -0.125692D-02   -0.375995D-03    0.230669D-13
      3(1)        2(1)          -0.175074D-02    0.375434D-03   -0.113602D-12

     ==================================================
              Anharmonic Infrared Spectroscopy
     ==================================================

 Units: Transition energies (E) in cm^-1
        Integrated intensity (I) in km.mol^-1

 Fundamental Bands
 -----------------
   Mode(n,l)                E(harm)   E(anharm)        I(harm)       I(anharm)
      1(1,+0)               3456.201   3215.860     74.31702786     73.42899931
      2(1,+0)               1990.181   1952.777      0.54330660      0.59820368
      3(1,-1)                700.716    771.419     38.73345795     46.44168963
      3(1,+1)                700.716    771.419     38.73345795     46.44168963

 Overtones
 ---------
   Mode(n,l)                E(harm)   E(anharm)                      I(anharm)
      1(2,+0)               6912.402   6323.046                      1.01825792
      2(2,+0)               3980.362   3880.771                      0.01050454
      3(2,-2)               1401.431   1611.665                      0.38961676
      3(2,+0)               1401.431   1677.039                      0.40542093
      3(2,+2)               1401.431   1611.665                      0.38961676

 Combination Bands
 -----------------
   Mode(n,l)   Mode(n,l)    E(harm)   E(anharm)                      I(anharm)
      2(1,+0)     1(1,+0)   5446.382   5154.800                      0.20901772
      3(1,-1)     1(1,+0)   4156.916   3862.531                      0.10766333
      3(1,+1)     1(1,+0)   4156.916   3862.531                      0.10766333
      3(1,-1)     2(1,+0)   2690.896   2718.495                      0.14114214
      3(1,+1)     2(1,+0)   2690.896   2718.495                      0.14114214

 Units: Transition energies (E) in cm^-1
        Dipole strengths (DS) in 10^-40 esu^2.cm^2

 Fundamental Bands
 -----------------
   Mode(n,l)                E(harm)   E(anharm)       DS(harm)      DS(anharm)
      1(1,+0)               3456.201   3215.860     85.78211902     91.09149830
      2(1,+0)               1990.181   1952.777      1.08908010      1.22209161
      3(1,-1)                700.716    771.419    220.52200660    240.17352187
      3(1,+1)                700.716    771.419    220.52200660    240.17352187

 Overtones
 ---------
   Mode(n,l)                E(harm)   E(anharm)                     DS(anharm)
      1(2,+0)               6912.402   6323.046                      0.64244927
      2(2,+0)               3980.362   3880.771                      0.01079858
      3(2,-2)               1401.431   1611.665                      0.96442909
      3(2,+0)               1401.431   1677.039                      0.96442909
      3(2,+2)               1401.431   1611.665                      0.96442909

 Combination Bands
 -----------------
   Mode(n,l)   Mode(n,l)    E(harm)   E(anharm)                     DS(anharm)
      2(1,+0)     1(1,+0)   5446.382   5154.800                      0.16176280
      3(1,-1)     1(1,+0)   4156.916   3862.531                      0.11119959
      3(1,+1)     1(1,+0)   4156.916   3862.531                      0.11119959
      3(1,-1)     2(1,+0)   2690.896   2718.495                      0.20712643
      3(1,+1)     2(1,+0)   2690.896   2718.495                      0.20712643


 GradGradGradGradGradGradGradGradGradGradGradGradGradGradGradGradGradGrad
 Berny optimization.
 Internal  Forces:  Max     0.000021658 RMS     0.000010829
 Search for a local minimum.
 Step number   1 out of a maximum of    2
 All quantities printed in internal units (Hartrees-Bohrs-Radians)
 Second derivative matrix not updated -- analytic derivatives used.
 The second derivative matrix:
                          R1        R2        A1        A2
           R1           1.04565
           R2          -0.01708   0.40656
           A1          -0.00000   0.00000   0.05686
           A2          -0.00000   0.00000  -0.00000   0.05686
 ITU=  0
     Eigenvalues ---    0.05686   0.05686   0.40611   1.04611
 Angle between quadratic step and forces=   1.87 degrees.
 Linear search not attempted -- first point.
 Iteration  1 RMS(Cart)=  0.00000857 RMS(Int)=  0.00000000
 Iteration  2 RMS(Cart)=  0.00000000 RMS(Int)=  0.00000000
 ClnCor:  largest displacement from symmetrization is 5.34D-12 for atom     2.
 Variable       Old X    -DE/DX   Delta X   Delta X   Delta X     New X
                                 (Linear)    (Quad)   (Total)
    R1        2.23524  -0.00002   0.00000  -0.00002  -0.00002   2.23522
    R2        2.03700   0.00000   0.00000  -0.00000  -0.00000   2.03700
    A1        3.14159   0.00000   0.00000   0.00000   0.00000   3.14159
    A2        3.14159  -0.00000   0.00000  -0.00000   0.00000   3.14159
         Item               Value     Threshold  Converged?
 Maximum Force            0.000022     0.000450     YES
 RMS     Force            0.000011     0.000300     YES
 Maximum Displacement     0.000014     0.001800     YES
 RMS     Displacement     0.000009     0.001200     YES
 Predicted change in Energy=-2.243536D-10
 Optimization completed.
    -- Stationary point found.
                           ----------------------------
                           !   Optimized Parameters   !
                           ! (Angstroms and Degrees)  !
 --------------------------                            --------------------------
 ! Name  Definition              Value          Derivative Info.                !
 --------------------------------------------------------------------------------
 ! R1    R(1,2)                  1.1828         -DE/DX =    0.0                 !
 ! R2    R(2,3)                  1.0779         -DE/DX =    0.0                 !
 ! A1    L(1,2,3,-2,-1)        180.0            -DE/DX =    0.0                 !
 ! A2    L(1,2,3,-3,-2)        180.0            -DE/DX =    0.0                 !
 --------------------------------------------------------------------------------
 GradGradGradGradGradGradGradGradGradGradGradGradGradGradGradGradGradGrad


 ----------------------------------------------------------------------

 Electric dipole moment (input orientation):
 (Debye = 10**-18 statcoulomb cm , SI units = C m)
                  (au)            (Debye)         (10**-30 SI)
   Tot        0.119146D+01      0.302838D+01      0.101016D+02
   x          0.119146D+01      0.302838D+01      0.101016D+02
   y          0.000000D+00      0.000000D+00      0.000000D+00
   z         -0.169838D-04     -0.431685D-04     -0.143995D-03

 Dipole polarizability, Alpha (input orientation).
 (esu units = cm**3 , SI units = C**2 m**2 J**-1)
 Alpha(0;0):
               (au)            (10**-24 esu)      (10**-40 SI)
   iso        0.168343D+02      0.249458D+01      0.277560D+01
   aniso      0.895037D+01      0.132631D+01      0.147572D+01
   xx         0.228012D+02      0.337879D+01      0.375941D+01
   yx         0.348471D-04      0.516380D-05      0.574551D-05
   yy         0.138508D+02      0.205248D+01      0.228369D+01
   zx        -0.127585D-03     -0.189061D-04     -0.210358D-04
   zy         0.000000D+00      0.000000D+00      0.000000D+00
   zz         0.138508D+02      0.205248D+01      0.228369D+01

 ----------------------------------------------------------------------

 Dipole orientation:
     7          0.00004471          0.00001236         -4.22549636
     6          0.00004471          0.00001236         -1.99025687
     1          0.00004471          0.00001236          0.04674040

 Electric dipole moment (dipole orientation):
 (Debye = 10**-18 statcoulomb cm , SI units = C m)
                  (au)            (Debye)         (10**-30 SI)
   Tot        0.119146D+01      0.302838D+01      0.101016D+02
   x          0.000000D+00      0.000000D+00      0.000000D+00
   y          0.000000D+00      0.000000D+00      0.000000D+00
   z          0.119146D+01      0.302838D+01      0.101016D+02

 Dipole polarizability, Alpha (dipole orientation).
 (esu units = cm**3 , SI units = C**2 m**2 J**-1)
 Alpha(0;0):
               (au)            (10**-24 esu)      (10**-40 SI)
   iso        0.168343D+02      0.249458D+01      0.277560D+01
   aniso      0.895037D+01      0.132631D+01      0.147572D+01
   xx         0.138508D+02      0.205248D+01      0.228369D+01
   yx         0.000000D+00      0.000000D+00      0.000000D+00
   yy         0.138508D+02      0.205248D+01      0.228369D+01
   zx         0.000000D+00      0.000000D+00      0.000000D+00
   zy         0.000000D+00      0.000000D+00      0.000000D+00
   zz         0.228012D+02      0.337879D+01      0.375941D+01

 ----------------------------------------------------------------------
 1\1\GINC-N2161\Freq\RMP2-FC\Aug-CC-pVDZ\C1H1N1\GDS001\04-Aug-2020\0\\#
 N Geom=AllCheck Guess=TCheck SCRF=Check GenChk RMP2(FC)/Aug-CC-pVDZ Fr
 eq\\hcn\\0,1\N,-2.2360363778,-0.0000021661,0.0000082143\C,-1.053198578
 5,0.0000024391,-0.0000086467\H,0.0247339563,0.0000066359,-0.0000240123
 \\Version=ES64L-G16RevA.03\State=1-SG\HF=-92.8824244\MP2=-93.1836591\R
 MSD=4.851e-10\RMSF=1.024e-05\ZeroPoint=0.0156005\Thermal=0.0181863\Dip
 ole=1.1914564,0.0000046,-0.000017\DipoleDeriv=0.1545462,0.0000018,-0.0
 000064,0.0000018,-0.2966662,0.,-0.0000064,0.,-0.2966662,-0.4035341,-0.
 0000017,0.0000063,-0.0000017,0.037296,0.,0.0000063,0.,0.037296,0.24898
 79,0.,0.0000001,0.,0.2593702,0.,0.0000001,0.,0.2593702\Polar=22.801207
 8,0.0000348,13.850837,-0.0001276,0.,13.850837\Quadrupole=0.9541051,-0.
 4770525,-0.4770525,0.0000056,-0.0000204,0.\PG=C*V [C*(H1C1N1)]\NImag=0
 \\1.04565180,0.00000403,0.01138990,-0.00001474,0.,0.01138990,-1.062734
 75,-0.00000404,0.00001481,1.48638068,-0.00000404,-0.02387766,0.,0.0000
 0559,0.05006845,0.00001481,0.,-0.02387767,-0.00002047,0.,0.05006845,0.
 01708295,0.00000002,-0.00000007,-0.42364592,-0.00000155,0.00000567,0.4
 0656297,0.00000002,0.01248777,0.,-0.00000155,-0.02619078,0.,0.00000153
 ,0.01370302,-0.00000007,0.,0.01248777,0.00000567,0.,-0.02619078,-0.000
 00560,0.,0.01370302\\-0.00002166,0.,0.,0.00002179,0.,0.,-0.00000013,0.
 ,0.\\-0.00000180,0.00000025,0.,-0.06306960,-0.00000025,0.00000180,0.00
 000153,-0.00000029,0.07504830,0.00000381,-0.00000013,0.,0.00000029,-0.
 00000052,0.,0.03222438,0.00000013,-0.00000153,0.13373259,0.00000052,-0
 .00000381,0.00000027,0.00000005,-0.01197870,-0.00000534,0.00000065,-0.
 16595696,0.00000507,-0.00000012,0.,-0.00000005,0.00000081,0.,-0.000000
 65,-0.00000069,0.,0.03084522,0.00000012,-0.00000027,-0.20878088,-0.000
 00081,0.00000534,0.17793566,0.00000069,-0.00000507,0.00000049,-0.06306
 960,-0.00000049,-0.00000025,0.00000090,0.,-0.00000042,0.07504830,0.000
 00029,-0.00000104,0.03222438,0.00000042,-0.00000046,0.13373259,0.00000
 104,0.00000013,-0.00000107,0.,0.00000052,-0.00000191,0.,-0.00000007,-0
 .01197870,-0.00000005,0.00000146,-0.16595696,-0.00000065,-0.00000139,0
 .03084522,0.00000007,-0.00000044,-0.20878088,-0.00000146,0.00000298,0.
 17793566,0.00000139,0.00000012,0.00000017,0.,-0.00000081,0.00000237,0.
 ,0.00000069,-0.00000254,0.,-1.46423104,-0.00000633,0.16272561,0.000023
 19,0.,0.16272561,1.46604308,0.00000630,-0.00002308,-1.63022722,0.00000
 630,-0.15306018,0.,-0.00000696,0.15810999,-0.00002308,0.,-0.15306018,0
 .00002549,0.,0.15810999,-0.00181203,0.00000003,-0.00000011,0.16418414,
 0.00000066,-0.00000241,-0.16237211,0.00000003,-0.00966543,0.,0.0000006
 6,-0.00504981,0.,-0.00000069,0.01471524,-0.00000011,0.,-0.00966543,-0.
 00000241,0.,-0.00504981,0.00000252,0.,0.01471524,0.51547605,0.00000228
 ,-0.06894473,-0.00000833,0.,-0.06894473,-0.50917371,-0.00000228,0.0000
 0835,-0.74755149,-0.00000228,0.07626066,0.,-0.00000333,0.10716339,0.00
 000835,0.,0.07626066,0.00001218,0.,0.10716339,-0.00630234,0.,-0.000000
 01,1.25672521,0.00000561,-0.00002053,-1.25042287,0.,-0.00731593,0.,0.0
 0000561,-0.18342405,0.,-0.00000561,0.19073998,-0.00000001,0.,-0.007315
 93,-0.00002053,0.,-0.18342405,0.00002054,0.,0.19073998,-0.05111667,-0.
 00000015,-0.01048719,0.00000074,-0.00000005,0.00090200,0.08736775,0.00
 000028,-0.00000107,-0.86661992,0.00000029,0.01298449,0.,-0.00000364,0.
 06712821,-0.00000107,0.,0.01265683,0.00001553,-0.00000061,0.22274974,-
 0.03625108,-0.00000013,0.00000032,0.77925217,0.00000335,-0.00001446,-0
 .74300109,-0.00000014,-0.00249731,0.00000004,0.00000336,-0.08011269,0.
 00000060,-0.00000322,0.08261000,0.00000032,0.00000004,-0.01355883,-0.0
 0001446,0.00000060,-0.23540657,0.00001414,-0.00000065,0.24896539,-0.05
 111664,-0.00000020,0.00090198,0.00000058,0.00000004,-0.01048720,0.0873
 6774,0.00000029,-0.00000106,-0.86661992,0.00000029,0.01265684,0.,-0.00
 000424,0.22274973,-0.00000106,0.,0.01298450,0.00001331,0.00000061,0.06
 712819,-0.03625109,-0.00000009,0.00000048,0.77925218,0.00000395,-0.000
 01225,-0.74300109,-0.00000009,-0.01355882,-0.00000004,0.00000395,-0.23
 540657,-0.00000060,-0.00000386,0.24896539,0.00000048,-0.00000004,-0.00
 249730,-0.00001225,-0.00000060,-0.08011269,0.00001177,0.00000065,0.082
 60999,1.54340956,0.00000715,-0.29242283,-0.00002617,0.,-0.29242283,-1.
 54910694,-0.00000714,0.00002616,1.61047833,-0.00000714,0.28595638,0.,0
 .00000739,-0.28835629,0.00002616,0.,0.28595638,-0.00002707,0.,-0.28835
 629,0.00569739,0.,0.00000001,-0.06137139,-0.00000025,0.00000091,0.0556
 7400,0.,0.00646644,0.,-0.00000025,0.00239991,0.,0.00000025,-0.00886636
 ,0.00000001,0.,0.00646644,0.00000091,0.,0.00239991,-0.00000092,0.,-0.0
 0886636,0.18109086,0.00000084,-0.03582298,-0.00000309,0.,-0.03582298,-
 0.19197956,-0.00000086,0.00000315,3.60646593,-0.00000086,0.02922393,0.
 ,0.00001731,-0.83842444,0.00000315,0.,0.02922393,-0.00006336,0.,-0.838
 42444,0.01088871,0.00000002,-0.00000006,-3.41448636,-0.00001644,0.0000
 6021,3.40359765,0.00000002,0.00659907,0.,-0.00001644,0.80920052,0.,0.0
 0001643,-0.81579959,-0.00000006,0.,0.00659907,0.00006021,0.,0.80920052
 ,-0.00006015,0.,-0.81579959\\@


 MY GROUP MEETINGS AREN'T VERY STRUCTURED.
     -- PROF. M. S. GORDON, OCT. 5, 1984
 Job cpu time:       0 days  0 hours 25 minutes 39.4 seconds.
 Elapsed time:       0 days  0 hours  1 minutes  1.2 seconds.
 File lengths (MBytes):  RWF=    168 Int=      0 D2E=      0 Chk=     44 Scr=      8
 Normal termination of Gaussian 16 at Tue Aug  4 16:29:34 2020.
