 Entering Gaussian System, Link 0=g16
 Input=nh3_mp2_avdz_nosym.gjf
 Output=nh3_mp2_avdz_nosym.log
 Initial command:
 /sw/contrib/chem-src/g16/c01/g16/l1.exe "/scr/Gau-65800.inp" -scrdir="/scr/"
 Entering Link 1 = /sw/contrib/chem-src/g16/c01/g16/l1.exe PID=     65801.
  
 Copyright (c) 1988-2019, Gaussian, Inc.  All Rights Reserved.
  
 This is part of the Gaussian(R) 16 program.  It is based on
 the Gaussian(R) 09 system (copyright 2009, Gaussian, Inc.),
 the Gaussian(R) 03 system (copyright 2003, Gaussian, Inc.),
 the Gaussian(R) 98 system (copyright 1998, Gaussian, Inc.),
 the Gaussian(R) 94 system (copyright 1995, Gaussian, Inc.),
 the Gaussian 92(TM) system (copyright 1992, Gaussian, Inc.),
 the Gaussian 90(TM) system (copyright 1990, Gaussian, Inc.),
 the Gaussian 88(TM) system (copyright 1988, Gaussian, Inc.),
 the Gaussian 86(TM) system (copyright 1986, Carnegie Mellon
 University), and the Gaussian 82(TM) system (copyright 1983,
 Carnegie Mellon University). Gaussian is a federally registered
 trademark of Gaussian, Inc.
  
 This software contains proprietary and confidential information,
 including trade secrets, belonging to Gaussian, Inc.
  
 This software is provided under written license and may be
 used, copied, transmitted, or stored only in accord with that
 written license.
  
 The following legend is applicable only to US Government
 contracts under FAR:
  
                    RESTRICTED RIGHTS LEGEND
  
 Use, reproduction and disclosure by the US Government is
 subject to restrictions as set forth in subparagraphs (a)
 and (c) of the Commercial Computer Software - Restricted
 Rights clause in FAR 52.227-19.
  
 Gaussian, Inc.
 340 Quinnipiac St., Bldg. 40, Wallingford CT 06492
  
  
 ---------------------------------------------------------------
 Warning -- This program may not be used in any manner that
 competes with the business of Gaussian, Inc. or will provide
 assistance to any competitor of Gaussian, Inc.  The licensee
 of this program is prohibited from giving any competitor of
 Gaussian, Inc. access to this program.  By using this program,
 the user acknowledges that Gaussian, Inc. is engaged in the
 business of creating and licensing software in the field of
 computational chemistry and represents and warrants to the
 licensee that it is not a competitor of Gaussian, Inc. and that
 it will not use this program in any manner prohibited above.
 ---------------------------------------------------------------
  

 Cite this work as:
 Gaussian 16, Revision C.01,
 M. J. Frisch, G. W. Trucks, H. B. Schlegel, G. E. Scuseria, 
 M. A. Robb, J. R. Cheeseman, G. Scalmani, V. Barone, 
 G. A. Petersson, H. Nakatsuji, X. Li, M. Caricato, A. V. Marenich, 
 J. Bloino, B. G. Janesko, R. Gomperts, B. Mennucci, H. P. Hratchian, 
 J. V. Ortiz, A. F. Izmaylov, J. L. Sonnenberg, D. Williams-Young, 
 F. Ding, F. Lipparini, F. Egidi, J. Goings, B. Peng, A. Petrone, 
 T. Henderson, D. Ranasinghe, V. G. Zakrzewski, J. Gao, N. Rega, 
 G. Zheng, W. Liang, M. Hada, M. Ehara, K. Toyota, R. Fukuda, 
 J. Hasegawa, M. Ishida, T. Nakajima, Y. Honda, O. Kitao, H. Nakai, 
 T. Vreven, K. Throssell, J. A. Montgomery, Jr., J. E. Peralta, 
 F. Ogliaro, M. J. Bearpark, J. J. Heyd, E. N. Brothers, K. N. Kudin, 
 V. N. Staroverov, T. A. Keith, R. Kobayashi, J. Normand, 
 K. Raghavachari, A. P. Rendell, J. C. Burant, S. S. Iyengar, 
 J. Tomasi, M. Cossi, J. M. Millam, M. Klene, C. Adamo, R. Cammi, 
 J. W. Ochterski, R. L. Martin, K. Morokuma, O. Farkas, 
 J. B. Foresman, and D. J. Fox, Gaussian, Inc., Wallingford CT, 2019.
 
 ******************************************
 Gaussian 16:  EM64L-G16RevC.01  3-Jul-2019
                10-Jun-2025 
 ******************************************
 %nprocshared=20
 Will use up to   20 processors via shared memory.
 %mem=50gb
 -----------------------------------------
 # mp2/aug-cc-pVDZ freq(vibrot,anharmonic)
 -----------------------------------------
 1/10=4,30=1,38=21,80=1/1,6,3;
 2/12=2,17=6,18=5,40=1/2;
 3/5=16,7=10,11=9,25=1,30=1,71=2,140=1/1,2,3;
 4/69=2/1;
 5/5=2,38=5,98=1/2;
 8/6=3,8=1,10=1,19=11,30=-1/1;
 9/15=3,16=-3/6;
 11/6=1,8=1,15=11,17=12,24=-1,27=1,28=-2,29=300,32=6,42=3/1,2,10;
 10/6=2,21=1,60=-2/2;
 8/6=4,8=1,10=1,19=11,30=-1/11,4;
 10/5=1,20=4,60=-2/2;
 11/12=2,14=11,16=1,17=2,28=-2,42=3,76=2/2,10,12;
 6/7=2,8=2,9=2,10=2,22=-1/1;
 7/10=1,12=2,25=1,44=2,70=1,71=2/1,2,3,16;
 1/38=20,80=1/6(3);
 7/8=1,25=202,44=-1,70=1,71=1,92=10/16,17;
 1/10=4,30=1,38=20,80=1/3;
 99//99;
 3/5=16,7=10,11=9,25=1,30=1,71=2,140=1/1,2,3;
 4/5=5,16=3,69=2/1;
 5/5=2,38=5,98=1/2;
 8/6=3,8=1,10=1,19=11,30=-1/1;
 9/15=3,16=-3/6;
 11/6=1,8=1,15=11,17=12,24=-1,27=1,28=-2,29=300,32=6,42=3/1,2,10;
 10/6=2,21=1,60=-2/2;
 8/6=4,8=1,10=1,19=11,30=-1/11,4;
 10/5=1,20=4,60=-2/2;
 11/12=2,14=11,16=1,17=2,28=-2,42=3,76=2/2,10,12;
 6/7=2,8=2,9=2,10=2,22=-1/1;
 7/7=1,10=1,12=2,25=1,44=2,70=1,71=1/1,2,3,16;
 1/38=20,80=1/6(-12);
 7/8=1,25=202,44=-1,70=1,71=1,92=10/16,17;
 1/10=4,30=1,38=20,80=1/3;
 99//99;
 ----
 blah
 ----
 Symbolic Z-matrix:
 Charge =  0 Multiplicity = 1
 N                    -0.00245  -0.00044   0.11732 
 H                    -0.00179   0.94205  -0.27324 
 H                    -0.81776  -0.47221  -0.27447 
 H                     0.815    -0.47172  -0.27062 
 
 Numerical evaluation of third derivatives.
 Nuclear step= 0.010000 Angstroms, electric field step= 0.000333 atomic units, NStep=1.

 GradGradGradGradGradGradGradGradGradGradGradGradGradGradGradGradGradGrad
 Berny optimization.
 Initialization pass.
 Trust Radius=3.00D-01 FncErr=1.00D-07 GrdErr=1.00D-07 EigMax=2.50D+02 EigMin=1.00D-04
 Number of steps in this run=      2 maximum allowed number of steps=      2.
 GradGradGradGradGradGradGradGradGradGradGradGradGradGradGradGradGradGrad

                          Input orientation:                          
 ---------------------------------------------------------------------
 Center     Atomic      Atomic             Coordinates (Angstroms)
 Number     Number       Type             X           Y           Z
 ---------------------------------------------------------------------
      1          7           0       -0.002446   -0.000439    0.117322
      2          1           0       -0.001786    0.942048   -0.273235
      3          1           0       -0.817763   -0.472211   -0.274469
      4          1           0        0.814995   -0.471720   -0.270619
 ---------------------------------------------------------------------
                    Distance matrix (angstroms):
                    1          2          3          4
     1  N    0.000000
     2  H    1.020204   0.000000
     3  H    1.020201   1.632773   0.000000
     4  H    1.020203   1.632752   1.632763   0.000000
 Stoichiometry    H3N
 Framework group  C1[X(H3N)]
 Deg. of freedom     6
 Full point group                 C1      NOp   1
 Largest Abelian subgroup         C1      NOp   1
 Largest concise Abelian subgroup C1      NOp   1
                         Standard orientation:                         
 ---------------------------------------------------------------------
 Center     Atomic      Atomic             Coordinates (Angstroms)
 Number     Number       Type             X           Y           Z
 ---------------------------------------------------------------------
      1          7           0       -0.000003   -0.000002   -0.117029
      2          1           0        0.663873   -0.669263    0.273067
      3          1           0       -0.911538   -0.240279    0.273074
      4          1           0        0.247684    0.909555    0.273064
 ---------------------------------------------------------------------
 Rotational constants (GHZ):         293.5237741         293.5167804         188.0987960
 Standard basis: Aug-CC-pVDZ (5D, 7F)
 There are    52 symmetry adapted cartesian basis functions of A   symmetry.
 There are    50 symmetry adapted basis functions of A   symmetry.
    50 basis functions,    76 primitive gaussians,    52 cartesian basis functions
     5 alpha electrons        5 beta electrons
       nuclear repulsion energy        11.8649566365 Hartrees.
 NAtoms=    4 NActive=    4 NUniq=    4 SFac= 1.00D+00 NAtFMM=   60 NAOKFM=F Big=F
 Integral buffers will be    131072 words long.
 Raffenetti 1 integral format.
 Two-electron integral symmetry is turned on.
 One-electron integrals computed using PRISM.
 NBasis=    50 RedAO= T EigKep=  2.19D-03  NBF=    50
 NBsUse=    50 1.00D-06 EigRej= -1.00D+00 NBFU=    50
 ExpMin= 2.97D-02 ExpMax= 9.05D+03 ExpMxC= 3.09D+02 IAcc=3 IRadAn=         5 AccDes= 0.00D+00
 Harris functional with IExCor=  205 and IRadAn=       5 diagonalized for initial guess.
 HarFok:  IExCor=  205 AccDes= 0.00D+00 IRadAn=         5 IDoV= 1 UseB2=F ITyADJ=14
 ICtDFT=  3500011 ScaDFX=  1.000000  1.000000  1.000000  1.000000
 FoFCou: FMM=F IPFlag=           0 FMFlag=      100000 FMFlg1=           0
         NFxFlg=           0 DoJE=T BraDBF=F KetDBF=T FulRan=T
         wScrn=  0.000000 ICntrl=       500 IOpCl=  0 I1Cent=   200000004 NGrid=           0
         NMat0=    1 NMatS0=      1 NMatT0=    0 NMatD0=    1 NMtDS0=    0 NMtDT0=    0
 Petite list used in FoFCou.
 Keep R1 ints in memory in canonical form, NReq=4956655.
 Requested convergence on RMS density matrix=1.00D-08 within 128 cycles.
 Requested convergence on MAX density matrix=1.00D-06.
 Requested convergence on             energy=1.00D-06.
 No special actions if energy rises.
 SCF Done:  E(RHF) =  -56.2049046247     A.U. after   10 cycles
            NFock= 10  Conv=0.44D-08     -V/T= 2.0028
 ExpMin= 2.97D-02 ExpMax= 9.05D+03 ExpMxC= 3.09D+02 IAcc=3 IRadAn=         5 AccDes= 0.00D+00
 HarFok:  IExCor=  205 AccDes= 0.00D+00 IRadAn=         5 IDoV=-2 UseB2=F ITyADJ=14
 ICtDFT= 12500011 ScaDFX=  1.000000  1.000000  1.000000  1.000000
 Range of M.O.s used for correlation:     2    50
 NBasis=    50 NAE=     5 NBE=     5 NFC=     1 NFV=     0
 NROrb=     49 NOA=     4 NOB=     4 NVA=    45 NVB=    45

 **** Warning!!: The largest alpha MO coefficient is  0.10752409D+02

 Disk-based method using ON**2 memory for  4 occupieds at a time.
 Permanent disk used for amplitudes=       60525 words.
 Estimated scratch disk usage=     1420186 words.
 Actual    scratch disk usage=     1420186 words.
 JobTyp=1 Pass  1:  I=   2 to   5 NPSUse= 20 ParTrn=T ParDer=T DoDerP=T.
 (rs|ai) integrals will be sorted in core.
 Spin components of T(2) and E(2):
     alpha-alpha T2 =       0.7534514639D-02 E2=     -0.2311107264D-01
     alpha-beta  T2 =       0.4774192487D-01 E2=     -0.1537631013D+00
     beta-beta   T2 =       0.7534514639D-02 E2=     -0.2311107264D-01
 ANorm=    0.1030927230D+01
 E2 =    -0.1999852466D+00 EUMP2 =    -0.56404889871248D+02
 G2DrvN: will do     5 centers at a time, making    1 passes.
 Calling FoFCou, ICntrl=  3107 FMM=F I1Cent=   0 AccDes= 0.00D+00.
 End of G2Drv F.D. properties file   721 does not exist.
 End of G2Drv F.D. properties file   722 does not exist.
 End of G2Drv F.D. properties file   788 does not exist.
          IDoAtm=1111
          Differentiating once with respect to electric field.
                with respect to dipole field.
          Differentiating once with respect to nuclear coordinates.
 Keep R1 ints in memory in canonical form, NReq=4957344.
          There are    15 degrees of freedom in the 1st order CPHF.  IDoFFX=6 NUNeed=    15.
     12 vectors produced by pass  0 Test12= 1.50D-15 6.67D-09 XBig12= 3.13D+00 8.01D-01.
 AX will form    12 AO Fock derivatives at one time.
     12 vectors produced by pass  1 Test12= 1.50D-15 6.67D-09 XBig12= 1.91D-01 1.90D-01.
     12 vectors produced by pass  2 Test12= 1.50D-15 6.67D-09 XBig12= 6.81D-03 2.82D-02.
     12 vectors produced by pass  3 Test12= 1.50D-15 6.67D-09 XBig12= 7.47D-05 3.77D-03.
     12 vectors produced by pass  4 Test12= 1.50D-15 6.67D-09 XBig12= 8.97D-07 3.53D-04.
     12 vectors produced by pass  5 Test12= 1.50D-15 6.67D-09 XBig12= 2.13D-09 1.67D-05.
      6 vectors produced by pass  6 Test12= 1.50D-15 6.67D-09 XBig12= 9.41D-12 1.36D-06.
      3 vectors produced by pass  7 Test12= 1.50D-15 6.67D-09 XBig12= 3.71D-14 7.87D-08.
 InvSVY:  IOpt=1 It=  1 EMax= 5.55D-16
 Solved reduced A of dimension    81 with    12 vectors.
 End of Minotr F.D. properties file   721 does not exist.
 End of Minotr F.D. properties file   722 does not exist.
 End of Minotr F.D. properties file   788 does not exist.
 MDV=  6710886400.
 Form MO integral derivatives with frozen-active canonical formalism.
 Discarding MO integrals.
 Reordered first order wavefunction length =       101250
 In DefCFB: NBatch=  1 ICI=  5 ICA= 45 LFMax= 45
            Large arrays: LIAPS=     2340000 LIARS=     2047500 words.
 Semi-Direct transformation.
 ModeAB=           2 MOrb=             5 LenV=    6710665337
 LASXX=       285580 LTotXX=      285580 LenRXX=      285580
 LTotAB=      302625 MaxLAS=      344500 LenRXY=      344500
 NonZer=      571160 LenScr=     1571840 LnRSAI=           0
 LnScr1=           0 LExtra=           0 Total=      2201920
 MaxDsk=          -1 SrtSym=           F ITran=            4
 JobTyp=0 Pass  1:  I=   1 to   5.
 (rs|ai) integrals will be sorted in core.
 SymMOI:  orbitals are not symmetric.
 Spin components of T(2) and E(2):
     alpha-alpha T2 =       0.7534514639D-02 E2=     -0.2311107264D-01
     alpha-beta  T2 =       0.4774192487D-01 E2=     -0.1537631013D+00
     beta-beta   T2 =       0.7534514639D-02 E2=     -0.2311107264D-01
 ANorm=    0.1457951271D+01
 E2 =    -0.1999852466D+00 EUMP2 =    -0.56404889871248D+02
          IDoAtm=1111
          Differentiating once with respect to electric field.
                with respect to dipole field.
          Differentiating once with respect to nuclear coordinates.
          There are     1 degrees of freedom in the 1st order CPHF.  IDoFFX=0 NUNeed=     1.
 LinEq1:  Iter=  0 NonCon=     1 RMS=5.78D-03 Max=5.12D-02 NDo=     1
 LinEq1:  Iter=  1 NonCon=     1 RMS=7.40D-04 Max=4.24D-03 NDo=     1
 LinEq1:  Iter=  2 NonCon=     1 RMS=7.99D-05 Max=3.12D-04 NDo=     1
 LinEq1:  Iter=  3 NonCon=     1 RMS=3.06D-05 Max=1.82D-04 NDo=     1
 LinEq1:  Iter=  4 NonCon=     1 RMS=7.54D-06 Max=5.28D-05 NDo=     1
 LinEq1:  Iter=  5 NonCon=     1 RMS=1.60D-06 Max=8.71D-06 NDo=     1
 LinEq1:  Iter=  6 NonCon=     1 RMS=2.38D-07 Max=1.40D-06 NDo=     1
 LinEq1:  Iter=  7 NonCon=     1 RMS=2.37D-08 Max=1.40D-07 NDo=     1
 LinEq1:  Iter=  8 NonCon=     1 RMS=2.05D-09 Max=1.18D-08 NDo=     1
 LinEq1:  Iter=  9 NonCon=     1 RMS=1.73D-10 Max=1.09D-09 NDo=     1
 LinEq1:  Iter= 10 NonCon=     0 RMS=1.23D-11 Max=6.77D-11 NDo=     1
 Linear equations converged to 1.000D-10 1.000D-09 after    10 iterations.
 End of Minotr F.D. properties file   721 does not exist.
 End of Minotr F.D. properties file   722 does not exist.
 End of Minotr F.D. properties file   788 does not exist.
 Symmetrizing basis deriv contribution to polar:
 IMax=3 JMax=2 DiffMx= 0.00D+00
 G2DrvN: will do     5 centers at a time, making    1 passes.
 Calling FoFCou, ICntrl=  3107 FMM=F I1Cent=   0 AccDes= 0.00D+00.
 End of G2Drv F.D. properties file   721 does not exist.
 End of G2Drv F.D. properties file   722 does not exist.
 End of G2Drv F.D. properties file   788 does not exist.
 R2 and R3 integrals will be kept in memory, NReq=     2720262.
 DD1Dir will call FoFMem   1 times, MxPair=        30
 NAB=    15 NAA=     0 NBB=     0.
 Discarding MO integrals.

 **********************************************************************

            Population analysis using the MP2 Density.

 **********************************************************************

 Orbital symmetries:
       Occupied  (A) (A) (A) (A) (A)
       Virtual   (A) (A) (A) (A) (A) (A) (A) (A) (A) (A) (A) (A)
                 (A) (A) (A) (A) (A) (A) (A) (A) (A) (A) (A) (A)
                 (A) (A) (A) (A) (A) (A) (A) (A) (A) (A) (A) (A)
                 (A) (A) (A) (A) (A) (A) (A) (A) (A)
 The electronic state is 1-A.
 Alpha  occ. eigenvalues --  -15.55460  -1.14071  -0.62481  -0.62481  -0.42975
 Alpha virt. eigenvalues --    0.03570   0.05990   0.05990   0.15013   0.19704
 Alpha virt. eigenvalues --    0.20190   0.20190   0.29229   0.29229   0.33860
 Alpha virt. eigenvalues --    0.34275   0.34275   0.47096   0.52636   0.53348
 Alpha virt. eigenvalues --    0.53348   0.61479   0.63998   0.63998   0.70806
 Alpha virt. eigenvalues --    0.70807   0.83977   0.91734   0.91734   1.13387
 Alpha virt. eigenvalues --    1.21294   1.21294   1.35984   1.81232   1.81232
 Alpha virt. eigenvalues --    1.94127   2.06003   2.06003   2.09562   2.33049
 Alpha virt. eigenvalues --    2.33050   2.37180   2.39716   2.39716   2.65369
 Alpha virt. eigenvalues --    2.89880   2.89880   3.10041   3.51637   3.51637
          Condensed to atoms (all electrons):
               1          2          3          4
     1  N    6.012293   0.346655   0.346656   0.346654
     2  H    0.346655   0.795946  -0.080011  -0.080011
     3  H    0.346656  -0.080011   0.795948  -0.080012
     4  H    0.346654  -0.080011  -0.080012   0.795951
 Mulliken charges:
               1
     1  N   -0.052258
     2  H    0.017421
     3  H    0.017419
     4  H    0.017418
 Sum of Mulliken charges =   0.00000
 Mulliken charges with hydrogens summed into heavy atoms:
               1
     1  N    0.000000
 APT charges:
               1
     1  N   -0.411808
     2  H    0.137269
     3  H    0.137271
     4  H    0.137268
 Sum of APT charges =   0.00000
 APT charges with hydrogens summed into heavy atoms:
               1
     1  N    0.000000
 Electronic spatial extent (au):  <R**2>=             27.4902
 Charge=              0.0000 electrons
 Dipole moment (field-independent basis, Debye):
    X=              0.0000    Y=              0.0000    Z=              1.5487  Tot=              1.5487
 Quadrupole moment (field-independent basis, Debye-Ang):
   XX=             -6.4850   YY=             -6.4851   ZZ=             -9.6652
   XY=              0.0000   XZ=             -0.0000   YZ=             -0.0000
 Traceless Quadrupole moment (field-independent basis, Debye-Ang):
   XX=              1.0601   YY=              1.0600   ZZ=             -2.1201
   XY=              0.0000   XZ=             -0.0000   YZ=             -0.0000
 Octapole moment (field-independent basis, Debye-Ang**2):
  XXX=             -0.6675  YYY=              0.6515  ZZZ=              1.3032  XYY=              0.6676
  XXY=             -0.6515  XXZ=              0.8682  XZZ=             -0.0000  YZZ=              0.0000
  YYZ=              0.8681  XYZ=              0.0000
 Hexadecapole moment (field-independent basis, Debye-Ang**3):
 XXXX=            -10.9372 YYYY=            -10.9372 ZZZZ=            -14.2798 XXXY=             -0.0000
 XXXZ=             -0.2296 YYYX=              0.0000 YYYZ=              0.2240 ZZZX=             -0.0000
 ZZZY=             -0.0000 XXYY=             -3.6457 XXZZ=             -4.3732 YYZZ=             -4.3732
 XXYZ=             -0.2240 YYXZ=              0.2295 ZZXY=              0.0000
 N-N= 1.186495663649D+01 E-N=-1.553896937284D+02  KE= 5.619876034481D+01
  Exact polarizability:      13.521      -0.000      13.521       0.000       0.000      15.082
 Approx polarizability:      10.861      -0.000      10.861       0.000       0.000      10.499
 Calling FoFJK, ICntrl=  10100127 FMM=F ISym2X=0 I1Cent= 0 IOpClX= 0 NMat=1 NMatS=1 NMatT=0.
 Full mass-weighted force constant matrix:
 Low frequencies ---   -6.2409   -4.0331   -1.4036   -0.0014    0.0011    0.0012
 Low frequencies --- 1045.4721 1648.9801 1648.9950
 Diagonal vibrational polarizability:
        0.1422433       0.1422494       3.2361530
 Harmonic frequencies (cm**-1), IR intensities (KM/Mole), Raman scattering
 activities (A**4/AMU), depolarization ratios for plane and unpolarized
 incident light, reduced masses (AMU), force constants (mDyne/A),
 and normal coordinates:
                      1                      2                      3
                      A                      A                      A
 Frequencies --   1045.4721              1648.9801              1648.9950
 Red. masses --      1.1803                 1.0655                 1.0655
 Frc consts  --      0.7601                 1.7070                 1.7070
 IR Inten    --    131.0228                13.3305                13.3298
  Atom  AN      X      Y      Z        X      Y      Z        X      Y      Z
     1   7    -0.00  -0.00  -0.12     0.01  -0.07   0.00    -0.07  -0.01   0.00
     2   1    -0.15   0.15   0.53     0.41   0.25  -0.20     0.37   0.49   0.16
     3   1     0.20   0.05   0.53    -0.21   0.72  -0.03    -0.11  -0.13  -0.25
     4   1    -0.06  -0.20   0.53    -0.31  -0.05   0.24     0.66  -0.24   0.10
                      4                      5                      6
                      A                      A                      A
 Frequencies --   3480.4354              3635.3464              3635.3723
 Red. masses --      1.0270                 1.0889                 1.0889
 Frc consts  --      7.3297                 8.4786                 8.4788
 IR Inten    --      4.6011                 5.0672                 5.0685
  Atom  AN      X      Y      Z        X      Y      Z        X      Y      Z
     1   7     0.00  -0.00   0.04     0.03  -0.07  -0.00    -0.07  -0.03   0.00
     2   1    -0.39   0.39  -0.18    -0.50   0.49  -0.28     0.19  -0.22   0.12
     3   1     0.53   0.14  -0.18    -0.09  -0.05   0.04     0.72   0.19  -0.30
     4   1    -0.14  -0.53  -0.18     0.17   0.57   0.24     0.10   0.45   0.18

 -------------------
 - Thermochemistry -
 -------------------
 Temperature   298.150 Kelvin.  Pressure   1.00000 Atm.
 Atom     1 has atomic number  7 and mass  14.00307
 Atom     2 has atomic number  1 and mass   1.00783
 Atom     3 has atomic number  1 and mass   1.00783
 Atom     4 has atomic number  1 and mass   1.00783
 Molecular mass:    17.02655 amu.
 Principal axes and moments of inertia in atomic units:
                           1         2         3
     Eigenvalues --     6.14854   6.14868   9.59465
           X            1.00000  -0.00000  -0.00000
           Y            0.00000   1.00000  -0.00000
           Z            0.00000   0.00000   1.00000
 This molecule is an asymmetric top.
 Rotational symmetry number  1.
 Rotational temperatures (Kelvin)     14.08692    14.08658     9.02732
 Rotational constants (GHZ):         293.52377   293.51678   188.09880
 Zero-point vibrational energy      90285.8 (Joules/Mol)
                                   21.57882 (Kcal/Mol)
 Vibrational temperatures:   1504.20  2372.51  2372.54  5007.57  5230.45
          (Kelvin)           5230.49
 
 Zero-point correction=                           0.034388 (Hartree/Particle)
 Thermal correction to Energy=                    0.037257
 Thermal correction to Enthalpy=                  0.038201
 Thermal correction to Gibbs Free Energy=         0.015304
 Sum of electronic and zero-point Energies=            -56.370502
 Sum of electronic and thermal Energies=               -56.367633
 Sum of electronic and thermal Enthalpies=             -56.366689
 Sum of electronic and thermal Free Energies=          -56.389586
 
                     E (Thermal)             CV                S
                      KCal/Mol        Cal/Mol-Kelvin    Cal/Mol-Kelvin
 Total                   23.379              6.380             48.190
 Electronic               0.000              0.000              0.000
 Translational            0.889              2.981             34.441
 Rotational               0.889              2.981             13.659
 Vibrational             21.601              0.418              0.090
                       Q            Log10(Q)             Ln(Q)
 Total Bot       0.913079D-07         -7.039492        -16.209029
 Total V=0       0.599641D+09          8.777891         20.211841
 Vib (Bot)       0.153365D-15        -15.814272        -36.413708
 Vib (V=0)       0.100719D+01          0.003110          0.007162
 Electronic      0.100000D+01          0.000000          0.000000
 Translational   0.276149D+07          6.441144         14.831282
 Rotational      0.215594D+03          2.333637          5.373397

     ==================================================
      Anharmonic Data: Displacement Vectors Definition
     ==================================================

 Framework definition based on atomic masses: C1  

 **********************************************************************

                  Harmonic vibro-rotational analysis

 **********************************************************************


     ==================================================
               Analysis of the Rotor Symmetry
     ==================================================

 Framework Group : C1  
 Rotor Type      : Oblate Symmetric Top
 WARNING: Inconsistency between the rotor type and the framework group.
          Redefining rotor type based on framework group.
 New Rotor Type  : Asymmetric Top
 Asymm. param.   : Kappa =  0.999867
 Inertia moments : X=     1.72177 , Y=     1.72181 , Z=     2.68677
 Representation  : IIIr Representation, Ix < Iy < Iz

 Axes Definition for the Symmetric-Top Representation
 ----------------------------------------------------
 Axis Z automatically chosen to be collinear with Z from Eckart orient.
 NOTE: In Vibro-rotational analysis, this will be referred to as the
       spectroscopic orientation.

     ==================================================
        Vibro-Rotational Analysis Based on Symmetry
     ==================================================

 Input/Output information
 ------------------------
 Normal modes will be PRINTED in DESCENDING order (imag. freq. first)
   and sorted by irreducible representation
 The connection between this new numbering (A) and the one used before
   (H) is reported in the present equivalency table:
 ----+------+------+------+------+------+------+
 (H) |     1|     2|     3|     4|     5|     6|
 (A) |     6|     5|     4|     3|     2|     1|
 ----+------+------+------+------+------+------+

 Normal modes will be READ in ASCENDING order (imag. freq. first)

     ==================================================
                   Coriolis Couplings
     ==================================================

 Coriolis Couplings along the X axis
 -----------------------------------
                1             2             3             4             5 
      1   0.000000D+00
      2   0.000000D+00  0.000000D+00
      3   0.432504D-02  0.104863D-01  0.000000D+00
      4  -0.841117D-01  0.320634D+00 -0.118638D-02  0.000000D+00
      5   0.320646D+00  0.841137D-01 -0.960615D-02  0.000000D+00  0.000000D+00
      6   0.273699D+00  0.663573D+00  0.000000D+00  0.765984D-01  0.607274D+00
                6 
      6   0.000000D+00

 Coriolis Couplings along the Y axis
 -----------------------------------
                1             2             3             4             5 
      1   0.000000D+00
      2   0.000000D+00  0.000000D+00
      3  -0.104833D-01  0.432411D-02  0.000000D+00
      4   0.320637D+00  0.841107D-01  0.958396D-02  0.000000D+00
      5   0.841165D-01 -0.320645D+00 -0.123421D-02  0.000000D+00  0.000000D+00
      6  -0.663589D+00  0.273702D+00  0.000000D+00 -0.607260D+00  0.765991D-01
                6 
      6   0.000000D+00

 Coriolis Couplings along the Z axis
 -----------------------------------
                1             2             3             4             5 
      1   0.000000D+00
      2   0.307613D-01  0.000000D+00
      3   0.000000D+00  0.000000D+00  0.000000D+00
      4  -0.230818D+00 -0.848087D+00  0.000000D+00  0.000000D+00
      5   0.848080D+00 -0.230816D+00  0.000000D+00 -0.250532D+00  0.000000D+00
      6   0.000000D+00  0.000000D+00  0.000000D+00  0.000000D+00  0.000000D+00
                6 
      6   0.000000D+00

   12 Coriolis couplings larger than .100D-02 along the X axis
   12 Coriolis couplings larger than .100D-02 along the Y axis
    6 Coriolis couplings larger than .100D-02 along the Z axis

     ==================================================
      Inertia Moments Derivatives w.r.t. Normal Modes
     ==================================================

 Units: amu^1/2.Ang

                 Ixx        Ixy        Iyy        Ixz        Iyz        Izz
 Q(     1)     0.98676    0.39647   -0.98697   -0.76445   -0.31530   -0.00014
 Q(     2)     0.39662   -0.98689   -0.39638    0.31530   -0.76442    0.00019
 Q(     3)    -1.95756   -0.00008   -1.95754    0.00006   -0.00003   -3.08707
 Q(     4)    -0.99463   -0.75260    0.99464   -0.69955   -0.08824    0.00002
 Q(     5)    -0.75257    0.99461    0.75258    0.08824   -0.69957    0.00001
 Q(     6)     0.60693    0.00000    0.60692   -0.00002   -0.00001   -1.10321

     ==================================================
               Vibro-rotational Alpha Matrix
     ==================================================

 Vibro-Rot alpha Matrix (in cm^-1)
 ---------------------------------
                 A(x)           B(y)           C(z)
 Q(     1)       -0.07130       -0.12915       -0.07398
 Q(     2)       -0.12916       -0.07130       -0.07398
 Q(     3)       -0.09165       -0.09165       -0.06018
 Q(     4)       -0.07254       -0.29689        0.06477
 Q(     5)       -0.29691       -0.07253        0.06476
 Q(     6)        0.35256        0.35254       -0.02559

 Vibro-Rot alpha Matrix (in MHz)
 -------------------------------
                 A(x)           B(y)           C(z)
 Q(     1)    -2137.41541    -3871.91841    -2217.86244
 Q(     2)    -3871.99292    -2137.44838    -2217.91138
 Q(     3)    -2747.73174    -2747.49357    -1804.14732
 Q(     4)    -2174.62889    -8900.45274     1941.66229
 Q(     5)    -8901.22226    -2174.41074     1941.58726
 Q(     6)    10569.63005    10568.82711     -767.03329

     ==================================================
          Quartic Centrifugal Distortion Constants
     ==================================================

 NOTE: Values in Cartesian coords. refer to the structure in Eckart orientation.

 Quartic Centrifugal Distortion Constants Tau Prime
 --------------------------------------------------
                      cm^-1                    MHz
 TauP aaaa     -0.2858729945D-02        -0.8570256770D+02
 TauP bbaa     -0.2858587464D-02        -0.8569829621D+02
 TauP bbbb     -0.2858464156D-02        -0.8569459954D+02
 TauP ccaa     -0.3182567544D-03        -0.9541097469D+01
 TauP ccbb     -0.3183050147D-03        -0.9542544276D+01
 TauP cccc     -0.6987656409D-03        -0.2094846691D+02

 Asymmetric Top Reduction
 ------------------------
       Asymmetry parameter     | Reference formula
  Kappa :         0.9998673236 |    [2B-A-C]/[A-C]
  Delta :         0.9999336618 |       [B-C]/[A-C]
  Sigma :    -30160.8641153470 | [2A'-B'-C']/[B'-C']

 (A,B,C)   : equilibrium rotational constants
 (A',B',C'): effective rotational constants

 Constants in the Asymmetrically reduced Hamiltonian
 ---------------------------------------------------
                        cm^-1                   MHz
  DELTA J  :    0.7146492626D-03         0.2142464591D+02
  DELTA K  :    0.7302026273D-03         0.2189092405D+02
  DELTA JK :   -0.1270160480D-02        -0.3807845323D+02
  delta J  :    0.1661182635D-07         0.4980100255D-03
  delta K  :   -0.3616653504D-04        -0.1084245444D+01

 Effective Rotational Constants
 (Include Terms due to Quartic Centrifugal Distortion Constants)
 ---------------------------------------------------------------
           Be in cm^-1             B(A) in cm^-1            B(A) in MHz
 a          9.790899214             9.790826929             293521.60708
 b          9.790665929             9.790738219             293518.94764
 c          6.274300468             6.274300464             188098.79582

 Nielsen Centrifugal Distortion Constants
 ----------------------------------------
                cm^-1                    MHz
 DJ     0.7146486635D-03         0.2142462794D+02
 DJK   -0.1270156885D-02        -0.3807834545D+02
 DK     0.7301996314D-03         0.2189083423D+02
 dJ     0.1661182635D-07         0.4980100255D-03
 R5     0.1132218041D-07         0.3394304296D-03
 R6    -0.2995926322D-09        -0.8981561161D-05

 Constants in the Symmetrically Reduced Hamiltonian
 --------------------------------------------------
                    cm^-1                     MHz
  D J  :    0.7146486631D-03         0.2142462793D+02
  D JK :   -0.1270156882D-02        -0.3807834538D+02
  D K  :    0.7301996295D-03         0.2189083418D+02
  d 1  :   -0.1661182635D-07        -0.4980100255D-03
  d 2  :   -0.2997803288D-09        -0.8987188162D-05


 Effective Rotational Constants
 (Include Terms due to Quartic Centrifugal Distortion Constants)
 ---------------------------------------------------------------
           Be in cm^-1             B(S) in cm^-1            B(S) in MHz
 a          9.790899214             9.790899261             293523.77554
 b          9.790665929             9.790665885             293516.77912
 c          6.274300468             6.274300467             188098.79591

 Wilson Centrifugal Distortion Constants
 ---------------------------------------
                cm^-1                    MHz
 DJ     0.7146824863D-03         0.2142564193D+02
 DJK   -0.1270236595D-02        -0.3808073512D+02
 DK     0.7302455193D-03         0.2189220992D+02

 Nielsen Centrifugal Distortion Constants
 ----------------------------------------
                cm^-1                    MHz
 DJ     0.7146486635D-03         0.2142462794D+02
 DJK   -0.1270156885D-02        -0.3807834545D+02
 DK     0.7301996314D-03         0.2189083423D+02
 dJ     0.1661182635D-07         0.4980100255D-03
 R5     0.1132218041D-07         0.3394304296D-03
 R6    -0.2995926322D-09        -0.8981561161D-05

     ==================================================
       Average Coordinates and Mean Square Amplitudes
     ==================================================

 NOTE: Temperature is given in K between parentheses
       For Cartesian and internal coords., units are given between
       parentheses next to each label

 Mean Square Amplitudes of Normal Coordinates (in amu.bohr^2)
 -----------------------------------------------------------
 Mode    <Q^2> (0)    <Q^2> (298.15)    <Q^2> (298.15) class.
    1     0.016559       0.016559          0.074529
    2     0.016560       0.016560          0.074530
    3     0.017297       0.017297          0.081313
    4     0.036507       0.036532          0.362232
    5     0.036507       0.036533          0.362238
    6     0.057581       0.058328          0.901157

 Mean Square Amplitudes of Cartesian Coordinates
 -----------------------------------------------
    Label        <(S-Se)^2>^1/2 (0)    <(S-Se)^2>^1/2 (298.15)
 X(1)  (Angs)        0.008315              0.008317
 Y(1)  (Angs)        0.008316              0.008317
 Z(1)  (Angs)        0.013721              0.013807
 X(2)  (Angs)        0.071432              0.071474
 Y(2)  (Angs)        0.071381              0.071423
 Z(2)  (Angs)        0.071095              0.071452
 X(3)  (Angs)        0.068616              0.068672
 Y(3)  (Angs)        0.074092              0.074120
 Z(3)  (Angs)        0.071096              0.071453
 X(4)  (Angs)        0.074068              0.074096
 Y(4)  (Angs)        0.068643              0.068699
 Z(4)  (Angs)        0.071095              0.071452
 ***** Axes restored to original set *****
 -------------------------------------------------------------------
 Center     Atomic                   Forces (Hartrees/Bohr)
 Number     Number              X              Y              Z
 -------------------------------------------------------------------
      1        7           0.000003431    0.000002026    0.000001152
      2        1          -0.000002422    0.000000170    0.000000171
      3        1          -0.000002065    0.000000007   -0.000001486
      4        1           0.000001056   -0.000002203    0.000000163
 -------------------------------------------------------------------
 Cartesian Forces:  Max     0.000003431 RMS     0.000001722
 NDeriv=      6 NFrqRd=  0 NDerD0=      0 MskFDP=       0 MskDFD=       0 MskDF0=       0
 At 1st pt F.D. properties file   721 does not exist.
 At 1st pt F.D. properties file   722 does not exist.
 D2Numr ... symmetry will not be used.
 Standard basis: Aug-CC-pVDZ (5D, 7F)
    50 basis functions,    76 primitive gaussians,    52 cartesian basis functions
     5 alpha electrons        5 beta electrons
       nuclear repulsion energy        11.8680485781 Hartrees.
 NAtoms=    4 NActive=    4 NUniq=    4 SFac= 1.00D+00 NAtFMM=   60 NAOKFM=F Big=F
 Integral buffers will be    131072 words long.
 Raffenetti 1 integral format.
 Two-electron integral symmetry is turned off.
 One-electron integrals computed using PRISM.
 NBasis=    50 RedAO= T EigKep=  2.21D-03  NBF=    50
 NBsUse=    50 1.00D-06 EigRej= -1.00D+00 NBFU=    50
 Initial guess from the checkpoint file:  "/scr/Gau-65801.chk"
 B after Tr=    -0.000000   -0.000000   -0.001382
         Rot=    1.000000   -0.000000    0.000000    0.000000 Ang=   0.00 deg.
 Keep R1 ints in memory in canonical form, NReq=4956529.
 Requested convergence on RMS density matrix=1.00D-08 within 128 cycles.
 Requested convergence on MAX density matrix=1.00D-06.
 Requested convergence on             energy=1.00D-06.
 No special actions if energy rises.
 SCF Done:  E(RHF) =  -56.2049557981     A.U. after    8 cycles
            NFock=  8  Conv=0.61D-08     -V/T= 2.0028
 ExpMin= 2.97D-02 ExpMax= 9.05D+03 ExpMxC= 3.09D+02 IAcc=3 IRadAn=         5 AccDes= 0.00D+00
 HarFok:  IExCor=  205 AccDes= 0.00D+00 IRadAn=         5 IDoV=-2 UseB2=F ITyADJ=14
 ICtDFT= 12500011 ScaDFX=  1.000000  1.000000  1.000000  1.000000
 Range of M.O.s used for correlation:     2    50
 NBasis=    50 NAE=     5 NBE=     5 NFC=     1 NFV=     0
 NROrb=     49 NOA=     4 NOB=     4 NVA=    45 NVB=    45

 **** Warning!!: The largest alpha MO coefficient is  0.10705803D+02

 Disk-based method using ON**2 memory for  4 occupieds at a time.
 Permanent disk used for amplitudes=       60525 words.
 Estimated scratch disk usage=     1420186 words.
 Actual    scratch disk usage=     1420186 words.
 JobTyp=1 Pass  1:  I=   2 to   5 NPSUse= 20 ParTrn=T ParDer=T DoDerP=T.
 (rs|ai) integrals will be sorted in core.
 Spin components of T(2) and E(2):
     alpha-alpha T2 =       0.7529394114D-02 E2=     -0.2310670028D-01
     alpha-beta  T2 =       0.4770018058D-01 E2=     -0.1537133735D+00
     beta-beta   T2 =       0.7529394114D-02 E2=     -0.2310670028D-01
 ANorm=    0.1030902017D+01
 E2 =    -0.1999267740D+00 EUMP2 =    -0.56404882572193D+02
 G2DrvN: will do     5 centers at a time, making    1 passes.
 Calling FoFCou, ICntrl=  3107 FMM=F I1Cent=   0 AccDes= 0.00D+00.
 End of G2Drv F.D. properties file   721 does not exist.
 End of G2Drv F.D. properties file   722 does not exist.
 End of G2Drv F.D. properties file   788 does not exist.
          IDoAtm=1111
          Differentiating once with respect to electric field.
                with respect to dipole field.
          Differentiating once with respect to nuclear coordinates.
 Keep R1 ints in memory in canonical form, NReq=4957218.
          There are    15 degrees of freedom in the 1st order CPHF.  IDoFFX=6 NUNeed=    15.
     12 vectors produced by pass  0 Test12= 1.50D-15 6.67D-09 XBig12= 3.13D+00 8.02D-01.
 AX will form    12 AO Fock derivatives at one time.
     12 vectors produced by pass  1 Test12= 1.50D-15 6.67D-09 XBig12= 1.89D-01 1.88D-01.
     12 vectors produced by pass  2 Test12= 1.50D-15 6.67D-09 XBig12= 6.65D-03 2.78D-02.
     12 vectors produced by pass  3 Test12= 1.50D-15 6.67D-09 XBig12= 7.44D-05 3.70D-03.
     12 vectors produced by pass  4 Test12= 1.50D-15 6.67D-09 XBig12= 9.04D-07 3.60D-04.
     12 vectors produced by pass  5 Test12= 1.50D-15 6.67D-09 XBig12= 2.13D-09 1.70D-05.
      6 vectors produced by pass  6 Test12= 1.50D-15 6.67D-09 XBig12= 9.36D-12 1.36D-06.
      3 vectors produced by pass  7 Test12= 1.50D-15 6.67D-09 XBig12= 3.69D-14 7.85D-08.
 InvSVY:  IOpt=1 It=  1 EMax= 4.44D-16
 Solved reduced A of dimension    81 with    12 vectors.
 End of Minotr F.D. properties file   721 does not exist.
 End of Minotr F.D. properties file   722 does not exist.
 End of Minotr F.D. properties file   788 does not exist.
 MDV=  6710886400.
 Form MO integral derivatives with frozen-active canonical formalism.
 Discarding MO integrals.
 Reordered first order wavefunction length =       101250
 In DefCFB: NBatch=  1 ICI=  5 ICA= 45 LFMax= 45
            Large arrays: LIAPS=     2340000 LIARS=     2047500 words.
 Semi-Direct transformation.
 ModeAB=           2 MOrb=             5 LenV=    6710665337
 LASXX=       285580 LTotXX=      285580 LenRXX=      285580
 LTotAB=      302625 MaxLAS=      344500 LenRXY=      344500
 NonZer=      571160 LenScr=     1571840 LnRSAI=           0
 LnScr1=           0 LExtra=           0 Total=      2201920
 MaxDsk=          -1 SrtSym=           F ITran=            4
 JobTyp=0 Pass  1:  I=   1 to   5.
 (rs|ai) integrals will be sorted in core.
 Spin components of T(2) and E(2):
     alpha-alpha T2 =       0.7529394114D-02 E2=     -0.2310670028D-01
     alpha-beta  T2 =       0.4770018058D-01 E2=     -0.1537133735D+00
     beta-beta   T2 =       0.7529394114D-02 E2=     -0.2310670028D-01
 ANorm=    0.1457915614D+01
 E2 =    -0.1999267740D+00 EUMP2 =    -0.56404882572193D+02
          IDoAtm=1111
          Differentiating once with respect to electric field.
                with respect to dipole field.
          Differentiating once with respect to nuclear coordinates.
          There are     1 degrees of freedom in the 1st order CPHF.  IDoFFX=0 NUNeed=     1.
 LinEq1:  Iter=  0 NonCon=     1 RMS=5.78D-03 Max=5.14D-02 NDo=     1
 LinEq1:  Iter=  1 NonCon=     1 RMS=7.39D-04 Max=4.21D-03 NDo=     1
 LinEq1:  Iter=  2 NonCon=     1 RMS=7.81D-05 Max=3.07D-04 NDo=     1
 LinEq1:  Iter=  3 NonCon=     1 RMS=2.88D-05 Max=1.69D-04 NDo=     1
 LinEq1:  Iter=  4 NonCon=     1 RMS=7.42D-06 Max=5.18D-05 NDo=     1
 LinEq1:  Iter=  5 NonCon=     1 RMS=1.60D-06 Max=8.72D-06 NDo=     1
 LinEq1:  Iter=  6 NonCon=     1 RMS=2.39D-07 Max=1.41D-06 NDo=     1
 LinEq1:  Iter=  7 NonCon=     1 RMS=2.39D-08 Max=1.41D-07 NDo=     1
 LinEq1:  Iter=  8 NonCon=     1 RMS=2.06D-09 Max=1.18D-08 NDo=     1
 LinEq1:  Iter=  9 NonCon=     1 RMS=1.74D-10 Max=1.10D-09 NDo=     1
 LinEq1:  Iter= 10 NonCon=     0 RMS=1.25D-11 Max=6.90D-11 NDo=     1
 Linear equations converged to 1.000D-10 1.000D-09 after    10 iterations.
 End of Minotr F.D. properties file   721 does not exist.
 End of Minotr F.D. properties file   722 does not exist.
 End of Minotr F.D. properties file   788 does not exist.
 Symmetrizing basis deriv contribution to polar:
 IMax=3 JMax=2 DiffMx= 0.00D+00
 G2DrvN: will do     5 centers at a time, making    1 passes.
 Calling FoFCou, ICntrl=  3107 FMM=F I1Cent=   0 AccDes= 0.00D+00.
 End of G2Drv F.D. properties file   721 does not exist.
 End of G2Drv F.D. properties file   722 does not exist.
 End of G2Drv F.D. properties file   788 does not exist.
 R2 and R3 integrals will be kept in memory, NReq=     2720262.
 DD1Dir will call FoFMem   1 times, MxPair=        30
 NAB=    15 NAA=     0 NBB=     0.
 Discarding MO integrals.

 **********************************************************************

            Population analysis using the MP2 Density.

 **********************************************************************

 Alpha  occ. eigenvalues --  -15.55415  -1.14029  -0.62559  -0.62558  -0.42860
 Alpha virt. eigenvalues --    0.03576   0.05987   0.05987   0.15030   0.19702
 Alpha virt. eigenvalues --    0.20181   0.20181   0.29231   0.29232   0.33800
 Alpha virt. eigenvalues --    0.34312   0.34312   0.47225   0.52607   0.53317
 Alpha virt. eigenvalues --    0.53317   0.61483   0.63971   0.63971   0.70887
 Alpha virt. eigenvalues --    0.70887   0.83802   0.91733   0.91733   1.13316
 Alpha virt. eigenvalues --    1.21512   1.21512   1.36087   1.81403   1.81404
 Alpha virt. eigenvalues --    1.93907   2.06238   2.06238   2.09275   2.33166
 Alpha virt. eigenvalues --    2.33166   2.36949   2.39755   2.39756   2.64633
 Alpha virt. eigenvalues --    2.89955   2.89956   3.10680   3.51516   3.51516
          Condensed to atoms (all electrons):
               1          2          3          4
     1  N    6.008546   0.347731   0.347732   0.347730
     2  H    0.347731   0.796519  -0.080749  -0.080749
     3  H    0.347732  -0.080749   0.796521  -0.080750
     4  H    0.347730  -0.080749  -0.080750   0.796524
 Mulliken charges:
               1
     1  N   -0.051739
     2  H    0.017248
     3  H    0.017246
     4  H    0.017245
 Sum of Mulliken charges =  -0.00000
 Mulliken charges with hydrogens summed into heavy atoms:
               1
     1  N   -0.000000
 APT charges:
               1
     1  N   -0.416137
     2  H    0.138712
     3  H    0.138714
     4  H    0.138711
 Sum of APT charges =  -0.00000
 APT charges with hydrogens summed into heavy atoms:
               1
     1  N   -0.000000
 Electronic spatial extent (au):  <R**2>=             27.4896
 Charge=             -0.0000 electrons
 Dipole moment (field-independent basis, Debye):
    X=              0.0000    Y=              0.0000    Z=              1.5310  Tot=              1.5310
 Quadrupole moment (field-independent basis, Debye-Ang):
   XX=             -6.4699   YY=             -6.4700   ZZ=             -9.6886
   XY=              0.0000   XZ=             -0.0000   YZ=             -0.0000
 Traceless Quadrupole moment (field-independent basis, Debye-Ang):
   XX=              1.0729   YY=              1.0728   ZZ=             -2.1457
   XY=              0.0000   XZ=             -0.0000   YZ=             -0.0000
 Octapole moment (field-independent basis, Debye-Ang**2):
  XXX=             -0.6739  YYY=              0.6578  ZZZ=              1.3112  XYY=              0.6740
  XXY=             -0.6577  XXZ=              0.8646  XZZ=             -0.0000  YZZ=              0.0000
  YYZ=              0.8646  XYZ=              0.0000
 Hexadecapole moment (field-independent basis, Debye-Ang**3):
 XXXX=            -10.9256 YYYY=            -10.9257 ZZZZ=            -14.2876 XXXY=             -0.0000
 XXXZ=             -0.2269 YYYX=              0.0000 YYYZ=              0.2214 ZZZX=             -0.0000
 ZZZY=             -0.0000 XXYY=             -3.6419 XXZZ=             -4.3827 YYZZ=             -4.3827
 XXYZ=             -0.2214 YYXZ=              0.2269 ZZXY=              0.0000
 N-N= 1.186804857810D+01 E-N=-1.553965924964D+02  KE= 5.619892618208D+01
  Exact polarizability:      13.515      -0.000      13.515       0.000       0.000      15.099
 Approx polarizability:      10.855      -0.000      10.855       0.000       0.000      10.487
 Calling FoFJK, ICntrl=  10100127 FMM=F ISym2X=0 I1Cent= 0 IOpClX= 0 NMat=1 NMatS=1 NMatT=0.
 -------------------------------------------------------------------
 Center     Atomic                   Forces (Hartrees/Bohr)
 Number     Number              X              Y              Z
 -------------------------------------------------------------------
      1        7           0.000003866    0.000000977   -0.001131983
      2        1          -0.000114758    0.000112254    0.000376776
      3        1           0.000153914    0.000039497    0.000378416
      4        1          -0.000043021   -0.000152728    0.000376791
 -------------------------------------------------------------------
 Cartesian Forces:  Max     0.001131983 RMS     0.000385652
 NDeriv=      6 NFrqRd=  0 NDerD0=      0 MskFDP=       0 MskDFD=       0 MskDF0=       0
 Re-enter D2Numr:  normal mode      1 step-up   number 1
 Standard basis: Aug-CC-pVDZ (5D, 7F)
    50 basis functions,    76 primitive gaussians,    52 cartesian basis functions
     5 alpha electrons        5 beta electrons
       nuclear repulsion energy        11.8614681841 Hartrees.
 NAtoms=    4 NActive=    4 NUniq=    4 SFac= 1.00D+00 NAtFMM=   60 NAOKFM=F Big=F
 Integral buffers will be    131072 words long.
 Raffenetti 1 integral format.
 Two-electron integral symmetry is turned off.
 One-electron integrals computed using PRISM.
 NBasis=    50 RedAO= T EigKep=  2.18D-03  NBF=    50
 NBsUse=    50 1.00D-06 EigRej= -1.00D+00 NBFU=    50
 Initial guess from the checkpoint file:  "/scr/Gau-65801.chk"
 B after Tr=     0.000000    0.000000    0.001382
         Rot=    1.000000    0.000000   -0.000000   -0.000000 Ang=   0.00 deg.
 Keep R1 ints in memory in canonical form, NReq=4956529.
 Requested convergence on RMS density matrix=1.00D-08 within 128 cycles.
 Requested convergence on MAX density matrix=1.00D-06.
 Requested convergence on             energy=1.00D-06.
 No special actions if energy rises.
 SCF Done:  E(RHF) =  -56.2048329324     A.U. after    8 cycles
            NFock=  8  Conv=0.59D-08     -V/T= 2.0029
 ExpMin= 2.97D-02 ExpMax= 9.05D+03 ExpMxC= 3.09D+02 IAcc=3 IRadAn=         5 AccDes= 0.00D+00
 HarFok:  IExCor=  205 AccDes= 0.00D+00 IRadAn=         5 IDoV=-2 UseB2=F ITyADJ=14
 ICtDFT= 12500011 ScaDFX=  1.000000  1.000000  1.000000  1.000000
 Range of M.O.s used for correlation:     2    50
 NBasis=    50 NAE=     5 NBE=     5 NFC=     1 NFV=     0
 NROrb=     49 NOA=     4 NOB=     4 NVA=    45 NVB=    45

 **** Warning!!: The largest alpha MO coefficient is  0.10822659D+02

 Disk-based method using ON**2 memory for  4 occupieds at a time.
 Permanent disk used for amplitudes=       60525 words.
 Estimated scratch disk usage=     1420186 words.
 Actual    scratch disk usage=     1420186 words.
 JobTyp=1 Pass  1:  I=   2 to   5 NPSUse= 20 ParTrn=T ParDer=T DoDerP=T.
 (rs|ai) integrals will be sorted in core.
 Spin components of T(2) and E(2):
     alpha-alpha T2 =       0.7540207727D-02 E2=     -0.2311625894D-01
     alpha-beta  T2 =       0.4778716190D-01 E2=     -0.1538169510D+00
     beta-beta   T2 =       0.7540207727D-02 E2=     -0.2311625894D-01
 ANorm=    0.1030954692D+01
 E2 =    -0.2000494689D+00 EUMP2 =    -0.56404882401304D+02
 G2DrvN: will do     5 centers at a time, making    1 passes.
 Calling FoFCou, ICntrl=  3107 FMM=F I1Cent=   0 AccDes= 0.00D+00.
 End of G2Drv F.D. properties file   721 does not exist.
 End of G2Drv F.D. properties file   722 does not exist.
 End of G2Drv F.D. properties file   788 does not exist.
          IDoAtm=1111
          Differentiating once with respect to electric field.
                with respect to dipole field.
          Differentiating once with respect to nuclear coordinates.
 Keep R1 ints in memory in canonical form, NReq=4957218.
          There are    15 degrees of freedom in the 1st order CPHF.  IDoFFX=6 NUNeed=    15.
     12 vectors produced by pass  0 Test12= 1.50D-15 6.67D-09 XBig12= 3.13D+00 7.99D-01.
 AX will form    12 AO Fock derivatives at one time.
     12 vectors produced by pass  1 Test12= 1.50D-15 6.67D-09 XBig12= 1.94D-01 1.92D-01.
     12 vectors produced by pass  2 Test12= 1.50D-15 6.67D-09 XBig12= 6.97D-03 2.86D-02.
     12 vectors produced by pass  3 Test12= 1.50D-15 6.67D-09 XBig12= 7.49D-05 3.82D-03.
     12 vectors produced by pass  4 Test12= 1.50D-15 6.67D-09 XBig12= 8.89D-07 3.47D-04.
     12 vectors produced by pass  5 Test12= 1.50D-15 6.67D-09 XBig12= 2.13D-09 1.65D-05.
      6 vectors produced by pass  6 Test12= 1.50D-15 6.67D-09 XBig12= 9.45D-12 1.36D-06.
      3 vectors produced by pass  7 Test12= 1.50D-15 6.67D-09 XBig12= 3.72D-14 7.89D-08.
 InvSVY:  IOpt=1 It=  1 EMax= 4.44D-16
 Solved reduced A of dimension    81 with    12 vectors.
 End of Minotr F.D. properties file   721 does not exist.
 End of Minotr F.D. properties file   722 does not exist.
 End of Minotr F.D. properties file   788 does not exist.
 MDV=  6710886400.
 Form MO integral derivatives with frozen-active canonical formalism.
 Discarding MO integrals.
 Reordered first order wavefunction length =       101250
 In DefCFB: NBatch=  1 ICI=  5 ICA= 45 LFMax= 45
            Large arrays: LIAPS=     2340000 LIARS=     2047500 words.
 Semi-Direct transformation.
 ModeAB=           2 MOrb=             5 LenV=    6710665337
 LASXX=       285580 LTotXX=      285580 LenRXX=      285580
 LTotAB=      302625 MaxLAS=      344500 LenRXY=      344500
 NonZer=      571160 LenScr=     1571840 LnRSAI=           0
 LnScr1=           0 LExtra=           0 Total=      2201920
 MaxDsk=          -1 SrtSym=           F ITran=            4
 JobTyp=0 Pass  1:  I=   1 to   5.
 (rs|ai) integrals will be sorted in core.
 Spin components of T(2) and E(2):
     alpha-alpha T2 =       0.7540207727D-02 E2=     -0.2311625894D-01
     alpha-beta  T2 =       0.4778716190D-01 E2=     -0.1538169510D+00
     beta-beta   T2 =       0.7540207727D-02 E2=     -0.2311625894D-01
 ANorm=    0.1457990108D+01
 E2 =    -0.2000494689D+00 EUMP2 =    -0.56404882401304D+02
          IDoAtm=1111
          Differentiating once with respect to electric field.
                with respect to dipole field.
          Differentiating once with respect to nuclear coordinates.
          There are     1 degrees of freedom in the 1st order CPHF.  IDoFFX=0 NUNeed=     1.
 LinEq1:  Iter=  0 NonCon=     1 RMS=5.79D-03 Max=5.11D-02 NDo=     1
 LinEq1:  Iter=  1 NonCon=     1 RMS=7.41D-04 Max=4.27D-03 NDo=     1
 LinEq1:  Iter=  2 NonCon=     1 RMS=8.19D-05 Max=3.23D-04 NDo=     1
 LinEq1:  Iter=  3 NonCon=     1 RMS=3.23D-05 Max=1.94D-04 NDo=     1
 LinEq1:  Iter=  4 NonCon=     1 RMS=7.64D-06 Max=5.36D-05 NDo=     1
 LinEq1:  Iter=  5 NonCon=     1 RMS=1.60D-06 Max=8.70D-06 NDo=     1
 LinEq1:  Iter=  6 NonCon=     1 RMS=2.36D-07 Max=1.38D-06 NDo=     1
 LinEq1:  Iter=  7 NonCon=     1 RMS=2.35D-08 Max=1.39D-07 NDo=     1
 LinEq1:  Iter=  8 NonCon=     1 RMS=2.03D-09 Max=1.17D-08 NDo=     1
 LinEq1:  Iter=  9 NonCon=     1 RMS=1.71D-10 Max=1.09D-09 NDo=     1
 LinEq1:  Iter= 10 NonCon=     0 RMS=1.21D-11 Max=6.65D-11 NDo=     1
 Linear equations converged to 1.000D-10 1.000D-09 after    10 iterations.
 End of Minotr F.D. properties file   721 does not exist.
 End of Minotr F.D. properties file   722 does not exist.
 End of Minotr F.D. properties file   788 does not exist.
 Symmetrizing basis deriv contribution to polar:
 IMax=3 JMax=2 DiffMx= 0.00D+00
 G2DrvN: will do     5 centers at a time, making    1 passes.
 Calling FoFCou, ICntrl=  3107 FMM=F I1Cent=   0 AccDes= 0.00D+00.
 End of G2Drv F.D. properties file   721 does not exist.
 End of G2Drv F.D. properties file   722 does not exist.
 End of G2Drv F.D. properties file   788 does not exist.
 R2 and R3 integrals will be kept in memory, NReq=     2720262.
 DD1Dir will call FoFMem   1 times, MxPair=        30
 NAB=    15 NAA=     0 NBB=     0.
 Discarding MO integrals.

 **********************************************************************

            Population analysis using the MP2 Density.

 **********************************************************************

 Alpha  occ. eigenvalues --  -15.55506  -1.14112  -0.62401  -0.62400  -0.43091
 Alpha virt. eigenvalues --    0.03564   0.05993   0.05993   0.14995   0.19706
 Alpha virt. eigenvalues --    0.20199   0.20200   0.29225   0.29225   0.33919
 Alpha virt. eigenvalues --    0.34239   0.34239   0.46967   0.52664   0.53379
 Alpha virt. eigenvalues --    0.53379   0.61475   0.64026   0.64026   0.70725
 Alpha virt. eigenvalues --    0.70725   0.84151   0.91732   0.91732   1.13457
 Alpha virt. eigenvalues --    1.21082   1.21082   1.35877   1.81061   1.81061
 Alpha virt. eigenvalues --    1.94348   2.05758   2.05759   2.09847   2.32886
 Alpha virt. eigenvalues --    2.32886   2.37410   2.39724   2.39724   2.66125
 Alpha virt. eigenvalues --    2.89792   2.89793   3.09394   3.51754   3.51754
          Condensed to atoms (all electrons):
               1          2          3          4
     1  N    6.016191   0.345577   0.345578   0.345577
     2  H    0.345577   0.795274  -0.079247  -0.079248
     3  H    0.345578  -0.079247   0.795276  -0.079248
     4  H    0.345577  -0.079248  -0.079248   0.795278
 Mulliken charges:
               1
     1  N   -0.052923
     2  H    0.017643
     3  H    0.017640
     4  H    0.017640
 Sum of Mulliken charges =  -0.00000
 Mulliken charges with hydrogens summed into heavy atoms:
               1
     1  N   -0.000000
 APT charges:
               1
     1  N   -0.407480
     2  H    0.135827
     3  H    0.135829
     4  H    0.135825
 Sum of APT charges =  -0.00000
 APT charges with hydrogens summed into heavy atoms:
               1
     1  N   -0.000000
 Electronic spatial extent (au):  <R**2>=             27.4916
 Charge=             -0.0000 electrons
 Dipole moment (field-independent basis, Debye):
    X=              0.0000    Y=              0.0000    Z=              1.5662  Tot=              1.5662
 Quadrupole moment (field-independent basis, Debye-Ang):
   XX=             -6.5003   YY=             -6.5004   ZZ=             -9.6418
   XY=              0.0000   XZ=             -0.0000   YZ=             -0.0000
 Traceless Quadrupole moment (field-independent basis, Debye-Ang):
   XX=              1.0472   YY=              1.0471   ZZ=             -2.0943
   XY=              0.0000   XZ=             -0.0000   YZ=             -0.0000
 Octapole moment (field-independent basis, Debye-Ang**2):
  XXX=             -0.6612  YYY=              0.6453  ZZZ=              1.2949  XYY=              0.6612
  XXY=             -0.6453  XXZ=              0.8714  XZZ=             -0.0000  YZZ=              0.0000
  YYZ=              0.8714  XYZ=              0.0000
 Hexadecapole moment (field-independent basis, Debye-Ang**3):
 XXXX=            -10.9493 YYYY=            -10.9494 ZZZZ=            -14.2727 XXXY=             -0.0000
 XXXZ=             -0.2322 YYYX=              0.0000 YYYZ=              0.2266 ZZZX=             -0.0000
 ZZZY=             -0.0000 XXYY=             -3.6498 XXZZ=             -4.3639 YYZZ=             -4.3639
 XXYZ=             -0.2266 YYXZ=              0.2321 ZZXY=              0.0000
 N-N= 1.186146818412D+01 E-N=-1.553818682564D+02  KE= 5.619842351248D+01
  Exact polarizability:      13.529      -0.000      13.529       0.000       0.000      15.066
 Approx polarizability:      10.868      -0.000      10.868       0.000       0.000      10.512
 Calling FoFJK, ICntrl=  10100127 FMM=F ISym2X=0 I1Cent= 0 IOpClX= 0 NMat=1 NMatS=1 NMatT=0.
 -------------------------------------------------------------------
 Center     Atomic                   Forces (Hartrees/Bohr)
 Number     Number              X              Y              Z
 -------------------------------------------------------------------
      1        7           0.000003861    0.000000985    0.001189414
      2        1           0.000100096   -0.000104350   -0.000397037
      3        1          -0.000141097   -0.000038272   -0.000395361
      4        1           0.000037140    0.000141637   -0.000397017
 -------------------------------------------------------------------
 Cartesian Forces:  Max     0.001189414 RMS     0.000403114
 NDeriv=      6 NFrqRd=  0 NDerD0=      0 MskFDP=       0 MskDFD=       0 MskDF0=       0
 Re-enter D2Numr:  normal mode      1 step-down number 1
 Standard basis: Aug-CC-pVDZ (5D, 7F)
    50 basis functions,    76 primitive gaussians,    52 cartesian basis functions
     5 alpha electrons        5 beta electrons
       nuclear repulsion energy        11.8647756047 Hartrees.
 NAtoms=    4 NActive=    4 NUniq=    4 SFac= 1.00D+00 NAtFMM=   60 NAOKFM=F Big=F
 Integral buffers will be    131072 words long.
 Raffenetti 1 integral format.
 Two-electron integral symmetry is turned off.
 One-electron integrals computed using PRISM.
 NBasis=    50 RedAO= T EigKep=  2.18D-03  NBF=    50
 NBsUse=    50 1.00D-06 EigRej= -1.00D+00 NBFU=    50
 Initial guess from the checkpoint file:  "/scr/Gau-65801.chk"
 B after Tr=     0.000105   -0.000834    0.000000
         Rot=    1.000000    0.000156    0.000020   -0.000000 Ang=   0.02 deg.
 Keep R1 ints in memory in canonical form, NReq=4956529.
 Requested convergence on RMS density matrix=1.00D-08 within 128 cycles.
 Requested convergence on MAX density matrix=1.00D-06.
 Requested convergence on             energy=1.00D-06.
 No special actions if energy rises.
 SCF Done:  E(RHF) =  -56.2048829870     A.U. after    8 cycles
            NFock=  8  Conv=0.20D-08     -V/T= 2.0028
 ExpMin= 2.97D-02 ExpMax= 9.05D+03 ExpMxC= 3.09D+02 IAcc=3 IRadAn=         5 AccDes= 0.00D+00
 HarFok:  IExCor=  205 AccDes= 0.00D+00 IRadAn=         5 IDoV=-2 UseB2=F ITyADJ=14
 ICtDFT= 12500011 ScaDFX=  1.000000  1.000000  1.000000  1.000000
 Range of M.O.s used for correlation:     2    50
 NBasis=    50 NAE=     5 NBE=     5 NFC=     1 NFV=     0
 NROrb=     49 NOA=     4 NOB=     4 NVA=    45 NVB=    45

 **** Warning!!: The largest alpha MO coefficient is  0.10796306D+02

 Disk-based method using ON**2 memory for  4 occupieds at a time.
 Permanent disk used for amplitudes=       60525 words.
 Estimated scratch disk usage=     1420186 words.
 Actual    scratch disk usage=     1420186 words.
 JobTyp=1 Pass  1:  I=   2 to   5 NPSUse= 20 ParTrn=T ParDer=T DoDerP=T.
 (rs|ai) integrals will be sorted in core.
 Spin components of T(2) and E(2):
     alpha-alpha T2 =       0.7534838974D-02 E2=     -0.2311157734D-01
     alpha-beta  T2 =       0.4774380402D-01 E2=     -0.1537653789D+00
     beta-beta   T2 =       0.7534838974D-02 E2=     -0.2311157734D-01
 ANorm=    0.1030928456D+01
 E2 =    -0.1999885335D+00 EUMP2 =    -0.56404871520577D+02
 G2DrvN: will do     5 centers at a time, making    1 passes.
 Calling FoFCou, ICntrl=  3107 FMM=F I1Cent=   0 AccDes= 0.00D+00.
 End of G2Drv F.D. properties file   721 does not exist.
 End of G2Drv F.D. properties file   722 does not exist.
 End of G2Drv F.D. properties file   788 does not exist.
          IDoAtm=1111
          Differentiating once with respect to electric field.
                with respect to dipole field.
          Differentiating once with respect to nuclear coordinates.
 Keep R1 ints in memory in canonical form, NReq=4957218.
          There are    15 degrees of freedom in the 1st order CPHF.  IDoFFX=6 NUNeed=    15.
     12 vectors produced by pass  0 Test12= 1.50D-15 6.67D-09 XBig12= 3.13D+00 8.01D-01.
 AX will form    12 AO Fock derivatives at one time.
     12 vectors produced by pass  1 Test12= 1.50D-15 6.67D-09 XBig12= 1.91D-01 1.90D-01.
     12 vectors produced by pass  2 Test12= 1.50D-15 6.67D-09 XBig12= 6.80D-03 2.82D-02.
     12 vectors produced by pass  3 Test12= 1.50D-15 6.67D-09 XBig12= 7.47D-05 3.69D-03.
     12 vectors produced by pass  4 Test12= 1.50D-15 6.67D-09 XBig12= 8.96D-07 3.53D-04.
     12 vectors produced by pass  5 Test12= 1.50D-15 6.67D-09 XBig12= 2.13D-09 1.68D-05.
      8 vectors produced by pass  6 Test12= 1.50D-15 6.67D-09 XBig12= 9.40D-12 1.36D-06.
      3 vectors produced by pass  7 Test12= 1.50D-15 6.67D-09 XBig12= 3.71D-14 7.86D-08.
 InvSVY:  IOpt=1 It=  1 EMax= 8.88D-16
 Solved reduced A of dimension    83 with    12 vectors.
 End of Minotr F.D. properties file   721 does not exist.
 End of Minotr F.D. properties file   722 does not exist.
 End of Minotr F.D. properties file   788 does not exist.
 MDV=  6710886400.
 Form MO integral derivatives with frozen-active canonical formalism.
 Discarding MO integrals.
 Reordered first order wavefunction length =       101250
 In DefCFB: NBatch=  1 ICI=  5 ICA= 45 LFMax= 45
            Large arrays: LIAPS=     2340000 LIARS=     2047500 words.
 Semi-Direct transformation.
 ModeAB=           2 MOrb=             5 LenV=    6710665337
 LASXX=       285580 LTotXX=      285580 LenRXX=      285580
 LTotAB=      302625 MaxLAS=      344500 LenRXY=      344500
 NonZer=      571160 LenScr=     1571840 LnRSAI=           0
 LnScr1=           0 LExtra=           0 Total=      2201920
 MaxDsk=          -1 SrtSym=           F ITran=            4
 JobTyp=0 Pass  1:  I=   1 to   5.
 (rs|ai) integrals will be sorted in core.
 Spin components of T(2) and E(2):
     alpha-alpha T2 =       0.7534838974D-02 E2=     -0.2311157734D-01
     alpha-beta  T2 =       0.4774380402D-01 E2=     -0.1537653789D+00
     beta-beta   T2 =       0.7534838974D-02 E2=     -0.2311157734D-01
 ANorm=    0.1457953005D+01
 E2 =    -0.1999885335D+00 EUMP2 =    -0.56404871520577D+02
          IDoAtm=1111
          Differentiating once with respect to electric field.
                with respect to dipole field.
          Differentiating once with respect to nuclear coordinates.
          There are     1 degrees of freedom in the 1st order CPHF.  IDoFFX=0 NUNeed=     1.
 LinEq1:  Iter=  0 NonCon=     1 RMS=5.78D-03 Max=5.12D-02 NDo=     1
 LinEq1:  Iter=  1 NonCon=     1 RMS=7.40D-04 Max=4.25D-03 NDo=     1
 LinEq1:  Iter=  2 NonCon=     1 RMS=7.99D-05 Max=3.14D-04 NDo=     1
 LinEq1:  Iter=  3 NonCon=     1 RMS=3.06D-05 Max=1.82D-04 NDo=     1
 LinEq1:  Iter=  4 NonCon=     1 RMS=7.54D-06 Max=5.19D-05 NDo=     1
 LinEq1:  Iter=  5 NonCon=     1 RMS=1.60D-06 Max=8.71D-06 NDo=     1
 LinEq1:  Iter=  6 NonCon=     1 RMS=2.38D-07 Max=1.40D-06 NDo=     1
 LinEq1:  Iter=  7 NonCon=     1 RMS=2.37D-08 Max=1.37D-07 NDo=     1
 LinEq1:  Iter=  8 NonCon=     1 RMS=2.05D-09 Max=1.18D-08 NDo=     1
 LinEq1:  Iter=  9 NonCon=     1 RMS=1.74D-10 Max=1.09D-09 NDo=     1
 LinEq1:  Iter= 10 NonCon=     0 RMS=1.37D-11 Max=6.19D-11 NDo=     1
 Linear equations converged to 1.000D-10 1.000D-09 after    10 iterations.
 End of Minotr F.D. properties file   721 does not exist.
 End of Minotr F.D. properties file   722 does not exist.
 End of Minotr F.D. properties file   788 does not exist.
 Symmetrizing basis deriv contribution to polar:
 IMax=3 JMax=2 DiffMx= 0.00D+00
 G2DrvN: will do     5 centers at a time, making    1 passes.
 Calling FoFCou, ICntrl=  3107 FMM=F I1Cent=   0 AccDes= 0.00D+00.
 End of G2Drv F.D. properties file   721 does not exist.
 End of G2Drv F.D. properties file   722 does not exist.
 End of G2Drv F.D. properties file   788 does not exist.
 R2 and R3 integrals will be kept in memory, NReq=     2720262.
 DD1Dir will call FoFMem   1 times, MxPair=        30
 NAB=    15 NAA=     0 NBB=     0.
 Discarding MO integrals.

 **********************************************************************

            Population analysis using the MP2 Density.

 **********************************************************************

 Alpha  occ. eigenvalues --  -15.55460  -1.14071  -0.62644  -0.62316  -0.42974
 Alpha virt. eigenvalues --    0.03570   0.05980   0.06000   0.15013   0.19704
 Alpha virt. eigenvalues --    0.20178   0.20203   0.29199   0.29258   0.33844
 Alpha virt. eigenvalues --    0.34229   0.34338   0.47096   0.52630   0.53315
 Alpha virt. eigenvalues --    0.53386   0.61479   0.63990   0.64006   0.70677
 Alpha virt. eigenvalues --    0.70935   0.83976   0.91702   0.91756   1.13398
 Alpha virt. eigenvalues --    1.21239   1.21353   1.35985   1.81159   1.81303
 Alpha virt. eigenvalues --    1.94117   2.05871   2.06089   2.09600   2.33003
 Alpha virt. eigenvalues --    2.33077   2.37187   2.39645   2.39800   2.65364
 Alpha virt. eigenvalues --    2.89673   2.90056   3.10073   3.51623   3.51647
          Condensed to atoms (all electrons):
               1          2          3          4
     1  N    6.012413   0.346335   0.346598   0.347000
     2  H    0.346335   0.796877  -0.080285  -0.079955
     3  H    0.346598  -0.080285   0.796039  -0.079749
     4  H    0.347000  -0.079955  -0.079749   0.794782
 Mulliken charges:
               1
     1  N   -0.052346
     2  H    0.017027
     3  H    0.017397
     4  H    0.017922
 Sum of Mulliken charges =   0.00000
 Mulliken charges with hydrogens summed into heavy atoms:
               1
     1  N    0.000000
 APT charges:
               1
     1  N   -0.411835
     2  H    0.136265
     3  H    0.137119
     4  H    0.138451
 Sum of APT charges =   0.00000
 APT charges with hydrogens summed into heavy atoms:
               1
     1  N    0.000000
 Electronic spatial extent (au):  <R**2>=             27.4907
 Charge=             -0.0000 electrons
 Dipole moment (field-independent basis, Debye):
    X=              0.0007    Y=             -0.0055    Z=              1.5487  Tot=              1.5487
 Quadrupole moment (field-independent basis, Debye-Ang):
   XX=             -6.5025   YY=             -6.4677   ZZ=             -9.6653
   XY=              0.0230   XZ=              0.0018   YZ=             -0.0141
 Traceless Quadrupole moment (field-independent basis, Debye-Ang):
   XX=              1.0427   YY=              1.0775   ZZ=             -2.1202
   XY=              0.0230   XZ=              0.0018   YZ=             -0.0141
 Octapole moment (field-independent basis, Debye-Ang**2):
  XXX=             -0.6686  YYY=              0.6609  ZZZ=              1.3031  XYY=              0.6671
  XXY=             -0.6483  XXZ=              0.8663  XZZ=             -0.0001  YZZ=              0.0006
  YYZ=              0.8698  XYZ=              0.0023
 Hexadecapole moment (field-independent basis, Debye-Ang**3):
 XXXX=            -10.9515 YYYY=            -10.9362 ZZZZ=            -14.2801 XXXY=              0.0099
 XXXZ=             -0.2291 YYYX=              0.0003 YYYZ=              0.2208 ZZZX=             -0.0003
 ZZZY=              0.0028 XXYY=             -3.6397 XXZZ=             -4.3709 YYZZ=             -4.3758
 XXYZ=             -0.2251 YYXZ=              0.2296 ZZXY=             -0.0033
 N-N= 1.186477560471D+01 E-N=-1.553892516188D+02  KE= 5.619867743532D+01
  Exact polarizability:      13.512       0.013      13.532       0.000      -0.004      15.082
 Approx polarizability:      10.851       0.014      10.872       0.002      -0.016      10.499
 Calling FoFJK, ICntrl=  10100127 FMM=F ISym2X=0 I1Cent= 0 IOpClX= 0 NMat=1 NMatS=1 NMatT=0.
 -------------------------------------------------------------------
 Center     Atomic                   Forces (Hartrees/Bohr)
 Number     Number              X              Y              Z
 -------------------------------------------------------------------
      1        7           0.000212262   -0.001749237    0.000005297
      2        1           0.000774980    0.000469817   -0.000385611
      3        1          -0.000391288    0.001376395   -0.000068145
      4        1          -0.000595954   -0.000096975    0.000448460
 -------------------------------------------------------------------
 Cartesian Forces:  Max     0.001749237 RMS     0.000746817
 NDeriv=      6 NFrqRd=  0 NDerD0=      0 MskFDP=       0 MskDFD=       0 MskDF0=       0
 Re-enter D2Numr:  normal mode      2 step-up   number 1
 Standard basis: Aug-CC-pVDZ (5D, 7F)
    50 basis functions,    76 primitive gaussians,    52 cartesian basis functions
     5 alpha electrons        5 beta electrons
       nuclear repulsion energy        11.8647751835 Hartrees.
 NAtoms=    4 NActive=    4 NUniq=    4 SFac= 1.00D+00 NAtFMM=   60 NAOKFM=F Big=F
 Integral buffers will be    131072 words long.
 Raffenetti 1 integral format.
 Two-electron integral symmetry is turned off.
 One-electron integrals computed using PRISM.
 NBasis=    50 RedAO= T EigKep=  2.18D-03  NBF=    50
 NBsUse=    50 1.00D-06 EigRej= -1.00D+00 NBFU=    50
 Initial guess from the checkpoint file:  "/scr/Gau-65801.chk"
 B after Tr=    -0.000105    0.000834   -0.000000
         Rot=    1.000000   -0.000157   -0.000019    0.000000 Ang=  -0.02 deg.
 Keep R1 ints in memory in canonical form, NReq=4956529.
 Requested convergence on RMS density matrix=1.00D-08 within 128 cycles.
 Requested convergence on MAX density matrix=1.00D-06.
 Requested convergence on             energy=1.00D-06.
 No special actions if energy rises.
 SCF Done:  E(RHF) =  -56.2048829373     A.U. after    8 cycles
            NFock=  8  Conv=0.20D-08     -V/T= 2.0028
 ExpMin= 2.97D-02 ExpMax= 9.05D+03 ExpMxC= 3.09D+02 IAcc=3 IRadAn=         5 AccDes= 0.00D+00
 HarFok:  IExCor=  205 AccDes= 0.00D+00 IRadAn=         5 IDoV=-2 UseB2=F ITyADJ=14
 ICtDFT= 12500011 ScaDFX=  1.000000  1.000000  1.000000  1.000000
 Range of M.O.s used for correlation:     2    50
 NBasis=    50 NAE=     5 NBE=     5 NFC=     1 NFV=     0
 NROrb=     49 NOA=     4 NOB=     4 NVA=    45 NVB=    45

 **** Warning!!: The largest alpha MO coefficient is  0.11034266D+02

 Disk-based method using ON**2 memory for  4 occupieds at a time.
 Permanent disk used for amplitudes=       60525 words.
 Estimated scratch disk usage=     1420186 words.
 Actual    scratch disk usage=     1420186 words.
 JobTyp=1 Pass  1:  I=   2 to   5 NPSUse= 20 ParTrn=T ParDer=T DoDerP=T.
 (rs|ai) integrals will be sorted in core.
 Spin components of T(2) and E(2):
     alpha-alpha T2 =       0.7534839571D-02 E2=     -0.2311157827D-01
     alpha-beta  T2 =       0.4774380815D-01 E2=     -0.1537653840D+00
     beta-beta   T2 =       0.7534839571D-02 E2=     -0.2311157827D-01
 ANorm=    0.1030928459D+01
 E2 =    -0.1999885405D+00 EUMP2 =    -0.56404871477799D+02
 G2DrvN: will do     5 centers at a time, making    1 passes.
 Calling FoFCou, ICntrl=  3107 FMM=F I1Cent=   0 AccDes= 0.00D+00.
 End of G2Drv F.D. properties file   721 does not exist.
 End of G2Drv F.D. properties file   722 does not exist.
 End of G2Drv F.D. properties file   788 does not exist.
          IDoAtm=1111
          Differentiating once with respect to electric field.
                with respect to dipole field.
          Differentiating once with respect to nuclear coordinates.
 Keep R1 ints in memory in canonical form, NReq=4957218.
          There are    15 degrees of freedom in the 1st order CPHF.  IDoFFX=6 NUNeed=    15.
     12 vectors produced by pass  0 Test12= 1.50D-15 6.67D-09 XBig12= 3.13D+00 8.01D-01.
 AX will form    12 AO Fock derivatives at one time.
     12 vectors produced by pass  1 Test12= 1.50D-15 6.67D-09 XBig12= 1.91D-01 1.90D-01.
     12 vectors produced by pass  2 Test12= 1.50D-15 6.67D-09 XBig12= 6.80D-03 2.82D-02.
     12 vectors produced by pass  3 Test12= 1.50D-15 6.67D-09 XBig12= 7.47D-05 3.71D-03.
     12 vectors produced by pass  4 Test12= 1.50D-15 6.67D-09 XBig12= 8.96D-07 3.53D-04.
     12 vectors produced by pass  5 Test12= 1.50D-15 6.67D-09 XBig12= 2.13D-09 1.68D-05.
      8 vectors produced by pass  6 Test12= 1.50D-15 6.67D-09 XBig12= 9.40D-12 1.36D-06.
      3 vectors produced by pass  7 Test12= 1.50D-15 6.67D-09 XBig12= 3.71D-14 7.86D-08.
 InvSVY:  IOpt=1 It=  1 EMax= 1.22D-15
 Solved reduced A of dimension    83 with    12 vectors.
 End of Minotr F.D. properties file   721 does not exist.
 End of Minotr F.D. properties file   722 does not exist.
 End of Minotr F.D. properties file   788 does not exist.
 MDV=  6710886400.
 Form MO integral derivatives with frozen-active canonical formalism.
 Discarding MO integrals.
 Reordered first order wavefunction length =       101250
 In DefCFB: NBatch=  1 ICI=  5 ICA= 45 LFMax= 45
            Large arrays: LIAPS=     2340000 LIARS=     2047500 words.
 Semi-Direct transformation.
 ModeAB=           2 MOrb=             5 LenV=    6710665337
 LASXX=       285580 LTotXX=      285580 LenRXX=      285580
 LTotAB=      302625 MaxLAS=      344500 LenRXY=      344500
 NonZer=      571160 LenScr=     1571840 LnRSAI=           0
 LnScr1=           0 LExtra=           0 Total=      2201920
 MaxDsk=          -1 SrtSym=           F ITran=            4
 JobTyp=0 Pass  1:  I=   1 to   5.
 (rs|ai) integrals will be sorted in core.
 Spin components of T(2) and E(2):
     alpha-alpha T2 =       0.7534839571D-02 E2=     -0.2311157827D-01
     alpha-beta  T2 =       0.4774380815D-01 E2=     -0.1537653840D+00
     beta-beta   T2 =       0.7534839571D-02 E2=     -0.2311157827D-01
 ANorm=    0.1457953008D+01
 E2 =    -0.1999885405D+00 EUMP2 =    -0.56404871477799D+02
          IDoAtm=1111
          Differentiating once with respect to electric field.
                with respect to dipole field.
          Differentiating once with respect to nuclear coordinates.
          There are     1 degrees of freedom in the 1st order CPHF.  IDoFFX=0 NUNeed=     1.
 LinEq1:  Iter=  0 NonCon=     1 RMS=5.78D-03 Max=5.12D-02 NDo=     1
 LinEq1:  Iter=  1 NonCon=     1 RMS=7.40D-04 Max=4.25D-03 NDo=     1
 LinEq1:  Iter=  2 NonCon=     1 RMS=7.99D-05 Max=3.14D-04 NDo=     1
 LinEq1:  Iter=  3 NonCon=     1 RMS=3.06D-05 Max=1.82D-04 NDo=     1
 LinEq1:  Iter=  4 NonCon=     1 RMS=7.54D-06 Max=5.20D-05 NDo=     1
 LinEq1:  Iter=  5 NonCon=     1 RMS=1.60D-06 Max=8.71D-06 NDo=     1
 LinEq1:  Iter=  6 NonCon=     1 RMS=2.38D-07 Max=1.40D-06 NDo=     1
 LinEq1:  Iter=  7 NonCon=     1 RMS=2.37D-08 Max=1.38D-07 NDo=     1
 LinEq1:  Iter=  8 NonCon=     1 RMS=2.05D-09 Max=1.18D-08 NDo=     1
 LinEq1:  Iter=  9 NonCon=     1 RMS=1.74D-10 Max=1.09D-09 NDo=     1
 LinEq1:  Iter= 10 NonCon=     0 RMS=1.38D-11 Max=6.16D-11 NDo=     1
 Linear equations converged to 1.000D-10 1.000D-09 after    10 iterations.
 End of Minotr F.D. properties file   721 does not exist.
 End of Minotr F.D. properties file   722 does not exist.
 End of Minotr F.D. properties file   788 does not exist.
 Symmetrizing basis deriv contribution to polar:
 IMax=3 JMax=2 DiffMx= 0.00D+00
 G2DrvN: will do     5 centers at a time, making    1 passes.
 Calling FoFCou, ICntrl=  3107 FMM=F I1Cent=   0 AccDes= 0.00D+00.
 End of G2Drv F.D. properties file   721 does not exist.
 End of G2Drv F.D. properties file   722 does not exist.
 End of G2Drv F.D. properties file   788 does not exist.
 R2 and R3 integrals will be kept in memory, NReq=     2720262.
 DD1Dir will call FoFMem   1 times, MxPair=        30
 NAB=    15 NAA=     0 NBB=     0.
 Discarding MO integrals.

 **********************************************************************

            Population analysis using the MP2 Density.

 **********************************************************************

 Alpha  occ. eigenvalues --  -15.55460  -1.14071  -0.62643  -0.62316  -0.42974
 Alpha virt. eigenvalues --    0.03570   0.05980   0.06000   0.15013   0.19704
 Alpha virt. eigenvalues --    0.20178   0.20202   0.29198   0.29258   0.33846
 Alpha virt. eigenvalues --    0.34222   0.34343   0.47096   0.52630   0.53317
 Alpha virt. eigenvalues --    0.53384   0.61479   0.63990   0.64006   0.70676
 Alpha virt. eigenvalues --    0.70936   0.83976   0.91705   0.91752   1.13397
 Alpha virt. eigenvalues --    1.21239   1.21352   1.35985   1.81157   1.81305
 Alpha virt. eigenvalues --    1.94117   2.05892   2.06068   2.09601   2.32996
 Alpha virt. eigenvalues --    2.33084   2.37187   2.39646   2.39799   2.65364
 Alpha virt. eigenvalues --    2.89663   2.90066   3.10073   3.51618   3.51652
          Condensed to atoms (all electrons):
               1          2          3          4
     1  N    6.012413   0.346951   0.346700   0.346282
     2  H    0.346951   0.794929  -0.079706  -0.080037
     3  H    0.346700  -0.079706   0.795715  -0.080244
     4  H    0.346282  -0.080037  -0.080244   0.797054
 Mulliken charges:
               1
     1  N   -0.052346
     2  H    0.017864
     3  H    0.017536
     4  H    0.016946
 Sum of Mulliken charges =  -0.00000
 Mulliken charges with hydrogens summed into heavy atoms:
               1
     1  N   -0.000000
 APT charges:
               1
     1  N   -0.411835
     2  H    0.138287
     3  H    0.137455
     4  H    0.136093
 Sum of APT charges =  -0.00000
 APT charges with hydrogens summed into heavy atoms:
               1
     1  N   -0.000000
 Electronic spatial extent (au):  <R**2>=             27.4907
 Charge=             -0.0000 electrons
 Dipole moment (field-independent basis, Debye):
    X=             -0.0007    Y=              0.0056    Z=              1.5487  Tot=              1.5487
 Quadrupole moment (field-independent basis, Debye-Ang):
[...]
      6(1)        5(1)      2694.452   2566.536                      0.00000087


 GradGradGradGradGradGradGradGradGradGradGradGradGradGradGradGradGradGrad
 Berny optimization.
 Search for a local minimum.
 Step number   1 out of a maximum of    2
 All quantities printed in internal units (Hartrees-Bohrs-Radians)
 Second derivative matrix not updated -- analytic derivatives used.
 The second derivative matrix:
                          X1        Y1        Z1        X2        Y2
           X1           0.64586
           Y1           0.00001   0.64586
           Z1           0.00100  -0.00020   0.22030
           X2          -0.05696  -0.00033   0.00000   0.05696
           Y2          -0.00020  -0.37347   0.12094   0.00024   0.40606
           Z2          -0.00001   0.17832  -0.07358   0.00000  -0.14350
           X3          -0.29376  -0.13701  -0.10505  -0.00002   0.00465
           Y3          -0.13710  -0.13628  -0.06072  -0.03283  -0.01630
           Z3          -0.15474  -0.08943  -0.07397   0.01362   0.01130
           X4          -0.29515   0.13733   0.10404   0.00002  -0.00469
           Y4           0.13729  -0.13611  -0.06001   0.03292  -0.01629
           Z4           0.15375  -0.08869  -0.07275  -0.01363   0.01127
                          Z2        X3        Y3        Z3        X4
           Z2           0.07377
           X3          -0.00296   0.31822
           Y3          -0.01749   0.15117   0.14443
           Z3          -0.00007   0.12462   0.07203   0.07415
           X4           0.00297  -0.02444   0.01876   0.01650   0.31956
           Y4          -0.01733  -0.01881   0.00815   0.00610  -0.15140
           Z4          -0.00012  -0.01662   0.00618  -0.00011  -0.12350
                          Y4        Z4
           Y4           0.14425
           Z4           0.07124   0.07298
 ITU=  0
     Eigenvalues ---    0.09048   0.13098   0.13098   0.55798   0.88671
     Eigenvalues ---    0.88673
 Angle between quadratic step and forces=  42.77 degrees.
 Linear search not attempted -- first point.
 B after Tr=     0.000003    0.000001   -0.000000
         Rot=    1.000000    0.000000   -0.000001    0.000000 Ang=   0.00 deg.
 Variable       Old X    -DE/DX   Delta X   Delta X   Delta X     New X
                                 (Linear)    (Quad)   (Total)
    X1       -0.00462   0.00000   0.00000   0.00001   0.00001  -0.00461
    Y1       -0.00083   0.00000   0.00000   0.00000   0.00000  -0.00083
    Z1        0.22171   0.00000   0.00000  -0.00000  -0.00000   0.22171
    X2       -0.00338  -0.00000   0.00000  -0.00002  -0.00002  -0.00339
    Y2        1.78021   0.00000   0.00000   0.00000   0.00000   1.78022
    Z2       -0.51634   0.00000   0.00000   0.00000   0.00000  -0.51634
    X3       -1.54535  -0.00000   0.00000  -0.00000   0.00000  -1.54535
    Y3       -0.89235   0.00000   0.00000   0.00001   0.00001  -0.89234
    Z3       -0.51867  -0.00000   0.00000  -0.00000  -0.00000  -0.51867
    X4        1.54012   0.00000   0.00000   0.00000   0.00001   1.54012
    Y4       -0.89142  -0.00000   0.00000  -0.00001  -0.00001  -0.89144
    Z4       -0.51140   0.00000   0.00000   0.00000   0.00000  -0.51139
         Item               Value     Threshold  Converged?
 Maximum Force            0.000003     0.000450     YES
 RMS     Force            0.000002     0.000300     YES
 Maximum Displacement     0.000017     0.001800     YES
 RMS     Displacement     0.000008     0.001200     YES
 Predicted change in Energy=-6.188207D-11
 Optimization completed.
    -- Stationary point found.
 GradGradGradGradGradGradGradGradGradGradGradGradGradGradGradGradGradGrad


 ----------------------------------------------------------------------

 Electric dipole moment (input orientation):
 (Debye = 10**-18 statcoulomb cm , SI units = C m)
                  (au)            (Debye)         (10**-30 SI)
   Tot        0.609321D+00      0.154874D+01      0.516604D+01
   x          0.144342D-02      0.366880D-02      0.122378D-01
   y         -0.296174D-03     -0.752799D-03     -0.251107D-02
   z         -0.609319D+00     -0.154874D+01     -0.516603D+01

 Dipole polarizability, Alpha (input orientation).
 (esu units = cm**3 , SI units = C**2 m**2 J**-1)
 Alpha(0;0):
               (au)            (10**-24 esu)      (10**-40 SI)
   iso        0.140415D+02      0.208073D+01      0.231512D+01
   aniso      0.156056D+01      0.231251D+00      0.257302D+00
   xx         0.135213D+02      0.200364D+01      0.222936D+01
   yx         0.234351D-04      0.347272D-05      0.386393D-05
   yy         0.135213D+02      0.200365D+01      0.222936D+01
   zx        -0.369687D-02     -0.547820D-03     -0.609532D-03
   zy         0.749560D-03      0.111073D-03      0.123586D-03
   zz         0.150818D+02      0.223489D+01      0.248666D+01

 ----------------------------------------------------------------------

 Dipole orientation:
     7         -0.00409706          0.00093736         -0.22171635
     1         -0.00459717         -1.78046348          0.51546450
     1         -1.54657296          0.89209814          0.51544270
     1          1.53890107          0.89117204          0.51547597

 Electric dipole moment (dipole orientation):
 (Debye = 10**-18 statcoulomb cm , SI units = C m)
                  (au)            (Debye)         (10**-30 SI)
   Tot        0.609321D+00      0.154874D+01      0.516604D+01
   x          0.000000D+00      0.000000D+00      0.000000D+00
   y          0.000000D+00      0.000000D+00      0.000000D+00
   z          0.609321D+00      0.154874D+01      0.516604D+01

 Dipole polarizability, Alpha (dipole orientation).
 (esu units = cm**3 , SI units = C**2 m**2 J**-1)
 Alpha(0;0):
               (au)            (10**-24 esu)      (10**-40 SI)
   iso        0.140415D+02      0.208073D+01      0.231512D+01
   aniso      0.156056D+01      0.231251D+00      0.257302D+00
   xx         0.135213D+02      0.200364D+01      0.222935D+01
   yx        -0.252107D-04     -0.373584D-05     -0.415668D-05
   yy         0.135213D+02      0.200365D+01      0.222936D+01
   zx         0.000000D+00      0.000000D+00      0.000000D+00
   zy         0.000000D+00      0.000000D+00      0.000000D+00
   zz         0.150818D+02      0.223490D+01      0.248666D+01

 ----------------------------------------------------------------------
 Unable to Open any file for archive entry.
 1\1\GINC-N3021\Freq\RMP2-FC\Aug-CC-pVDZ\H3N1\GDS001\10-Jun-2025\0\\# m
 p2/aug-cc-pVDZ freq(vibrot,anharmonic)\\blah\\0,1\N,-0.002446,-0.00043
 9,0.117322\H,-0.001786,0.942048,-0.273235\H,-0.817763,-0.472211,-0.274
 469\H,0.814995,-0.47172,-0.270619\\Version=EM64L-G16RevC.01\State=1-A\
 HF=-56.2049046\MP2=-56.4048899\RMSD=4.396e-09\RMSF=1.722e-06\ZeroPoint
 =0.034388\Thermal=0.0372567\ETot=-56.3676331\HTot=-56.366689\GTot=-56.
 3895856\Dipole=0.0014434,-0.0002962,-0.6093194\DipoleDeriv=-0.3637527,
 -0.0000023,0.0003396,-0.0000023,-0.3637503,-0.00007,0.0003399,-0.00007
 11,-0.5079216,0.145708,-0.0002888,-0.0000866,-0.0002411,0.096908,0.109
 037,-0.0000944,0.1277149,0.1691916,0.1095215,-0.0210808,-0.0945138,-0.
 0211125,0.1334104,-0.0545618,-0.1106847,-0.063903,0.1688822,0.1085233,
 0.0213718,0.0942608,0.0213559,0.1334318,-0.0544052,0.1104392,-0.063740
 9,0.1698478\Polar=13.5212632,0.0000234,13.521273,-0.0036969,0.0007496,
 15.0818144\Quadrupole=0.7881191,0.7881277,-1.5762468,0.0000385,0.00556
 91,-0.001154\PG=C01 [X(H3N1)]\NImag=0\\0.64586495,0.00001004,0.6458591
 3,0.00100467,-0.00020473,0.22029626,-0.05695666,-0.00033283,0.00000446
 ,0.05695803,-0.00019717,-0.37346973,0.12093585,0.00023990,0.40605731,-
 0.00001217,0.17832493,-0.07357703,0.00000088,-0.14349797,0.07377280,-0
 .29376300,-0.13700890,-0.10504545,-0.00001724,0.00464721,-0.00295552,0
 .31821577,-0.13710106,-0.13627763,-0.06072065,-0.03283207,-0.01630105,
 -0.01749228,0.15117149,0.14442832,-0.15473782,-0.08942986,-0.07397007,
 0.01362131,0.01129592,-0.00007305,0.12461801,0.07202913,0.07415018,-0.
 29514530,0.13733169,0.10403632,0.00001587,-0.00468994,0.00296682,-0.02
 443554,0.01876163,0.01649849,0.31956496,0.13728819,-0.13611177,-0.0600
 1048,0.03292500,-0.01628653,-0.01733469,-0.01880981,0.00815036,0.00610
 481,-0.15140338,0.14424794,0.15374532,-0.08869035,-0.07274916,-0.01362
 665,0.01126620,-0.00012272,-0.01661704,0.00618379,-0.00010706,-0.12350
 163,0.07124036,0.07297893\\-0.00000343,-0.00000203,-0.00000115,0.00000
 242,-0.00000017,-0.00000017,0.00000206,0.,0.00000149,-0.00000106,0.000
 00220,-0.00000016\\0.28450998,0.00000314,0.28451032,0.00142496,-0.0002
 9732,-0.32080623,-0.02012473,0.00018858,-0.00028776,0.00287778,0.00014
 184,-0.16959849,-0.04180078,-0.00016575,0.13641799,-0.00028249,-0.0620
 6629,0.10698482,0.00021571,0.05411125,-0.09498593,-0.13236772,-0.06478
 071,0.03578192,0.00861076,0.00788172,0.00482148,0.10318168,-0.06474872
 ,-0.05749445,0.02090816,0.00592117,0.01659438,0.00399336,0.05786361,0.
 03625826,0.05332998,0.03104661,0.10712666,-0.00102508,-0.00613723,-0.0
 0599124,-0.04651628,-0.02705597,-0.09513273,-0.13201752,0.06458899,-0.
 03691912,0.00863619,-0.00785782,-0.00475471,0.02057528,0.00096394,-0.0
 0578862,0.10280606,0.06460374,-0.05741738,0.02118994,-0.00594400,0.016
 58611,0.00396168,-0.00096462,0.00464180,0.00214659,-0.05769512,0.03618
 947,-0.05447245,0.03131700,0.10669476,0.00109712,-0.00617324,-0.006007
 65,0.00591287,0.00215445,-0.00600269,0.04746246,-0.02729821,-0.0946844
 2,0.21591189,-0.16593781,-0.21607409,0.03019108,-0.03872972,0.00017853
 ,-0.00320895,0.08222215,-0.01239368,0.01522807,0.08014257,0.07364748,0
 .00964866,-0.06064533,-0.04589970,-0.01559513,0.00549178,-0.02781332,0
 .02772083,-0.01340586,0.01749216,-0.10526317,0.06973776,-0.01173020,-0
 .01297567,-0.01752774,-0.01156045,0.08027457,0.07310959,0.11704555,0.0
 1678008,-0.01934662,-0.03342840,0.00860281,-0.05358505,-0.08550394,-0.
 01373606,0.02162386,-0.00469467,-0.01254030,0.00515510,0.01205721,0.02
 464068,-0.03794481,0.00304001,-0.10743978,0.01397790,-0.00606720,0.000
 95654,-0.00196950,-0.00056525,0.03796426,-0.00017791,0.00163568,0.0685
 1898,0.01268565,0.02538106,0.01230097,-0.00223020,0.00568062,-0.000688
 73,0.00137503,0.00188679,0.01116585,-0.01183049,-0.03294847,-0.0008598
 9,0.01161408,0.03232945,-0.00278685,-0.00139790,-0.00173605,-0.0013500
 3,0.01256192,-0.01040255,0.00499677,-0.02277810,-0.02019085,0.16622856
 ,0.21609417,-0.16607447,-0.03815338,-0.02900640,-0.00015915,-0.0025094
 1,-0.10691221,0.01621666,0.01191596,-0.10423306,0.05658127,0.00703776,
 0.07890298,-0.03525292,0.02037911,0.00382892,-0.02126204,-0.03602292,-
 0.01003157,0.01318544,-0.08326141,-0.03308558,0.00869709,0.00441012,0.
 00668622,0.00366273,0.04963667,-0.03264621,-0.00478443,0.00821803,0.00
 743526,0.01473815,-0.00298177,0.02661836,-0.01140545,0.00384281,0.0062
 1330,0.03472113,0.00622024,-0.00280135,-0.00497459,-0.01125410,-0.0134
 5086,-0.02174179,-0.08045774,-0.07609639,0.01323963,-0.01381667,0.0186
 4387,0.01198108,0.02921462,-0.00140741,0.00119105,0.06505979,-0.079214
 90,0.11427763,0.01375061,0.02057398,-0.03606650,0.00918443,-0.00021900
 ,0.00145173,0.01003891,0.05885993,-0.07966285,0.01393146,0.01896418,-0
 .01329994,0.01358602,0.00579517,0.01305119,-0.00110572,0.00821461,-0.0
 0800475,-0.02641176,-0.03297396,0.00825350,-0.98438031,-0.00000214,-0.
 98451936,-0.00206872,0.00049043,-0.09747687,-0.07946779,0.00063707,-0.
 00017136,0.08269655,0.00056605,0.73549443,-0.33604615,-0.00058090,-0.7
 6895710,-0.00016217,-0.36563472,0.03283569,0.00014324,0.34712811,-0.01
 898412,0.53026747,0.35280335,0.29162400,-0.00160843,-0.00066471,0.0010
 4646,-0.55455936,0.35284917,0.12472246,0.16869347,0.03241599,0.0167394
 4,0.00933021,-0.36872190,-0.13067138,0.31724119,0.18349480,0.03375017,
 -0.00750642,-0.00554433,-0.00694057,-0.30128134,-0.17425457,-0.0198898
 4,0.53358063,-0.35343828,-0.28938392,-0.00162032,0.00067956,-0.0010275
 3,0.02590032,-0.01654325,-0.00845343,-0.55786063,-0.35341307,0.1243024
 8,0.16686225,-0.03247216,0.01672324,0.00917640,0.01658326,-0.01079051,
 -0.00369589,0.36930197,-0.13023522,-0.31501030,0.18164949,0.03089101,0
 .00753453,-0.00553762,-0.00691100,0.00861088,-0.00376912,-0.00691977,0
 .29886489,-0.17234276,-0.01706025,0.90934838,-0.37464633,-0.90711271,-
 0.30725820,0.75179586,-0.00217228,-0.15392000,0.00265189,0.00364227,0.
 13929697,0.01550419,1.01585141,-0.49235703,-0.01350779,-1.01219633,-0.
 00455764,-0.51232740,0.03877856,0.00305363,0.49082366,-0.03582907,-0.1
 2233695,-0.04539312,-0.05636449,0.00568987,0.00312804,0.00466813,0.132
 51207,-0.07898608,-0.00150011,-0.04453827,0.01859459,0.00368075,0.0129
 4133,0.05527306,-0.00711433,-0.06952239,-0.02739322,-0.00577649,-0.002
 85090,-0.00320515,-0.00250582,0.06496978,0.02918503,0.00536995,-0.6330
 9143,0.41738756,0.35998043,0.00893315,-0.00512444,-0.00316412,-0.01586
 499,0.00511842,0.00740351,0.64002328,0.43812822,-0.10723860,-0.2149005
 5,-0.00773869,-0.00733583,0.00856242,-0.01300799,0.00493369,0.00141334
 ,-0.41738154,0.10964074,0.38133823,-0.21207524,-0.03082979,-0.00384500
 ,0.00473853,-0.00044367,-0.01327342,0.00241191,0.00291236,-0.36421982,
 0.20492480,0.02836110,0.36930075,0.90749985,-0.37224225,0.75267999,0.3
 1192231,0.00322710,-0.06324151,-0.00391949,-0.00976775,0.05725727,-0.0
 3530862,0.41758786,-0.20248958,0.03044850,-0.41607785,0.01018882,-0.21
 060634,0.01595691,-0.00663245,0.20183937,-0.01477809,-0.77071505,-0.54
 656979,-0.45867066,0.00689255,0.00410687,-0.00016228,0.77039241,-0.542
 09470,-0.15167287,-0.26378125,-0.00783033,-0.01413734,-0.00084786,0.53
 663346,0.16377503,-0.47574122,-0.27696615,-0.04296946,0.00840540,0.010
 01318,0.00194791,0.45607657,0.26497567,0.03978558,0.46465581,-0.357010
 57,-0.28424158,-0.00090831,0.00075324,-0.00339409,-0.00656991,0.013291
 57,0.01125925,-0.45717760,-0.33009654,0.10632726,0.15434852,-0.0186986
 8,0.01262733,0.00961483,0.00582945,0.00203518,0.00197730,0.34296577,-0
 .12098977,-0.28712760,0.17565018,0.02378545,0.00799480,-0.00936298,-0.
 00312673,0.00275637,-0.00034655,0.00123597,0.27637643,-0.16594065,-0.0
 2189469,-0.32912616,-0.00001695,-0.32911627,-0.00032376,0.00005921,-0.
 19564652,-0.01699644,0.00056068,-0.00013846,0.01628103,0.00039366,0.23
 618076,-0.19614192,-0.00044726,-0.23101476,-0.00011685,-0.26711545,0.0
 6544155,0.00006597,0.21856486,-0.03788382,0.17205566,0.10954078,0.1699
 7207,0.00041222,-0.01009292,-0.00104853,-0.16840460,0.10965456,0.04653
 561,0.09835405,0.00494729,-0.00258505,0.02428688,-0.10705370,-0.045769
 23,0.23142647,0.13385806,0.06604736,-0.02153342,-0.01124121,-0.0138326
 7,-0.18943489,-0.10954624,-0.03845477,0.17406695,-0.11008452,-0.169509
 86,0.00030320,0.01014652,0.00109941,-0.00406328,-0.00754814,-0.0204581
 6,-0.17030688,-0.11003127,0.04639991,0.09772865,-0.00506071,-0.0025809
 6,0.02426370,0.00760584,0.00181867,-0.01307061,0.10748615,-0.04563762,
 -0.23098586,0.13319817,0.06415761,0.02160590,-0.01118174,-0.01372506,0
 .02051135,-0.01309469,-0.01375992,0.18886861,-0.10892175,-0.03667263,-
 0.43480176,-0.15372780,-0.35423859,-0.14222854,-0.03782904,-0.13805857
 ,0.00196914,-0.06749809,0.01847416,0.01974503,-0.00829908,0.21371436,-
 0.08352527,0.04450470,-0.20840390,-0.00024557,-0.12116057,0.03863206,-
 0.00758219,0.09499767,-0.04280069,0.37057967,0.24829283,0.15836635,-0.
 02138408,-0.03323940,0.00708167,-0.34315168,0.23236467,0.07046719,0.08
 593063,0.03003832,-0.00343176,0.02808783,-0.22700982,-0.05431508,0.208
 76385,0.12092455,0.07415140,-0.01262613,-0.00883401,0.00259435,-0.1903
 5052,-0.10782762,-0.07913187,0.06225295,-0.02706695,-0.03461197,-0.000
 33009,-0.00296622,0.00074609,-0.00604390,-0.03539316,-0.00578720,-0.05
 587895,-0.07033780,0.07005704,0.03542368,-0.00704493,-0.00187870,-0.00
 192493,0.01195639,-0.01272036,-0.00426292,0.06542634,-0.05545798,-0.06
 628974,0.03806506,0.02527510,0.00173416,-0.00263839,0.00157427,0.02490
 250,-0.00619084,0.00238613,0.03965308,-0.02923583,-0.02923550,-0.35484
 496,0.15372064,-0.43544390,0.14102353,0.03808378,-0.13679401,-0.025096
 04,0.06802960,-0.01868861,0.04083412,0.00862971,0.33561012,-0.12377988
 ,-0.04491326,-0.31738163,0.00005642,-0.17103662,0.05322836,0.00789674,
 0.14652829,-0.05774039,0.03463795,-0.00049608,0.02155660,0.00268547,0.
 00104275,-0.00198504,-0.03507088,0.01557440,0.04986539,0.01823305,0.01
 417797,-0.00833615,-0.00264522,-0.02689135,-0.03203552,0.04465894,0.02
 570623,0.01836332,-0.00680412,-0.00835744,0.00171136,-0.01912882,-0.01
 350047,-0.02204644,0.34530305,-0.22125416,-0.14389152,-0.01842356,0.03
 524079,-0.00596812,-0.00225254,-0.00286103,-0.01872600,-0.32462695,-0.
 17792476,0.04996839,0.06746305,-0.03729432,-0.00989233,0.02715356,0.02
 634467,-0.00949371,-0.00384833,0.18887440,-0.03058235,-0.18573888,0.10
 724661,0.06520232,0.01759599,-0.01439097,0.00280066,-0.00044274,-0.002
 08735,0.00197176,0.16858563,-0.09076828,-0.06997473,1.52065228,-0.0000
 3403,1.52119548,0.00368111,-0.00100610,-0.07590776,0.28352850,-0.00120
 950,0.00043144,-0.30054226,-0.00109534,-1.29703880,0.65013489,0.001137
 44,1.30942821,0.00041654,0.69708310,0.02465738,-0.00039341,-0.67107322
 ,-0.05514642,-0.89888176,-0.68411549,-0.56399766,0.00850311,0.00638521
 ,-0.00457900,0.90392249,-0.68418780,-0.11248660,-0.32632952,-0.0318375
 9,-0.00620150,-0.01308143,0.69689354,0.10282772,-0.60464258,-0.3498145
 1,0.02287767,0.00898416,0.01048601,0.01525420,0.58218671,0.33681619,-0
 .05337055,-0.90529903,0.68535901,0.55988511,0.00851065,-0.00642731,0.0
 0455587,-0.01354384,0.01913186,0.01347172,0.91033222,0.68531716,-0.111
 67008,-0.32279928,0.03190965,-0.00618791,-0.01292844,-0.01916326,0.015
 86037,0.00251231,-0.69806355,0.10199762,0.60054493,-0.34626248,0.02837
 271,-0.00902219,0.01045231,0.01523485,-0.01361005,0.00259476,0.0152386
 8,-0.57791270,0.33321541,-0.05884624,0.66645091,-0.87889473,2.43833773
 ,-0.84338115,-0.85790356,-0.09435767,0.61130422,-0.03477789,0.01793248
 ,-0.60188865,-0.03640465,-2.37326587,1.29907148,0.04722622,2.35659013,
 0.01884012,1.32229460,0.05735020,-0.01413070,-1.30037266,-0.05921007,-
 0.04102995,-0.00780128,0.00047237,-0.00601800,-0.00205387,-0.00756677,
 0.05210158,-0.00847542,-0.00285606,0.00763728,-0.01149204,0.00839166,-
 0.01445448,0.02193598,-0.01202892,-0.02169642,-0.00476828,-0.00784301,
 -0.00155792,-0.00088701,0.00418194,0.02167184,0.00679707,-0.00295525,-
 1.23672517,0.92147389,0.82497629,-0.00339758,-0.00876770,0.00285735,-0
 .00505363,-0.00196853,0.00158250,1.24517638,0.92377479,-0.06221579,-0.
 44880519,-0.00095629,0.00828409,-0.00746746,-0.01208083,0.00649333,-0.
 00114178,-0.91073767,0.04743837,0.84623745,-0.45962276,0.04485049,-0.0
 0224386,0.00218819,-0.00232207,-0.01457745,0.00002014,0.00661633,-0.82
 941614,0.45741443,-0.04914475,2.43549775,0.87927720,0.66300129,0.85131
 759,0.85655506,-0.08804221,0.08810317,0.03208448,-0.01682970,-0.103911
 40,0.03382287,-0.39219833,0.19323282,-0.04458976,0.40371966,-0.0177494
 2,0.21829649,0.00196918,0.01304500,-0.21581878,-0.01145941,-1.85269710
 ,-1.49289434,-1.29564485,0.00921361,0.01061781,0.00081713,1.83616270,-
 1.49229847,-0.16599166,-0.75711685,0.00187146,-0.00581458,0.00222793,1
 .47932811,0.17479436,-1.31530054,-0.76886870,0.06321516,0.00875487,0.0
 1285341,0.00149461,1.29419841,0.75462659,-0.06377628,-0.67090382,0.581
 53266,0.46115696,0.00659462,0.00014908,0.00388728,0.00732079,0.0110989
 1,0.01234726,0.65698840,0.57919840,-0.10481130,-0.29267103,0.01063382,
 -0.00570675,-0.00470564,0.00294843,-0.00298812,0.00138870,-0.59278065,
 0.11350617,0.48173237,-0.30598285,0.02285787,-0.00497017,0.00973255,0.
 00799561,0.00062931,0.00026233,-0.00093350,-0.47739150,0.29598797,-0.0
 2991998\\@
 The archive entry for this job was punched.


 THOSE WHO ARE UNABLE TO LEARN FROM PAST MEETINGS
 ARE CONDEMNED TO REPEAT THEM.
 Job cpu time:       0 days  0 hours 28 minutes  1.9 seconds.
 Elapsed time:       0 days  0 hours  1 minutes 36.3 seconds.
 File lengths (MBytes):  RWF=     82 Int=      0 D2E=      0 Chk=     38 Scr=      1
 Normal termination of Gaussian 16 at Tue Jun 10 16:42:24 2025.
