 Entering Gaussian System, Link 0=g16
 Input=nh3_mp2_avtz_nosym.gjf
 Output=nh3_mp2_avtz_nosym.log
 Initial command:
 /sw/contrib/chem-src/g16/c01/g16/l1.exe "/scr/Gau-86570.inp" -scrdir="/scr/"
 Entering Link 1 = /sw/contrib/chem-src/g16/c01/g16/l1.exe PID=     86571.
  
 Copyright (c) 1988-2019, Gaussian, Inc.  All Rights Reserved.
  
 This is part of the Gaussian(R) 16 program.  It is based on
 the Gaussian(R) 09 system (copyright 2009, Gaussian, Inc.),
 the Gaussian(R) 03 system (copyright 2003, Gaussian, Inc.),
 the Gaussian(R) 98 system (copyright 1998, Gaussian, Inc.),
 the Gaussian(R) 94 system (copyright 1995, Gaussian, Inc.),
 the Gaussian 92(TM) system (copyright 1992, Gaussian, Inc.),
 the Gaussian 90(TM) system (copyright 1990, Gaussian, Inc.),
 the Gaussian 88(TM) system (copyright 1988, Gaussian, Inc.),
 the Gaussian 86(TM) system (copyright 1986, Carnegie Mellon
 University), and the Gaussian 82(TM) system (copyright 1983,
 Carnegie Mellon University). Gaussian is a federally registered
 trademark of Gaussian, Inc.
  
 This software contains proprietary and confidential information,
 including trade secrets, belonging to Gaussian, Inc.
  
 This software is provided under written license and may be
 used, copied, transmitted, or stored only in accord with that
 written license.
  
 The following legend is applicable only to US Government
 contracts under FAR:
  
                    RESTRICTED RIGHTS LEGEND
  
 Use, reproduction and disclosure by the US Government is
 subject to restrictions as set forth in subparagraphs (a)
 and (c) of the Commercial Computer Software - Restricted
 Rights clause in FAR 52.227-19.
  
 Gaussian, Inc.
 340 Quinnipiac St., Bldg. 40, Wallingford CT 06492
  
  
 ---------------------------------------------------------------
 Warning -- This program may not be used in any manner that
 competes with the business of Gaussian, Inc. or will provide
 assistance to any competitor of Gaussian, Inc.  The licensee
 of this program is prohibited from giving any competitor of
 Gaussian, Inc. access to this program.  By using this program,
 the user acknowledges that Gaussian, Inc. is engaged in the
 business of creating and licensing software in the field of
 computational chemistry and represents and warrants to the
 licensee that it is not a competitor of Gaussian, Inc. and that
 it will not use this program in any manner prohibited above.
 ---------------------------------------------------------------
  

 Cite this work as:
 Gaussian 16, Revision C.01,
 M. J. Frisch, G. W. Trucks, H. B. Schlegel, G. E. Scuseria, 
 M. A. Robb, J. R. Cheeseman, G. Scalmani, V. Barone, 
 G. A. Petersson, H. Nakatsuji, X. Li, M. Caricato, A. V. Marenich, 
 J. Bloino, B. G. Janesko, R. Gomperts, B. Mennucci, H. P. Hratchian, 
 J. V. Ortiz, A. F. Izmaylov, J. L. Sonnenberg, D. Williams-Young, 
 F. Ding, F. Lipparini, F. Egidi, J. Goings, B. Peng, A. Petrone, 
 T. Henderson, D. Ranasinghe, V. G. Zakrzewski, J. Gao, N. Rega, 
 G. Zheng, W. Liang, M. Hada, M. Ehara, K. Toyota, R. Fukuda, 
 J. Hasegawa, M. Ishida, T. Nakajima, Y. Honda, O. Kitao, H. Nakai, 
 T. Vreven, K. Throssell, J. A. Montgomery, Jr., J. E. Peralta, 
 F. Ogliaro, M. J. Bearpark, J. J. Heyd, E. N. Brothers, K. N. Kudin, 
 V. N. Staroverov, T. A. Keith, R. Kobayashi, J. Normand, 
 K. Raghavachari, A. P. Rendell, J. C. Burant, S. S. Iyengar, 
 J. Tomasi, M. Cossi, J. M. Millam, M. Klene, C. Adamo, R. Cammi, 
 J. W. Ochterski, R. L. Martin, K. Morokuma, O. Farkas, 
 J. B. Foresman, and D. J. Fox, Gaussian, Inc., Wallingford CT, 2019.
 
 ******************************************
 Gaussian 16:  EM64L-G16RevC.01  3-Jul-2019
                 8-Jun-2025 
 ******************************************
 %nprocshared=20
 Will use up to   20 processors via shared memory.
 %mem=50gb
 -----------------------------------------------------
 # mp2/aug-cc-pVTZ opt=(tight) freq(vibrot,anharmonic)
 -----------------------------------------------------
 1/7=10,18=20,19=15,38=1,80=1/1,3;
 2/9=110,12=2,17=6,18=5,40=1/2;
 3/5=16,6=1,7=10,11=9,25=1,30=1,71=1/1,2,3;
 4//1;
 5/5=2,38=5/2;
 8/6=4,10=1/1;
 9/15=2,16=-3/6;
 10/5=1/2;
 6/7=2,8=2,9=2,10=2/1;
 7/12=2/1,2,3,16;
 1/7=10,18=20,19=15,80=1/3(2);
 2/9=110/2;
 99//99;
 2/9=110/2;
 3/5=16,6=1,7=10,11=9,25=1,30=1,71=1/1,2,3;
 4/5=5,16=3,69=1/1;
 5/5=2,38=5/2;
 8/6=4,10=1/1;
 9/15=2,16=-3/6;
 10/5=1/2;
 7/12=2/1,2,3,16;
 1/7=10,18=20,19=15,80=1/3(-8);
 2/9=110/2;
 6/7=2,8=2,9=2,10=2/1;
 99/9=10/99;
 ----
 blah
 ----
 Symbolic Z-matrix:
 Charge =  0 Multiplicity = 1
 N                     0.        0.11384   0. 
 H                    -0.93873  -0.26406   0. 
 H                     0.46937  -0.26641   0.8122 
 H                     0.46937  -0.26641  -0.8122 
 

 GradGradGradGradGradGradGradGradGradGradGradGradGradGradGradGradGradGrad
 Berny optimization.
 Initialization pass.
                           ----------------------------
                           !    Initial Parameters    !
                           ! (Angstroms and Degrees)  !
 --------------------------                            --------------------------
 ! Name  Definition              Value          Derivative Info.                !
 --------------------------------------------------------------------------------
 ! R1    R(1,2)                  1.0119         estimate D2E/DX2                !
 ! R2    R(1,3)                  1.0122         estimate D2E/DX2                !
 ! R3    R(1,4)                  1.0122         estimate D2E/DX2                !
 ! A1    A(2,1,3)              106.8503         estimate D2E/DX2                !
 ! A2    A(2,1,4)              106.8503         estimate D2E/DX2                !
 ! A3    A(3,1,4)              106.721          estimate D2E/DX2                !
 ! D1    D(2,1,4,3)           -114.0313         estimate D2E/DX2                !
 --------------------------------------------------------------------------------
 Trust Radius=3.00D-01 FncErr=1.00D-07 GrdErr=1.00D-07 EigMax=2.50D+02 EigMin=1.00D-04
 Number of steps in this run=     20 maximum allowed number of steps=    100.
 GradGradGradGradGradGradGradGradGradGradGradGradGradGradGradGradGradGrad

                          Input orientation:                          
 ---------------------------------------------------------------------
 Center     Atomic      Atomic             Coordinates (Angstroms)
 Number     Number       Type             X           Y           Z
 ---------------------------------------------------------------------
      1          7           0        0.000000    0.113839    0.000000
      2          1           0       -0.938729   -0.264056    0.000000
      3          1           0        0.469365   -0.266409    0.812201
      4          1           0        0.469365   -0.266409   -0.812201
 ---------------------------------------------------------------------
                    Distance matrix (angstroms):
                    1          2          3          4
     1  N    0.000000
     2  H    1.011937   0.000000
     3  H    1.012207   1.625548   0.000000
     4  H    1.012207   1.625548   1.624402   0.000000
 Stoichiometry    H3N
 Framework group  CS[SG(HN),X(H2)]
 Deg. of freedom     4
 Full point group                 CS      NOp   2
 Largest Abelian subgroup         CS      NOp   2
 Largest concise Abelian subgroup CS      NOp   2
                         Standard orientation:                         
 ---------------------------------------------------------------------
 Center     Atomic      Atomic             Coordinates (Angstroms)
 Number     Number       Type             X           Y           Z
 ---------------------------------------------------------------------
      1          7           0        0.000000    0.113839   -0.000000
      2          1           0       -0.938729   -0.264055   -0.000000
      3          1           0        0.469365   -0.266409    0.812201
      4          1           0        0.469365   -0.266409   -0.812201
 ---------------------------------------------------------------------
 Rotational constants (GHZ):         299.4460000         299.0026119         189.8613232
 Standard basis: Aug-CC-pVTZ (5D, 7F)
 There are    80 symmetry adapted cartesian basis functions of A'  symmetry.
 There are    50 symmetry adapted cartesian basis functions of A"  symmetry.
 There are    69 symmetry adapted basis functions of A'  symmetry.
 There are    46 symmetry adapted basis functions of A"  symmetry.
   115 basis functions,   153 primitive gaussians,   130 cartesian basis functions
     5 alpha electrons        5 beta electrons
       nuclear repulsion energy        11.9565251725 Hartrees.
 NAtoms=    4 NActive=    4 NUniq=    3 SFac= 1.78D+00 NAtFMM=   60 NAOKFM=F Big=F
 Integral buffers will be    131072 words long.
 Raffenetti 1 integral format.
 Two-electron integral symmetry is turned on.
 One-electron integrals computed using PRISM.
 NBasis=   115 RedAO= T EigKep=  2.70D-04  NBF=    69    46
 NBsUse=   115 1.00D-06 EigRej= -1.00D+00 NBFU=    69    46
 ExpMin= 2.53D-02 ExpMax= 1.14D+04 ExpMxC= 3.89D+02 IAcc=3 IRadAn=         5 AccDes= 0.00D+00
 Harris functional with IExCor=  205 and IRadAn=       5 diagonalized for initial guess.
 HarFok:  IExCor=  205 AccDes= 0.00D+00 IRadAn=         5 IDoV= 1 UseB2=F ITyADJ=14
 ICtDFT=  3500011 ScaDFX=  1.000000  1.000000  1.000000  1.000000
 FoFCou: FMM=F IPFlag=           0 FMFlag=      100000 FMFlg1=           0
         NFxFlg=           0 DoJE=T BraDBF=F KetDBF=T FulRan=T
         wScrn=  0.000000 ICntrl=       500 IOpCl=  0 I1Cent=   200000004 NGrid=           0
         NMat0=    1 NMatS0=      1 NMatT0=    0 NMatD0=    1 NMtDS0=    0 NMtDT0=    0
 Petite list used in FoFCou.
 Initial guess orbital symmetries:
       Occupied  (A') (A') (A') (A") (A')
       Virtual   (A') (A') (A") (A') (A') (A") (A') (A') (A") (A')
                 (A") (A') (A') (A") (A") (A') (A") (A') (A') (A')
                 (A") (A') (A') (A") (A') (A") (A') (A') (A') (A')
                 (A") (A") (A") (A') (A') (A") (A') (A') (A") (A")
                 (A") (A') (A') (A') (A") (A') (A') (A") (A') (A')
                 (A") (A") (A') (A') (A") (A') (A") (A') (A") (A')
                 (A') (A') (A") (A") (A") (A') (A') (A') (A') (A")
                 (A') (A') (A") (A') (A") (A") (A') (A") (A") (A")
                 (A') (A') (A') (A') (A") (A') (A") (A') (A') (A")
                 (A') (A') (A") (A") (A') (A") (A') (A') (A") (A')
                 (A') (A") (A') (A") (A') (A") (A') (A') (A") (A')
 The electronic state of the initial guess is 1-A'.
 Keep R1 ints in memory in symmetry-blocked form, NReq=33414941.
 Requested convergence on RMS density matrix=1.00D-08 within 128 cycles.
 Requested convergence on MAX density matrix=1.00D-06.
 Requested convergence on             energy=1.00D-06.
 No special actions if energy rises.
 SCF Done:  E(RHF) =  -56.2203273232     A.U. after   10 cycles
            NFock= 10  Conv=0.22D-08     -V/T= 2.0016
 ExpMin= 2.53D-02 ExpMax= 1.14D+04 ExpMxC= 3.89D+02 IAcc=3 IRadAn=         5 AccDes= 0.00D+00
 HarFok:  IExCor=  205 AccDes= 0.00D+00 IRadAn=         5 IDoV=-2 UseB2=F ITyADJ=14
 ICtDFT= 12500011 ScaDFX=  1.000000  1.000000  1.000000  1.000000
 Range of M.O.s used for correlation:     2   115
 NBasis=   115 NAE=     5 NBE=     5 NFC=     1 NFV=     0
 NROrb=    114 NOA=     4 NOB=     4 NVA=   110 NVB=   110

 **** Warning!!: The largest alpha MO coefficient is  0.18179033D+02

 Fully direct method using O(ONN) memory.
 JobTyp=1 Pass  1:  I=   2 to   5 NPSUse= 20 ParTrn=T ParDer=T DoDerP=T.
 Spin components of T(2) and E(2):
     alpha-alpha T2 =       0.7904479427D-02 E2=     -0.2655758026D-01
     alpha-beta  T2 =       0.5107285970D-01 E2=     -0.1870980363D+00
     beta-beta   T2 =       0.7904479427D-02 E2=     -0.2655758026D-01
 ANorm=    0.1032899714D+01
 E2 =    -0.2402131968D+00 EUMP2 =    -0.56460540519993D+02
          IDoAtm=1111
          Differentiating once with respect to electric field.
                with respect to dipole field.
          Differentiating once with respect to nuclear coordinates.
 Keep R1 ints in memory in symmetry-blocked form, NReq=33415829.
          There are     1 degrees of freedom in the 1st order CPHF.  IDoFFX=0 NUNeed=     1.
 LinEq1:  Iter=  0 NonCon=     1 RMS=3.39D-03 Max=3.57D-02 NDo=     1
 AX will form     1 AO Fock derivatives at one time.
 LinEq1:  Iter=  1 NonCon=     1 RMS=1.10D-03 Max=1.05D-02 NDo=     1
 LinEq1:  Iter=  2 NonCon=     1 RMS=4.08D-04 Max=3.46D-03 NDo=     1
 LinEq1:  Iter=  3 NonCon=     1 RMS=4.60D-05 Max=2.92D-04 NDo=     1
 LinEq1:  Iter=  4 NonCon=     1 RMS=8.68D-06 Max=7.28D-05 NDo=     1
 LinEq1:  Iter=  5 NonCon=     1 RMS=1.68D-06 Max=1.54D-05 NDo=     1
 LinEq1:  Iter=  6 NonCon=     1 RMS=2.40D-07 Max=2.13D-06 NDo=     1
 LinEq1:  Iter=  7 NonCon=     1 RMS=2.63D-08 Max=1.81D-07 NDo=     1
 LinEq1:  Iter=  8 NonCon=     1 RMS=2.86D-09 Max=2.22D-08 NDo=     1
 LinEq1:  Iter=  9 NonCon=     1 RMS=2.42D-10 Max=1.69D-09 NDo=     1
 LinEq1:  Iter= 10 NonCon=     0 RMS=2.23D-11 Max=1.56D-10 NDo=     1
 Linear equations converged to 1.000D-10 1.000D-09 after    10 iterations.
 End of Minotr F.D. properties file   721 does not exist.
 End of Minotr F.D. properties file   722 does not exist.
 End of Minotr F.D. properties file   788 does not exist.

 **********************************************************************

            Population analysis using the SCF Density.

 **********************************************************************

 Orbital symmetries:
       Occupied  (A') (A') (A') (A") (A')
       Virtual   (A') (A') (A") (A') (A') (A") (A') (A") (A') (A')
                 (A") (A') (A") (A') (A') (A") (A') (A") (A') (A")
                 (A') (A') (A') (A") (A') (A") (A') (A') (A') (A")
                 (A') (A") (A") (A') (A') (A") (A') (A") (A') (A")
                 (A') (A") (A') (A') (A") (A') (A') (A") (A') (A')
                 (A") (A") (A') (A') (A") (A') (A") (A') (A") (A')
                 (A') (A") (A') (A") (A") (A') (A') (A') (A') (A")
                 (A') (A") (A') (A') (A") (A") (A") (A') (A") (A')
                 (A') (A") (A') (A") (A') (A') (A") (A') (A') (A")
                 (A") (A') (A") (A') (A') (A") (A') (A') (A") (A')
                 (A') (A") (A') (A") (A') (A") (A') (A') (A") (A')
 The electronic state is 1-A'.
 Alpha  occ. eigenvalues --  -15.54170  -1.14238  -0.62911  -0.62866  -0.42922
 Alpha virt. eigenvalues --    0.02955   0.04867   0.04869   0.11788   0.15244
 Alpha virt. eigenvalues --    0.16232   0.16234   0.22145   0.22148   0.23536
 Alpha virt. eigenvalues --    0.23543   0.25460   0.35596   0.35803   0.37066
 Alpha virt. eigenvalues --    0.37068   0.42819   0.46084   0.46087   0.48683
 Alpha virt. eigenvalues --    0.48695   0.56352   0.60214   0.60228   0.74919
 Alpha virt. eigenvalues --    0.78616   0.78636   0.81104   0.88342   0.90232
 Alpha virt. eigenvalues --    0.91446   0.91458   0.98092   0.98097   1.03486
 Alpha virt. eigenvalues --    1.03546   1.03558   1.08124   1.10386   1.10390
 Alpha virt. eigenvalues --    1.14202   1.14208   1.18550   1.21909   1.21931
 Alpha virt. eigenvalues --    1.32176   1.36309   1.36353   1.61660   1.75861
 Alpha virt. eigenvalues --    1.75884   1.76216   1.86440   1.86460   1.86470
 Alpha virt. eigenvalues --    2.00339   2.04076   2.04134   2.04912   2.04938
 Alpha virt. eigenvalues --    2.27083   2.34475   2.37348   2.37356   2.43642
 Alpha virt. eigenvalues --    2.43666   2.47406   3.38955   3.56156   3.56165
 Alpha virt. eigenvalues --    3.96924   3.96971   4.04269   4.14093   4.14123
 Alpha virt. eigenvalues --    4.21435   4.21921   4.25972   4.26008   4.32386
 Alpha virt. eigenvalues --    4.35981   4.36002   4.47174   4.54951   4.54960
 Alpha virt. eigenvalues --    4.69071   4.74628   4.74673   4.93902   4.93941
 Alpha virt. eigenvalues --    4.98191   5.06211   5.06369   5.06386   5.25122
 Alpha virt. eigenvalues --    5.66972   5.67076   5.73249   5.89842   5.89939
 Alpha virt. eigenvalues --    6.06123   6.32172   6.32409   6.42858   6.63161
 Alpha virt. eigenvalues --    6.93760   6.93844   7.68643   7.68725  17.24637
          Condensed to atoms (all electrons):
               1          2          3          4
     1  N    6.587088   0.336524   0.336497   0.336497
     2  H    0.336524   0.461306   0.001668   0.001668
     3  H    0.336497   0.001668   0.461253   0.001697
     4  H    0.336497   0.001668   0.001697   0.461253
 Mulliken charges:
               1
     1  N   -0.596605
     2  H    0.198834
     3  H    0.198885
     4  H    0.198885
 Sum of Mulliken charges =  -0.00000
 Mulliken charges with hydrogens summed into heavy atoms:
               1
     1  N   -0.000000
 Electronic spatial extent (au):  <R**2>=             26.6467
 Charge=             -0.0000 electrons
 Dipole moment (field-independent basis, Debye):
    X=             -0.0013    Y=             -1.6101    Z=              0.0000  Tot=              1.6101
 Quadrupole moment (field-independent basis, Debye-Ang):
   XX=             -6.2170   YY=             -9.2617   ZZ=             -6.2236
   XY=             -0.0056   XZ=             -0.0000   YZ=              0.0000
 Traceless Quadrupole moment (field-independent basis, Debye-Ang):
   XX=              1.0171   YY=             -2.0276   ZZ=              1.0105
   XY=             -0.0056   XZ=             -0.0000   YZ=              0.0000
 Octapole moment (field-independent basis, Debye-Ang**2):
  XXX=             -0.9782  YYY=             -1.3732  ZZZ=              0.0000  XYY=              0.0011
  XXY=             -0.9020  XXZ=              0.0000  XZZ=              0.9736  YZZ=             -0.9040
  YYZ=              0.0000  XYZ=             -0.0000
 Hexadecapole moment (field-independent basis, Debye-Ang**3):
 XXXX=             -9.9801 YYYY=            -12.2211 ZZZZ=             -9.9871 XXXY=              0.3575
 XXXZ=             -0.0000 YYYX=              0.0000 YYYZ=              0.0000 ZZZX=              0.0000
 ZZZY=             -0.0000 XXYY=             -3.8568 XXZZ=             -3.3277 YYZZ=             -3.8544
 XXYZ=             -0.0000 YYXZ=             -0.0000 ZZXY=             -0.3602
 N-N= 1.195652517251D+01 E-N=-1.557402936338D+02  KE= 5.612874301962D+01
 Symmetry A'   KE= 5.351461736075D+01
 Symmetry A"   KE= 2.614125658876D+00
 Calling FoFJK, ICntrl=  10002127 FMM=F ISym2X=1 I1Cent= 0 IOpClX= 0 NMat=1 NMatS=1 NMatT=0.
 ***** Axes restored to original set *****
 -------------------------------------------------------------------
 Center     Atomic                   Forces (Hartrees/Bohr)
 Number     Number              X              Y              Z
 -------------------------------------------------------------------
      1        7           0.000388541    0.000078322    0.000000000
      2        1          -0.000042479   -0.000130960   -0.000000000
      3        1          -0.000173031    0.000026319   -0.000008662
      4        1          -0.000173031    0.000026319    0.000008662
 -------------------------------------------------------------------
 Cartesian Forces:  Max     0.000388541 RMS     0.000140674

 GradGradGradGradGradGradGradGradGradGradGradGradGradGradGradGradGradGrad
 Berny optimization.
 FormGI is forming the generalized inverse of G from B-inverse, IUseBI=4.
 Internal  Forces:  Max     0.000185470 RMS     0.000118021
 Search for a local minimum.
 Step number   1 out of a maximum of   20
 All quantities printed in internal units (Hartrees-Bohrs-Radians)
 Mixed Optimization -- En-DIIS/RFO-DIIS
 Second derivative matrix not updated -- first step.
 The second derivative matrix:
                          R1        R2        R3        A1        A2
           R1           0.45650
           R2           0.00000   0.45605
           R3           0.00000   0.00000   0.45605
           A1           0.00000   0.00000   0.00000   0.16000
           A2           0.00000   0.00000   0.00000   0.00000   0.16000
           A3           0.00000   0.00000   0.00000   0.00000   0.00000
           D1           0.00000   0.00000   0.00000   0.00000   0.00000
                          A3        D1
           A3           0.16000
           D1           0.00000   0.00867
 ITU=  0
     Eigenvalues ---    0.06392   0.16000   0.16000   0.45605   0.45605
     Eigenvalues ---    0.45650
 RFO step:  Lambda=-6.05257866D-07 EMin= 6.39189847D-02
 Linear search not attempted -- first point.
 Iteration  1 RMS(Cart)=  0.00068267 RMS(Int)=  0.00000056
 Iteration  2 RMS(Cart)=  0.00000036 RMS(Int)=  0.00000011
 ClnCor:  largest displacement from symmetrization is 3.39D-05 for atom     4.
 Variable       Old X    -DE/DX   Delta X   Delta X   Delta X     New X
                                 (Linear)    (Quad)   (Total)
    R1        1.91228   0.00009   0.00000   0.00019   0.00019   1.91248
    R2        1.91279  -0.00010   0.00000  -0.00021  -0.00020   1.91259
    R3        1.91279  -0.00010   0.00000  -0.00021  -0.00020   1.91259
    A1        1.86489  -0.00009   0.00000  -0.00108  -0.00109   1.86380
    A2        1.86489  -0.00015   0.00000  -0.00113  -0.00109   1.86380
    A3        1.86263   0.00019   0.00000   0.00095   0.00094   1.86358
    D1       -1.99022   0.00008   0.00000   0.00131   0.00132  -1.98890
         Item               Value     Threshold  Converged?
 Maximum Force            0.000185     0.000015     NO 
 RMS     Force            0.000118     0.000010     NO 
 Maximum Displacement     0.000874     0.000060     NO 
 RMS     Displacement     0.000678     0.000040     NO 
 Predicted change in Energy=-3.025118D-07
 GradGradGradGradGradGradGradGradGradGradGradGradGradGradGradGradGradGrad

                          Input orientation:                          
 ---------------------------------------------------------------------
 Center     Atomic      Atomic             Coordinates (Angstroms)
 Number     Number       Type             X           Y           Z
 ---------------------------------------------------------------------
      1          7           0        0.000391    0.114097   -0.000000
      2          1           0       -0.938267   -0.264248    0.000000
      3          1           0        0.468947   -0.266440    0.812400
      4          1           0        0.468947   -0.266440   -0.812400
 ---------------------------------------------------------------------
                    Distance matrix (angstroms):
                    1          2          3          4
     1  N    0.000000
     2  H    1.012040   0.000000
     3  H    1.012100   1.624884   0.000000
     4  H    1.012100   1.624884   1.624799   0.000000
 Stoichiometry    H3N
 Framework group  CS[SG(HN),X(H2)]
 Deg. of freedom     4
 Full point group                 CS      NOp   2
 Largest Abelian subgroup         CS      NOp   2
 Largest concise Abelian subgroup CS      NOp   2
                         Standard orientation:                         
 ---------------------------------------------------------------------
 Center     Atomic      Atomic             Coordinates (Angstroms)
 Number     Number       Type             X           Y           Z
 ---------------------------------------------------------------------
      1          7           0        0.000000    0.113942   -0.000000
      2          1           0       -0.938143   -0.265678   -0.000000
      3          1           0        0.469072   -0.265958    0.812400
      4          1           0        0.469072   -0.265958   -0.812400
 ---------------------------------------------------------------------
 Rotational constants (GHZ):         299.2156785         299.1829324         189.9339184
 Standard basis: Aug-CC-pVTZ (5D, 7F)
 There are    80 symmetry adapted cartesian basis functions of A'  symmetry.
 There are    50 symmetry adapted cartesian basis functions of A"  symmetry.
 There are    69 symmetry adapted basis functions of A'  symmetry.
 There are    46 symmetry adapted basis functions of A"  symmetry.
   115 basis functions,   153 primitive gaussians,   130 cartesian basis functions
     5 alpha electrons        5 beta electrons
       nuclear repulsion energy        11.9571166027 Hartrees.
 NAtoms=    4 NActive=    4 NUniq=    3 SFac= 1.78D+00 NAtFMM=   60 NAOKFM=F Big=F
 Integral buffers will be    131072 words long.
 Raffenetti 1 integral format.
 Two-electron integral symmetry is turned on.
 One-electron integrals computed using PRISM.
 NBasis=   115 RedAO= T EigKep=  2.70D-04  NBF=    69    46
 NBsUse=   115 1.00D-06 EigRej= -1.00D+00 NBFU=    69    46
 Initial guess from the checkpoint file:  "/scr/Gau-86571.chk"
 B after Tr=    -0.000000    0.000000   -0.000000
         Rot=    1.000000   -0.000000   -0.000000   -0.000599 Ang=  -0.07 deg.
 Initial guess orbital symmetries:
       Occupied  (A') (A') (A') (A") (A')
       Virtual   (A') (A') (A") (A') (A') (A") (A') (A") (A') (A')
                 (A") (A') (A") (A') (A') (A") (A') (A") (A') (A")
                 (A') (A') (A') (A") (A') (A") (A') (A') (A') (A")
                 (A') (A") (A") (A') (A') (A") (A') (A") (A') (A")
                 (A') (A") (A') (A') (A") (A') (A') (A") (A') (A')
                 (A") (A") (A') (A') (A") (A') (A") (A') (A") (A')
                 (A') (A") (A') (A") (A") (A') (A') (A') (A') (A")
                 (A') (A") (A') (A') (A") (A") (A") (A') (A") (A')
                 (A') (A") (A') (A") (A') (A') (A") (A') (A') (A")
                 (A") (A') (A") (A') (A') (A") (A') (A') (A") (A')
                 (A') (A") (A') (A") (A') (A") (A') (A') (A") (A')
 Keep R1 ints in memory in symmetry-blocked form, NReq=33414941.
 Requested convergence on RMS density matrix=1.00D-08 within 128 cycles.
 Requested convergence on MAX density matrix=1.00D-06.
 Requested convergence on             energy=1.00D-06.
 No special actions if energy rises.
 SCF Done:  E(RHF) =  -56.2203280213     A.U. after    6 cycles
            NFock=  6  Conv=0.43D-08     -V/T= 2.0016
 ExpMin= 2.53D-02 ExpMax= 1.14D+04 ExpMxC= 3.89D+02 IAcc=3 IRadAn=         5 AccDes= 0.00D+00
 HarFok:  IExCor=  205 AccDes= 0.00D+00 IRadAn=         5 IDoV=-2 UseB2=F ITyADJ=14
 ICtDFT= 12500011 ScaDFX=  1.000000  1.000000  1.000000  1.000000
 Range of M.O.s used for correlation:     2   115
 NBasis=   115 NAE=     5 NBE=     5 NFC=     1 NFV=     0
 NROrb=    114 NOA=     4 NOB=     4 NVA=   110 NVB=   110

 **** Warning!!: The largest alpha MO coefficient is  0.18324248D+02

 Fully direct method using O(ONN) memory.
 JobTyp=1 Pass  1:  I=   2 to   5 NPSUse= 20 ParTrn=T ParDer=T DoDerP=T.
 Spin components of T(2) and E(2):
     alpha-alpha T2 =       0.7904293161D-02 E2=     -0.2655757648D-01
     alpha-beta  T2 =       0.5107133272D-01 E2=     -0.1870976862D+00
     beta-beta   T2 =       0.7904293161D-02 E2=     -0.2655757648D-01
 ANorm=    0.1032898794D+01
 E2 =    -0.2402128391D+00 EUMP2 =    -0.56460540860420D+02
          IDoAtm=1111
          Differentiating once with respect to electric field.
                with respect to dipole field.
          Differentiating once with respect to nuclear coordinates.
 Keep R1 ints in memory in symmetry-blocked form, NReq=33415829.
          There are     1 degrees of freedom in the 1st order CPHF.  IDoFFX=0 NUNeed=     1.
 LinEq1:  Iter=  0 NonCon=     1 RMS=3.39D-03 Max=3.57D-02 NDo=     1
 AX will form     1 AO Fock derivatives at one time.
 LinEq1:  Iter=  1 NonCon=     1 RMS=1.10D-03 Max=1.05D-02 NDo=     1
 LinEq1:  Iter=  2 NonCon=     1 RMS=4.08D-04 Max=3.46D-03 NDo=     1
 LinEq1:  Iter=  3 NonCon=     1 RMS=4.60D-05 Max=2.92D-04 NDo=     1
 LinEq1:  Iter=  4 NonCon=     1 RMS=8.69D-06 Max=7.28D-05 NDo=     1
 LinEq1:  Iter=  5 NonCon=     1 RMS=1.68D-06 Max=1.54D-05 NDo=     1
 LinEq1:  Iter=  6 NonCon=     1 RMS=2.40D-07 Max=2.13D-06 NDo=     1
 LinEq1:  Iter=  7 NonCon=     1 RMS=2.63D-08 Max=1.81D-07 NDo=     1
 LinEq1:  Iter=  8 NonCon=     1 RMS=2.86D-09 Max=2.22D-08 NDo=     1
 LinEq1:  Iter=  9 NonCon=     1 RMS=2.42D-10 Max=1.69D-09 NDo=     1
 LinEq1:  Iter= 10 NonCon=     0 RMS=2.21D-11 Max=1.51D-10 NDo=     1
 Linear equations converged to 1.000D-10 1.000D-09 after    10 iterations.
 End of Minotr F.D. properties file   721 does not exist.
 End of Minotr F.D. properties file   722 does not exist.
 End of Minotr F.D. properties file   788 does not exist.
 Calling FoFJK, ICntrl=  10002127 FMM=F ISym2X=1 I1Cent= 0 IOpClX= 0 NMat=1 NMatS=1 NMatT=0.
 ***** Axes restored to original set *****
 -------------------------------------------------------------------
 Center     Atomic                   Forces (Hartrees/Bohr)
 Number     Number              X              Y              Z
 -------------------------------------------------------------------
      1        7           0.000064596    0.000061150   -0.000000000
      2        1          -0.000043043   -0.000037761   -0.000000000
      3        1          -0.000010776   -0.000011695    0.000008451
      4        1          -0.000010776   -0.000011695   -0.000008451
 -------------------------------------------------------------------
 Cartesian Forces:  Max     0.000064596 RMS     0.000031410

 GradGradGradGradGradGradGradGradGradGradGradGradGradGradGradGradGradGrad
 Berny optimization.
 Using GEDIIS/GDIIS optimizer.
 FormGI is forming the generalized inverse of G from B-inverse, IUseBI=4.
 Internal  Forces:  Max     0.000054039 RMS     0.000024277
 Search for a local minimum.
 Step number   2 out of a maximum of   20
 All quantities printed in internal units (Hartrees-Bohrs-Radians)
 Mixed Optimization -- En-DIIS/RFO-DIIS
 Swapping is turned off.
 Update second derivatives using D2CorX and points    1    2
 DE= -3.40D-07 DEPred=-3.03D-07 R= 1.13D+00
 Trust test= 1.13D+00 RLast= 2.27D-03 DXMaxT set to 3.00D-01
 The second derivative matrix:
                          R1        R2        R3        A1        A2
           R1           0.44563
           R2           0.00694   0.46214
           R3           0.00694   0.00609   0.46214
           A1           0.02080  -0.01156  -0.01156   0.12046
           A2           0.01795  -0.00295  -0.00295  -0.03296   0.13723
           A3          -0.01066  -0.01192  -0.01192   0.01735   0.00247
           D1           0.00250  -0.01088  -0.01088  -0.00632  -0.01164
                          A3        D1
           A3           0.18289
           D1           0.01899   0.01629
 ITU=  0  0
     Eigenvalues ---    0.05638   0.15621   0.16201   0.44311   0.45605
     Eigenvalues ---    0.47284
 En-DIIS/RFO-DIIS/Sim-DIIS IScMMF=       -3 using points:     2    1
 RFO step:  Lambda=-2.40071121D-08.
 DidBck=F Rises=F RFO-DIIS coefs:    1.20995   -0.20995
 Iteration  1 RMS(Cart)=  0.00012113 RMS(Int)=  0.00000003
 Iteration  2 RMS(Cart)=  0.00000002 RMS(Int)=  0.00000001
 ClnCor:  largest displacement from symmetrization is 4.13D-06 for atom     4.
 Variable       Old X    -DE/DX   Delta X   Delta X   Delta X     New X
                                 (Linear)    (Quad)   (Total)
    R1        1.91248   0.00005   0.00004   0.00010   0.00014   1.91262
    R2        1.91259   0.00001  -0.00004   0.00006   0.00001   1.91261
    R3        1.91259   0.00001  -0.00004   0.00006   0.00001   1.91261
    A1        1.86380  -0.00001  -0.00023  -0.00001  -0.00024   1.86355
    A2        1.86380  -0.00002  -0.00023  -0.00002  -0.00024   1.86355
    A3        1.86358   0.00001   0.00020  -0.00019   0.00001   1.86359
    D1       -1.98890   0.00002   0.00028   0.00011   0.00039  -1.98851
         Item               Value     Threshold  Converged?
 Maximum Force            0.000054     0.000015     NO 
 RMS     Force            0.000024     0.000010     NO 
 Maximum Displacement     0.000210     0.000060     NO 
 RMS     Displacement     0.000121     0.000040     NO 
 Predicted change in Energy=-1.200074D-08
 GradGradGradGradGradGradGradGradGradGradGradGradGradGradGradGradGradGrad

                          Input orientation:                          
 ---------------------------------------------------------------------
 Center     Atomic      Atomic             Coordinates (Angstroms)
 Number     Number       Type             X           Y           Z
 ---------------------------------------------------------------------
      1          7           0        0.000452    0.114208   -0.000000
      2          1           0       -0.938220   -0.264302    0.000000
      3          1           0        0.468894   -0.266469    0.812409
      4          1           0        0.468894   -0.266469   -0.812409
 ---------------------------------------------------------------------
                    Distance matrix (angstroms):
                    1          2          3          4
     1  N    0.000000
     2  H    1.012114   0.000000
     3  H    1.012107   1.624802   0.000000
     4  H    1.012107   1.624802   1.624817   0.000000
 Stoichiometry    H3N
 Framework group  CS[SG(HN),X(H2)]
 Deg. of freedom     4
 Full point group                 CS      NOp   2
 Largest Abelian subgroup         CS      NOp   2
 Largest concise Abelian subgroup CS      NOp   2
                         Standard orientation:                         
 ---------------------------------------------------------------------
 Center     Atomic      Atomic             Coordinates (Angstroms)
 Number     Number       Type             X           Y           Z
 ---------------------------------------------------------------------
      1          7           0       -0.000000    0.113986   -0.000000
      2          1           0       -0.938077   -0.265995    0.000000
      3          1           0        0.469038   -0.265955    0.812409
      4          1           0        0.469038   -0.265955   -0.812409
 ---------------------------------------------------------------------
 Rotational constants (GHZ):         299.1667594         299.1607073         189.9452593
 Standard basis: Aug-CC-pVTZ (5D, 7F)
 There are    80 symmetry adapted cartesian basis functions of A'  symmetry.
 There are    50 symmetry adapted cartesian basis functions of A"  symmetry.
 There are    69 symmetry adapted basis functions of A'  symmetry.
 There are    46 symmetry adapted basis functions of A"  symmetry.
   115 basis functions,   153 primitive gaussians,   130 cartesian basis functions
     5 alpha electrons        5 beta electrons
       nuclear repulsion energy        11.9568232835 Hartrees.
 NAtoms=    4 NActive=    4 NUniq=    3 SFac= 1.78D+00 NAtFMM=   60 NAOKFM=F Big=F
 Integral buffers will be    131072 words long.
 Raffenetti 1 integral format.
 Two-electron integral symmetry is turned on.
 One-electron integrals computed using PRISM.
 NBasis=   115 RedAO= T EigKep=  2.70D-04  NBF=    69    46
 NBsUse=   115 1.00D-06 EigRej= -1.00D+00 NBFU=    69    46
 Initial guess from the checkpoint file:  "/scr/Gau-86571.chk"
 B after Tr=    -0.000000   -0.000000   -0.000000
         Rot=    1.000000   -0.000000   -0.000000   -0.000093 Ang=  -0.01 deg.
 Initial guess orbital symmetries:
       Occupied  (A') (A') (A') (A") (A')
       Virtual   (A') (A') (A") (A') (A') (A") (A') (A") (A') (A')
                 (A") (A') (A") (A') (A') (A") (A') (A") (A') (A")
                 (A') (A') (A') (A") (A') (A") (A') (A') (A') (A")
                 (A') (A") (A") (A') (A') (A") (A') (A") (A') (A")
                 (A') (A") (A') (A') (A") (A') (A') (A") (A') (A')
                 (A") (A") (A') (A') (A") (A') (A") (A') (A") (A')
                 (A') (A") (A') (A") (A") (A') (A') (A') (A") (A')
                 (A') (A") (A') (A') (A") (A") (A") (A') (A") (A')
                 (A') (A") (A') (A") (A') (A') (A") (A') (A') (A")
                 (A") (A') (A") (A') (A') (A") (A') (A') (A") (A')
                 (A') (A") (A') (A") (A') (A") (A') (A') (A") (A')
 Keep R1 ints in memory in symmetry-blocked form, NReq=33414941.
 Requested convergence on RMS density matrix=1.00D-08 within 128 cycles.
 Requested convergence on MAX density matrix=1.00D-06.
 Requested convergence on             energy=1.00D-06.
 No special actions if energy rises.
 SCF Done:  E(RHF) =  -56.2203254136     A.U. after    5 cycles
            NFock=  5  Conv=0.83D-08     -V/T= 2.0016
 ExpMin= 2.53D-02 ExpMax= 1.14D+04 ExpMxC= 3.89D+02 IAcc=3 IRadAn=         5 AccDes= 0.00D+00
 HarFok:  IExCor=  205 AccDes= 0.00D+00 IRadAn=         5 IDoV=-2 UseB2=F ITyADJ=14
 ICtDFT= 12500011 ScaDFX=  1.000000  1.000000  1.000000  1.000000
 Range of M.O.s used for correlation:     2   115
 NBasis=   115 NAE=     5 NBE=     5 NFC=     1 NFV=     0
 NROrb=    114 NOA=     4 NOB=     4 NVA=   110 NVB=   110

 **** Warning!!: The largest alpha MO coefficient is  0.18340855D+02

 Fully direct method using O(ONN) memory.
 JobTyp=1 Pass  1:  I=   2 to   5 NPSUse= 20 ParTrn=T ParDer=T DoDerP=T.
 Spin components of T(2) and E(2):
     alpha-alpha T2 =       0.7904580495D-02 E2=     -0.2655780161D-01
     alpha-beta  T2 =       0.5107351247D-01 E2=     -0.1870998594D+00
     beta-beta   T2 =       0.7904580495D-02 E2=     -0.2655780161D-01
 ANorm=    0.1032900128D+01
 E2 =    -0.2402154626D+00 EUMP2 =    -0.56460540876211D+02
          IDoAtm=1111
          Differentiating once with respect to electric field.
                with respect to dipole field.
          Differentiating once with respect to nuclear coordinates.
 Keep R1 ints in memory in symmetry-blocked form, NReq=33415829.
          There are     1 degrees of freedom in the 1st order CPHF.  IDoFFX=0 NUNeed=     1.
 LinEq1:  Iter=  0 NonCon=     1 RMS=3.39D-03 Max=3.57D-02 NDo=     1
 AX will form     1 AO Fock derivatives at one time.
 LinEq1:  Iter=  1 NonCon=     1 RMS=1.10D-03 Max=1.05D-02 NDo=     1
 LinEq1:  Iter=  2 NonCon=     1 RMS=4.08D-04 Max=3.46D-03 NDo=     1
 LinEq1:  Iter=  3 NonCon=     1 RMS=4.60D-05 Max=2.92D-04 NDo=     1
 LinEq1:  Iter=  4 NonCon=     1 RMS=8.69D-06 Max=7.28D-05 NDo=     1
 LinEq1:  Iter=  5 NonCon=     1 RMS=1.68D-06 Max=1.54D-05 NDo=     1
 LinEq1:  Iter=  6 NonCon=     1 RMS=2.40D-07 Max=2.13D-06 NDo=     1
 LinEq1:  Iter=  7 NonCon=     1 RMS=2.63D-08 Max=1.81D-07 NDo=     1
 LinEq1:  Iter=  8 NonCon=     1 RMS=2.86D-09 Max=2.22D-08 NDo=     1
 LinEq1:  Iter=  9 NonCon=     1 RMS=2.42D-10 Max=1.69D-09 NDo=     1
 LinEq1:  Iter= 10 NonCon=     0 RMS=2.21D-11 Max=1.51D-10 NDo=     1
 Linear equations converged to 1.000D-10 1.000D-09 after    10 iterations.
 End of Minotr F.D. properties file   721 does not exist.
 End of Minotr F.D. properties file   722 does not exist.
 End of Minotr F.D. properties file   788 does not exist.
 Calling FoFJK, ICntrl=  10002127 FMM=F ISym2X=1 I1Cent= 0 IOpClX= 0 NMat=1 NMatS=1 NMatT=0.
 ***** Axes restored to original set *****
 -------------------------------------------------------------------
 Center     Atomic                   Forces (Hartrees/Bohr)
 Number     Number              X              Y              Z
 -------------------------------------------------------------------
      1        7          -0.000007967    0.000019798    0.000000000
      2        1          -0.000001254   -0.000004429    0.000000000
      3        1           0.000004610   -0.000007684    0.000003616
      4        1           0.000004610   -0.000007684   -0.000003616
 -------------------------------------------------------------------
 Cartesian Forces:  Max     0.000019798 RMS     0.000007435

 GradGradGradGradGradGradGradGradGradGradGradGradGradGradGradGradGradGrad
 Berny optimization.
 Using GEDIIS/GDIIS optimizer.
 FormGI is forming the generalized inverse of G from B-inverse, IUseBI=4.
 Internal  Forces:  Max     0.000008764 RMS     0.000006057
 Search for a local minimum.
 Step number   3 out of a maximum of   20
 All quantities printed in internal units (Hartrees-Bohrs-Radians)
 Mixed Optimization -- En-DIIS/RFO-DIIS
 Swapping is turned off.
 Update second derivatives using D2CorX and points    1    2    3
 DE= -1.58D-08 DEPred=-1.20D-08 R= 1.32D+00
 Trust test= 1.32D+00 RLast= 5.39D-04 DXMaxT set to 3.00D-01
 The second derivative matrix:
                          R1        R2        R3        A1        A2
           R1           0.45030
           R2          -0.01209   0.46325
           R3          -0.01209   0.00720   0.46325
           A1           0.04020  -0.00593  -0.00593   0.10724
           A2           0.02839   0.00637   0.00637  -0.04706   0.12537
           A3           0.02128  -0.01852  -0.01852   0.01316  -0.00997
           D1           0.01273  -0.01645  -0.01645  -0.00383  -0.01328
                          A3        D1
           A3           0.20165
           D1           0.03059   0.02163
 ITU=  0  0  0
     Eigenvalues ---    0.04428   0.15538   0.17937   0.44301   0.45605
     Eigenvalues ---    0.48183
 En-DIIS/RFO-DIIS/Sim-DIIS IScMMF=       -3 using points:     3    2    1
 RFO step:  Lambda=-1.82587947D-09.
 DIIS inversion failure, remove point   3.
 DIIS inversion failure, remove point   2.
 Use linear search instead of GDIIS.
 RFO step:  Lambda= 0.00000000D+00 EMin= 4.42839574D-02
 Quartic linear search produced a step of  0.10304.
 Iteration  1 RMS(Cart)=  0.00003013 RMS(Int)=  0.00000000
 Iteration  2 RMS(Cart)=  0.00000000 RMS(Int)=  0.00000000
 ClnCor:  largest displacement from symmetrization is 7.63D-06 for atom     4.
 Variable       Old X    -DE/DX   Delta X   Delta X   Delta X     New X
                                 (Linear)    (Quad)   (Total)
    R1        1.91262   0.00000   0.00001  -0.00000   0.00001   1.91263
    R2        1.91261   0.00001   0.00000   0.00002   0.00002   1.91263
    R3        1.91261   0.00001   0.00000   0.00002   0.00002   1.91263
    A1        1.86355   0.00000  -0.00003  -0.00001  -0.00004   1.86351
    A2        1.86355  -0.00000  -0.00003  -0.00002  -0.00004   1.86351
    A3        1.86359  -0.00001   0.00000  -0.00006  -0.00006   1.86352
    D1       -1.98851   0.00001   0.00004   0.00005   0.00009  -1.98842
         Item               Value     Threshold  Converged?
 Maximum Force            0.000009     0.000015     YES
 RMS     Force            0.000006     0.000010     YES
 Maximum Displacement     0.000062     0.000060     NO 
 RMS     Displacement     0.000030     0.000040     YES
 Predicted change in Energy=-9.062448D-10
 GradGradGradGradGradGradGradGradGradGradGradGradGradGradGradGradGradGrad

                          Input orientation:                          
 ---------------------------------------------------------------------
 Center     Atomic      Atomic             Coordinates (Angstroms)
 Number     Number       Type             X           Y           Z
 ---------------------------------------------------------------------
      1          7           0        0.000447    0.114241   -0.000000
      2          1           0       -0.938214   -0.264312    0.000000
      3          1           0        0.468895   -0.266480    0.812398
      4          1           0        0.468895   -0.266480   -0.812398
 ---------------------------------------------------------------------
                    Distance matrix (angstroms):
                    1          2          3          4
     1  N    0.000000
     2  H    1.012120   0.000000
     3  H    1.012118   1.624793   0.000000
     4  H    1.012118   1.624793   1.624796   0.000000
 Stoichiometry    H3N
 Framework group  CS[SG(HN),X(H2)]
 Deg. of freedom     4
 Full point group                 CS      NOp   2
 Largest Abelian subgroup         CS      NOp   2
 Largest concise Abelian subgroup CS      NOp   2
                         Standard orientation:                         
 ---------------------------------------------------------------------
 Center     Atomic      Atomic             Coordinates (Angstroms)
 Number     Number       Type             X           Y           Z
 ---------------------------------------------------------------------
      1          7           0        0.000000    0.114000    0.000000
      2          1           0       -0.938074   -0.266006   -0.000000
      3          1           0        0.469037   -0.265995    0.812398
      4          1           0        0.469037   -0.265995   -0.812398
 ---------------------------------------------------------------------
 Rotational constants (GHZ):         299.1536584         299.1523949         189.9483956
 Standard basis: Aug-CC-pVTZ (5D, 7F)
 There are    80 symmetry adapted cartesian basis functions of A'  symmetry.
 There are    50 symmetry adapted cartesian basis functions of A"  symmetry.
 There are    69 symmetry adapted basis functions of A'  symmetry.
 There are    46 symmetry adapted basis functions of A"  symmetry.
   115 basis functions,   153 primitive gaussians,   130 cartesian basis functions
     5 alpha electrons        5 beta electrons
       nuclear repulsion energy        11.9567315709 Hartrees.
 NAtoms=    4 NActive=    4 NUniq=    3 SFac= 1.78D+00 NAtFMM=   60 NAOKFM=F Big=F
 Integral buffers will be    131072 words long.
 Raffenetti 1 integral format.
 Two-electron integral symmetry is turned on.
 One-electron integrals computed using PRISM.
 NBasis=   115 RedAO= T EigKep=  2.70D-04  NBF=    69    46
 NBsUse=   115 1.00D-06 EigRej= -1.00D+00 NBFU=    69    46
 Initial guess from the checkpoint file:  "/scr/Gau-86571.chk"
 B after Tr=     0.000000    0.000000   -0.000000
         Rot=    1.000000   -0.000000   -0.000000    0.000008 Ang=   0.00 deg.
 Initial guess orbital symmetries:
       Occupied  (A') (A') (A") (A') (A')
       Virtual   (A') (A") (A') (A') (A') (A') (A") (A') (A") (A")
                 (A') (A') (A") (A') (A") (A') (A') (A') (A") (A')
                 (A") (A') (A") (A') (A') (A') (A") (A') (A') (A")
                 (A") (A') (A') (A") (A') (A') (A") (A") (A") (A')
                 (A") (A') (A') (A") (A') (A') (A") (A') (A') (A")
                 (A') (A") (A') (A") (A') (A') (A') (A") (A') (A")
                 (A') (A") (A") (A') (A') (A") (A') (A') (A") (A')
                 (A") (A') (A') (A") (A') (A") (A") (A") (A') (A')
                 (A") (A') (A') (A') (A") (A') (A') (A") (A") (A')
                 (A") (A') (A') (A") (A') (A') (A") (A') (A') (A")
                 (A') (A') (A") (A") (A') (A') (A") (A") (A') (A')
 Keep R1 ints in memory in symmetry-blocked form, NReq=33414941.
 Requested convergence on RMS density matrix=1.00D-08 within 128 cycles.
 Requested convergence on MAX density matrix=1.00D-06.
 Requested convergence on             energy=1.00D-06.
 No special actions if energy rises.
 SCF Done:  E(RHF) =  -56.2203246159     A.U. after    4 cycles
            NFock=  4  Conv=0.68D-08     -V/T= 2.0016
 ExpMin= 2.53D-02 ExpMax= 1.14D+04 ExpMxC= 3.89D+02 IAcc=3 IRadAn=         5 AccDes= 0.00D+00
 HarFok:  IExCor=  205 AccDes= 0.00D+00 IRadAn=         5 IDoV=-2 UseB2=F ITyADJ=14
 ICtDFT= 12500011 ScaDFX=  1.000000  1.000000  1.000000  1.000000
 Range of M.O.s used for correlation:     2   115
 NBasis=   115 NAE=     5 NBE=     5 NFC=     1 NFV=     0
 NROrb=    114 NOA=     4 NOB=     4 NVA=   110 NVB=   110

 **** Warning!!: The largest alpha MO coefficient is  0.18342225D+02

 Fully direct method using O(ONN) memory.
 JobTyp=1 Pass  1:  I=   2 to   5 NPSUse= 20 ParTrn=T ParDer=T DoDerP=T.
 Spin components of T(2) and E(2):
     alpha-alpha T2 =       0.7904668578D-02 E2=     -0.2655787073D-01
     alpha-beta  T2 =       0.5107418089D-01 E2=     -0.1871005238D+00
     beta-beta   T2 =       0.7904668578D-02 E2=     -0.2655787073D-01
 ANorm=    0.1032900536D+01
 E2 =    -0.2402162653D+00 EUMP2 =    -0.56460540881152D+02
          IDoAtm=1111
          Differentiating once with respect to electric field.
                with respect to dipole field.
          Differentiating once with respect to nuclear coordinates.
 Keep R1 ints in memory in symmetry-blocked form, NReq=33415829.
          There are     1 degrees of freedom in the 1st order CPHF.  IDoFFX=0 NUNeed=     1.
 LinEq1:  Iter=  0 NonCon=     1 RMS=3.39D-03 Max=3.57D-02 NDo=     1
 AX will form     1 AO Fock derivatives at one time.
 LinEq1:  Iter=  1 NonCon=     1 RMS=1.10D-03 Max=1.05D-02 NDo=     1
 LinEq1:  Iter=  2 NonCon=     1 RMS=4.08D-04 Max=3.46D-03 NDo=     1
 LinEq1:  Iter=  3 NonCon=     1 RMS=4.60D-05 Max=2.92D-04 NDo=     1
 LinEq1:  Iter=  4 NonCon=     1 RMS=8.69D-06 Max=7.28D-05 NDo=     1
 LinEq1:  Iter=  5 NonCon=     1 RMS=1.68D-06 Max=1.54D-05 NDo=     1
 LinEq1:  Iter=  6 NonCon=     1 RMS=2.40D-07 Max=2.13D-06 NDo=     1
 LinEq1:  Iter=  7 NonCon=     1 RMS=2.63D-08 Max=1.81D-07 NDo=     1
 LinEq1:  Iter=  8 NonCon=     1 RMS=2.86D-09 Max=2.22D-08 NDo=     1
 LinEq1:  Iter=  9 NonCon=     1 RMS=2.42D-10 Max=1.69D-09 NDo=     1
 LinEq1:  Iter= 10 NonCon=     0 RMS=2.20D-11 Max=1.51D-10 NDo=     1
 Linear equations converged to 1.000D-10 1.000D-09 after    10 iterations.
 End of Minotr F.D. properties file   721 does not exist.
 End of Minotr F.D. properties file   722 does not exist.
 End of Minotr F.D. properties file   788 does not exist.
 Calling FoFJK, ICntrl=  10002127 FMM=F ISym2X=1 I1Cent= 0 IOpClX= 0 NMat=1 NMatS=1 NMatT=0.
 ***** Axes restored to original set *****
 -------------------------------------------------------------------
 Center     Atomic                   Forces (Hartrees/Bohr)
 Number     Number              X              Y              Z
 -------------------------------------------------------------------
      1        7          -0.000002532    0.000007223    0.000000000
      2        1           0.000000832   -0.000001722    0.000000000
      3        1           0.000000850   -0.000002751    0.000000424
      4        1           0.000000850   -0.000002751   -0.000000424
 -------------------------------------------------------------------
 Cartesian Forces:  Max     0.000007223 RMS     0.000002569

 GradGradGradGradGradGradGradGradGradGradGradGradGradGradGradGradGradGrad
 Berny optimization.
 Using GEDIIS/GDIIS optimizer.
 FormGI is forming the generalized inverse of G from B-inverse, IUseBI=4.
 Internal  Forces:  Max     0.000003281 RMS     0.000002031
 Search for a local minimum.
 Step number   4 out of a maximum of   20
 All quantities printed in internal units (Hartrees-Bohrs-Radians)
 Mixed Optimization -- En-DIIS/RFO-DIIS
 Swapping is turned off.
 Update second derivatives using D2CorX and points    1    2    3    4
 DE= -4.94D-09 DEPred=-9.06D-10 R= 5.45D+00
 Trust test= 5.45D+00 RLast= 1.27D-04 DXMaxT set to 3.00D-01
 The second derivative matrix:
                          R1        R2        R3        A1        A2
           R1           0.47062
           R2          -0.00690   0.44203
           R3          -0.00690  -0.01402   0.44203
           A1           0.05527   0.01760   0.01760   0.10072
           A2           0.03128   0.01535   0.01535  -0.05449   0.12175
           A3           0.02630   0.01912   0.01912  -0.01291  -0.02315
           D1           0.02856   0.00118   0.00118  -0.00130  -0.01769
                          A3        D1
           A3           0.14612
           D1           0.01598   0.03162
 ITU=  0  0  0  0
     Eigenvalues ---    0.04075   0.14789   0.15891   0.42874   0.45605
     Eigenvalues ---    0.47328
 En-DIIS/RFO-DIIS/Sim-DIIS IScMMF=       -3 using points:     4    3    2    1
 RFO step:  Lambda=-3.76153311D-10.
 DIIS inversion failure, remove point   4.
 DIIS inversion failure, remove point   3.
 DIIS inversion failure, remove point   2.
 Use linear search instead of GDIIS.
 RFO step:  Lambda= 0.00000000D+00 EMin= 4.07531863D-02
 Quartic linear search produced a step of  0.02499.
 Iteration  1 RMS(Cart)=  0.00000486 RMS(Int)=  0.00000000
 Iteration  2 RMS(Cart)=  0.00000000 RMS(Int)=  0.00000000
 ClnCor:  largest displacement from symmetrization is 9.78D-06 for atom     4.
 Variable       Old X    -DE/DX   Delta X   Delta X   Delta X     New X
                                 (Linear)    (Quad)   (Total)
    R1        1.91263  -0.00000   0.00000  -0.00000  -0.00000   1.91263
    R2        1.91263   0.00000   0.00000   0.00000   0.00001   1.91263
    R3        1.91263   0.00000   0.00000   0.00000   0.00001   1.91263
    A1        1.86351  -0.00000  -0.00000   0.00001   0.00001   1.86352
    A2        1.86351  -0.00000  -0.00000  -0.00000   0.00001   1.86352
    A3        1.86352  -0.00000  -0.00000  -0.00000  -0.00001   1.86352
    D1       -1.98842   0.00000   0.00000  -0.00001  -0.00001  -1.98843
         Item               Value     Threshold  Converged?
 Maximum Force            0.000003     0.000015     YES
 RMS     Force            0.000002     0.000010     YES
 Maximum Displacement     0.000008     0.000060     YES
 RMS     Displacement     0.000005     0.000040     YES
 Predicted change in Energy=-2.175083D-11
 Optimization completed.
    -- Stationary point found.
                           ----------------------------
                           !   Optimized Parameters   !
                           ! (Angstroms and Degrees)  !
 --------------------------                            --------------------------
 ! Name  Definition              Value          Derivative Info.                !
 --------------------------------------------------------------------------------
 ! R1    R(1,2)                  1.0121         -DE/DX =    0.0                 !
 ! R2    R(1,3)                  1.0121         -DE/DX =    0.0                 !
 ! R3    R(1,4)                  1.0121         -DE/DX =    0.0                 !
 ! A1    A(2,1,3)              106.7714         -DE/DX =    0.0                 !
 ! A2    A(2,1,4)              106.7714         -DE/DX =    0.0                 !
 ! A3    A(3,1,4)              106.7719         -DE/DX =    0.0                 !
 ! D1    D(2,1,4,3)           -113.9283         -DE/DX =    0.0                 !
 --------------------------------------------------------------------------------
 GradGradGradGradGradGradGradGradGradGradGradGradGradGradGradGradGradGrad

                          Input orientation:                          
 ---------------------------------------------------------------------
 Center     Atomic      Atomic             Coordinates (Angstroms)
 Number     Number       Type             X           Y           Z
 ---------------------------------------------------------------------
      1          7           0        0.000447    0.114241   -0.000000
      2          1           0       -0.938214   -0.264312   -0.000000
      3          1           0        0.468895   -0.266480    0.812398
      4          1           0        0.468895   -0.266480   -0.812398
 ---------------------------------------------------------------------
                    Distance matrix (angstroms):
                    1          2          3          4
     1  N    0.000000
     2  H    1.012120   0.000000
     3  H    1.012118   1.624793   0.000000
     4  H    1.012118   1.624793   1.624796   0.000000
 Stoichiometry    H3N
 Framework group  CS[SG(HN),X(H2)]
 Deg. of freedom     4
 Full point group                 CS      NOp   2
 Largest Abelian subgroup         CS      NOp   2
 Largest concise Abelian subgroup CS      NOp   2
                         Standard orientation:                         
 ---------------------------------------------------------------------
 Center     Atomic      Atomic             Coordinates (Angstroms)
 Number     Number       Type             X           Y           Z
 ---------------------------------------------------------------------
      1          7           0        0.000000    0.114000   -0.000000
      2          1           0       -0.938074   -0.266006    0.000000
      3          1           0        0.469037   -0.265995    0.812398
      4          1           0        0.469037   -0.265995   -0.812398
 ---------------------------------------------------------------------
 Rotational constants (GHZ):         299.1536584         299.1523949         189.9483956

 **********************************************************************

            Population analysis using the SCF Density.

 **********************************************************************

 Orbital symmetries:
       Occupied  (A') (A') (A") (A') (A')
       Virtual   (A') (A") (A') (A') (A') (A') (A") (A') (A") (A")
                 (A') (A') (A") (A') (A") (A') (A') (A') (A") (A')
                 (A") (A') (A") (A') (A') (A') (A") (A') (A') (A")
                 (A") (A') (A') (A") (A') (A') (A") (A") (A") (A')
                 (A") (A') (A') (A") (A') (A') (A") (A') (A') (A")
                 (A') (A") (A') (A") (A') (A') (A') (A") (A') (A")
                 (A') (A") (A") (A') (A') (A") (A') (A') (A') (A")
                 (A") (A') (A') (A") (A') (A") (A") (A") (A') (A')
                 (A") (A') (A') (A') (A") (A') (A') (A") (A") (A')
                 (A") (A') (A') (A") (A') (A') (A") (A') (A') (A")
                 (A') (A') (A") (A") (A') (A') (A") (A") (A') (A')
 The electronic state is 1-A'.
 Alpha  occ. eigenvalues --  -15.54172  -1.14244  -0.62884  -0.62883  -0.42933
 Alpha virt. eigenvalues --    0.02954   0.04868   0.04868   0.11788   0.15244
 Alpha virt. eigenvalues --    0.16233   0.16233   0.22147   0.22147   0.23538
 Alpha virt. eigenvalues --    0.23538   0.25459   0.35597   0.35801   0.37067
 Alpha virt. eigenvalues --    0.37067   0.42820   0.46087   0.46087   0.48688
 Alpha virt. eigenvalues --    0.48688   0.56359   0.60217   0.60217   0.74923
 Alpha virt. eigenvalues --    0.78622   0.78623   0.81105   0.88331   0.90238
 Alpha virt. eigenvalues --    0.91455   0.91455   0.98080   0.98080   1.03491
 Alpha virt. eigenvalues --    1.03557   1.03557   1.08128   1.10385   1.10385
 Alpha virt. eigenvalues --    1.14210   1.14210   1.18554   1.21925   1.21925
 Alpha virt. eigenvalues --    1.32187   1.36311   1.36311   1.61658   1.75892
 Alpha virt. eigenvalues --    1.75892   1.76238   1.86442   1.86457   1.86457
 Alpha virt. eigenvalues --    2.00332   2.04104   2.04105   2.04919   2.04919
 Alpha virt. eigenvalues --    2.27129   2.34433   2.37348   2.37348   2.43663
 Alpha virt. eigenvalues --    2.43664   2.47393   3.38891   3.56134   3.56134
 Alpha virt. eigenvalues --    3.96961   3.96961   4.04295   4.14080   4.14081
 Alpha virt. eigenvalues --    4.21423   4.21974   4.26004   4.26005   4.32338
 Alpha virt. eigenvalues --    4.35974   4.35974   4.47189   4.54951   4.54951
 Alpha virt. eigenvalues --    4.69084   4.74610   4.74611   4.93957   4.93957
 Alpha virt. eigenvalues --    4.98241   5.06326   5.06338   5.06338   5.25186
 Alpha virt. eigenvalues --    5.67099   5.67100   5.73179   5.89889   5.89889
 Alpha virt. eigenvalues --    6.06052   6.32405   6.32406   6.42724   6.63095
 Alpha virt. eigenvalues --    6.93827   6.93828   7.68699   7.68699  17.24563
          Condensed to atoms (all electrons):
               1          2          3          4
     1  N    6.587373   0.336377   0.336377   0.336377
     2  H    0.336377   0.461333   0.001728   0.001728
     3  H    0.336377   0.001728   0.461333   0.001727
     4  H    0.336377   0.001728   0.001727   0.461333
 Mulliken charges:
               1
     1  N   -0.596504
     2  H    0.198835
     3  H    0.198834
     4  H    0.198834
 Sum of Mulliken charges =  -0.00000
 Mulliken charges with hydrogens summed into heavy atoms:
               1
     1  N   -0.000000
 Electronic spatial extent (au):  <R**2>=             26.6461
 Charge=             -0.0000 electrons
 Dipole moment (field-independent basis, Debye):
    X=              0.0000    Y=             -1.6119    Z=             -0.0000  Tot=              1.6119
 Quadrupole moment (field-independent basis, Debye-Ang):
   XX=             -6.2217   YY=             -9.2597   ZZ=             -6.2217
   XY=              0.0000   XZ=              0.0000   YZ=             -0.0000
 Traceless Quadrupole moment (field-independent basis, Debye-Ang):
   XX=              1.0127   YY=             -2.0254   ZZ=              1.0127
   XY=              0.0000   XZ=              0.0000   YZ=             -0.0000
 Octapole moment (field-independent basis, Debye-Ang**2):
  XXX=             -0.9737  YYY=             -1.3749  ZZZ=              0.0000  XYY=             -0.0000
  XXY=             -0.9039  XXZ=              0.0000  XZZ=              0.9738  YZZ=             -0.9039
  YYZ=              0.0000  XYZ=             -0.0000
 Hexadecapole moment (field-independent basis, Debye-Ang**3):
 XXXX=             -9.9842 YYYY=            -12.2211 ZZZZ=             -9.9842 XXXY=              0.3598
 XXXZ=              0.0000 YYYX=             -0.0000 YYYZ=              0.0000 ZZZX=              0.0000
 ZZZY=             -0.0000 XXYY=             -3.8548 XXZZ=             -3.3281 YYZZ=             -3.8548
 XXYZ=             -0.0000 YYXZ=              0.0000 ZZXY=             -0.3598
 N-N= 1.195673157086D+01 E-N=-1.557407275746D+02  KE= 5.612894215486D+01
 Symmetry A'   KE= 5.351466526378D+01
 Symmetry A"   KE= 2.614276891080D+00
 Unable to Open any file for archive entry.
 1\1\GINC-N3462\FOpt\RMP2-FC\Aug-CC-pVTZ\H3N1\GDS001\08-Jun-2025\0\\# m
 p2/aug-cc-pVTZ opt=(tight) freq(vibrot,anharmonic)\\blah\\0,1\N,0.0004
 473641,0.1142409201,0.\H,-0.9382138925,-0.2643116022,0.\H,0.4688951277
 ,-0.2664800532,0.8123979149\H,0.4688951276,-0.2664800532,-0.8123979149
 \\Version=EM64L-G16RevC.01\State=1-A'\HF=-56.2203246\MP2=-56.4605409\R
 MSD=6.830e-09\RMSF=2.569e-06\Dipole=-0.0009233,-0.5976811,0.\PG=CS [SG
 (H1N1),X(H2)]\\@
 The archive entry for this job was punched.


 BREAD HAS TO MOLD IN ORDER TO GET PENICILLIN.
          -- JERRY BOATZ
 Job cpu time:       0 days  0 hours  9 minutes 59.1 seconds.
 Elapsed time:       0 days  0 hours  0 minutes 45.3 seconds.
 File lengths (MBytes):  RWF=     10 Int=      0 D2E=      0 Chk=      2 Scr=      1
 Normal termination of Gaussian 16 at Sun Jun  8 19:19:14 2025.
 Link1:  Proceeding to internal job step number  2.
 ----------------------------------------------------------------------
 #N Geom=AllCheck Guess=TCheck SCRF=Check GenChk RMP2(FC)/Aug-CC-pVTZ F
 req
 ----------------------------------------------------------------------
 1/7=10,10=4,29=7,30=1,38=21,40=1,80=1/1,6,3;
 2/12=2,40=1/2;
 3/5=16,6=1,7=10,11=1,14=-4,25=1,30=1,70=2,71=2,116=1,140=1/1,2,3;
 4/5=101,69=2/1;
 5/5=2,38=6,98=1/2;
 8/6=3,8=1,10=1,19=11,30=-1/1;
 9/15=3,16=-3/6;
 11/6=1,8=1,15=11,17=12,24=-1,27=1,28=-2,29=300,32=6,42=3/1,2,10;
 10/6=2,21=1,60=-2/2;
 8/6=4,8=1,10=1,19=11,30=-1/11,4;
 10/5=1,20=4,60=-2/2;
 11/12=2,14=11,16=1,17=2,28=-2,42=3,76=2/2,10,12;
 6/7=2,8=2,9=2,10=2,22=-1/1;
 7/10=1,12=2,25=1,44=2,70=1,71=2/1,2,3,16;
 1/7=10,38=20,80=1/6(3);
 7/8=1,25=202,44=-1,70=1,71=1,92=10/16,17;
 1/7=10,10=4,30=1,38=20,80=1/3;
 99//99;
 3/5=16,6=1,7=10,11=1,14=-2,25=1,30=1,70=5,71=2,116=1,140=1/1,2,3;
 4/5=5,16=3,69=2/1;
 5/5=2,38=5,98=1/2;
 8/6=3,8=1,10=1,19=11,30=-1/1;
 9/15=3,16=-3/6;
 11/6=1,8=1,15=11,17=12,24=-1,27=1,28=-2,29=300,32=6,42=3/1,2,10;
 10/6=2,21=1,60=-2/2;
 8/6=4,8=1,10=1,19=11,30=-1/11,4;
 10/5=1,20=4,60=-2/2;
 11/12=2,14=11,16=1,17=2,28=-2,42=3,76=2/2,10,12;
 6/7=2,8=2,9=2,10=2,22=-1/1;
 7/7=1,10=1,12=2,25=1,44=2,70=1,71=1/1,2,3,16;
 1/7=10,38=20,80=1/6(-12);
 7/8=1,25=202,44=-1,70=1,71=1,92=10/16,17;
 1/7=10,10=4,30=1,38=20,80=1/3;
 99//99;
 Structure from the checkpoint file:  "/scr/Gau-86571.chk"
 ----
 blah
 ----
 Charge =  0 Multiplicity = 1
 Redundant internal coordinates found in file.  (old form).
 N,0,0.0004473641,0.1142409201,0.
 H,0,-0.9382138925,-0.2643116022,0.
 H,0,0.4688951277,-0.2664800532,0.8123979149
 H,0,0.4688951276,-0.2664800532,-0.8123979149
 Recover connectivity data from disk.
 Numerical evaluation of third derivatives.
 Nuclear step= 0.010000 Angstroms, electric field step= 0.000333 atomic units, NStep=1.

 GradGradGradGradGradGradGradGradGradGradGradGradGradGradGradGradGradGrad
 Berny optimization.
 Initialization pass.
                           ----------------------------
                           !    Initial Parameters    !
                           ! (Angstroms and Degrees)  !
 --------------------------                            --------------------------
 ! Name  Definition              Value          Derivative Info.                !
 --------------------------------------------------------------------------------
 ! R1    R(1,2)                  1.0121         calculate D2E/DX2 analytically  !
 ! R2    R(1,3)                  1.0121         calculate D2E/DX2 analytically  !
 ! R3    R(1,4)                  1.0121         calculate D2E/DX2 analytically  !
 ! A1    A(2,1,3)              106.7714         calculate D2E/DX2 analytically  !
 ! A2    A(2,1,4)              106.7714         calculate D2E/DX2 analytically  !
 ! A3    A(3,1,4)              106.7719         calculate D2E/DX2 analytically  !
 ! D1    D(2,1,4,3)           -113.9283         calculate D2E/DX2 analytically  !
 --------------------------------------------------------------------------------
 Trust Radius=3.00D-01 FncErr=1.00D-07 GrdErr=1.00D-07 EigMax=2.50D+02 EigMin=1.00D-04
 Number of steps in this run=      2 maximum allowed number of steps=      2.
 GradGradGradGradGradGradGradGradGradGradGradGradGradGradGradGradGradGrad

                          Input orientation:                          
 ---------------------------------------------------------------------
 Center     Atomic      Atomic             Coordinates (Angstroms)
 Number     Number       Type             X           Y           Z
 ---------------------------------------------------------------------
      1          7           0        0.000447    0.114241   -0.000000
      2          1           0       -0.938214   -0.264312    0.000000
      3          1           0        0.468895   -0.266480    0.812398
      4          1           0        0.468895   -0.266480   -0.812398
 ---------------------------------------------------------------------
                    Distance matrix (angstroms):
                    1          2          3          4
     1  N    0.000000
     2  H    1.012120   0.000000
     3  H    1.012118   1.624793   0.000000
     4  H    1.012118   1.624793   1.624796   0.000000
 Stoichiometry    H3N
 Framework group  CS[SG(HN),X(H2)]
 Deg. of freedom     4
 Full point group                 CS      NOp   2
 Largest Abelian subgroup         CS      NOp   2
 Largest concise Abelian subgroup CS      NOp   2
                         Standard orientation:                         
 ---------------------------------------------------------------------
 Center     Atomic      Atomic             Coordinates (Angstroms)
 Number     Number       Type             X           Y           Z
 ---------------------------------------------------------------------
      1          7           0        0.000000    0.114000    0.000000
      2          1           0       -0.938074   -0.266006   -0.000000
      3          1           0        0.469037   -0.265995    0.812398
      4          1           0        0.469037   -0.265995   -0.812398
 ---------------------------------------------------------------------
 Rotational constants (GHZ):         299.1536584         299.1523949         189.9483956
 Standard basis: Aug-CC-pVTZ (5D, 7F)
 There are    80 symmetry adapted cartesian basis functions of A'  symmetry.
 There are    50 symmetry adapted cartesian basis functions of A"  symmetry.
 There are    69 symmetry adapted basis functions of A'  symmetry.
 There are    46 symmetry adapted basis functions of A"  symmetry.
   115 basis functions,   153 primitive gaussians,   130 cartesian basis functions
     5 alpha electrons        5 beta electrons
       nuclear repulsion energy        11.9567315709 Hartrees.
 NAtoms=    4 NActive=    4 NUniq=    3 SFac= 1.78D+00 NAtFMM=   60 NAOKFM=F Big=F
 Integral buffers will be    131072 words long.
 Raffenetti 1 integral format.
 Two-electron integral symmetry is turned on.
 One-electron integrals computed using PRISM.
 NBasis=   115 RedAO= T EigKep=  2.70D-04  NBF=    69    46
 NBsUse=   115 1.00D-06 EigRej= -1.00D+00 NBFU=    69    46
 Initial guess from the checkpoint file:  "/scr/Gau-86571.chk"
 B after Tr=     0.000000    0.000000   -0.000000
         Rot=    1.000000    0.000000   -0.000000   -0.000000 Ang=   0.00 deg.
 Initial guess orbital symmetries:
       Occupied  (A') (A') (A") (A') (A')
       Virtual   (A') (A") (A') (A') (A') (A') (A") (A') (A") (A")
                 (A') (A') (A") (A') (A") (A') (A') (A') (A") (A')
                 (A") (A') (A") (A') (A') (A') (A") (A') (A') (A")
                 (A") (A') (A') (A") (A') (A') (A") (A") (A") (A')
                 (A") (A') (A') (A") (A') (A') (A") (A') (A') (A")
                 (A') (A") (A') (A") (A') (A') (A') (A") (A') (A")
                 (A') (A") (A") (A') (A') (A") (A') (A') (A') (A")
                 (A") (A') (A') (A") (A') (A") (A") (A") (A') (A')
                 (A") (A') (A') (A') (A") (A') (A') (A") (A") (A')
                 (A") (A') (A') (A") (A') (A') (A") (A') (A') (A")
                 (A') (A') (A") (A") (A') (A') (A") (A") (A') (A')
 Keep R1 ints in memory in symmetry-blocked form, NReq=33414941.
 Requested convergence on RMS density matrix=1.00D-08 within 128 cycles.
 Requested convergence on MAX density matrix=1.00D-06.
 Requested convergence on             energy=1.00D-06.
 No special actions if energy rises.
 SCF Done:  E(RHF) =  -56.2203246159     A.U. after    1 cycles
            NFock=  1  Conv=0.18D-08     -V/T= 2.0016
 ExpMin= 2.53D-02 ExpMax= 1.14D+04 ExpMxC= 3.89D+02 IAcc=3 IRadAn=         5 AccDes= 0.00D+00
 HarFok:  IExCor=  205 AccDes= 0.00D+00 IRadAn=         5 IDoV=-2 UseB2=F ITyADJ=14
 ICtDFT= 12500011 ScaDFX=  1.000000  1.000000  1.000000  1.000000
 Range of M.O.s used for correlation:     2   115
 NBasis=   115 NAE=     5 NBE=     5 NFC=     1 NFV=     0
 NROrb=    114 NOA=     4 NOB=     4 NVA=   110 NVB=   110

 **** Warning!!: The largest alpha MO coefficient is  0.18342225D+02

 Disk-based method using ON**2 memory for  4 occupieds at a time.
 Permanent disk used for amplitudes=      362450 words.
 Estimated scratch disk usage=    11193890 words.
 Actual    scratch disk usage=    11193890 words.
 JobTyp=1 Pass  1:  I=   2 to   5 NPSUse= 20 ParTrn=T ParDer=T DoDerP=T.
 (rs|ai) integrals will be sorted in core.
 Spin components of T(2) and E(2):
     alpha-alpha T2 =       0.7904668479D-02 E2=     -0.2655786956D-01
     alpha-beta  T2 =       0.5107418136D-01 E2=     -0.1871005209D+00
     beta-beta   T2 =       0.7904668479D-02 E2=     -0.2655786956D-01
 ANorm=    0.1032900537D+01
 E2 =    -0.2402162601D+00 EUMP2 =    -0.56460540875926D+02
 G2DrvN: will do     5 centers at a time, making    1 passes.
 Calling FoFCou, ICntrl=  3107 FMM=F I1Cent=   0 AccDes= 0.00D+00.
 End of G2Drv F.D. properties file   721 does not exist.
 End of G2Drv F.D. properties file   722 does not exist.
 End of G2Drv F.D. properties file   788 does not exist.
          IDoAtm=1111
          Differentiating once with respect to electric field.
                with respect to dipole field.
          Differentiating once with respect to nuclear coordinates.
 Keep R1 ints in memory in symmetry-blocked form, NReq=33415829.
          There are    15 degrees of freedom in the 1st order CPHF.  IDoFFX=6 NUNeed=    15.
     12 vectors produced by pass  0 Test12= 3.67D-15 6.67D-09 XBig12= 3.20D+00 7.74D-01.
 AX will form    12 AO Fock derivatives at one time.
     12 vectors produced by pass  1 Test12= 3.67D-15 6.67D-09 XBig12= 1.59D-01 1.60D-01.
     12 vectors produced by pass  2 Test12= 3.67D-15 6.67D-09 XBig12= 3.24D-03 1.79D-02.
     12 vectors produced by pass  3 Test12= 3.67D-15 6.67D-09 XBig12= 3.83D-05 2.24D-03.
     12 vectors produced by pass  4 Test12= 3.67D-15 6.67D-09 XBig12= 2.65D-07 1.86D-04.
     12 vectors produced by pass  5 Test12= 3.67D-15 6.67D-09 XBig12= 1.90D-09 1.00D-05.
      7 vectors produced by pass  6 Test12= 3.67D-15 6.67D-09 XBig12= 9.96D-12 1.12D-06.
      3 vectors produced by pass  7 Test12= 3.67D-15 6.67D-09 XBig12= 6.40D-14 9.52D-08.
 InvSVY:  IOpt=1 It=  1 EMax= 8.88D-16
 Solved reduced A of dimension    82 with    12 vectors.
 End of Minotr F.D. properties file   721 does not exist.
 End of Minotr F.D. properties file   722 does not exist.
 End of Minotr F.D. properties file   788 does not exist.
 MDV=  6710886400.
 Form MO integral derivatives with frozen-active canonical formalism.
 Discarding MO integrals.
 Reordered first order wavefunction length =       605000
 In DefCFB: NBatch=  1 ICI=  5 ICA=110 LFMax= 55
            Large arrays: LIAPS=    32890000 LIARS=    27527500 words.
 Semi-Direct transformation.
 ModeAB=           4 MOrb=             5 LenV=    6710386175
 LASXX=      3665255 LTotXX=     3665255 LenRXX=     7425555
 LTotAB=     3760300 MaxLAS=     3538550 LenRXY=           0
 NonZer=    11090810 LenScr=    17381376 LnRSAI=     3538550
 LnScr1=     6062080 LExtra=           0 Total=     34407561
 MaxDsk=          -1 SrtSym=           T ITran=            4
 JobTyp=0 Pass  1:  I=   1 to   5.
 (rs|ai) integrals will be sorted in core.
 Spin components of T(2) and E(2):
     alpha-alpha T2 =       0.7904668479D-02 E2=     -0.2655786956D-01
     alpha-beta  T2 =       0.5107418136D-01 E2=     -0.1871005209D+00
     beta-beta   T2 =       0.7904668479D-02 E2=     -0.2655786956D-01
 ANorm=    0.1460741947D+01
 E2 =    -0.2402162601D+00 EUMP2 =    -0.56460540875926D+02
          IDoAtm=1111
          Differentiating once with respect to electric field.
                with respect to dipole field.
          Differentiating once with respect to nuclear coordinates.
          There are     1 degrees of freedom in the 1st order CPHF.  IDoFFX=0 NUNeed=     1.
 LinEq1:  Iter=  0 NonCon=     1 RMS=3.39D-03 Max=3.57D-02 NDo=     1
 LinEq1:  Iter=  1 NonCon=     1 RMS=1.10D-03 Max=1.05D-02 NDo=     1
 LinEq1:  Iter=  2 NonCon=     1 RMS=4.08D-04 Max=3.46D-03 NDo=     1
 LinEq1:  Iter=  3 NonCon=     1 RMS=4.60D-05 Max=2.92D-04 NDo=     1
 LinEq1:  Iter=  4 NonCon=     1 RMS=8.69D-06 Max=7.28D-05 NDo=     1
 LinEq1:  Iter=  5 NonCon=     1 RMS=1.68D-06 Max=1.54D-05 NDo=     1
 LinEq1:  Iter=  6 NonCon=     1 RMS=2.40D-07 Max=2.13D-06 NDo=     1
 LinEq1:  Iter=  7 NonCon=     1 RMS=2.63D-08 Max=1.81D-07 NDo=     1
 LinEq1:  Iter=  8 NonCon=     1 RMS=2.86D-09 Max=2.22D-08 NDo=     1
 LinEq1:  Iter=  9 NonCon=     1 RMS=2.42D-10 Max=1.69D-09 NDo=     1
 LinEq1:  Iter= 10 NonCon=     0 RMS=2.20D-11 Max=1.51D-10 NDo=     1
 Linear equations converged to 1.000D-10 1.000D-09 after    10 iterations.
 End of Minotr F.D. properties file   721 does not exist.
 End of Minotr F.D. properties file   722 does not exist.
 End of Minotr F.D. properties file   788 does not exist.
 Symmetrizing basis deriv contribution to polar:
 IMax=3 JMax=2 DiffMx= 0.00D+00
 G2DrvN: will do     5 centers at a time, making    1 passes.
 Calling FoFCou, ICntrl=  3107 FMM=F I1Cent=   0 AccDes= 0.00D+00.
 End of G2Drv F.D. properties file   721 does not exist.
 End of G2Drv F.D. properties file   722 does not exist.
 End of G2Drv F.D. properties file   788 does not exist.
 R2 and R3 integrals will be kept in memory, NReq=    74453740.
 DD1Dir will call FoFMem   1 times, MxPair=        30
 NAB=    15 NAA=     0 NBB=     0.
 Discarding MO integrals.

 **********************************************************************

            Population analysis using the MP2 Density.

 **********************************************************************

 Orbital symmetries:
       Occupied  (A') (A') (A") (A') (A')
       Virtual   (A') (A") (A') (A') (A') (A') (A") (A') (A") (A")
                 (A') (A') (A") (A') (A") (A') (A') (A') (A") (A')
                 (A") (A') (A") (A') (A') (A') (A") (A') (A') (A")
                 (A") (A') (A') (A") (A') (A') (A") (A") (A") (A')
                 (A") (A') (A') (A") (A') (A') (A") (A') (A') (A")
                 (A') (A") (A') (A") (A') (A') (A') (A") (A') (A")
                 (A') (A") (A") (A') (A') (A") (A') (A') (A') (A")
                 (A") (A') (A') (A") (A') (A") (A") (A") (A') (A')
                 (A") (A') (A') (A') (A") (A') (A') (A") (A") (A')
                 (A") (A') (A') (A") (A') (A') (A") (A') (A') (A")
                 (A') (A') (A") (A") (A') (A') (A") (A") (A') (A')
 The electronic state is 1-A'.
 Alpha  occ. eigenvalues --  -15.54172  -1.14244  -0.62884  -0.62883  -0.42933
 Alpha virt. eigenvalues --    0.02954   0.04868   0.04868   0.11788   0.15244
 Alpha virt. eigenvalues --    0.16233   0.16233   0.22147   0.22147   0.23538
 Alpha virt. eigenvalues --    0.23538   0.25459   0.35597   0.35801   0.37067
 Alpha virt. eigenvalues --    0.37067   0.42820   0.46087   0.46087   0.48688
 Alpha virt. eigenvalues --    0.48688   0.56359   0.60217   0.60217   0.74923
 Alpha virt. eigenvalues --    0.78622   0.78623   0.81105   0.88331   0.90238
 Alpha virt. eigenvalues --    0.91455   0.91455   0.98080   0.98080   1.03491
 Alpha virt. eigenvalues --    1.03557   1.03557   1.08128   1.10385   1.10385
 Alpha virt. eigenvalues --    1.14210   1.14210   1.18554   1.21925   1.21925
 Alpha virt. eigenvalues --    1.32187   1.36311   1.36311   1.61658   1.75892
 Alpha virt. eigenvalues --    1.75892   1.76238   1.86442   1.86457   1.86457
 Alpha virt. eigenvalues --    2.00332   2.04104   2.04105   2.04919   2.04919
 Alpha virt. eigenvalues --    2.27129   2.34433   2.37348   2.37348   2.43663
 Alpha virt. eigenvalues --    2.43664   2.47393   3.38891   3.56134   3.56134
 Alpha virt. eigenvalues --    3.96961   3.96961   4.04295   4.14080   4.14081
 Alpha virt. eigenvalues --    4.21423   4.21974   4.26004   4.26005   4.32338
 Alpha virt. eigenvalues --    4.35974   4.35974   4.47189   4.54951   4.54951
 Alpha virt. eigenvalues --    4.69084   4.74610   4.74611   4.93957   4.93957
 Alpha virt. eigenvalues --    4.98241   5.06326   5.06338   5.06338   5.25187
 Alpha virt. eigenvalues --    5.67099   5.67100   5.73179   5.89889   5.89889
 Alpha virt. eigenvalues --    6.06052   6.32405   6.32406   6.42724   6.63095
 Alpha virt. eigenvalues --    6.93827   6.93828   7.68699   7.68699  17.24563
          Condensed to atoms (all electrons):
               1          2          3          4
     1  N    6.752497   0.284196   0.284197   0.284197
     2  H    0.284196   0.522819  -0.004355  -0.004355
     3  H    0.284197  -0.004355   0.522819  -0.004355
     4  H    0.284197  -0.004355  -0.004355   0.522819
 Mulliken charges:
               1
     1  N   -0.605086
     2  H    0.201696
     3  H    0.201695
     4  H    0.201695
 Sum of Mulliken charges =   0.00000
 Mulliken charges with hydrogens summed into heavy atoms:
               1
     1  N    0.000000
 APT charges:
               1
     1  N   -0.434487
     2  H    0.144829
     3  H    0.144829
     4  H    0.144829
 Sum of APT charges =   0.00000
 APT charges with hydrogens summed into heavy atoms:
               1
     1  N    0.000000
 Electronic spatial extent (au):  <R**2>=             27.0912
 Charge=              0.0000 electrons
 Dipole moment (field-independent basis, Debye):
    X=              0.0000    Y=             -1.5192    Z=             -0.0000  Tot=              1.5192
 Quadrupole moment (field-independent basis, Debye-Ang):
   XX=             -6.3839   YY=             -9.5340   ZZ=             -6.3839
   XY=              0.0000   XZ=             -0.0000   YZ=              0.0000
 Traceless Quadrupole moment (field-independent basis, Debye-Ang):
   XX=              1.0500   YY=             -2.1000   ZZ=              1.0500
   XY=              0.0000   XZ=             -0.0000   YZ=              0.0000
 Octapole moment (field-independent basis, Debye-Ang**2):
  XXX=             -0.9732  YYY=             -1.1845  ZZZ=             -0.0000  XYY=             -0.0000
  XXY=             -0.8624  XXZ=             -0.0000  XZZ=              0.9732  YZZ=             -0.8624
  YYZ=             -0.0000  XYZ=              0.0000
[...]
      5(1)        4(1)      4687.308   4462.274                      1.44193040
      6(1)        1(1)      5318.791   5086.387                      0.84509053
      6(1)        2(1)      5171.822   4977.913                      0.03895209
      6(1)        3(1)      3337.791   3232.248                      0.54448119
      6(1)        4(1)      2706.293   2573.343                      0.00001503
      6(1)        5(1)      5318.812   5094.980                      0.84826957


 GradGradGradGradGradGradGradGradGradGradGradGradGradGradGradGradGradGrad
 Berny optimization.
 Internal  Forces:  Max     0.000003291 RMS     0.000002039
 Search for a local minimum.
 Step number   1 out of a maximum of    2
 All quantities printed in internal units (Hartrees-Bohrs-Radians)
 Second derivative matrix not updated -- analytic derivatives used.
 The second derivative matrix:
                          R1        R2        R3        A1        A2
           R1           0.46329
           R2          -0.00356   0.46330
           R3          -0.00356  -0.00356   0.46330
           A1           0.00832   0.00832  -0.00838   0.05282
           A2           0.02007  -0.00324   0.02275  -0.04139   0.13075
           A3          -0.00324   0.02007   0.02275  -0.04139  -0.02164
           D1          -0.01730  -0.01730  -0.01151  -0.02199  -0.00327
                          A3        D1
           A3           0.13075
           D1          -0.00327   0.02815
 ITU=  0
     Eigenvalues ---    0.04054   0.14341   0.15067   0.46066   0.46852
     Eigenvalues ---    0.46857
 Angle between quadratic step and forces=  31.90 degrees.
 Linear search not attempted -- first point.
 Iteration  1 RMS(Cart)=  0.00002351 RMS(Int)=  0.00000000
 Iteration  2 RMS(Cart)=  0.00000000 RMS(Int)=  0.00000000
 ClnCor:  largest displacement from symmetrization is 1.85D-10 for atom     4.
 Variable       Old X    -DE/DX   Delta X   Delta X   Delta X     New X
                                 (Linear)    (Quad)   (Total)
    R1        1.91263  -0.00000   0.00000   0.00000   0.00000   1.91263
    R2        1.91263   0.00000   0.00000   0.00001   0.00001   1.91263
    R3        1.91263   0.00000   0.00000   0.00001   0.00001   1.91263
    A1        1.86351  -0.00000   0.00000  -0.00003  -0.00003   1.86348
    A2        1.86351  -0.00000   0.00000  -0.00003  -0.00003   1.86348
    A3        1.86352  -0.00000   0.00000  -0.00004  -0.00004   1.86348
    D1       -1.98842   0.00000   0.00000   0.00007   0.00007  -1.98835
         Item               Value     Threshold  Converged?
 Maximum Force            0.000003     0.000015     YES
 RMS     Force            0.000002     0.000010     YES
 Maximum Displacement     0.000047     0.000060     YES
 RMS     Displacement     0.000024     0.000040     YES
 Predicted change in Energy=-2.261824D-10
 Optimization completed.
    -- Stationary point found.
                           ----------------------------
                           !   Optimized Parameters   !
                           ! (Angstroms and Degrees)  !
 --------------------------                            --------------------------
 ! Name  Definition              Value          Derivative Info.                !
 --------------------------------------------------------------------------------
 ! R1    R(1,2)                  1.0121         -DE/DX =    0.0                 !
 ! R2    R(1,3)                  1.0121         -DE/DX =    0.0                 !
 ! R3    R(1,4)                  1.0121         -DE/DX =    0.0                 !
 ! A1    A(2,1,3)              106.7714         -DE/DX =    0.0                 !
 ! A2    A(2,1,4)              106.7714         -DE/DX =    0.0                 !
 ! A3    A(3,1,4)              106.7719         -DE/DX =    0.0                 !
 ! D1    D(2,1,4,3)           -113.9283         -DE/DX =    0.0                 !
 --------------------------------------------------------------------------------
 GradGradGradGradGradGradGradGradGradGradGradGradGradGradGradGradGradGrad


 ----------------------------------------------------------------------

 Electric dipole moment (input orientation):
 (Debye = 10**-18 statcoulomb cm , SI units = C m)
                  (au)            (Debye)         (10**-30 SI)
   Tot        0.597681D+00      0.151915D+01      0.506735D+01
   x         -0.923358D-03     -0.234694D-02     -0.782856D-02
   y         -0.597681D+00     -0.151915D+01     -0.506735D+01
   z          0.000000D+00      0.000000D+00      0.000000D+00

 Dipole polarizability, Alpha (input orientation).
 (esu units = cm**3 , SI units = C**2 m**2 J**-1)
 Alpha(0;0):
               (au)            (10**-24 esu)      (10**-40 SI)
   iso        0.141895D+02      0.210267D+01      0.233954D+01
   aniso      0.166953D+01      0.247399D+00      0.275268D+00
   xx         0.136330D+02      0.202021D+01      0.224778D+01
   yx         0.258729D-02      0.383396D-03      0.426586D-03
   yy         0.153025D+02      0.226760D+01      0.252305D+01
   zx         0.000000D+00      0.000000D+00      0.000000D+00
   zy         0.000000D+00      0.000000D+00      0.000000D+00
   zz         0.136330D+02      0.202020D+01      0.224778D+01

 ----------------------------------------------------------------------

 Dipole orientation:
     7          0.00051187         -0.00000079         -0.21588510
     1         -1.77219143          0.00273786          0.50221500
     1          0.88923097          1.53383762          0.50220481
     1          0.88448748         -1.53657784          0.50220481

 Electric dipole moment (dipole orientation):
 (Debye = 10**-18 statcoulomb cm , SI units = C m)
                  (au)            (Debye)         (10**-30 SI)
   Tot        0.597681D+00      0.151915D+01      0.506735D+01
   x          0.000000D+00      0.000000D+00      0.000000D+00
   y          0.000000D+00      0.000000D+00      0.000000D+00
   z          0.597681D+00      0.151915D+01      0.506735D+01

 Dipole polarizability, Alpha (dipole orientation).
 (esu units = cm**3 , SI units = C**2 m**2 J**-1)
 Alpha(0;0):
               (au)            (10**-24 esu)      (10**-40 SI)
   iso        0.141895D+02      0.210267D+01      0.233954D+01
   aniso      0.166953D+01      0.247399D+00      0.275268D+00
   xx         0.136330D+02      0.202021D+01      0.224778D+01
   yx         0.000000D+00      0.000000D+00      0.000000D+00
   yy         0.136330D+02      0.202020D+01      0.224778D+01
   zx         0.000000D+00      0.000000D+00      0.000000D+00
   zy         0.000000D+00      0.000000D+00      0.000000D+00
   zz         0.153025D+02      0.226760D+01      0.252305D+01

 ----------------------------------------------------------------------
 Unable to Open any file for archive entry.
 1\1\GINC-N3462\Freq\RMP2-FC\Aug-CC-pVTZ\H3N1\GDS001\08-Jun-2025\0\\#N 
 Geom=AllCheck Guess=TCheck SCRF=Check GenChk RMP2(FC)/Aug-CC-pVTZ Freq
 \\blah\\0,1\N,0.0004473641,0.1142409201,0.\H,-0.9382138925,-0.26431160
 22,-0.0000000001\H,0.4688951277,-0.2664800532,0.8123979149\H,0.4688951
 278,-0.2664800532,-0.8123979148\\Version=EM64L-G16RevC.01\State=1-A'\H
 F=-56.2203246\MP2=-56.4605409\RMSD=1.833e-09\RMSF=2.578e-06\ZeroPoint=
 0.0345778\Thermal=0.0374471\ETot=-56.4230938\HTot=-56.4221496\GTot=-56
 .4450244\Dipole=-0.0009234,-0.5976806,0.\DipoleDeriv=-0.3859223,-0.000
 2248,0.,-0.0002239,-0.531615,0.,0.,0.,-0.3859245,0.1099763,-0.1045682,
 0.,-0.1204482,0.1775519,0.,0.,0.,0.1469574,0.137973,0.0523965,-0.01570
 11,0.0603361,0.1770316,0.1044242,-0.0157228,0.0906734,0.1194835,0.1379
 73,0.0523965,0.0157011,0.0603361,0.1770316,-0.1044242,0.0157228,-0.090
 6734,0.1194835\Polar=13.6330247,0.0025873,15.3025412,0.,0.,13.6330099\
 Quadrupole=0.7806474,-1.5613162,0.7806687,-0.0036079,0.,0.\PG=CS [SG(H
 1N1),X(H2)]\NImag=0\\0.65650429,-0.00068112,0.21643796,0.,0.,0.6565163
 7,-0.37908639,-0.12034730,0.,0.41248398,-0.17682190,-0.07168665,0.,0.1
 4199968,0.07148969,0.,0.,-0.05904291,0.,0.,0.05855226,-0.13870895,0.06
 051421,-0.13814976,-0.01669879,0.01741111,-0.03368451,0.14670547,0.088
 75151,-0.07237565,0.15375800,-0.01082619,0.00009848,-0.01375731,-0.071
 37877,0.07214855,-0.13822515,0.10484945,-0.29873673,0.00430157,0.00248
 694,0.00024532,0.15287893,-0.12366854,0.32367691,-0.13870895,0.0605142
 1,0.13814976,-0.01669879,0.01741111,0.03368451,0.00870228,-0.00654655,
 -0.01895535,0.14670547,0.08875151,-0.07237565,-0.15375800,-0.01082619,
 0.00009848,0.01375731,-0.00654655,0.00012862,0.01633215,-0.07137877,0.
 07214855,0.13822515,-0.10484945,-0.29873673,-0.00430157,-0.00248694,0.
 00024532,0.01895535,-0.01633215,-0.02518550,-0.15287893,0.12366854,0.3
 2367691\\0.00000254,-0.00000725,0.,-0.00000084,0.00000173,0.,-0.000000
 85,0.00000276,-0.00000043,-0.00000085,0.00000276,0.00000043\\0.2839312
 3,-0.00093467,-0.32410947,0.,0.,0.28393631,-0.16934536,0.04643406,0.,0
 .13754084,0.06771830,0.10785930,0.,-0.05849306,-0.09609673,0.,0.,-0.01
 976746,0.,0.,0.00275945,-0.05729294,-0.02274969,-0.06493559,0.01590226
 ,-0.00461262,0.00586262,0.03658927,-0.03339182,0.10812509,-0.05817815,
 0.00602950,-0.00588129,0.00177780,0.02886280,-0.09636902,-0.06490739,-
 0.03974507,-0.13208443,0.00694373,-0.00436806,0.00850401,0.05851832,0.
 05025674,0.10398212,-0.05729294,-0.02274969,0.06493559,0.01590226,-0.0
 0461262,-0.00586262,0.00480141,-0.00150049,-0.00055466,0.03658927,-0.0
 3339181,0.10812509,0.05817815,0.00602950,-0.00588129,-0.00177780,-0.00
 150049,-0.00587478,-0.00614361,0.02886280,-0.09636902,0.06490739,0.039
 74507,-0.13208443,-0.00694373,0.00436806,0.00850401,0.00055466,0.00614
 361,0.01959830,-0.05851832,-0.05025674,0.10398212,0.27604553,-0.050827
 27,0.00015367,-0.00000011,-0.00000002,-0.27617643,-0.09283189,0.011770
 18,0.00000005,0.06001558,0.00807103,0.03650194,0.,-0.01704970,-0.02217
 947,0.00000005,0.,0.00473908,-0.00000004,-0.00000002,-0.01998974,-0.09
 160679,0.01952854,-0.03958520,0.01640814,0.00448933,0.01107843,0.07679
 341,0.02137812,-0.01832782,-0.00766878,0.00263976,-0.00716123,-0.00611
 816,-0.03880738,0.01123337,-0.03537771,-0.00447363,0.13571868,0.009676
 84,-0.00680869,0.00762533,0.02710382,0.01253463,-0.09694374,-0.0916068
 5,0.01952855,0.03958526,0.01640816,0.00448934,-0.01107844,-0.00159476,
 0.01478950,-0.00140295,0.07679344,0.02137813,-0.01832780,0.00766879,0.
 00263976,-0.00716124,0.00611817,0.01478950,0.01425568,-0.00125231,-0.0
 3880739,0.01123336,0.03537776,0.00447364,0.13571868,-0.00967685,0.0068
 0870,0.00762533,0.00140295,0.00125231,-0.04640027,-0.02710386,-0.01253
 465,-0.09694374,-0.00000011,0.00000002,0.,-0.27626389,-0.04997462,0.00
 000010,0.00000003,0.,0.13292923,-0.00000002,0.,-0.00000002,0.02551668,
 0.,0.00000001,0.13777509,0.02181263,0.,-0.10262342,-0.04580391,0.00000
 001,0.07561265,-0.00469652,0.07166735,-0.03121104,-0.00710031,-0.01757
 584,-0.04440162,-0.00790079,-0.03161814,0.01222897,-0.00565752,0.01240
 476,0.01199564,0.01267757,0.01921339,0.06924441,0.01408100,0.00067880,
 -0.01515291,0.01014361,-0.01041451,-0.05570238,-0.02409994,0.00973570,
 -0.07561258,0.00469651,0.07166732,0.03121103,0.00710031,-0.01757583,0.
 ,0.00088073,0.00161088,0.04440156,0.00790077,0.03161816,0.01222896,0.0
 0565752,-0.01240475,0.01199564,-0.00088074,0.,-0.00012467,-0.01267754,
 -0.01921340,0.06924439,0.01408099,-0.00067890,-0.01515290,0.01014361,0
 .01041451,0.00161088,-0.00012467,0.00000002,-0.05570236,-0.02409993,-0
 .00973563,0.98402498,-0.00133876,0.07586380,0.,0.,0.98389132,-0.737580
 05,-0.32912978,0.,0.76644709,-0.35827118,-0.02422862,0.,0.33962923,0.0
 0954376,0.,0.,0.08047562,0.,0.,-0.08588385,-0.12322247,0.16523427,-0.3
 5322555,-0.01443352,0.00932098,-0.03162681,0.12639165,0.17980497,-0.02
 581759,0.31171544,-0.00524972,0.00734243,-0.00762394,-0.17054614,0.011
 11474,-0.35326690,0.28648123,-0.53218347,0.00191905,0.00073654,0.00270
 412,0.36810011,-0.29565464,0.55249012,-0.12322246,0.16523427,0.3532255
 5,-0.01443352,0.00932098,0.03162681,0.01126433,-0.00400911,-0.01675226
 ,0.12639165,0.17980497,-0.02581759,-0.31171544,-0.00524972,0.00734243,
 0.00762394,-0.00400911,0.00736043,0.00843687,-0.17054614,0.01111474,0.
 35326690,-0.28648123,-0.53218347,-0.00191905,-0.00073654,0.00270412,0.
 01675226,-0.00843687,-0.02301077,-0.36810011,0.29565464,0.55249012,0.9
 8752152,0.79992885,-0.00250125,0.00000018,-0.00000015,-0.98500215,-1.1
 0304152,-0.52192560,0.,1.09664157,-0.54331692,-0.02861301,0.,0.5198631
 6,0.02521366,0.,0.,0.16807676,0.,0.,-0.15236249,0.05775997,-0.13900159
 ,0.28002522,0.00319997,0.01172688,-0.01429661,-0.05512060,-0.12830592,
 0.01555712,-0.24097157,0.00103122,0.00169968,0.00050853,0.12498036,-0.
 01380810,0.24981965,-0.22239635,0.40846257,-0.00421523,0.00424451,-0.0
 0785713,-0.25566652,0.22930744,-0.41580632,0.05776002,-0.13900167,-0.2
 8002539,0.00319998,0.01172688,0.01429660,-0.00583935,0.00229434,0.0100
 6210,-0.05512065,-0.12830601,0.01555713,0.24097172,0.00103122,0.001699
 67,-0.00050853,0.00229434,-0.00344870,-0.01115560,0.12498044,-0.013808
 11,-0.24981983,0.22239650,0.40846282,0.00421524,-0.00424451,-0.0078571
 4,-0.01006209,0.01115560,0.01520088,0.25566669,-0.22930758,-0.41580656
 ,0.00000018,0.00000014,0.,-0.98379224,0.80298087,-0.00000018,-0.000000
 20,-0.00000009,0.03944946,0.00000020,-0.00000010,0.,0.01057039,0.00000
 009,0.,0.00450491,-0.01076884,0.00000003,-0.03233885,-0.00719356,-0.00
 000003,0.13810725,-0.22221835,0.47217144,0.01331922,-0.00571422,0.0139
 1697,-0.15142647,-0.24074527,0.02692658,-0.40677567,0.01038914,-0.0029
 8699,0.00898120,0.22914435,-0.02393959,0.48964371,-0.39610605,0.669450
 08,-0.00355531,-0.00168841,-0.00521093,-0.47523646,0.39003319,-0.66423
 915,-0.13810723,0.22221830,0.47217134,-0.01331922,0.00571422,0.0139169
 7,0.,0.00121178,-0.01085194,0.15142644,0.24074523,-0.02692657,-0.40677
 559,-0.01038914,0.00298699,0.00898120,-0.00121178,0.,0.00776128,-0.229
 14431,0.02393958,0.48964362,-0.39610597,-0.66944993,-0.00355531,-0.001
 68842,0.00521093,-0.01085194,0.00776128,0.,-0.47523637,0.39003311,0.66
 423900,-0.34393942,0.00028778,-0.16614819,0.00000012,0.00000004,-0.343
 98128,0.24482863,0.19791025,-0.00000009,-0.23984203,0.26904686,0.05466
 098,0.,-0.21982306,-0.02907639,-0.00000004,-0.00000001,-0.01481623,0.0
 0000007,0.00000001,0.01571310,0.04955538,-0.09909904,0.11176796,-0.002
 49328,-0.02461190,0.00592538,-0.04766723,-0.13466729,0.05574363,-0.233
 43856,0.01095641,-0.01279228,0.02205788,0.11010680,-0.03009473,0.11186
 227,-0.17183252,0.17939879,-0.00939545,0.00154531,-0.00044843,-0.11008
 009,0.19083392,-0.17546239,0.04955542,-0.09909899,-0.11176800,-0.00249
 332,-0.02461190,-0.00592541,0.00060513,0.01360406,0.00761328,-0.047667
 22,-0.13466736,0.05574360,0.23343852,0.01095639,-0.01279232,-0.0220578
 8,0.01360413,-0.01285661,-0.02054671,0.11010683,-0.03009466,-0.1118623
 5,0.17183250,0.17939873,0.00939548,-0.00154532,-0.00044844,-0.00761326
 ,0.02054676,-0.00348797,0.11008014,-0.19083393,-0.17546232,-0.25246241
 ,0.15247656,-0.14360638,0.00000009,-0.00000002,-0.57210535,0.03794632,
 0.02659870,0.00000004,-0.04956645,0.05055169,0.01891580,-0.00000005,-0
 .02082600,-0.02216258,0.00000005,0.,0.04500710,0.,0.,-0.01295448,0.107
 25817,-0.08953760,0.23467228,0.00580999,-0.01486284,0.00949173,-0.0928
 5263,-0.10151412,0.06234532,-0.17138060,-0.00288630,0.00162342,0.00052
 851,0.09347822,-0.06504589,0.17727443,-0.11717562,0.26354903,-0.011394
 45,-0.00302268,-0.01602630,-0.20502197,0.14552514,-0.23920583,0.107257
 92,-0.08953766,-0.23467241,0.00581014,-0.01486285,-0.00949178,-0.02021
 553,0.01092219,0.03914199,-0.09285254,-0.10151414,0.06234527,0.1713806
 8,-0.00288640,0.00162336,-0.00052850,0.01092221,0.00107716,-0.02532684
 ,0.09347833,-0.06504579,-0.17727456,0.11717565,0.26354923,0.01139440,0
 .00302274,-0.01602633,-0.03914204,0.02532694,-0.00831691,0.20502220,-0
 .14552533,-0.23920599,-0.57250323,-0.15161662,-0.14267271,-0.00000019,
 0.00000009,-0.25299908,0.52550478,0.18504319,-0.00000003,-0.49139499,0
 .24753306,0.07571766,0.00000001,-0.22235118,-0.07824435,-0.00000008,-0
 .00000004,-0.05767356,0.00000004,0.00000002,0.06841784,0.02349923,-0.0
 1671327,0.01408527,-0.01705486,-0.01259095,0.03939322,-0.00021089,-0.0
 4795827,0.03347754,-0.08779960,0.01865401,0.00126334,0.02203194,0.0284
 4937,-0.03649215,0.07160707,-0.06714647,0.15533657,-0.01984307,0.00075
 021,-0.00537215,-0.05262122,0.06608198,-0.15212822,0.02349923,-0.01671
 330,-0.01408505,-0.01705493,-0.01259093,-0.03939317,-0.00623348,0.0008
 5489,0.00085721,-0.00021081,-0.04795818,0.03347753,0.08779950,0.018653
 99,0.00126336,-0.02203191,0.00085485,0.00175127,0.00031429,0.02844934,
 -0.03649214,-0.07160680,0.06714642,0.15533608,0.01984306,-0.00075023,-
 0.00537212,-0.00085727,-0.00031432,0.00216381,0.05262101,-0.06608187,-
 0.15212776,1.52323408,-0.00228304,-0.11658735,0.00000008,0.00000001,1.
 52265922,-1.30352510,-0.63351017,-0.00000009,1.30061202,-0.68238046,0.
 04090437,0.00000003,0.65575032,-0.07002971,0.,0.00000001,0.28596004,0.
 ,0.,-0.30590627,-0.10985460,0.31789658,-0.68622328,0.00145658,0.013315
 07,-0.02814089,0.09417100,0.34233178,0.03784143,0.59359835,-0.01112011
 ,0.01456267,-0.00887263,-0.32906091,-0.06697362,-0.68629441,0.55128259
 ,-0.90430966,0.01336946,0.00516921,0.00997312,0.69364453,-0.57058875,0
 .89714797,-0.10985438,0.31789663,0.68622329,0.00145650,0.01331507,0.02
 814089,0.01422701,-0.00215076,-0.02071958,0.09417087,0.34233172,0.0378
 4155,-0.59359839,-0.01112004,0.01456267,0.00887262,-0.00215074,0.01456
 952,0.01413694,-0.32906094,-0.06697375,0.68629433,-0.55128262,-0.90430
 960,-0.01336938,-0.00516923,0.00997310,0.02071965,-0.01413698,-0.00281
 143,-0.69364460,0.57058883,0.89714792,2.80325342,1.18116090,-0.1386218
 5,-0.00000037,0.00000049,0.29197142,-2.78870707,-1.49766448,-0.0000000
 2,2.76931985,-1.51526658,0.10404314,-0.00000003,1.49209938,-0.10493034
 ,-0.00000005,0.,0.72560123,0.00000007,0.,-0.71044672,-0.00727315,0.158
 25166,-0.35085660,0.00969359,0.01158360,-0.00380043,-0.01090278,0.1670
 5271,0.01728937,0.33527832,0.00278260,0.00044362,0.00154490,-0.1709730
 4,-0.02590857,-0.34309544,0.31435780,-0.50878593,0.00029914,0.00463938
 ,-0.00757725,0.34872665,-0.32791023,0.51871855,-0.00727319,0.15825193,
 0.35085699,0.00969363,0.01158360,0.00380040,0.00848234,0.00113772,-0.0
 0593035,-0.01090279,0.16705296,0.01728936,-0.33527879,0.00278250,0.000
 44358,-0.00154490,0.00113779,0.00817559,0.00891305,-0.17097325,-0.0259
 0852,0.34309585,-0.31435830,-0.50878671,-0.00029920,-0.00463936,-0.007
 57727,0.00593038,-0.00891299,-0.00235538,-0.34872705,0.32791065,0.5187
 1936,0.28819619,-1.18644572,-0.13130997,0.00000059,-0.00000038,2.79975
 755,0.01561762,0.03287096,-0.00000008,-0.00321505,0.00873026,-0.009479
 20,-0.00000003,-0.00691074,-0.00178018,0.,-0.00000001,-0.01802232,0.,0
 .,-0.00389924,-0.15190689,0.57678750,-1.15243070,-0.00620127,-0.000909
 76,-0.00280337,0.16326440,0.58885788,0.07039467,0.97565352,-0.01298012
 ,0.00562970,-0.00796921,-0.57427144,-0.07392438,-1.16024401,0.96042028
 ,-1.39086793,0.00649918,0.00096456,0.01096080,1.15448949,-0.96453461,1
 .37400938,-0.15190692,0.57678726,1.15243019,-0.00620130,-0.00090976,0.
 00280336,-0.00515624,-0.00160632,-0.00074465,0.16326445,0.58885758,0.0
 7039451,-0.97565312,-0.01298010,0.00562969,0.00796923,-0.00160630,-0.0
 0209999,0.00314977,-0.57427118,-0.07392420,1.16024342,-0.96041989,-1.3
 9086730,-0.00649910,-0.00096454,0.01096077,0.00074458,-0.00314970,0.00
 589775,-1.15448890,0.96453412,1.37400878\\@
 The archive entry for this job was punched.


 IT IS A QUALITY OF REVOLUTIONS NOT TO GO BY OLD LINES OR OLD LAWS,
 BUT TO BREAK UP BOTH, AND MAKE NEW ONES.
                                              -- A. LINCOLN (1848)
 Job cpu time:       0 days  1 hours 46 minutes 21.8 seconds.
 Elapsed time:       0 days  0 hours  6 minutes 22.8 seconds.
 File lengths (MBytes):  RWF=    535 Int=      0 D2E=      0 Chk=     40 Scr=      1
 Normal termination of Gaussian 16 at Sun Jun  8 19:25:49 2025.
