 Entering Gaussian System, Link 0=g16
 Input=me2nh_mp2_avtz_opt_anharm.gjf
 Output=me2nh_mp2_avtz_opt_anharm.log
 Initial command:
 /sw/contrib/gaussian/g16/A03/g16/l1.exe "/gscratch/scrubbed/gds001/Gau-27136.inp" -scrdir="/gscratch/scrubbed/gds001/"
 Entering Link 1 = /sw/contrib/gaussian/g16/A03/g16/l1.exe PID=     27137.
  
 Copyright (c) 1988,1990,1992,1993,1995,1998,2003,2009,2016,
            Gaussian, Inc.  All Rights Reserved.
  
 This is part of the Gaussian(R) 16 program.  It is based on
 the Gaussian(R) 09 system (copyright 2009, Gaussian, Inc.),
 the Gaussian(R) 03 system (copyright 2003, Gaussian, Inc.),
 the Gaussian(R) 98 system (copyright 1998, Gaussian, Inc.),
 the Gaussian(R) 94 system (copyright 1995, Gaussian, Inc.),
 the Gaussian 92(TM) system (copyright 1992, Gaussian, Inc.),
 the Gaussian 90(TM) system (copyright 1990, Gaussian, Inc.),
 the Gaussian 88(TM) system (copyright 1988, Gaussian, Inc.),
 the Gaussian 86(TM) system (copyright 1986, Carnegie Mellon
 University), and the Gaussian 82(TM) system (copyright 1983,
 Carnegie Mellon University). Gaussian is a federally registered
 trademark of Gaussian, Inc.
  
 This software contains proprietary and confidential information,
 including trade secrets, belonging to Gaussian, Inc.
  
 This software is provided under written license and may be
 used, copied, transmitted, or stored only in accord with that
 written license.
  
 The following legend is applicable only to US Government
 contracts under FAR:
  
                    RESTRICTED RIGHTS LEGEND
  
 Use, reproduction and disclosure by the US Government is
 subject to restrictions as set forth in subparagraphs (a)
 and (c) of the Commercial Computer Software - Restricted
 Rights clause in FAR 52.227-19.
  
 Gaussian, Inc.
 340 Quinnipiac St., Bldg. 40, Wallingford CT 06492
  
  
 ---------------------------------------------------------------
 Warning -- This program may not be used in any manner that
 competes with the business of Gaussian, Inc. or will provide
 assistance to any competitor of Gaussian, Inc.  The licensee
 of this program is prohibited from giving any competitor of
 Gaussian, Inc. access to this program.  By using this program,
 the user acknowledges that Gaussian, Inc. is engaged in the
 business of creating and licensing software in the field of
 computational chemistry and represents and warrants to the
 licensee that it is not a competitor of Gaussian, Inc. and that
 it will not use this program in any manner prohibited above.
 ---------------------------------------------------------------
  

 Cite this work as:
 Gaussian 16, Revision A.03,
 M. J. Frisch, G. W. Trucks, H. B. Schlegel, G. E. Scuseria, 
 M. A. Robb, J. R. Cheeseman, G. Scalmani, V. Barone, 
 G. A. Petersson, H. Nakatsuji, X. Li, M. Caricato, A. V. Marenich, 
 J. Bloino, B. G. Janesko, R. Gomperts, B. Mennucci, H. P. Hratchian, 
 J. V. Ortiz, A. F. Izmaylov, J. L. Sonnenberg, D. Williams-Young, 
 F. Ding, F. Lipparini, F. Egidi, J. Goings, B. Peng, A. Petrone, 
 T. Henderson, D. Ranasinghe, V. G. Zakrzewski, J. Gao, N. Rega, 
 G. Zheng, W. Liang, M. Hada, M. Ehara, K. Toyota, R. Fukuda, 
 J. Hasegawa, M. Ishida, T. Nakajima, Y. Honda, O. Kitao, H. Nakai, 
 T. Vreven, K. Throssell, J. A. Montgomery, Jr., J. E. Peralta, 
 F. Ogliaro, M. J. Bearpark, J. J. Heyd, E. N. Brothers, K. N. Kudin, 
 V. N. Staroverov, T. A. Keith, R. Kobayashi, J. Normand, 
 K. Raghavachari, A. P. Rendell, J. C. Burant, S. S. Iyengar, 
 J. Tomasi, M. Cossi, J. M. Millam, M. Klene, C. Adamo, R. Cammi, 
 J. W. Ochterski, R. L. Martin, K. Morokuma, O. Farkas, 
 J. B. Foresman, and D. J. Fox, Gaussian, Inc., Wallingford CT, 2016.
 
 ******************************************
 Gaussian 16:  ES64L-G16RevA.03 25-Dec-2016
                30-Nov-2021 
 ******************************************
 %nprocshared=28
 Will use up to   28 processors via shared memory.
 %mem=41GB
 ----------------------------------------------
 # MP2/aug-cc-pVTZ opt freq=(vibrot,anharmonic)
 ----------------------------------------------
 1/18=20,19=15,38=1,80=1/1,3;
 2/9=110,12=2,17=6,18=5,40=1/2;
 3/5=16,6=1,7=10,11=9,25=1,30=1,71=1/1,2,3;
 4//1;
 5/5=2,38=5/2;
 8/6=4,10=1/1;
 9/15=2,16=-3/6;
 10/5=1/2;
 6/7=2,8=2,9=2,10=2/1;
 7/12=2/1,2,3,16;
 1/18=20,19=15,80=1/3(2);
 2/9=110/2;
 99//99;
 2/9=110/2;
 3/5=16,6=1,7=10,11=9,25=1,30=1,71=1/1,2,3;
 4/5=5,16=3,69=1/1;
 5/5=2,38=5/2;
 8/6=4,10=1/1;
 9/15=2,16=-3/6;
 10/5=1/2;
 7/12=2/1,2,3,16;
 1/18=20,19=15,80=1/3(-8);
 2/9=110/2;
 6/7=2,8=2,9=2,10=2/1;
 99//99;
 ----
 bleh
 ----
 Symbolic Z-matrix:
 Charge =  0 Multiplicity = 1
 N                     0.02789   0.59975   0. 
 C                     0.02789  -0.22662   1.2099 
 H                    -0.8097    1.18222   0. 
 C                     0.02789  -0.22662  -1.2099 
 H                     0.98081  -0.77672  -1.26555 
 H                    -0.04472   0.4166   -2.09931 
 H                    -0.79619  -0.9704   -1.24036 
 H                    -0.04472   0.4166    2.09931 
 H                     0.98081  -0.77672   1.26555 
 H                    -0.79619  -0.9704    1.24036 
 

 GradGradGradGradGradGradGradGradGradGradGradGradGradGradGradGradGradGrad
 Berny optimization.
 Initialization pass.
                           ----------------------------
                           !    Initial Parameters    !
                           ! (Angstroms and Degrees)  !
 --------------------------                            --------------------------
 ! Name  Definition              Value          Derivative Info.                !
 --------------------------------------------------------------------------------
 ! R1    R(1,2)                  1.4652         estimate D2E/DX2                !
 ! R2    R(1,3)                  1.0202         estimate D2E/DX2                !
 ! R3    R(1,4)                  1.4652         estimate D2E/DX2                !
 ! R4    R(2,8)                  1.1            estimate D2E/DX2                !
 ! R5    R(2,9)                  1.1017         estimate D2E/DX2                !
 ! R6    R(2,10)                 1.1105         estimate D2E/DX2                !
 ! R7    R(4,5)                  1.1017         estimate D2E/DX2                !
 ! R8    R(4,6)                  1.1            estimate D2E/DX2                !
 ! R9    R(4,7)                  1.1105         estimate D2E/DX2                !
 ! A1    A(2,1,3)              108.7846         estimate D2E/DX2                !
 ! A2    A(2,1,4)              111.3329         estimate D2E/DX2                !
 ! A3    A(3,1,4)              108.7846         estimate D2E/DX2                !
 ! A4    A(1,2,8)              109.747          estimate D2E/DX2                !
 ! A5    A(1,2,9)              108.8642         estimate D2E/DX2                !
 ! A6    A(1,2,10)             113.6033         estimate D2E/DX2                !
 ! A7    A(8,2,9)              107.9519         estimate D2E/DX2                !
 ! A8    A(8,2,10)             108.6911         estimate D2E/DX2                !
 ! A9    A(9,2,10)             107.8216         estimate D2E/DX2                !
 ! A10   A(1,4,5)              108.8642         estimate D2E/DX2                !
 ! A11   A(1,4,6)              109.747          estimate D2E/DX2                !
 ! A12   A(1,4,7)              113.6033         estimate D2E/DX2                !
 ! A13   A(5,4,6)              107.9519         estimate D2E/DX2                !
 ! A14   A(5,4,7)              107.8216         estimate D2E/DX2                !
 ! A15   A(6,4,7)              108.6911         estimate D2E/DX2                !
 ! D1    D(3,1,2,8)            -56.1117         estimate D2E/DX2                !
 ! D2    D(3,1,2,9)           -174.0629         estimate D2E/DX2                !
 ! D3    D(3,1,2,10)            65.7879         estimate D2E/DX2                !
 ! D4    D(4,1,2,8)           -175.9783         estimate D2E/DX2                !
 ! D5    D(4,1,2,9)             66.0705         estimate D2E/DX2                !
 ! D6    D(4,1,2,10)           -54.0786         estimate D2E/DX2                !
 ! D7    D(2,1,4,5)            -66.0705         estimate D2E/DX2                !
 ! D8    D(2,1,4,6)            175.9783         estimate D2E/DX2                !
 ! D9    D(2,1,4,7)             54.0786         estimate D2E/DX2                !
 ! D10   D(3,1,4,5)            174.0629         estimate D2E/DX2                !
 ! D11   D(3,1,4,6)             56.1117         estimate D2E/DX2                !
 ! D12   D(3,1,4,7)            -65.7879         estimate D2E/DX2                !
 --------------------------------------------------------------------------------
 Trust Radius=3.00D-01 FncErr=1.00D-07 GrdErr=1.00D-07 EigMax=2.50D+02 EigMin=1.00D-04
 Number of steps in this run=     46 maximum allowed number of steps=    100.
 GradGradGradGradGradGradGradGradGradGradGradGradGradGradGradGradGradGrad

                          Input orientation:                          
 ---------------------------------------------------------------------
 Center     Atomic      Atomic             Coordinates (Angstroms)
 Number     Number       Type             X           Y           Z
 ---------------------------------------------------------------------
      1          7           0        0.027890    0.599754    0.000000
      2          6           0        0.027890   -0.226622    1.209899
      3          1           0       -0.809701    1.182224    0.000000
      4          6           0        0.027890   -0.226622   -1.209899
      5          1           0        0.980811   -0.776715   -1.265548
      6          1           0       -0.044723    0.416598   -2.099306
      7          1           0       -0.796193   -0.970398   -1.240362
      8          1           0       -0.044723    0.416598    2.099306
      9          1           0        0.980811   -0.776715    1.265548
     10          1           0       -0.796193   -0.970398    1.240362
 ---------------------------------------------------------------------
                    Distance matrix (angstroms):
                    1          2          3          4          5
     1  N    0.000000
     2  C    1.465180   0.000000
     3  H    1.020211   2.037219   0.000000
     4  C    1.465180   2.419798   2.037219   0.000000
     5  H    2.098651   2.708966   2.940236   1.101707   0.000000
     6  H    2.108531   3.371920   2.361876   1.100022   1.780693
     7  H    2.164021   2.689999   2.484444   1.110515   1.787705
     8  H    2.108531   1.100022   2.361876   3.371920   3.714560
     9  H    2.098651   1.101707   2.940236   2.708966   2.531096
    10  H    2.164021   1.110515   2.484444   2.689999   3.078123
                    6          7          8          9         10
     6  H    0.000000
     7  H    1.796176   0.000000
     8  H    4.198612   3.693487   0.000000
     9  H    3.714560   3.078123   1.780693   0.000000
    10  H    3.693487   2.480724   1.796176   1.787705   0.000000
 Stoichiometry    C2H7N
 Framework group  CS[SG(HN),X(C2H6)]
 Deg. of freedom    13
 Full point group                 CS      NOp   2
 Largest Abelian subgroup         CS      NOp   2
 Largest concise Abelian subgroup CS      NOp   2
                         Standard orientation:                         
 ---------------------------------------------------------------------
 Center     Atomic      Atomic             Coordinates (Angstroms)
 Number     Number       Type             X           Y           Z
 ---------------------------------------------------------------------
      1          7           0        0.027890    0.599754   -0.000000
      2          6           0        0.027890   -0.226622    1.209899
      3          1           0       -0.809701    1.182224    0.000000
      4          6           0        0.027890   -0.226622   -1.209899
      5          1           0        0.980811   -0.776715   -1.265548
      6          1           0       -0.044723    0.416598   -2.099306
      7          1           0       -0.796193   -0.970398   -1.240362
      8          1           0       -0.044723    0.416598    2.099306
      9          1           0        0.980811   -0.776715    1.265548
     10          1           0       -0.796193   -0.970398    1.240362
 ---------------------------------------------------------------------
 Rotational constants (GHZ):          33.6937990           9.3354646           8.2103547
 Standard basis: Aug-CC-pVTZ (5D, 7F)
 There are   185 symmetry adapted cartesian basis functions of A'  symmetry.
 There are   155 symmetry adapted cartesian basis functions of A"  symmetry.
 There are   161 symmetry adapted basis functions of A'  symmetry.
 There are   138 symmetry adapted basis functions of A"  symmetry.
   299 basis functions,   405 primitive gaussians,   340 cartesian basis functions
    13 alpha electrons       13 beta electrons
       nuclear repulsion energy        83.7421301244 Hartrees.
 NAtoms=   10 NActive=   10 NUniq=    6 SFac= 2.78D+00 NAtFMM=   60 NAOKFM=F Big=F
 Integral buffers will be    131072 words long.
 Raffenetti 1 integral format.
 Two-electron integral symmetry is turned on.
 One-electron integrals computed using PRISM.
 NBasis=   299 RedAO= T EigKep=  2.31D-05  NBF=   161   138
 NBsUse=   299 1.00D-06 EigRej= -1.00D+00 NBFU=   161   138
 ExpMin= 2.53D-02 ExpMax= 1.14D+04 ExpMxC= 3.89D+02 IAcc=3 IRadAn=         5 AccDes= 0.00D+00
 Harris functional with IExCor=  205 and IRadAn=       5 diagonalized for initial guess.
 HarFok:  IExCor=  205 AccDes= 0.00D+00 IRadAn=         5 IDoV= 1 UseB2=F ITyADJ=14
 ICtDFT=  3500011 ScaDFX=  1.000000  1.000000  1.000000  1.000000
 FoFCou: FMM=F IPFlag=           0 FMFlag=      100000 FMFlg1=           0
         NFxFlg=           0 DoJE=T BraDBF=F KetDBF=T FulRan=T
         wScrn=  0.000000 ICntrl=       500 IOpCl=  0 I1Cent=   200000004 NGrid=           0
         NMat0=    1 NMatS0=      1 NMatT0=    0 NMatD0=    1 NMtDS0=    0 NMtDT0=    0
 Petite list used in FoFCou.
 Initial guess orbital symmetries:
       Occupied  (A') (A') (A") (A') (A") (A') (A') (A") (A') (A")
                 (A") (A') (A')
       Virtual   (A') (A') (A") (A') (A') (A") (A') (A") (A') (A')
                 (A") (A') (A") (A") (A') (A') (A") (A') (A") (A')
                 (A") (A') (A") (A') (A") (A') (A') (A') (A") (A')
                 (A") (A') (A") (A') (A") (A') (A') (A") (A') (A')
                 (A") (A") (A') (A") (A') (A") (A') (A") (A') (A')
                 (A") (A') (A") (A') (A') (A") (A") (A') (A") (A")
                 (A') (A") (A') (A') (A') (A") (A") (A') (A') (A')
                 (A") (A') (A") (A") (A') (A") (A') (A') (A") (A')
                 (A") (A') (A") (A") (A') (A") (A') (A') (A') (A')
                 (A') (A") (A") (A') (A") (A') (A") (A") (A') (A")
                 (A') (A") (A") (A') (A') (A') (A") (A') (A") (A")
                 (A') (A") (A') (A") (A') (A') (A") (A') (A') (A")
                 (A') (A") (A') (A') (A") (A") (A') (A') (A") (A')
                 (A") (A') (A") (A') (A") (A") (A') (A') (A") (A")
                 (A') (A") (A") (A') (A") (A') (A') (A") (A') (A")
                 (A') (A") (A') (A') (A") (A') (A") (A') (A") (A')
                 (A") (A") (A") (A') (A") (A') (A") (A') (A') (A')
                 (A") (A') (A") (A") (A') (A') (A") (A") (A') (A")
                 (A") (A') (A') (A') (A') (A") (A') (A') (A") (A')
                 (A") (A') (A") (A") (A') (A") (A") (A') (A') (A")
                 (A") (A") (A') (A') (A') (A') (A") (A") (A') (A')
                 (A') (A") (A") (A') (A") (A") (A') (A') (A") (A')
                 (A') (A") (A') (A") (A") (A') (A') (A") (A') (A')
                 (A") (A') (A") (A") (A') (A") (A') (A") (A') (A")
                 (A') (A') (A") (A') (A") (A') (A") (A') (A") (A')
                 (A") (A') (A") (A') (A') (A") (A') (A") (A") (A')
                 (A') (A") (A') (A") (A') (A") (A') (A') (A") (A")
                 (A') (A") (A') (A") (A") (A') (A') (A") (A') (A")
                 (A") (A') (A') (A') (A") (A')
 The electronic state of the initial guess is 1-A'.
 Keep R1 ints in memory in symmetry-blocked form, NReq=1508824297.
 Requested convergence on RMS density matrix=1.00D-08 within 128 cycles.
 Requested convergence on MAX density matrix=1.00D-06.
 Requested convergence on             energy=1.00D-06.
 No special actions if energy rises.
 SCF Done:  E(RHF) =  -134.292790551     A.U. after   11 cycles
            NFock= 11  Conv=0.24D-08     -V/T= 2.0024
 ExpMin= 2.53D-02 ExpMax= 1.14D+04 ExpMxC= 3.89D+02 IAcc=3 IRadAn=         5 AccDes= 0.00D+00
 HarFok:  IExCor=  205 AccDes= 0.00D+00 IRadAn=         5 IDoV=-2 UseB2=F ITyADJ=14
 ICtDFT= 12500011 ScaDFX=  1.000000  1.000000  1.000000  1.000000
 Range of M.O.s used for correlation:     4   299
 NBasis=   299 NAE=    13 NBE=    13 NFC=     3 NFV=     0
 NROrb=    296 NOA=    10 NOB=    10 NVA=   286 NVB=   286

 **** Warning!!: The largest alpha MO coefficient is  0.40150115D+02

 Fully direct method using O(ONN) memory.
 JobTyp=1 Pass  1:  I=   4 to  13 NPSUse= 28 ParTrn=T ParDer=T DoDerP=T.
 Spin components of T(2) and E(2):
     alpha-alpha T2 =       0.2046750623D-01 E2=     -0.6428181325D-01
     alpha-beta  T2 =       0.1338506264D+00 E2=     -0.4591850826D+00
     beta-beta   T2 =       0.2046750623D-01 E2=     -0.6428181325D-01
 ANorm=    0.1083875287D+01
 E2 =    -0.5877487091D+00 EUMP2 =    -0.13488053925970D+03
          IDoAtm=1111111111
          Differentiating once with respect to electric field.
                with respect to dipole field.
          Differentiating once with respect to nuclear coordinates.
 Keep R1 ints in memory in symmetry-blocked form, NReq=1508826165.
          There are     1 degrees of freedom in the 1st order CPHF.  IDoFFX=0 NUNeed=     1.
 LinEq1:  Iter=  0 NonCon=     1 RMS=2.29D-03 Max=2.64D-02 NDo=     1
 AX will form     1 AO Fock derivatives at one time.
 LinEq1:  Iter=  1 NonCon=     1 RMS=6.38D-04 Max=7.60D-03 NDo=     1
 LinEq1:  Iter=  2 NonCon=     1 RMS=1.78D-04 Max=1.95D-03 NDo=     1
 LinEq1:  Iter=  3 NonCon=     1 RMS=4.38D-05 Max=5.30D-04 NDo=     1
 LinEq1:  Iter=  4 NonCon=     1 RMS=1.50D-05 Max=1.75D-04 NDo=     1
 LinEq1:  Iter=  5 NonCon=     1 RMS=3.93D-06 Max=3.20D-05 NDo=     1
 LinEq1:  Iter=  6 NonCon=     1 RMS=8.00D-07 Max=8.18D-06 NDo=     1
 LinEq1:  Iter=  7 NonCon=     1 RMS=1.51D-07 Max=2.08D-06 NDo=     1
 LinEq1:  Iter=  8 NonCon=     1 RMS=3.10D-08 Max=4.28D-07 NDo=     1
 LinEq1:  Iter=  9 NonCon=     1 RMS=5.87D-09 Max=7.39D-08 NDo=     1
 LinEq1:  Iter= 10 NonCon=     1 RMS=1.28D-09 Max=1.90D-08 NDo=     1
 LinEq1:  Iter= 11 NonCon=     1 RMS=2.34D-10 Max=2.86D-09 NDo=     1
 LinEq1:  Iter= 12 NonCon=     0 RMS=3.34D-11 Max=3.62D-10 NDo=     1
 Linear equations converged to 1.000D-10 1.000D-09 after    12 iterations.
 End of Minotr F.D. properties file   721 does not exist.
 End of Minotr F.D. properties file   722 does not exist.
 End of Minotr F.D. properties file   788 does not exist.

 **********************************************************************

            Population analysis using the SCF density.

 **********************************************************************

 Orbital symmetries:
       Occupied  (A') (A") (A') (A') (A") (A') (A') (A') (A") (A")
                 (A') (A") (A')
       Virtual   (A') (A") (A') (A') (A") (A') (A") (A') (A') (A")
                 (A') (A") (A') (A") (A') (A') (A") (A") (A') (A')
                 (A") (A') (A') (A") (A') (A') (A") (A') (A') (A")
                 (A") (A') (A") (A') (A") (A') (A") (A') (A') (A")
                 (A') (A") (A') (A') (A") (A") (A') (A") (A') (A")
                 (A') (A') (A") (A') (A") (A") (A') (A") (A') (A")
                 (A') (A") (A') (A") (A') (A') (A') (A") (A') (A")
                 (A') (A") (A') (A") (A') (A') (A") (A') (A") (A')
                 (A") (A') (A") (A") (A') (A") (A') (A') (A') (A')
                 (A") (A') (A") (A') (A") (A') (A") (A') (A") (A')
                 (A") (A") (A") (A') (A') (A") (A') (A") (A') (A")
                 (A') (A") (A") (A') (A') (A') (A") (A') (A') (A")
                 (A") (A") (A') (A') (A") (A') (A') (A') (A") (A')
                 (A") (A') (A") (A") (A") (A') (A') (A") (A') (A")
                 (A") (A") (A') (A") (A') (A') (A') (A") (A') (A')
                 (A") (A') (A") (A') (A") (A') (A") (A") (A') (A")
                 (A') (A") (A") (A') (A') (A") (A") (A') (A') (A')
                 (A") (A') (A") (A") (A') (A') (A") (A") (A') (A")
                 (A') (A') (A") (A') (A") (A') (A') (A') (A") (A')
                 (A") (A') (A") (A") (A') (A") (A') (A") (A") (A')
                 (A") (A') (A") (A') (A') (A') (A") (A") (A') (A')
                 (A") (A') (A") (A') (A") (A') (A") (A') (A") (A')
                 (A') (A") (A') (A") (A") (A') (A') (A") (A') (A')
                 (A") (A") (A') (A") (A") (A') (A') (A') (A") (A")
                 (A') (A') (A") (A') (A") (A') (A") (A') (A") (A")
                 (A') (A') (A") (A') (A') (A") (A") (A') (A") (A')
                 (A') (A") (A") (A') (A') (A") (A') (A') (A") (A")
                 (A') (A") (A') (A") (A") (A') (A') (A') (A") (A")
                 (A") (A') (A') (A') (A") (A')
 The electronic state is 1-A'.
 Alpha  occ. eigenvalues --  -15.54472 -11.24413 -11.24411  -1.19381  -0.94005
 Alpha  occ. eigenvalues --   -0.85011  -0.65620  -0.60920  -0.58564  -0.53540
 Alpha  occ. eigenvalues --   -0.50791  -0.50219  -0.37182
 Alpha virt. eigenvalues --    0.03013   0.04088   0.04214   0.04636   0.06342
 Alpha virt. eigenvalues --    0.06440   0.06615   0.10241   0.11585   0.12041
 Alpha virt. eigenvalues --    0.13491   0.14201   0.14290   0.14884   0.15798
 Alpha virt. eigenvalues --    0.17380   0.17742   0.20590   0.20882   0.21782
 Alpha virt. eigenvalues --    0.24273   0.26194   0.27153   0.28490   0.28847
 Alpha virt. eigenvalues --    0.30926   0.31503   0.32942   0.33753   0.34048
 Alpha virt. eigenvalues --    0.35173   0.36399   0.36579   0.36803   0.36810
 Alpha virt. eigenvalues --    0.38233   0.38360   0.40286   0.40874   0.41585
 Alpha virt. eigenvalues --    0.43238   0.43585   0.43797   0.44726   0.45705
 Alpha virt. eigenvalues --    0.45798   0.46058   0.47956   0.48066   0.48788
 Alpha virt. eigenvalues --    0.51193   0.52097   0.52825   0.53716   0.54561
 Alpha virt. eigenvalues --    0.56787   0.57596   0.60722   0.61666   0.62968
 Alpha virt. eigenvalues --    0.64924   0.65316   0.68288   0.75475   0.75669
 Alpha virt. eigenvalues --    0.78156   0.79718   0.79848   0.81110   0.82566
 Alpha virt. eigenvalues --    0.84680   0.85051   0.85532   0.87369   0.88412
 Alpha virt. eigenvalues --    0.89833   0.90959   0.91592   0.92296   0.95356
 Alpha virt. eigenvalues --    0.95958   0.96556   0.97232   0.97723   0.98716
 Alpha virt. eigenvalues --    1.00664   1.00809   1.03131   1.05508   1.06920
 Alpha virt. eigenvalues --    1.06926   1.08193   1.09654   1.11622   1.12337
 Alpha virt. eigenvalues --    1.13784   1.13801   1.15048   1.15281   1.20012
 Alpha virt. eigenvalues --    1.20603   1.22108   1.22868   1.23859   1.24474
 Alpha virt. eigenvalues --    1.24719   1.25604   1.28078   1.28731   1.31235
 Alpha virt. eigenvalues --    1.33292   1.34469   1.37353   1.37922   1.40655
 Alpha virt. eigenvalues --    1.42369   1.45718   1.46439   1.48233   1.48823
 Alpha virt. eigenvalues --    1.54450   1.56784   1.56859   1.58676   1.59855
 Alpha virt. eigenvalues --    1.61872   1.63605   1.64728   1.66733   1.68262
 Alpha virt. eigenvalues --    1.69156   1.70534   1.70963   1.72519   1.73262
 Alpha virt. eigenvalues --    1.74409   1.78592   1.83553   1.84620   1.88866
 Alpha virt. eigenvalues --    1.90787   1.91724   1.92202   1.96135   1.96705
 Alpha virt. eigenvalues --    1.99123   2.04153   2.06230   2.07198   2.08475
 Alpha virt. eigenvalues --    2.10225   2.12588   2.14499   2.17664   2.18201
 Alpha virt. eigenvalues --    2.22627   2.22701   2.25819   2.28699   2.31837
 Alpha virt. eigenvalues --    2.32245   2.35512   2.40711   2.43993   2.49154
 Alpha virt. eigenvalues --    2.49778   2.54473   2.56031   2.61765   2.66489
 Alpha virt. eigenvalues --    2.66580   2.68609   2.88773   2.96744   3.05009
 Alpha virt. eigenvalues --    3.16616   3.27105   3.39789   3.40533   3.41180
 Alpha virt. eigenvalues --    3.45525   3.49668   3.50958   3.55214   3.61948
 Alpha virt. eigenvalues --    3.62809   3.65568   3.68277   3.71817   3.72920
 Alpha virt. eigenvalues --    3.73355   3.77928   3.78250   3.80288   3.85612
 Alpha virt. eigenvalues --    3.86147   3.89635   3.89948   3.93318   3.94803
 Alpha virt. eigenvalues --    3.96305   3.98702   3.99766   4.05168   4.06007
 Alpha virt. eigenvalues --    4.09156   4.11070   4.11974   4.14486   4.16012
 Alpha virt. eigenvalues --    4.20363   4.20645   4.21058   4.29463   4.31854
 Alpha virt. eigenvalues --    4.32454   4.32914   4.37013   4.39836   4.48123
 Alpha virt. eigenvalues --    4.55834   4.56833   4.59139   4.59331   4.61022
 Alpha virt. eigenvalues --    4.65694   4.71740   4.73709   4.77433   4.78435
 Alpha virt. eigenvalues --    4.81419   4.84500   4.84717   4.86710   4.87291
 Alpha virt. eigenvalues --    4.89603   4.96011   4.99921   5.02801   5.03237
 Alpha virt. eigenvalues --    5.08518   5.10732   5.17068   5.18033   5.19412
 Alpha virt. eigenvalues --    5.24006   5.24053   5.28942   5.29291   5.37663
 Alpha virt. eigenvalues --    5.39714   5.43458   5.49500   5.50213   5.52384
 Alpha virt. eigenvalues --    5.54045   5.61136   5.62662   5.63687   5.82888
 Alpha virt. eigenvalues --    5.83397   5.86692   5.90250   5.93219   5.99480
 Alpha virt. eigenvalues --    6.04519   6.05476   6.07248   6.09603   6.17928
 Alpha virt. eigenvalues --    6.25296   6.32537   6.41928   6.49729   6.67507
 Alpha virt. eigenvalues --    6.69388   6.71657   6.73273   6.74506   6.80563
 Alpha virt. eigenvalues --    6.82762   6.93084   7.53502  16.33506  17.63019
 Alpha virt. eigenvalues --   18.12476
          Condensed to atoms (all electrons):
               1          2          3          4          5          6
     1  N    6.862821   0.166709   0.219364   0.166709  -0.020715   0.004415
     2  C    0.166709   5.542538  -0.023439  -0.000755   0.005317  -0.005589
     3  H    0.219364  -0.023439   0.721032  -0.023439   0.000104   0.000183
     4  C    0.166709  -0.000755  -0.023439   5.542538   0.388611   0.383719
     5  H   -0.020715   0.005317   0.000104   0.388611   0.260162   0.015845
     6  H    0.004415  -0.005589   0.000183   0.383719   0.015845   0.248023
     7  H   -0.026217  -0.000199   0.010418   0.395510   0.016838   0.015380
     8  H    0.004415   0.383719   0.000183  -0.005589   0.000279  -0.000794
     9  H   -0.020715   0.388611   0.000104   0.005317   0.000649   0.000279
    10  H   -0.026217   0.395510   0.010418  -0.000199   0.000616  -0.000459
               7          8          9         10
     1  N   -0.026217   0.004415  -0.020715  -0.026217
     2  C   -0.000199   0.383719   0.388611   0.395510
     3  H    0.010418   0.000183   0.000104   0.010418
     4  C    0.395510  -0.005589   0.005317  -0.000199
     5  H    0.016838   0.000279   0.000649   0.000616
     6  H    0.015380  -0.000794   0.000279  -0.000459
     7  H    0.282355  -0.000459   0.000616   0.001879
     8  H   -0.000459   0.248023   0.015845   0.015380
     9  H    0.000616   0.015845   0.260162   0.016838
    10  H    0.001879   0.015380   0.016838   0.282355
 Mulliken charges:
               1
     1  N   -0.330571
     2  C   -0.852422
     3  H    0.085073
     4  C   -0.852422
     5  H    0.332294
     6  H    0.338997
     7  H    0.303879
     8  H    0.338997
     9  H    0.332294
    10  H    0.303879
 Sum of Mulliken charges =  -0.00000
 Mulliken charges with hydrogens summed into heavy atoms:
               1
     1  N   -0.245498
     2  C    0.122749
     4  C    0.122749
 Electronic spatial extent (au):  <R**2>=            205.4377
 Charge=             -0.0000 electrons
 Dipole moment (field-independent basis, Debye):
    X=             -1.0158    Y=             -0.5325    Z=              0.0000  Tot=              1.1469
 Quadrupole moment (field-independent basis, Debye-Ang):
   XX=            -20.8208   YY=            -21.7586   ZZ=            -20.0190
   XY=             -2.1361   XZ=              0.0000   YZ=             -0.0000
 Traceless Quadrupole moment (field-independent basis, Debye-Ang):
   XX=              0.0453   YY=             -0.8925   ZZ=              0.8471
   XY=             -2.1361   XZ=              0.0000   YZ=             -0.0000
 Octapole moment (field-independent basis, Debye-Ang**2):
  XXX=             -0.7616  YYY=              1.3217  ZZZ=              0.0000  XYY=             -2.6339
  XXY=             -0.0966  XXZ=             -0.0000  XZZ=              0.2584  YZZ=              2.1713
  YYZ=             -0.0000  XYZ=             -0.0000
 Hexadecapole moment (field-independent basis, Debye-Ang**3):
 XXXX=            -38.3792 YYYY=            -62.0163 ZZZZ=           -181.0648 XXXY=             -1.0796
 XXXZ=              0.0000 YYYX=             -2.1684 YYYZ=             -0.0000 ZZZX=              0.0000
 ZZZY=             -0.0000 XXYY=            -15.0662 XXZZ=            -38.3400 YYZZ=            -39.8384
 XXYZ=              0.0000 YYXZ=              0.0000 ZZXY=             -0.2507
 N-N= 8.374213012439D+01 E-N=-4.804698057975D+02  KE= 1.339705532758D+02
 Symmetry A'   KE= 9.221612523962D+01
 Symmetry A"   KE= 4.175442803616D+01
 Calling FoFJK, ICntrl=  10002127 FMM=F ISym2X=1 I1Cent= 0 IOpClX= 0 NMat=1 NMatS=1 NMatT=0.
 ***** Axes restored to original set *****
 -------------------------------------------------------------------
 Center     Atomic                   Forces (Hartrees/Bohr)
 Number     Number              X              Y              Z
 -------------------------------------------------------------------
      1        7          -0.005195527   -0.003016412   -0.000000000
      2        6           0.000708852   -0.001103324    0.001702938
      3        1           0.005012692   -0.003449711    0.000000000
      4        6           0.000708852   -0.001103324   -0.001702938
      5        1          -0.006516778    0.003703992    0.000514989
      6        1           0.000432046   -0.004354917    0.006186895
      7        1           0.005467298    0.004987311    0.000449072
      8        1           0.000432046   -0.004354917   -0.006186895
      9        1          -0.006516778    0.003703992   -0.000514989
     10        1           0.005467298    0.004987311   -0.000449072
 -------------------------------------------------------------------
 Cartesian Forces:  Max     0.006516778 RMS     0.003741914

 GradGradGradGradGradGradGradGradGradGradGradGradGradGradGradGradGradGrad
 Berny optimization.
 FormGI is forming the generalized inverse of G from B-inverse, IUseBI=4.
 Internal  Forces:  Max     0.007577309 RMS     0.003561395
 Search for a local minimum.
 Step number   1 out of a maximum of   46
 All quantities printed in internal units (Hartrees-Bohrs-Radians)
 Mixed Optimization -- RFO/linear search
 Second derivative matrix not updated -- first step.
 ITU=  0
     Eigenvalues ---    0.00830   0.00830   0.02998   0.07035   0.07035
     Eigenvalues ---    0.07587   0.07587   0.10769   0.16000   0.16000
     Eigenvalues ---    0.16000   0.16000   0.16000   0.16000   0.23489
     Eigenvalues ---    0.32546   0.32546   0.33494   0.33494   0.33680
     Eigenvalues ---    0.33680   0.36323   0.36323   0.44304
 RFO step:  Lambda=-1.32506419D-03 EMin= 8.29571909D-03
 Linear search not attempted -- first point.
 Iteration  1 RMS(Cart)=  0.01552172 RMS(Int)=  0.00001808
 Iteration  2 RMS(Cart)=  0.00003671 RMS(Int)=  0.00000125
 Iteration  3 RMS(Cart)=  0.00000000 RMS(Int)=  0.00000125
 ClnCor:  largest displacement from symmetrization is 2.14D-11 for atom    10.
 Variable       Old X    -DE/DX   Delta X   Delta X   Delta X     New X
                                 (Linear)    (Quad)   (Total)
    R1        2.76879  -0.00632   0.00000  -0.01734  -0.01734   2.75145
    R2        1.92792  -0.00608   0.00000  -0.01369  -0.01369   1.91423
    R3        2.76879  -0.00632   0.00000  -0.01734  -0.01734   2.75145
    R4        2.07874  -0.00758   0.00000  -0.02241  -0.02241   2.05633
    R5        2.08192  -0.00751   0.00000  -0.02234  -0.02234   2.05958
    R6        2.09857  -0.00741   0.00000  -0.02267  -0.02267   2.07589
    R7        2.08192  -0.00751   0.00000  -0.02234  -0.02234   2.05958
    R8        2.07874  -0.00758   0.00000  -0.02241  -0.02241   2.05633
    R9        2.09857  -0.00741   0.00000  -0.02267  -0.02267   2.07589
    A1        1.89865   0.00033   0.00000   0.00046   0.00045   1.89910
    A2        1.94313  -0.00120   0.00000  -0.00543  -0.00544   1.93769
    A3        1.89865   0.00033   0.00000   0.00046   0.00045   1.89910
    A4        1.91545  -0.00002   0.00000   0.00014   0.00014   1.91559
    A5        1.90004  -0.00005   0.00000  -0.00030  -0.00030   1.89974
    A6        1.98275  -0.00035   0.00000  -0.00247  -0.00248   1.98028
    A7        1.88412   0.00016   0.00000   0.00170   0.00170   1.88582
    A8        1.89702   0.00018   0.00000   0.00105   0.00105   1.89807
    A9        1.88184   0.00010   0.00000   0.00008   0.00008   1.88192
   A10        1.90004  -0.00005   0.00000  -0.00030  -0.00030   1.89974
   A11        1.91545  -0.00002   0.00000   0.00014   0.00014   1.91559
   A12        1.98275  -0.00035   0.00000  -0.00247  -0.00248   1.98028
   A13        1.88412   0.00016   0.00000   0.00170   0.00170   1.88582
   A14        1.88184   0.00010   0.00000   0.00008   0.00008   1.88192
   A15        1.89702   0.00018   0.00000   0.00105   0.00105   1.89807
    D1       -0.97933   0.00001   0.00000   0.00046   0.00046  -0.97888
    D2       -3.03797  -0.00014   0.00000  -0.00151  -0.00151  -3.03948
    D3        1.14822  -0.00001   0.00000   0.00020   0.00020   1.14842
    D4       -3.07140   0.00013   0.00000   0.00294   0.00294  -3.06846
    D5        1.15315  -0.00003   0.00000   0.00097   0.00097   1.15412
    D6       -0.94385   0.00010   0.00000   0.00269   0.00269  -0.94116
    D7       -1.15315   0.00003   0.00000  -0.00097  -0.00097  -1.15412
    D8        3.07140  -0.00013   0.00000  -0.00294  -0.00294   3.06846
    D9        0.94385  -0.00010   0.00000  -0.00269  -0.00269   0.94116
   D10        3.03797   0.00014   0.00000   0.00151   0.00151   3.03948
   D11        0.97933  -0.00001   0.00000  -0.00046  -0.00046   0.97888
   D12       -1.14822   0.00001   0.00000  -0.00020  -0.00020  -1.14842
         Item               Value     Threshold  Converged?
 Maximum Force            0.007577     0.000450     NO 
 RMS     Force            0.003561     0.000300     NO 
 Maximum Displacement     0.033462     0.001800     NO 
 RMS     Displacement     0.015508     0.001200     NO 
 Predicted change in Energy=-6.651185D-04
 GradGradGradGradGradGradGradGradGradGradGradGradGradGradGradGradGradGrad

                          Input orientation:                          
 ---------------------------------------------------------------------
 Center     Atomic      Atomic             Coordinates (Angstroms)
 Number     Number       Type             X           Y           Z
 ---------------------------------------------------------------------
      1          7           0        0.028551    0.597912   -0.000000
      2          6           0        0.027778   -0.226553    1.200084
      3          1           0       -0.803606    1.175504    0.000000
      4          6           0        0.027778   -0.226553   -1.200084
      5          1           0        0.970467   -0.770878   -1.253901
      6          1           0       -0.046462    0.407104   -2.081599
      7          1           0       -0.787377   -0.962528   -1.224560
      8          1           0       -0.046462    0.407104    2.081599
      9          1           0        0.970467   -0.770878    1.253901
     10          1           0       -0.787377   -0.962528    1.224560
 ---------------------------------------------------------------------
                    Distance matrix (angstroms):
                    1          2          3          4          5
     1  N    0.000000
     2  C    1.456003   0.000000
     3  H    1.012964   2.024145   0.000000
     4  C    1.456003   2.400168   2.024145   0.000000
     5  H    2.081601   2.684585   2.916849   1.089885   0.000000
     6  H    2.091671   3.343124   2.344517   1.088164   1.762631
     7  H    2.144822   2.661774   2.463938   1.098516   1.768504
     8  H    2.091671   1.088164   2.344517   3.343124   3.680672
     9  H    2.081601   1.089885   2.916849   2.684585   2.507802
    10  H    2.144822   1.098516   2.463938   2.661774   3.044588
                    6          7          8          9         10
     6  H    0.000000
     7  H    1.777459   0.000000
     8  H    4.163198   3.654523   0.000000
     9  H    3.680672   3.044588   1.762631   0.000000
    10  H    3.654523   2.449121   1.777459   1.768504   0.000000
 Stoichiometry    C2H7N
 Framework group  CS[SG(HN),X(C2H6)]
 Deg. of freedom    13
 Full point group                 CS      NOp   2
 Largest Abelian subgroup         CS      NOp   2
 Largest concise Abelian subgroup CS      NOp   2
                         Standard orientation:                         
 ---------------------------------------------------------------------
 Center     Atomic      Atomic             Coordinates (Angstroms)
 Number     Number       Type             X           Y           Z
 ---------------------------------------------------------------------
      1          7           0        0.027881    0.598337    0.000000
      2          6           0        0.027881   -0.226129    1.200084
      3          1           0       -0.804817    1.175149   -0.000000
      4          6           0        0.027881   -0.226129   -1.200084
      5          1           0        0.971079   -0.769571   -1.253901
      6          1           0       -0.046953    0.407458   -2.081599
      7          1           0       -0.786585   -0.962867   -1.224560
      8          1           0       -0.046953    0.407458    2.081599
      9          1           0        0.971079   -0.769571    1.253901
     10          1           0       -0.786585   -0.962867    1.224560
 ---------------------------------------------------------------------
 Rotational constants (GHZ):          34.1237343           9.4985421           8.3416265
 Standard basis: Aug-CC-pVTZ (5D, 7F)
 There are   185 symmetry adapted cartesian basis functions of A'  symmetry.
 There are   155 symmetry adapted cartesian basis functions of A"  symmetry.
 There are   161 symmetry adapted basis functions of A'  symmetry.
 There are   138 symmetry adapted basis functions of A"  symmetry.
   299 basis functions,   405 primitive gaussians,   340 cartesian basis functions
    13 alpha electrons       13 beta electrons
       nuclear repulsion energy        84.4258630214 Hartrees.
 NAtoms=   10 NActive=   10 NUniq=    6 SFac= 2.78D+00 NAtFMM=   60 NAOKFM=F Big=F
 Integral buffers will be    131072 words long.
 Raffenetti 1 integral format.
 Two-electron integral symmetry is turned on.
 One-electron integrals computed using PRISM.
 NBasis=   299 RedAO= T EigKep=  2.14D-05  NBF=   161   138
 NBsUse=   299 1.00D-06 EigRej= -1.00D+00 NBFU=   161   138
 Initial guess from the checkpoint file:  "/gscratch/scrubbed/gds001/Gau-27137.chk"
 B after Tr=     0.000000   -0.000000   -0.000000
         Rot=    1.000000   -0.000000    0.000000   -0.000344 Ang=  -0.04 deg.
 Initial guess orbital symmetries:
       Occupied  (A') (A") (A') (A') (A") (A') (A') (A') (A") (A")
                 (A') (A") (A')
       Virtual   (A') (A") (A') (A') (A") (A') (A") (A') (A') (A")
                 (A') (A") (A') (A") (A') (A') (A") (A") (A') (A')
                 (A") (A') (A') (A") (A') (A') (A") (A') (A') (A")
                 (A") (A') (A") (A') (A") (A') (A") (A') (A') (A")
                 (A') (A") (A') (A') (A") (A") (A') (A") (A') (A")
                 (A') (A') (A") (A') (A") (A") (A') (A") (A') (A")
                 (A') (A") (A') (A") (A') (A') (A') (A") (A') (A")
                 (A') (A") (A') (A") (A') (A') (A") (A') (A") (A')
                 (A") (A') (A") (A") (A') (A") (A') (A') (A') (A')
                 (A") (A') (A") (A') (A") (A') (A") (A') (A") (A')
                 (A") (A") (A") (A') (A') (A") (A') (A") (A') (A")
                 (A') (A") (A") (A') (A') (A') (A") (A') (A') (A")
                 (A") (A") (A') (A') (A") (A') (A') (A') (A") (A')
                 (A") (A') (A") (A") (A") (A') (A') (A") (A') (A")
                 (A") (A") (A') (A") (A') (A') (A') (A") (A') (A')
                 (A") (A') (A") (A') (A") (A') (A") (A") (A') (A")
                 (A') (A") (A") (A') (A') (A") (A") (A') (A') (A')
                 (A") (A') (A") (A") (A') (A') (A") (A") (A') (A")
                 (A') (A') (A") (A') (A") (A') (A') (A') (A") (A')
                 (A") (A') (A") (A") (A') (A") (A') (A") (A") (A')
                 (A") (A') (A") (A') (A') (A') (A") (A") (A') (A')
                 (A") (A') (A") (A') (A") (A') (A") (A') (A") (A')
                 (A') (A") (A') (A") (A") (A') (A') (A") (A') (A')
                 (A") (A") (A') (A") (A") (A') (A') (A') (A") (A")
                 (A') (A') (A") (A') (A") (A') (A") (A') (A") (A")
                 (A') (A') (A") (A') (A') (A") (A") (A') (A") (A')
                 (A') (A") (A") (A') (A') (A") (A') (A') (A") (A")
                 (A') (A") (A') (A") (A") (A') (A') (A') (A") (A")
                 (A") (A') (A') (A') (A") (A')
 ExpMin= 2.53D-02 ExpMax= 1.14D+04 ExpMxC= 3.89D+02 IAcc=3 IRadAn=         5 AccDes= 0.00D+00
 Harris functional with IExCor=  205 and IRadAn=       5 diagonalized for initial guess.
 HarFok:  IExCor=  205 AccDes= 0.00D+00 IRadAn=         5 IDoV= 1 UseB2=F ITyADJ=14
 ICtDFT=  3500011 ScaDFX=  1.000000  1.000000  1.000000  1.000000
 FoFCou: FMM=F IPFlag=           0 FMFlag=      100000 FMFlg1=           0
         NFxFlg=           0 DoJE=T BraDBF=F KetDBF=T FulRan=T
         wScrn=  0.000000 ICntrl=       500 IOpCl=  0 I1Cent=   200000004 NGrid=           0
         NMat0=    1 NMatS0=      1 NMatT0=    0 NMatD0=    1 NMtDS0=    0 NMtDT0=    0
 Petite list used in FoFCou.
 Keep R1 ints in memory in symmetry-blocked form, NReq=1508824297.
 Requested convergence on RMS density matrix=1.00D-08 within 128 cycles.
 Requested convergence on MAX density matrix=1.00D-06.
 Requested convergence on             energy=1.00D-06.
 No special actions if energy rises.
 SCF Done:  E(RHF) =  -134.294393150     A.U. after    9 cycles
            NFock=  9  Conv=0.27D-08     -V/T= 2.0013
 ExpMin= 2.53D-02 ExpMax= 1.14D+04 ExpMxC= 3.89D+02 IAcc=3 IRadAn=         5 AccDes= 0.00D+00
 HarFok:  IExCor=  205 AccDes= 0.00D+00 IRadAn=         5 IDoV=-2 UseB2=F ITyADJ=14
 ICtDFT= 12500011 ScaDFX=  1.000000  1.000000  1.000000  1.000000
 Range of M.O.s used for correlation:     4   299
 NBasis=   299 NAE=    13 NBE=    13 NFC=     3 NFV=     0
 NROrb=    296 NOA=    10 NOB=    10 NVA=   286 NVB=   286

 **** Warning!!: The largest alpha MO coefficient is  0.41870731D+02

 Fully direct method using O(ONN) memory.
 JobTyp=1 Pass  1:  I=   4 to  13 NPSUse= 28 ParTrn=T ParDer=T DoDerP=T.
 Spin components of T(2) and E(2):
     alpha-alpha T2 =       0.2028739453D-01 E2=     -0.6428541371D-01
     alpha-beta  T2 =       0.1321911109D+00 E2=     -0.4582221156D+00
     beta-beta   T2 =       0.2028739453D-01 E2=     -0.6428541371D-01
 ANorm=    0.1082943166D+01
 E2 =    -0.5867929430D+00 EUMP2 =    -0.13488118609278D+03
          IDoAtm=1111111111
          Differentiating once with respect to electric field.
                with respect to dipole field.
          Differentiating once with respect to nuclear coordinates.
 Keep R1 ints in memory in symmetry-blocked form, NReq=1508826165.
          There are     1 degrees of freedom in the 1st order CPHF.  IDoFFX=0 NUNeed=     1.
 LinEq1:  Iter=  0 NonCon=     1 RMS=2.27D-03 Max=2.58D-02 NDo=     1
 AX will form     1 AO Fock derivatives at one time.
 LinEq1:  Iter=  1 NonCon=     1 RMS=6.16D-04 Max=7.15D-03 NDo=     1
 LinEq1:  Iter=  2 NonCon=     1 RMS=1.73D-04 Max=1.89D-03 NDo=     1
 LinEq1:  Iter=  3 NonCon=     1 RMS=4.25D-05 Max=5.05D-04 NDo=     1
 LinEq1:  Iter=  4 NonCon=     1 RMS=1.44D-05 Max=1.71D-04 NDo=     1
 LinEq1:  Iter=  5 NonCon=     1 RMS=3.75D-06 Max=3.03D-05 NDo=     1
 LinEq1:  Iter=  6 NonCon=     1 RMS=7.58D-07 Max=7.11D-06 NDo=     1
 LinEq1:  Iter=  7 NonCon=     1 RMS=1.40D-07 Max=1.85D-06 NDo=     1
 LinEq1:  Iter=  8 NonCon=     1 RMS=2.82D-08 Max=4.04D-07 NDo=     1
 LinEq1:  Iter=  9 NonCon=     1 RMS=5.41D-09 Max=6.27D-08 NDo=     1
 LinEq1:  Iter= 10 NonCon=     1 RMS=1.21D-09 Max=1.81D-08 NDo=     1
 LinEq1:  Iter= 11 NonCon=     1 RMS=2.23D-10 Max=2.79D-09 NDo=     1
 LinEq1:  Iter= 12 NonCon=     0 RMS=3.13D-11 Max=3.37D-10 NDo=     1
 Linear equations converged to 1.000D-10 1.000D-09 after    12 iterations.
 End of Minotr F.D. properties file   721 does not exist.
 End of Minotr F.D. properties file   722 does not exist.
 End of Minotr F.D. properties file   788 does not exist.
 Calling FoFJK, ICntrl=  10002127 FMM=F ISym2X=1 I1Cent= 0 IOpClX= 0 NMat=1 NMatS=1 NMatT=0.
 ***** Axes restored to original set *****
 -------------------------------------------------------------------
 Center     Atomic                   Forces (Hartrees/Bohr)
 Number     Number              X              Y              Z
 -------------------------------------------------------------------
      1        7          -0.001327532   -0.000697302   -0.000000000
      2        6           0.000404772    0.000484752    0.000271782
      3        1           0.000407089    0.000422638    0.000000000
      4        6           0.000404772    0.000484752   -0.000271782
      5        1           0.000095629   -0.000153445   -0.000183952
      6        1           0.000022548   -0.000122757   -0.000313876
      7        1          -0.000062728   -0.000071218    0.000009543
      8        1           0.000022548   -0.000122757    0.000313876
      9        1           0.000095629   -0.000153445    0.000183952
     10        1          -0.000062728   -0.000071218   -0.000009543
 -------------------------------------------------------------------
 Cartesian Forces:  Max     0.001327532 RMS     0.000361374

 GradGradGradGradGradGradGradGradGradGradGradGradGradGradGradGradGradGrad
 Berny optimization.
 Using GEDIIS/GDIIS optimizer.
 FormGI is forming the generalized inverse of G from B-inverse, IUseBI=4.
 Internal  Forces:  Max     0.000857755 RMS     0.000271271
 Search for a local minimum.
 Step number   2 out of a maximum of   46
 All quantities printed in internal units (Hartrees-Bohrs-Radians)
 Mixed Optimization -- En-DIIS/RFO-DIIS
 Update second derivatives using D2CorX and points    1    2
 DE= -6.47D-04 DEPred=-6.65D-04 R= 9.73D-01
 TightC=F SS=  1.41D+00  RLast= 6.25D-02 DXNew= 5.0454D-01 1.8757D-01
 Trust test= 9.73D-01 RLast= 6.25D-02 DXMaxT set to 3.00D-01
 ITU=  1  0
 Use linear search instead of GDIIS.
     Eigenvalues ---    0.00830   0.00830   0.03035   0.07054   0.07055
     Eigenvalues ---    0.07583   0.07589   0.10720   0.15956   0.16000
     Eigenvalues ---    0.16000   0.16000   0.16000   0.16023   0.23542
     Eigenvalues ---    0.32519   0.32546   0.33494   0.33544   0.33680
     Eigenvalues ---    0.33827   0.36323   0.37536   0.44154
 RFO step:  Lambda=-2.36006932D-05 EMin= 8.29563453D-03
 Quartic linear search produced a step of -0.03231.
 Iteration  1 RMS(Cart)=  0.00408863 RMS(Int)=  0.00001715
 Iteration  2 RMS(Cart)=  0.00001242 RMS(Int)=  0.00001342
 Iteration  3 RMS(Cart)=  0.00000000 RMS(Int)=  0.00001342
 ClnCor:  largest displacement from symmetrization is 1.77D-11 for atom    10.
 Variable       Old X    -DE/DX   Delta X   Delta X   Delta X     New X
                                 (Linear)    (Quad)   (Total)
    R1        2.75145   0.00055   0.00056   0.00057   0.00113   2.75258
    R2        1.91423  -0.00009   0.00044  -0.00090  -0.00046   1.91376
    R3        2.75145   0.00055   0.00056   0.00057   0.00113   2.75258
    R4        2.05633   0.00018   0.00072  -0.00063   0.00009   2.05643
    R5        2.05958   0.00017   0.00072  -0.00066   0.00006   2.05965
    R6        2.07589   0.00009   0.00073  -0.00089  -0.00015   2.07574
    R7        2.05958   0.00017   0.00072  -0.00066   0.00006   2.05965
    R8        2.05633   0.00018   0.00072  -0.00063   0.00009   2.05643
    R9        2.07589   0.00009   0.00073  -0.00089  -0.00015   2.07574
    A1        1.89910  -0.00006  -0.00001   0.00494   0.00488   1.90398
    A2        1.93769   0.00086   0.00018   0.00524   0.00538   1.94307
    A3        1.89910  -0.00006  -0.00001   0.00494   0.00488   1.90398
    A4        1.91559   0.00039  -0.00000   0.00251   0.00250   1.91809
    A5        1.89974   0.00022   0.00001   0.00131   0.00131   1.90106
    A6        1.98028  -0.00014   0.00008  -0.00111  -0.00103   1.97925
    A7        1.88582  -0.00024  -0.00006  -0.00111  -0.00117   1.88465
    A8        1.89807  -0.00014  -0.00003  -0.00075  -0.00078   1.89729
    A9        1.88192  -0.00011  -0.00000  -0.00093  -0.00094   1.88098
   A10        1.89974   0.00022   0.00001   0.00131   0.00131   1.90106
   A11        1.91559   0.00039  -0.00000   0.00251   0.00250   1.91809
   A12        1.98028  -0.00014   0.00008  -0.00111  -0.00103   1.97925
   A13        1.88582  -0.00024  -0.00006  -0.00111  -0.00117   1.88465
   A14        1.88192  -0.00011  -0.00000  -0.00093  -0.00094   1.88098
   A15        1.89807  -0.00014  -0.00003  -0.00075  -0.00078   1.89729
    D1       -0.97888   0.00023  -0.00001   0.00676   0.00675  -0.97212
    D2       -3.03948   0.00017   0.00005   0.00588   0.00594  -3.03354
    D3        1.14842   0.00024  -0.00001   0.00687   0.00687   1.15529
    D4       -3.06846  -0.00019  -0.00010  -0.00568  -0.00578  -3.07424
    D5        1.15412  -0.00025  -0.00003  -0.00656  -0.00660   1.14752
    D6       -0.94116  -0.00018  -0.00009  -0.00557  -0.00567  -0.94683
    D7       -1.15412   0.00025   0.00003   0.00656   0.00660  -1.14752
    D8        3.06846   0.00019   0.00010   0.00568   0.00578   3.07424
    D9        0.94116   0.00018   0.00009   0.00557   0.00567   0.94683
   D10        3.03948  -0.00017  -0.00005  -0.00588  -0.00594   3.03354
   D11        0.97888  -0.00023   0.00001  -0.00676  -0.00675   0.97212
   D12       -1.14842  -0.00024   0.00001  -0.00687  -0.00687  -1.15529
         Item               Value     Threshold  Converged?
 Maximum Force            0.000858     0.000450     NO 
 RMS     Force            0.000271     0.000300     YES
 Maximum Displacement     0.011901     0.001800     NO 
 RMS     Displacement     0.004081     0.001200     NO 
 Predicted change in Energy=-1.268461D-05
 GradGradGradGradGradGradGradGradGradGradGradGradGradGradGradGradGradGrad

                          Input orientation:                          
 ---------------------------------------------------------------------
 Center     Atomic      Atomic             Coordinates (Angstroms)
 Number     Number       Type             X           Y           Z
 ---------------------------------------------------------------------
      1          7           0        0.023800    0.595111   -0.000000
      2          6           0        0.027722   -0.226451    1.202794
      3          1           0       -0.804083    1.178388   -0.000000
      4          6           0        0.027722   -0.226451   -1.202794
      5          1           0        0.970360   -0.771009   -1.255795
      6          1           0       -0.044169    0.407339   -2.084469
      7          1           0       -0.786892   -0.962776   -1.230858
      8          1           0       -0.044169    0.407339    2.084469
      9          1           0        0.970360   -0.771009    1.255795
     10          1           0       -0.786892   -0.962776    1.230858
 ---------------------------------------------------------------------
                    Distance matrix (angstroms):
                    1          2          3          4          5
     1  N    0.000000
     2  C    1.456602   0.000000
     3  H    1.012721   2.027852   0.000000
     4  C    1.456602   2.405587   2.027852   0.000000
     5  H    2.083094   2.688823   2.919901   1.089917   0.000000
     6  H    2.094013   3.348575   2.348829   1.088214   1.761952
     7  H    2.144585   2.669913   2.469796   1.098435   1.767861
     8  H    2.094013   1.088214   2.348829   3.348575   3.684446
     9  H    2.083094   1.089917   2.919901   2.688823   2.511590
    10  H    2.144585   1.098435   2.469796   2.669913   3.050927
                    6          7          8          9         10
     6  H    0.000000
     7  H    1.776937   0.000000
     8  H    4.168938   3.663366   0.000000
     9  H    3.684446   3.050927   1.761952   0.000000
    10  H    3.663366   2.461717   1.776937   1.767861   0.000000
 Stoichiometry    C2H7N
 Framework group  CS[SG(HN),X(C2H6)]
 Deg. of freedom    13
 Full point group                 CS      NOp   2
 Largest Abelian subgroup         CS      NOp   2
 Largest concise Abelian subgroup CS      NOp   2
                         Standard orientation:                         
 ---------------------------------------------------------------------
 Center     Atomic      Atomic             Coordinates (Angstroms)
 Number     Number       Type             X           Y           Z
 ---------------------------------------------------------------------
      1          7           0        0.027654    0.595991    0.000000
      2          6           0        0.027654   -0.225580    1.202794
      3          1           0       -0.797436    1.183213    0.000000
      4          6           0        0.027654   -0.225580   -1.202794
      5          1           0        0.967682   -0.774632   -1.255795
      6          1           0       -0.041211    0.408546   -2.084469
      7          1           0       -0.790466   -0.958008   -1.230858
      8          1           0       -0.041211    0.408546    2.084469
      9          1           0        0.967682   -0.774632    1.255795
     10          1           0       -0.790466   -0.958008    1.230858
 ---------------------------------------------------------------------
 Rotational constants (GHZ):          34.2182537           9.4617429           8.3149508
 Standard basis: Aug-CC-pVTZ (5D, 7F)
 There are   185 symmetry adapted cartesian basis functions of A'  symmetry.
 There are   155 symmetry adapted cartesian basis functions of A"  symmetry.
 There are   161 symmetry adapted basis functions of A'  symmetry.
 There are   138 symmetry adapted basis functions of A"  symmetry.
   299 basis functions,   405 primitive gaussians,   340 cartesian basis functions
    13 alpha electrons       13 beta electrons
       nuclear repulsion energy        84.3654104513 Hartrees.
 NAtoms=   10 NActive=   10 NUniq=    6 SFac= 2.78D+00 NAtFMM=   60 NAOKFM=F Big=F
 Integral buffers will be    131072 words long.
 Raffenetti 1 integral format.
 Two-electron integral symmetry is turned on.
 One-electron integrals computed using PRISM.
 NBasis=   299 RedAO= T EigKep=  2.16D-05  NBF=   161   138
 NBsUse=   299 1.00D-06 EigRej= -1.00D+00 NBFU=   161   138
 Initial guess from the checkpoint file:  "/gscratch/scrubbed/gds001/Gau-27137.chk"
 B after Tr=     0.000000    0.000000    0.000000
         Rot=    0.999998    0.000000    0.000000    0.002148 Ang=   0.25 deg.
 Initial guess orbital symmetries:
       Occupied  (A') (A") (A') (A') (A") (A') (A') (A') (A") (A")
                 (A') (A") (A')
       Virtual   (A') (A") (A') (A') (A") (A') (A") (A') (A') (A")
                 (A') (A") (A') (A") (A') (A') (A") (A") (A') (A')
                 (A") (A') (A') (A") (A') (A') (A") (A') (A') (A")
                 (A") (A') (A") (A") (A') (A') (A") (A') (A') (A")
                 (A') (A") (A') (A') (A") (A") (A') (A') (A") (A")
                 (A') (A') (A") (A') (A") (A") (A') (A") (A') (A")
                 (A') (A") (A') (A") (A') (A') (A') (A") (A') (A")
                 (A') (A") (A') (A") (A') (A') (A") (A') (A") (A')
                 (A") (A') (A") (A") (A') (A") (A') (A') (A') (A')
                 (A") (A') (A") (A') (A") (A") (A') (A') (A") (A')
                 (A") (A") (A") (A') (A') (A") (A') (A") (A') (A")
                 (A') (A") (A") (A') (A') (A') (A") (A') (A') (A")
                 (A") (A') (A") (A') (A") (A') (A') (A') (A") (A')
                 (A") (A') (A") (A") (A") (A') (A') (A") (A') (A")
                 (A") (A") (A') (A") (A') (A') (A') (A") (A') (A')
                 (A") (A') (A") (A') (A") (A") (A') (A") (A') (A")
                 (A') (A") (A") (A') (A') (A") (A") (A') (A') (A")
                 (A') (A') (A") (A") (A') (A') (A") (A") (A') (A")
                 (A') (A') (A") (A') (A") (A') (A') (A') (A") (A')
                 (A") (A') (A") (A") (A') (A") (A') (A") (A") (A')
                 (A") (A') (A") (A') (A') (A') (A") (A") (A') (A')
                 (A") (A') (A") (A') (A") (A') (A") (A') (A") (A')
                 (A') (A") (A") (A') (A") (A') (A') (A") (A') (A')
                 (A") (A') (A") (A") (A") (A') (A') (A') (A") (A")
                 (A') (A') (A') (A") (A") (A') (A") (A') (A") (A")
                 (A') (A') (A") (A') (A') (A") (A") (A') (A") (A')
                 (A') (A") (A") (A') (A') (A") (A') (A') (A") (A")
                 (A') (A") (A') (A") (A") (A') (A') (A') (A") (A")
                 (A") (A') (A') (A') (A") (A')
 Keep R1 ints in memory in symmetry-blocked form, NReq=1508824297.
 Requested convergence on RMS density matrix=1.00D-08 within 128 cycles.
 Requested convergence on MAX density matrix=1.00D-06.
 Requested convergence on             energy=1.00D-06.
 No special actions if energy rises.
 SCF Done:  E(RHF) =  -134.294485340     A.U. after    8 cycles
            NFock=  8  Conv=0.24D-08     -V/T= 2.0013
 ExpMin= 2.53D-02 ExpMax= 1.14D+04 ExpMxC= 3.89D+02 IAcc=3 IRadAn=         5 AccDes= 0.00D+00
 HarFok:  IExCor=  205 AccDes= 0.00D+00 IRadAn=         5 IDoV=-2 UseB2=F ITyADJ=14
 ICtDFT= 12500011 ScaDFX=  1.000000  1.000000  1.000000  1.000000
 Range of M.O.s used for correlation:     4   299
 NBasis=   299 NAE=    13 NBE=    13 NFC=     3 NFV=     0
 NROrb=    296 NOA=    10 NOB=    10 NVA=   286 NVB=   286

 **** Warning!!: The largest alpha MO coefficient is  0.41675772D+02

 Fully direct method using O(ONN) memory.
 JobTyp=1 Pass  1:  I=   4 to  13 NPSUse= 28 ParTrn=T ParDer=T DoDerP=T.
 Spin components of T(2) and E(2):
     alpha-alpha T2 =       0.2028505198D-01 E2=     -0.6426814162D-01
     alpha-beta  T2 =       0.1321940061D+00 E2=     -0.4581765460D+00
     beta-beta   T2 =       0.2028505198D-01 E2=     -0.6426814162D-01
 ANorm=    0.1082942339D+01
 E2 =    -0.5867128293D+00 EUMP2 =    -0.13488119816891D+03
          IDoAtm=1111111111
          Differentiating once with respect to electric field.
                with respect to dipole field.
          Differentiating once with respect to nuclear coordinates.
 Keep R1 ints in memory in symmetry-blocked form, NReq=1508826165.
          There are     1 degrees of freedom in the 1st order CPHF.  IDoFFX=0 NUNeed=     1.
 LinEq1:  Iter=  0 NonCon=     1 RMS=2.27D-03 Max=2.59D-02 NDo=     1
 AX will form     1 AO Fock derivatives at one time.
 LinEq1:  Iter=  1 NonCon=     1 RMS=6.16D-04 Max=7.17D-03 NDo=     1
 LinEq1:  Iter=  2 NonCon=     1 RMS=1.73D-04 Max=1.89D-03 NDo=     1
 LinEq1:  Iter=  3 NonCon=     1 RMS=4.26D-05 Max=5.03D-04 NDo=     1
 LinEq1:  Iter=  4 NonCon=     1 RMS=1.44D-05 Max=1.72D-04 NDo=     1
 LinEq1:  Iter=  5 NonCon=     1 RMS=3.76D-06 Max=3.00D-05 NDo=     1
 LinEq1:  Iter=  6 NonCon=     1 RMS=7.59D-07 Max=7.13D-06 NDo=     1
 LinEq1:  Iter=  7 NonCon=     1 RMS=1.40D-07 Max=1.85D-06 NDo=     1
 LinEq1:  Iter=  8 NonCon=     1 RMS=2.81D-08 Max=4.04D-07 NDo=     1
 LinEq1:  Iter=  9 NonCon=     1 RMS=5.40D-09 Max=6.25D-08 NDo=     1
 LinEq1:  Iter= 10 NonCon=     1 RMS=1.20D-09 Max=1.80D-08 NDo=     1
 LinEq1:  Iter= 11 NonCon=     1 RMS=2.23D-10 Max=2.82D-09 NDo=     1
 LinEq1:  Iter= 12 NonCon=     0 RMS=3.15D-11 Max=3.41D-10 NDo=     1
 Linear equations converged to 1.000D-10 1.000D-09 after    12 iterations.
 End of Minotr F.D. properties file   721 does not exist.
 End of Minotr F.D. properties file   722 does not exist.
 End of Minotr F.D. properties file   788 does not exist.
 Calling FoFJK, ICntrl=  10002127 FMM=F ISym2X=1 I1Cent= 0 IOpClX= 0 NMat=1 NMatS=1 NMatT=0.
 ***** Axes restored to original set *****
 -------------------------------------------------------------------
 Center     Atomic                   Forces (Hartrees/Bohr)
 Number     Number              X              Y              Z
 -------------------------------------------------------------------
      1        7          -0.000136910   -0.000412067   -0.000000000
      2        6          -0.000032929    0.000280641   -0.000569704
      3        1           0.000204280    0.000012574   -0.000000000
      4        6          -0.000032929    0.000280641    0.000569704
      5        1           0.000147483   -0.000042680    0.000009671
      6        1          -0.000030560    0.000118133   -0.000044768
      7        1          -0.000117680   -0.000156348   -0.000063553
      8        1          -0.000030560    0.000118133    0.000044768
      9        1           0.000147483   -0.000042680   -0.000009671
     10        1          -0.000117680   -0.000156348    0.000063553
 -------------------------------------------------------------------
 Cartesian Forces:  Max     0.000569704 RMS     0.000200419

 GradGradGradGradGradGradGradGradGradGradGradGradGradGradGradGradGradGrad
 Berny optimization.
 Using GEDIIS/GDIIS optimizer.
 FormGI is forming the generalized inverse of G from B-inverse, IUseBI=4.
 Internal  Forces:  Max     0.000501727 RMS     0.000146460
 Search for a local minimum.
 Step number   3 out of a maximum of   46
 All quantities printed in internal units (Hartrees-Bohrs-Radians)
 Mixed Optimization -- En-DIIS/RFO-DIIS
 Swapping is turned off.
 Update second derivatives using D2CorX and points    1    2    3
 DE= -1.21D-05 DEPred=-1.27D-05 R= 9.52D-01
 TightC=F SS=  1.41D+00  RLast= 2.40D-02 DXNew= 5.0454D-01 7.2098D-02
 Trust test= 9.52D-01 RLast= 2.40D-02 DXMaxT set to 3.00D-01
 ITU=  1  1  0
     Eigenvalues ---    0.00822   0.00830   0.02452   0.07053   0.07063
     Eigenvalues ---    0.07571   0.07652   0.10809   0.15870   0.16000
     Eigenvalues ---    0.16000   0.16000   0.16000   0.17051   0.23672
     Eigenvalues ---    0.32546   0.32745   0.33494   0.33585   0.33680
     Eigenvalues ---    0.34100   0.36323   0.43307   0.44799
 En-DIIS/RFO-DIIS/Sim-DIIS IScMMF=       -3 using points:     3    2
 RFO step:  Lambda=-2.91263745D-06.
 DidBck=F Rises=F RFO-DIIS coefs:    1.20856   -0.20856
 Iteration  1 RMS(Cart)=  0.00106894 RMS(Int)=  0.00000368
 Iteration  2 RMS(Cart)=  0.00000156 RMS(Int)=  0.00000333
 Iteration  3 RMS(Cart)=  0.00000000 RMS(Int)=  0.00000333
 ClnCor:  largest displacement from symmetrization is 2.92D-11 for atom    10.
 Variable       Old X    -DE/DX   Delta X   Delta X   Delta X     New X
                                 (Linear)    (Quad)   (Total)
    R1        2.75258  -0.00050   0.00024  -0.00147  -0.00124   2.75134
    R2        1.91376  -0.00016  -0.00010  -0.00033  -0.00043   1.91334
    R3        2.75258  -0.00050   0.00024  -0.00147  -0.00124   2.75134
    R4        2.05643   0.00011   0.00002   0.00026   0.00028   2.05671
    R5        2.05965   0.00015   0.00001   0.00039   0.00040   2.06004
    R6        2.07574   0.00019  -0.00003   0.00055   0.00052   2.07626
    R7        2.05965   0.00015   0.00001   0.00039   0.00040   2.06004
    R8        2.05643   0.00011   0.00002   0.00026   0.00028   2.05671
    R9        2.07574   0.00019  -0.00003   0.00055   0.00052   2.07626
    A1        1.90398   0.00005   0.00102   0.00032   0.00132   1.90530
    A2        1.94307  -0.00008   0.00112  -0.00059   0.00052   1.94359
    A3        1.90398   0.00005   0.00102   0.00032   0.00132   1.90530
    A4        1.91809  -0.00012   0.00052  -0.00107  -0.00055   1.91754
    A5        1.90106  -0.00005   0.00027  -0.00043  -0.00015   1.90091
    A6        1.97925   0.00014  -0.00021   0.00102   0.00081   1.98006
    A7        1.88465   0.00005  -0.00024   0.00019  -0.00005   1.88460
    A8        1.89729  -0.00000  -0.00016   0.00006  -0.00010   1.89719
    A9        1.88098  -0.00001  -0.00020   0.00022   0.00002   1.88100
   A10        1.90106  -0.00005   0.00027  -0.00043  -0.00015   1.90091
   A11        1.91809  -0.00012   0.00052  -0.00107  -0.00055   1.91754
   A12        1.97925   0.00014  -0.00021   0.00102   0.00081   1.98006
   A13        1.88465   0.00005  -0.00024   0.00019  -0.00005   1.88460
   A14        1.88098  -0.00001  -0.00020   0.00022   0.00002   1.88100
   A15        1.89729  -0.00000  -0.00016   0.00006  -0.00010   1.89719
    D1       -0.97212   0.00002   0.00141   0.00179   0.00320  -0.96892
    D2       -3.03354   0.00006   0.00124   0.00243   0.00367  -3.02988
    D3        1.15529   0.00002   0.00143   0.00179   0.00323   1.15852
    D4       -3.07424  -0.00002  -0.00121   0.00156   0.00035  -3.07389
    D5        1.14752   0.00003  -0.00138   0.00220   0.00082   1.14834
    D6       -0.94683  -0.00002  -0.00118   0.00156   0.00038  -0.94645
    D7       -1.14752  -0.00003   0.00138  -0.00220  -0.00082  -1.14834
    D8        3.07424   0.00002   0.00121  -0.00156  -0.00035   3.07389
    D9        0.94683   0.00002   0.00118  -0.00156  -0.00038   0.94645
   D10        3.03354  -0.00006  -0.00124  -0.00243  -0.00367   3.02988
   D11        0.97212  -0.00002  -0.00141  -0.00179  -0.00320   0.96892
   D12       -1.15529  -0.00002  -0.00143  -0.00179  -0.00323  -1.15852
         Item               Value     Threshold  Converged?
 Maximum Force            0.000502     0.000450     NO 
 RMS     Force            0.000146     0.000300     YES
 Maximum Displacement     0.003143     0.001800     NO 
 RMS     Displacement     0.001069     0.001200     YES
 Predicted change in Energy=-1.456920D-06
 GradGradGradGradGradGradGradGradGradGradGradGradGradGradGradGradGradGrad

                          Input orientation:                          
 ---------------------------------------------------------------------
 Center     Atomic      Atomic             Coordinates (Angstroms)
 Number     Number       Type             X           Y           Z
 ---------------------------------------------------------------------
      1          7           0        0.023520    0.594194    0.000000
      2          6           0        0.027427   -0.226685    1.202467
      3          1           0       -0.802420    1.179829    0.000000
      4          6           0        0.027427   -0.226685   -1.202467
      5          1           0        0.970632   -0.770640   -1.255915
      6          1           0       -0.044839    0.407884   -2.083734
      7          1           0       -0.786890   -0.963719   -1.231342
      8          1           0       -0.044839    0.407884    2.083734
      9          1           0        0.970632   -0.770640    1.255915
     10          1           0       -0.786890   -0.963719    1.231342
 ---------------------------------------------------------------------
                    Distance matrix (angstroms):
                    1          2          3          4          5
     1  N    0.000000
     2  C    1.455948   0.000000
     3  H    1.012495   2.028017   0.000000
     4  C    1.455948   2.404934   2.028017   0.000000
     5  H    2.082574   2.688711   2.919823   1.090129   0.000000
     6  H    2.093163   3.347689   2.347717   1.088362   1.762211
     7  H    2.144775   2.670161   2.472092   1.098711   1.768267
     8  H    2.093163   1.088362   2.347717   3.347689   3.684204
     9  H    2.082574   1.090129   2.919823   2.688711   2.511830
    10  H    2.144775   1.098711   2.472092   2.670161   3.051657
                    6          7          8          9         10
     6  H    0.000000
     7  H    1.777219   0.000000
     8  H    4.167469   3.663559   0.000000
     9  H    3.684204   3.051657   1.762211   0.000000
    10  H    3.663559   2.462684   1.777219   1.768267   0.000000
 Stoichiometry    C2H7N
 Framework group  CS[SG(HN),X(C2H6)]
 Deg. of freedom    13
 Full point group                 CS      NOp   2
 Largest Abelian subgroup         CS      NOp   2
 Largest concise Abelian subgroup CS      NOp   2
                         Standard orientation:                         
 ---------------------------------------------------------------------
 Center     Atomic      Atomic             Coordinates (Angstroms)
 Number     Number       Type             X           Y           Z
 ---------------------------------------------------------------------
      1          7           0        0.027541    0.595377   -0.000000
      2          6           0        0.027541   -0.225512    1.202467
      3          1           0       -0.795603    1.184935   -0.000000
      4          6           0        0.027541   -0.225512   -1.202467
      5          1           0        0.968147   -0.773949   -1.255915
      6          1           0       -0.041705    0.409395   -2.083734
      7          1           0       -0.790275   -0.958662   -1.231342
      8          1           0       -0.041705    0.409395    2.083734
      9          1           0        0.968147   -0.773949    1.255915
     10          1           0       -0.790275   -0.958662    1.231342
 ---------------------------------------------------------------------
 Rotational constants (GHZ):          34.2337858           9.4659276           8.3186624
 Standard basis: Aug-CC-pVTZ (5D, 7F)
 There are   185 symmetry adapted cartesian basis functions of A'  symmetry.
 There are   155 symmetry adapted cartesian basis functions of A"  symmetry.
 There are   161 symmetry adapted basis functions of A'  symmetry.
 There are   138 symmetry adapted basis functions of A"  symmetry.
   299 basis functions,   405 primitive gaussians,   340 cartesian basis functions
    13 alpha electrons       13 beta electrons
       nuclear repulsion energy        84.3802253145 Hartrees.
 NAtoms=   10 NActive=   10 NUniq=    6 SFac= 2.78D+00 NAtFMM=   60 NAOKFM=F Big=F
 Integral buffers will be    131072 words long.
 Raffenetti 1 integral format.
 Two-electron integral symmetry is turned on.
 One-electron integrals computed using PRISM.
 NBasis=   299 RedAO= T EigKep=  2.16D-05  NBF=   161   138
 NBsUse=   299 1.00D-06 EigRej= -1.00D+00 NBFU=   161   138
 Initial guess from the checkpoint file:  "/gscratch/scrubbed/gds001/Gau-27137.chk"
 B after Tr=     0.000000   -0.000000    0.000000
         Rot=    1.000000   -0.000000    0.000000   -0.000013 Ang=  -0.00 deg.
 Initial guess orbital symmetries:
       Occupied  (A') (A") (A') (A') (A") (A') (A') (A') (A") (A")
                 (A') (A") (A')
       Virtual   (A') (A") (A') (A') (A") (A') (A") (A') (A') (A")
                 (A') (A") (A') (A") (A') (A') (A") (A") (A') (A')
                 (A") (A') (A') (A") (A') (A') (A") (A') (A') (A")
                 (A") (A') (A") (A") (A') (A') (A") (A') (A') (A")
                 (A') (A") (A') (A') (A") (A") (A') (A') (A") (A")
                 (A') (A') (A") (A') (A") (A") (A') (A") (A') (A")
                 (A') (A") (A') (A") (A') (A') (A') (A") (A') (A")
                 (A') (A") (A') (A") (A') (A') (A") (A') (A") (A')
                 (A") (A') (A") (A") (A') (A") (A') (A') (A') (A')
                 (A") (A') (A") (A') (A") (A") (A') (A') (A") (A')
                 (A") (A") (A") (A') (A') (A") (A') (A") (A') (A")
                 (A') (A") (A") (A') (A') (A') (A") (A') (A') (A")
                 (A") (A') (A") (A') (A") (A') (A') (A') (A") (A')
                 (A") (A') (A") (A") (A") (A') (A') (A") (A') (A")
                 (A") (A") (A') (A") (A') (A') (A') (A") (A') (A')
                 (A") (A') (A") (A') (A") (A") (A') (A") (A') (A")
                 (A') (A") (A") (A') (A') (A") (A") (A') (A') (A")
                 (A') (A') (A") (A") (A') (A') (A") (A") (A') (A")
                 (A') (A') (A") (A') (A") (A') (A') (A') (A") (A')
                 (A") (A') (A") (A") (A') (A") (A') (A") (A") (A')
                 (A") (A') (A") (A') (A') (A') (A") (A") (A') (A')
                 (A") (A') (A") (A') (A") (A') (A") (A') (A") (A')
                 (A') (A") (A") (A') (A") (A') (A') (A") (A') (A')
                 (A") (A') (A") (A") (A") (A') (A') (A') (A") (A")
                 (A') (A') (A") (A') (A") (A') (A") (A') (A") (A")
                 (A') (A') (A") (A') (A') (A") (A") (A') (A") (A')
                 (A') (A") (A") (A') (A') (A") (A') (A') (A") (A")
                 (A') (A") (A') (A") (A") (A') (A') (A') (A") (A")
                 (A") (A') (A') (A') (A") (A')
 Keep R1 ints in memory in symmetry-blocked form, NReq=1508824297.
 Requested convergence on RMS density matrix=1.00D-08 within 128 cycles.
 Requested convergence on MAX density matrix=1.00D-06.
 Requested convergence on             energy=1.00D-06.
 No special actions if energy rises.
 SCF Done:  E(RHF) =  -134.294501459     A.U. after    7 cycles
            NFock=  7  Conv=0.54D-08     -V/T= 2.0013
 ExpMin= 2.53D-02 ExpMax= 1.14D+04 ExpMxC= 3.89D+02 IAcc=3 IRadAn=         5 AccDes= 0.00D+00
 HarFok:  IExCor=  205 AccDes= 0.00D+00 IRadAn=         5 IDoV=-2 UseB2=F ITyADJ=14
 ICtDFT= 12500011 ScaDFX=  1.000000  1.000000  1.000000  1.000000
 Range of M.O.s used for correlation:     4   299
 NBasis=   299 NAE=    13 NBE=    13 NFC=     3 NFV=     0
 NROrb=    296 NOA=    10 NOB=    10 NVA=   286 NVB=   286

 **** Warning!!: The largest alpha MO coefficient is  0.41540640D+02

 Fully direct method using O(ONN) memory.
 JobTyp=1 Pass  1:  I=   4 to  13 NPSUse= 28 ParTrn=T ParDer=T DoDerP=T.
 Spin components of T(2) and E(2):
     alpha-alpha T2 =       0.2028232309D-01 E2=     -0.6426940860D-01
     alpha-beta  T2 =       0.1321769186D+00 E2=     -0.4581597784D+00
     beta-beta   T2 =       0.2028232309D-01 E2=     -0.6426940860D-01
 ANorm=    0.1082931930D+01
 E2 =    -0.5866985956D+00 EUMP2 =    -0.13488120005469D+03
          IDoAtm=1111111111
          Differentiating once with respect to electric field.
                with respect to dipole field.
          Differentiating once with respect to nuclear coordinates.
 Keep R1 ints in memory in symmetry-blocked form, NReq=1508826165.
          There are     1 degrees of freedom in the 1st order CPHF.  IDoFFX=0 NUNeed=     1.
 LinEq1:  Iter=  0 NonCon=     1 RMS=2.27D-03 Max=2.60D-02 NDo=     1
 AX will form     1 AO Fock derivatives at one time.
 LinEq1:  Iter=  1 NonCon=     1 RMS=6.16D-04 Max=7.20D-03 NDo=     1
 LinEq1:  Iter=  2 NonCon=     1 RMS=1.73D-04 Max=1.89D-03 NDo=     1
 LinEq1:  Iter=  3 NonCon=     1 RMS=4.27D-05 Max=5.03D-04 NDo=     1
 LinEq1:  Iter=  4 NonCon=     1 RMS=1.44D-05 Max=1.72D-04 NDo=     1
 LinEq1:  Iter=  5 NonCon=     1 RMS=3.75D-06 Max=3.01D-05 NDo=     1
 LinEq1:  Iter=  6 NonCon=     1 RMS=7.59D-07 Max=7.09D-06 NDo=     1
 LinEq1:  Iter=  7 NonCon=     1 RMS=1.40D-07 Max=1.83D-06 NDo=     1
 LinEq1:  Iter=  8 NonCon=     1 RMS=2.80D-08 Max=4.02D-07 NDo=     1
 LinEq1:  Iter=  9 NonCon=     1 RMS=5.38D-09 Max=6.19D-08 NDo=     1
 LinEq1:  Iter= 10 NonCon=     1 RMS=1.20D-09 Max=1.80D-08 NDo=     1
 LinEq1:  Iter= 11 NonCon=     1 RMS=2.23D-10 Max=2.83D-09 NDo=     1
 LinEq1:  Iter= 12 NonCon=     0 RMS=3.15D-11 Max=3.42D-10 NDo=     1
 Linear equations converged to 1.000D-10 1.000D-09 after    12 iterations.
 End of Minotr F.D. properties file   721 does not exist.
 End of Minotr F.D. properties file   722 does not exist.
 End of Minotr F.D. properties file   788 does not exist.
 Calling FoFJK, ICntrl=  10002127 FMM=F ISym2X=1 I1Cent= 0 IOpClX= 0 NMat=1 NMatS=1 NMatT=0.
 ***** Axes restored to original set *****
 -------------------------------------------------------------------
 Center     Atomic                   Forces (Hartrees/Bohr)
 Number     Number              X              Y              Z
 -------------------------------------------------------------------
      1        7          -0.000007636   -0.000236868   -0.000000000
      2        6          -0.000003449    0.000153869   -0.000188266
      3        1           0.000039800    0.000016339    0.000000000
      4        6          -0.000003449    0.000153869    0.000188266
      5        1           0.000021841   -0.000011356   -0.000011285
      6        1          -0.000017799    0.000006486   -0.000022729
      7        1          -0.000016675   -0.000038734   -0.000015378
      8        1          -0.000017799    0.000006486    0.000022729
      9        1           0.000021841   -0.000011356    0.000011285
     10        1          -0.000016675   -0.000038734    0.000015378
 -------------------------------------------------------------------
 Cartesian Forces:  Max     0.000236868 RMS     0.000078215

 GradGradGradGradGradGradGradGradGradGradGradGradGradGradGradGradGradGrad
 Berny optimization.
 Using GEDIIS/GDIIS optimizer.
 FormGI is forming the generalized inverse of G from B-inverse, IUseBI=4.
 Internal  Forces:  Max     0.000176904 RMS     0.000045219
 Search for a local minimum.
 Step number   4 out of a maximum of   46
 All quantities printed in internal units (Hartrees-Bohrs-Radians)
 Mixed Optimization -- En-DIIS/RFO-DIIS
 Swapping is turned off.
 Update second derivatives using D2CorX and points    1    2    3    4
 DE= -1.89D-06 DEPred=-1.46D-06 R= 1.29D+00
 TightC=F SS=  1.41D+00  RLast= 8.95D-03 DXNew= 5.0454D-01 2.6848D-02
 Trust test= 1.29D+00 RLast= 8.95D-03 DXMaxT set to 3.00D-01
 ITU=  1  1  1  0
     Eigenvalues ---    0.00671   0.00830   0.02493   0.07049   0.07059
     Eigenvalues ---    0.07574   0.07720   0.10824   0.15511   0.16000
     Eigenvalues ---    0.16000   0.16000   0.16000   0.17417   0.23170
     Eigenvalues ---    0.32546   0.32738   0.33494   0.33581   0.33680
     Eigenvalues ---    0.33687   0.36323   0.38391   0.44142
 En-DIIS/RFO-DIIS/Sim-DIIS IScMMF=       -3 using points:     4    3    2
 RFO step:  Lambda=-6.03703165D-07.
 DidBck=F Rises=F RFO-DIIS coefs:    1.86807   -0.93822    0.07015
 Iteration  1 RMS(Cart)=  0.00095505 RMS(Int)=  0.00000101
 Iteration  2 RMS(Cart)=  0.00000070 RMS(Int)=  0.00000071
 ClnCor:  largest displacement from symmetrization is 2.29D-11 for atom    10.
 Variable       Old X    -DE/DX   Delta X   Delta X   Delta X     New X
                                 (Linear)    (Quad)   (Total)
    R1        2.75134  -0.00018  -0.00115   0.00038  -0.00077   2.75057
    R2        1.91334  -0.00002  -0.00034   0.00019  -0.00015   1.91318
    R3        2.75134  -0.00018  -0.00115   0.00038  -0.00077   2.75057
    R4        2.05671   0.00002   0.00024  -0.00013   0.00011   2.05681
    R5        2.06004   0.00003   0.00034  -0.00022   0.00012   2.06017
    R6        2.07626   0.00004   0.00046  -0.00028   0.00018   2.07644
    R7        2.06004   0.00003   0.00034  -0.00022   0.00012   2.06017
    R8        2.05671   0.00002   0.00024  -0.00013   0.00011   2.05681
    R9        2.07626   0.00004   0.00046  -0.00028   0.00018   2.07644
    A1        1.90530  -0.00001   0.00081  -0.00034   0.00047   1.90577
    A2        1.94359   0.00003   0.00007   0.00053   0.00061   1.94420
    A3        1.90530  -0.00001   0.00081  -0.00034   0.00047   1.90577
[...]
 723561,-0.01211569,0.00156771,-0.00344900,0.00035003,-0.00002076,0.001
 75651,-0.00128535,0.12612708,0.07762928,0.00033519,-0.00102993,-0.0005
 0533,0.00036019,0.00030765,0.00026386,-0.00010060,-0.00020927,-0.00020
 086,-0.01265185,-0.01175564,0.04440899,0.00033324,-0.00037053,-0.00097
 447,-0.00066655,0.00018668,-0.00096464,0.01244458,0.01302479,-0.041827
 21,0.00065919,-0.00035950,-0.00061821,0.06328724,0.02907364,0.02931966
 ,-0.00018945,-0.00009125,0.00021129,0.00079304,-0.00003138,-0.00029122
 ,-0.00029433,0.00020827,-0.00012723,-0.00023372,0.00008062,-0.00003791
 ,-0.00010823,-0.00001781,0.00020060,-0.07014507,-0.00026685,0.00107280
 ,0.00292039,0.03591459,-0.08293254,-0.20534136,0.00010815,-0.00003253,
 -0.00016876,-0.00001763,-0.00005817,0.00039954,0.00012688,-0.00002872,
 -0.00000689,0.00008011,-0.00017558,0.00002721,-0.00012701,-0.00006224,
 -0.00003148,-0.03274163,0.07837021,0.00066485,0.00036377,-0.00079813,0
 .04240685,-0.21426622,-0.21361939,0.00012730,-0.00014145,0.00038232,-0
 .00010381,-0.00011876,0.00051003,-0.00008957,0.00001013,0.00015207,0.0
 0003871,-0.00002857,0.00012792,-0.00000773,-0.00010914,-0.00008521,-0.
 04000884,0.20895995,0.21104020,0.00488697,-0.00357708,0.00229426,-0.68
 079950,0.53209785,-0.03871803,-0.00044526,-0.00060812,0.00095374,0.000
 28556,-0.00016545,-0.00011060,-0.00032119,0.00023204,0.00030131,-0.000
 29787,0.00012599,0.00008812,-0.00002766,-0.00008229,-0.00010326,0.0067
 9229,-0.00418917,-0.00452470,0.66667375,-0.00117596,-0.00015343,0.0003
 1438,0.52662028,-0.11189085,0.01999409,0.00055298,0.00064525,-0.000210
 12,-0.00036623,-0.00013262,-0.00039022,0.00023243,-0.00035948,-0.00016
 368,0.00020961,-0.00002717,-0.00001015,0.00005006,0.00016743,-0.000049
 02,0.00389466,0.00208872,0.00404511,-0.52540479,0.11311007,-0.00397142
 ,0.00515387,-0.00226107,-0.04632789,0.02603238,0.19275080,-0.00000248,
 0.00019431,-0.00044651,0.00032000,-0.00082993,0.00020151,-0.00031108,0
 .00016782,0.00035511,0.00012533,0.00000228,0.00015249,-0.00021116,0.00
 011761,-0.00004978,0.01068729,-0.00657698,0.00324948,0.04014973,-0.023
 89883,-0.19298545,0.00165038,0.00230962,-0.00257812,-0.08246167,-0.124
 30513,0.01361790,-0.00050046,-0.00048843,0.00006069,0.00026409,0.00021
 485,0.00022741,-0.00003079,0.00005133,0.00022338,-0.00010542,-0.000124
 89,0.00000642,-0.00025635,-0.00027916,-0.00015157,-0.00056116,0.001112
 57,0.00149696,0.00325291,-0.00461309,-0.00045835,0.07874859,0.00065412
 ,0.00154028,-0.00000269,-0.12848978,-0.07722417,0.01210876,0.00028896,
 0.00039243,0.00028089,0.00024888,-0.00058484,-0.00022444,-0.00009019,0
 .00017126,-0.00009228,-0.00001241,-0.00005948,0.00010606,-0.00027735,-
 0.00015584,-0.00007318,-0.00001566,0.00175808,0.00128518,0.00157106,-0
 .00344788,-0.00036258,0.12612232,0.07761012,-0.00033452,0.00102538,-0.
 00050505,0.01264940,0.01175811,0.04440800,0.00010278,0.00020909,-0.000
 20246,-0.00036202,-0.00031169,0.00026085,0.00010221,0.00005014,-0.0000
 5660,-0.00020204,0.00002660,-0.00007973,0.00015501,0.00008117,-0.00006
 543,0.00066455,-0.00018156,-0.00095929,-0.00033066,0.00036840,-0.00096
 662,-0.01244471,-0.01302572,-0.04183367,0.00022479,-0.00056407,-0.0073
 0830,0.00000154,-0.00000357,-0.02079155,-0.00344687,0.00354779,-0.0018
 7264,0.10282911,-0.00014525,-0.00139134,-0.01592213,-0.28067561,0.2674
 3793,0.00240480,-0.00187712,0.00944051,-0.02884905,0.64732246,0.600723
 33,-0.00149852,0.00159992,0.00000285,0.00024873,-0.00020634,-0.0010840
 1,0.00188837,0.00347674,-0.00073390,0.00000059,0.00029717,-0.00019358,
 -0.00002797,-0.00306400,0.00018348,-0.00000133,0.00000257,0.00232046,-
 0.00047653,0.00035492,-0.00041784,-0.00000209,0.00000070,-0.00278197,-
 0.00344263,0.00354594,0.00187103,-0.00161802,-0.00067433,0.00036268,0.
 00024848,0.00029754,0.00047944,0.10282043,-0.00014496,-0.00138798,0.01
 591501,-0.00067056,0.00278229,-0.00022990,-0.00021319,-0.00018910,-0.0
 0035660,-0.28060673,0.26739359,-0.00240503,0.00188361,0.00945103,-0.00
 035813,0.00022438,-0.00176353,0.00107805,0.00003142,-0.00042214,0.0288
 4034,-0.64716965,0.60058916,0.00329681,-0.00329956,-0.00113487,0.00009
 014,0.00046353,0.00014866,-0.00041311,-0.00041279,-0.00069368,-0.32945
 134,0.23538758,0.03571412,0.32707808,-0.00010353,0.00069692,-0.0012642
 2,0.00033668,0.00008894,-0.00019579,0.00024306,0.00008803,0.00013187,0
 .23354332,-0.03662844,-0.02135117,-0.23038126,0.03336043,0.00089466,-0
 .00012743,0.00004295,-0.00029575,-0.00027380,0.00003938,-0.00024243,-0
 .00002034,0.00006221,0.03958647,-0.02435138,0.09121657,-0.03908362,0.0
 2710714,-0.09456776,0.00030433,-0.00074620,-0.00082832,0.00004922,0.00
 028955,-0.00014867,0.00012872,0.00009881,-0.00032391,0.24025493,0.0451
 3763,-0.06614808,-0.00233449,0.00052108,0.00113076,-0.23782460,-0.0011
 8007,0.00323927,-0.00906410,-0.00000430,-0.00216890,-0.00136921,0.0004
 2581,0.00005259,0.00055883,0.04476723,-0.22835684,0.66050973,-0.001916
 76,0.00147610,-0.00173258,-0.04124003,0.22373101,0.00070368,-0.0009915
 5,0.00039884,0.00027034,0.00033971,0.00107288,-0.00048688,0.00005720,0
 .00064533,-0.06611016,0.65911508,-0.69778271,0.00414352,-0.00381920,0.
 00071345,0.06462529,-0.64910485,0.69051773,0.00048053,-0.00001966,0.00
 002626,0.00004248,0.00008178,0.00006213,-0.00015917,-0.00019051,-0.000
 04091,-0.00899516,0.00027573,0.00334227,0.00178094,-0.00415020,-0.0020
 0671,-0.00096521,-0.00071228,-0.00296063,0.00768784,-0.00002773,0.0014
 6961,0.00015638,-0.00048532,-0.00013053,-0.00022357,0.00027549,0.00032
 576,0.00005682,-0.00072594,-0.00140197,0.00408765,0.00011401,0.0010147
 5,-0.00061767,-0.00404910,0.00095924,-0.00627666,0.00493760,-0.0019773
 3,0.00049702,0.00002995,-0.00066089,0.00021892,0.00008382,0.00025581,-
 0.00013692,-0.00024127,-0.00005024,-0.00483555,-0.00275587,-0.00262679
 ,0.00088334,-0.00047457,0.00243294,0.00185136,0.00045975,0.00443465,0.
 00139754,0.00299964,-0.00340904,0.00030428,-0.00074647,0.00082474,0.24
 031347,0.04514113,0.06616745,0.00012797,0.00009967,0.00032679,0.000049
 04,0.00029389,0.00015556,0.00000380,-0.00004071,0.00008228,0.00034059,
 -0.00002094,-0.00006624,0.00004327,0.00004457,0.00013868,-0.23788095,-
 0.00118027,0.00324225,0.00906318,0.04477305,-0.22840302,-0.66065854,0.
 00042770,0.00004786,-0.00055713,-0.00000447,-0.00216196,0.00137249,-0.
 00000970,0.00006842,-0.00008022,-0.00002199,0.00104506,0.00041989,-0.0
 0010940,-0.00004993,-0.00009414,-0.04124986,0.22377520,-0.00070360,0.0
 0099557,0.00040294,0.06612349,-0.65925858,-0.69794813,0.00048543,-0.00
 006233,0.00064509,-0.00026911,-0.00033504,0.00107184,0.00013165,-0.000
 07290,-0.00013923,0.00006656,-0.00042098,0.00040236,-0.00001455,-0.000
 19101,-0.00027056,-0.06463817,0.64925032,0.69067425,0.00329634,-0.0033
 0060,0.00113170,-0.32951299,0.23545112,-0.03572017,-0.00040899,-0.0004
 1384,0.00069223,0.00008903,0.00046316,-0.00015137,-0.00011556,0.000070
 46,0.00003131,0.00000059,-0.00001120,-0.00013165,0.00006728,-0.0000090
 7,0.00006794,-0.00233984,-0.00191209,-0.00414161,0.32714953,-0.0001014
 8,0.00069740,0.00126546,0.23360396,-0.03662468,0.02135406,0.00024247,0
 .00008894,-0.00013102,0.00033779,0.00009043,0.00020043,0.00007069,-0.0
 0021229,0.00008945,-0.00003949,0.00007036,0.00007134,-0.00004012,0.000
 04392,-0.00002330,0.00052383,0.00147493,0.00381920,-0.23045079,0.03335
 259,-0.00089577,0.00012024,0.00005489,-0.03959721,0.02436935,0.0912325
 9,0.00024663,0.00002165,0.00005116,0.00029476,0.00025622,0.00001667,-0
 .00004021,-0.00008548,0.00015995,-0.00008473,0.00007402,-0.00013687,0.
 00010904,0.00001718,0.00004583,-0.00113643,0.00174017,0.00072046,0.039
 10383,-0.02711936,-0.09458704,0.00048089,-0.00001711,-0.00002227,-0.00
 899518,0.00027452,-0.00334381,-0.00016254,-0.00018877,0.00003999,0.000
 04539,0.00007731,-0.00006776,0.00006466,-0.00003886,-0.00009697,0.0000
 4576,-0.00010744,0.00001275,0.00001730,-0.00007446,-0.00008229,-0.0009
 6181,-0.00071294,0.00295992,0.00177471,-0.00414688,0.00200007,0.007690
 85,-0.00002940,0.00147606,-0.00014659,-0.00072280,-0.00139723,-0.00409
 444,0.00026907,0.00032999,-0.00006095,-0.00048025,-0.00014028,0.000211
 00,-0.00001575,0.00004727,0.00000682,0.00004972,-0.00004780,0.00018914
 ,-0.00007300,-0.00025354,0.00001603,-0.00404516,0.00096122,0.00627578,
 0.00011289,0.00101850,0.00060599,0.00493458,-0.00199420,-0.00049596,-0
 .00003224,-0.00065916,0.00483658,0.00275989,-0.00263474,0.00013938,0.0
 0024036,-0.00005213,-0.00021990,-0.00008783,0.00025026,-0.00006889,0.0
 0002433,0.00003932,-0.00014027,0.00008936,-0.00026568,0.00008560,-0.00
 000881,-0.00015178,-0.00185466,-0.00045606,0.00444099,-0.00088224,0.00
 047372,0.00244222,-0.00139963,-0.00300276,-0.00340938,-0.00169944,0.00
 114147,-0.00831520,0.00000131,0.00000120,-0.01863785,-0.00396171,0.003
 54716,-0.00222243,0.12358579,0.00013059,-0.00127819,-0.01660408,-0.296
 14554,0.26321752,0.00202461,-0.00187985,0.00903556,-0.02315769,0.63340
 935,0.58235163,0.00056634,-0.00043990,-0.00000190,0.00019689,-0.000265
 12,-0.00086869,-0.00007303,0.00134727,0.00035318,0.00000277,0.00047872
 ,-0.00033308,0.00023583,-0.00099741,-0.00070764,-0.00000008,0.00000055
 ,0.00123121,-0.00058932,0.00046096,-0.00039339,0.00000006,0.00000021,-
 0.00186124,-0.00396185,0.00354762,0.00221720,-0.00180604,-0.00065048,-
 0.00001760,0.00019719,0.00047991,0.00059046,0.12361649,0.00012946,-0.0
 0127718,0.01660820,-0.00064674,0.00184476,-0.00127271,-0.00026533,-0.0
 0033414,-0.00046217,-0.29621487,0.26327473,-0.00202881,0.00187606,0.00
 903963,0.00001992,0.00126945,-0.00180901,0.00087042,-0.00023845,-0.000
 39412,0.02316990,-0.63355908,0.58249649,0.00339590,-0.00321967,-0.0013
 4238,0.00022095,0.00024473,0.00040330,-0.00037373,-0.00052003,-0.00067
 644,-0.34819046,0.24983176,0.03908032,0.34557735,-0.00005083,0.0007445
 9,-0.00149349,0.00042504,0.00007156,-0.00009163,0.00031819,0.00015602,
 0.00013695,0.24771312,-0.03887003,-0.02340067,-0.24453875,0.03596764,0
 .00142853,-0.00078649,0.00000698,-0.00059403,0.00037809,0.00030895,-0.
 00013833,-0.00001212,0.00003990,0.04280377,-0.02617387,0.09667765,-0.0
 4235332,0.02904922,-0.09982050,0.00063285,-0.00075849,-0.00102297,0.00
 041969,0.00019012,0.00008080,0.00008934,0.00009020,-0.00033843,0.23615
 123,0.04406498,-0.06452208,-0.00213463,0.00036869,0.00079777,-0.234125
 20,-0.00119830,0.00320730,-0.00964116,-0.00011669,-0.00088558,-0.00061
 934,0.00044160,0.00004527,0.00062857,0.04358538,-0.22341162,0.64843793
 ,-0.00211618,0.00137801,-0.00144565,-0.03987189,0.21924751,0.00054022,
 -0.00089052,0.00023477,0.00013507,0.00008938,0.00160864,-0.00038400,0.
 00011821,0.00072008,-0.06451339,0.64760451,-0.68461574,0.00416066,-0.0
 0365670,0.00038270,0.06298573,-0.63771514,0.67756945,0.00050031,0.0000
 7961,0.00008874,0.00012327,0.00001815,0.00000375,-0.00015880,-0.000225
 32,-0.00002310,-0.00676973,0.00264994,0.00390001,0.00181022,-0.0042204
 9,-0.00199864,-0.00075230,-0.00076568,-0.00293512,0.00523140,-0.000125
 92,0.00130578,-0.00000414,-0.00047617,0.00002502,-0.00016915,0.0002242
 5,0.00030948,0.00003470,0.00170645,-0.00043812,0.00473023,0.00006771,0
 .00088183,-0.00067273,-0.00412626,0.00095331,-0.00625858,0.00264407,-0
 .00266126,0.00049778,-0.00000972,-0.00057483,0.00022099,-0.00003438,0.
 00027483,-0.00011965,-0.00023342,-0.00005151,-0.00448720,-0.00230993,-
 0.00358592,0.00085950,-0.00046610,0.00238607,0.00202174,0.00061773,0.0
 0440041,0.00095116,0.00240374,-0.00240814,0.00063512,-0.00075868,0.001
 02483,0.23610268,0.04405314,0.06450351,0.00008940,0.00009028,0.0003384
 5,0.00041965,0.00018935,-0.00008135,-0.00018601,-0.00008231,-0.0001679
 2,-0.00006907,0.00000517,0.00004319,-0.00002633,0.00012023,0.00012671,
 -0.23407954,-0.00119806,0.00321045,0.00963641,0.04357580,-0.22335382,-
 0.64827939,0.00044257,0.00004454,-0.00062818,-0.00011636,-0.00088489,0
 .00062066,0.00009662,-0.00012952,-0.00011412,0.00000514,-0.00027513,0.
 00039642,-0.00006075,-0.00012975,-0.00001933,-0.03985976,0.21918970,-0
 .00053642,0.00089392,0.00022909,0.06449621,-0.64744766,-0.68444106,0.0
 0038360,-0.00011826,0.00072062,-0.00013515,-0.00009056,0.00160744,0.00
 009422,-0.00010656,-0.00020319,-0.00004338,-0.00039650,0.00021642,-0.0
 0006237,-0.00020582,-0.00031265,-0.06296797,0.63756248,0.67740290,0.00
 339357,-0.00321915,0.00134638,-0.34810773,0.24977633,-0.03907382,-0.00
 037394,-0.00051881,0.00067568,0.00022097,0.00024222,-0.00040502,-0.000
 19239,0.00009802,0.00020598,-0.00018559,0.00009677,-0.00009475,0.00007
 238,0.00005540,0.00002076,-0.00213547,-0.00211660,-0.00416040,0.345497
 27,-0.00004944,0.00074395,0.00148960,0.24765421,-0.03886981,0.02339469
 ,0.00031783,0.00015595,-0.00013631,0.00042488,0.00007156,0.00009369,0.
 00009804,-0.00016144,-0.00007410,-0.00008264,-0.00012952,0.00010654,-0
 .00003006,-0.00003814,0.00004475,0.00036826,0.00137840,0.00365719,-0.2
 4448296,0.03596717,-0.00142907,0.00078566,0.00000979,-0.04279404,0.026
 16900,0.09664951,0.00013833,0.00001237,0.00004016,0.00059364,-0.000378
 52,0.00030809,-0.00020514,0.00007373,0.00022264,0.00016783,0.00011438,
 -0.00020361,-0.00001665,0.00014772,-0.00000150,-0.00079774,0.00144500,
 0.00038170,0.04234404,-0.02904238,-0.09979202,0.00049888,0.00007997,-0
 .00008879,-0.00677364,0.00264806,-0.00389817,-0.00015973,-0.00022477,0
 .00002272,0.00012294,0.00001937,-0.00000334,0.00007283,-0.00003069,0.0
 0001627,-0.00002658,-0.00006017,0.00006236,-0.00003047,-0.00008986,-0.
 00009180,-0.00075057,-0.00076860,0.00293164,0.00181083,-0.00421809,0.0
 0199875,0.00523554,-0.00012627,0.00130526,0.00000467,0.00170425,-0.000
 43829,-0.00472764,0.00022333,0.00031047,-0.00003527,-0.00047557,0.0000
 2480,0.00017008,0.00005575,-0.00003861,-0.00014821,0.00012016,-0.00012
 946,0.00020583,-0.00008950,-0.00020813,0.00000673,-0.00412566,0.000950
 03,0.00625174,0.00006877,0.00088194,0.00067301,0.00264471,-0.00265811,
 -0.00049806,0.00000919,-0.00057433,0.00448531,0.00230998,-0.00358535,0
 .00012015,0.00023285,-0.00005180,-0.00022167,0.00003411,0.00027593,-0.
 00002068,-0.00004474,-0.00000146,-0.00012699,0.00001916,-0.00031313,0.
 00009222,-0.00000603,-0.00012689,-0.00202177,-0.00061997,0.00439866,-0
 .00085882,0.00046626,0.00238510,-0.00094967,-0.00240088,-0.00240678,3.
 07991225,-2.85777983,0.88862949,0.00000464,0.00000261,-1.06122806,-0.0
 1914783,-0.01218223,0.02009483,-0.00213381,0.01000116,0.00954505,-0.02
 894237,0.00625939,-0.00971285,-0.00508401,-0.01048500,0.02068710,-0.00
 302019,0.00435250,-0.00757787,-3.03740704,2.87735931,-0.00000110,0.018
 53972,-0.01547220,0.00674536,3.00256026,2.84179687,-0.91138170,-0.0000
 0096,0.00337652,0.00204417,0.00539429,-2.84555447,0.90500637,0.0000002
 7,0.00000001,1.01945149,-0.01464746,0.01976768,-0.01252948,-0.00000005
 ,0.00000075,-0.99928677,-0.01914628,-0.01218508,-0.02010102,0.00339178
 ,-0.00012318,-0.00049341,0.01854080,0.00337480,0.01464817,-0.00214087,
 0.00999511,0.00953496,0.02894834,-0.00012229,-0.00061841,-0.00126190,-
 0.01547264,0.00204656,-0.01976793,0.00626626,-0.00971619,0.00507998,0.
 01047774,0.02070119,0.00049346,0.00125619,-0.00038988,-0.00674599,-0.0
 0539369,-0.01252967,0.00302674,-0.00434519,-0.00759569,-0.00060785,0.0
 0044188,0.00146509,-0.00038972,0.00027932,-0.00037616,-0.00085455,-0.0
 0073659,-0.00062200,-0.00082315,0.00217996,-0.00026383,0.00163927,-0.0
 0065979,0.00150042,0.00272701,0.00057680,-0.00040492,0.00003680,-0.001
 72002,0.00063046,-0.00063353,0.00441396,-0.00022696,-0.00154337,-0.002
 43928,-0.00177305,0.00230014,0.00219642,0.00319513,-0.00159114,0.00083
 762,-0.00090959,-0.00333602,0.00090036,-0.00148016,0.00235716,-0.00268
 988,0.00198562,0.00003162,-0.00094037,-0.00231678,-0.00035597,0.000819
 11,0.00125904,0.00028153,-0.00001798,-0.00025291,-0.00011011,0.0002140
 8,-0.00079869,0.00033588,-0.00164793,-0.00072698,-0.00031040,-0.000125
 84,-0.00000494,0.00013729,-0.00074470,0.00054673,-0.00180703,0.0001576
 0,0.00028679,0.00025347,0.00083016,-0.00101285,0.00227719,-0.00110978,
 0.00042272,0.00004805,0.00015139,0.00013700,-0.00005458,0.00093947,-0.
 00016052,-0.00059316,-0.00181130,-0.00277698,0.00016236,0.00063621,0.0
 0039043,-0.00003018,0.00066894,0.00255260,-0.00001171,0.00135140,-0.00
 039318,0.00004446,0.00001406,0.00011782,0.00057726,-0.00089233,-0.0001
 6434,-0.00114248,0.00113249,0.00129867,-0.00044183,0.00018267,0.000092
 65,-0.00015222,-0.00097406,-0.00030920,0.00039345,-0.00164263,-0.00140
 142,0.00066906,0.00010305,-0.00035234,-0.00004776,-0.00017789,-0.00009
 096,0.00033378,-0.00060232,-0.00020834,-0.00035378,-0.00004824,-0.0002
 5973,0.00012375,0.00046034,0.00152309,0.00075461,-0.00132274,-0.001065
 25,-0.00009221,0.00013110,0.00014930,0.00015439,-0.00014126,-0.0000758
 5,0.00007247,0.00142581,-0.00004152,-0.00277794,-0.00078373,-0.0002266
 7,0.00057549,0.00034912,-0.00019128,0.00193162,0.00192800,0.00137439,-
 0.00027979,-0.00040968,-0.00106759,0.00010538,0.00003870,-0.00010414,0
 .00006300,0.00005628,0.00009977,0.00059187,-0.00093071,0.00036133,-0.0
 0035727,0.00081891,-0.00125841,0.00034215,-0.00164669,0.00072677,-0.00
 010975,0.00021407,0.00079872,0.00028045,-0.00001839,0.00025174,0.00003
 756,-0.00007294,0.00004828,0.00001203,0.00005089,0.00002114,0.00002033
 ,-0.00001732,0.00004655,0.00013108,-0.00074554,0.00054688,0.00180235,-
 0.00110486,0.00042468,-0.00004751,0.00083082,-0.00101281,-0.00227703,0
 .00015733,0.00028652,-0.00025141,-0.00001023,0.00000689,-0.00005537,0.
 00005079,-0.00010468,-0.00009685,-0.00008649,-0.00004621,0.00003295,0.
 00093952,-0.00016379,0.00059290,0.00180748,-0.00277753,0.00001545,-0.0
 0135818,-0.00038659,0.00002890,-0.00066563,0.00255270,-0.00016242,-0.0
 0063420,0.00039364,0.00002337,-0.00001649,0.00004757,-0.00002112,0.000
 09693,0.00019852,0.00005616,-0.00004130,-0.00007313,-0.00057675,0.0008
 9593,-0.00017107,-0.00060550,0.00044463,-0.00146209,-0.00083221,0.0021
 7908,0.00025979,-0.00085362,-0.00073856,0.00062126,-0.00039007,0.00027
 990,0.00037779,0.00044390,-0.00007496,0.00044392,0.00003742,-0.0000110
 3,-0.00002232,0.00019522,0.00007712,-0.00003719,-0.00031025,0.00014741
 ,-0.00004614,0.00164084,-0.00065873,0.00149764,-0.00272958,0.00441262,
 -0.00024053,0.00154386,-0.00172173,0.00063257,0.00063354,0.00057674,-0
 .00040357,-0.00003416,-0.00007480,-0.00001929,-0.00024111,-0.00007288,
 0.00000721,0.00001662,-0.00000079,-0.00000043,-0.00007531,-0.00012667,
 0.00013913,-0.00001138,-0.00243536,-0.00176112,-0.00230102,-0.00219041
 ,0.00320141,-0.00236037,0.00269248,0.00197198,0.00333797,-0.00090255,-
 0.00148011,0.00159183,-0.00084088,-0.00091183,-0.00044470,0.00024180,-
 0.00069728,-0.00004828,0.00005509,0.00004786,-0.00010422,0.00010727,0.
 00016174,0.00000495,0.00005396,0.00011607,-0.00003010,0.00093651,-0.00
 230403,-0.00114206,0.00113071,-0.00129961,0.00039027,-0.00164155,0.001
 40216,-0.00015353,-0.00097259,0.00030897,-0.00044185,0.00018267,-0.000
 09159,0.00019582,-0.00000095,0.00010339,0.00002004,-0.00008608,-0.0000
 5688,0.00017248,0.00003746,-0.00021898,-0.00004643,-0.00017870,0.00008
 963,0.00067422,0.00010163,0.00035387,0.00033118,-0.00060221,-0.0002111
 5,0.00035341,-0.00132530,-0.00106421,0.00008986,0.00046044,0.00152416,
 -0.00075530,-0.00004823,-0.00026046,-0.00012200,0.00007730,0.00000029,
 -0.00010759,-0.00001760,-0.00004648,0.00004092,0.00003779,0.00002486,-
 0.00020557,-0.00014139,-0.00007654,-0.00007323,0.00013180,0.00014840,-
 0.00015328,0.00142733,-0.00003896,0.00277819,0.00078627,-0.00022708,0.
 00027752,0.00040871,-0.00106459,-0.00193053,-0.00192953,0.00137494,-0.
 00057557,-0.00035009,-0.00019233,0.00003677,0.00007541,0.00016164,-0.0
 0004632,-0.00003312,-0.00007254,0.00021882,0.00020550,-0.00033446,-0.0
 0006299,-0.00005705,0.00009989,-0.00010485,-0.00003896,-0.00010596,-0.
 00059100,0.00093283,0.00036040\\@


 A DANDELION FROM A LOVER MEANS MORE THAN AN ORCHID FROM A FRIEND.
 Job cpu time:      19 days 12 hours 35 minutes 36.6 seconds.
 Elapsed time:       0 days 17 hours  0 minutes 54.5 seconds.
 File lengths (MBytes):  RWF=  15992 Int=      0 D2E=      0 Chk=     60 Scr=      8
 Normal termination of Gaussian 16 at Wed Dec  1 03:51:43 2021.
