 Entering Gaussian System, Link 0=g16
 Input=me2nh_mp2_avdz_opt_anharm.gjf
 Output=me2nh_mp2_avdz_opt_anharm.log
 Initial command:
 /sw/contrib/gaussian/g16/A03/g16/l1.exe "/gscratch/scrubbed/gds001/Gau-108812.inp" -scrdir="/gscratch/scrubbed/gds001/"
 Entering Link 1 = /sw/contrib/gaussian/g16/A03/g16/l1.exe PID=    108813.
  
 Copyright (c) 1988,1990,1992,1993,1995,1998,2003,2009,2016,
            Gaussian, Inc.  All Rights Reserved.
  
 This is part of the Gaussian(R) 16 program.  It is based on
 the Gaussian(R) 09 system (copyright 2009, Gaussian, Inc.),
 the Gaussian(R) 03 system (copyright 2003, Gaussian, Inc.),
 the Gaussian(R) 98 system (copyright 1998, Gaussian, Inc.),
 the Gaussian(R) 94 system (copyright 1995, Gaussian, Inc.),
 the Gaussian 92(TM) system (copyright 1992, Gaussian, Inc.),
 the Gaussian 90(TM) system (copyright 1990, Gaussian, Inc.),
 the Gaussian 88(TM) system (copyright 1988, Gaussian, Inc.),
 the Gaussian 86(TM) system (copyright 1986, Carnegie Mellon
 University), and the Gaussian 82(TM) system (copyright 1983,
 Carnegie Mellon University). Gaussian is a federally registered
 trademark of Gaussian, Inc.
  
 This software contains proprietary and confidential information,
 including trade secrets, belonging to Gaussian, Inc.
  
 This software is provided under written license and may be
 used, copied, transmitted, or stored only in accord with that
 written license.
  
 The following legend is applicable only to US Government
 contracts under FAR:
  
                    RESTRICTED RIGHTS LEGEND
  
 Use, reproduction and disclosure by the US Government is
 subject to restrictions as set forth in subparagraphs (a)
 and (c) of the Commercial Computer Software - Restricted
 Rights clause in FAR 52.227-19.
  
 Gaussian, Inc.
 340 Quinnipiac St., Bldg. 40, Wallingford CT 06492
  
  
 ---------------------------------------------------------------
 Warning -- This program may not be used in any manner that
 competes with the business of Gaussian, Inc. or will provide
 assistance to any competitor of Gaussian, Inc.  The licensee
 of this program is prohibited from giving any competitor of
 Gaussian, Inc. access to this program.  By using this program,
 the user acknowledges that Gaussian, Inc. is engaged in the
 business of creating and licensing software in the field of
 computational chemistry and represents and warrants to the
 licensee that it is not a competitor of Gaussian, Inc. and that
 it will not use this program in any manner prohibited above.
 ---------------------------------------------------------------
  

 Cite this work as:
 Gaussian 16, Revision A.03,
 M. J. Frisch, G. W. Trucks, H. B. Schlegel, G. E. Scuseria, 
 M. A. Robb, J. R. Cheeseman, G. Scalmani, V. Barone, 
 G. A. Petersson, H. Nakatsuji, X. Li, M. Caricato, A. V. Marenich, 
 J. Bloino, B. G. Janesko, R. Gomperts, B. Mennucci, H. P. Hratchian, 
 J. V. Ortiz, A. F. Izmaylov, J. L. Sonnenberg, D. Williams-Young, 
 F. Ding, F. Lipparini, F. Egidi, J. Goings, B. Peng, A. Petrone, 
 T. Henderson, D. Ranasinghe, V. G. Zakrzewski, J. Gao, N. Rega, 
 G. Zheng, W. Liang, M. Hada, M. Ehara, K. Toyota, R. Fukuda, 
 J. Hasegawa, M. Ishida, T. Nakajima, Y. Honda, O. Kitao, H. Nakai, 
 T. Vreven, K. Throssell, J. A. Montgomery, Jr., J. E. Peralta, 
 F. Ogliaro, M. J. Bearpark, J. J. Heyd, E. N. Brothers, K. N. Kudin, 
 V. N. Staroverov, T. A. Keith, R. Kobayashi, J. Normand, 
 K. Raghavachari, A. P. Rendell, J. C. Burant, S. S. Iyengar, 
 J. Tomasi, M. Cossi, J. M. Millam, M. Klene, C. Adamo, R. Cammi, 
 J. W. Ochterski, R. L. Martin, K. Morokuma, O. Farkas, 
 J. B. Foresman, and D. J. Fox, Gaussian, Inc., Wallingford CT, 2016.
 
 ******************************************
 Gaussian 16:  ES64L-G16RevA.03 25-Dec-2016
                24-Nov-2021 
 ******************************************
 %nprocshared=32
 Will use up to   32 processors via shared memory.
 %mem=41GB
 ----------------------------------------------
 # mp2/aug-cc-pVDZ opt freq=(vibrot,anharmonic)
 ----------------------------------------------
 1/18=20,19=15,38=1,80=1/1,3;
 2/9=110,12=2,17=6,18=5,40=1/2;
 3/5=16,7=10,11=9,25=1,30=1,71=1/1,2,3;
 4//1;
 5/5=2,38=5/2;
 8/6=4,10=1/1;
 9/15=2,16=-3/6;
 10/5=1/2;
 6/7=2,8=2,9=2,10=2/1;
 7/12=2/1,2,3,16;
 1/18=20,19=15,80=1/3(2);
 2/9=110/2;
 99//99;
 2/9=110/2;
 3/5=16,7=10,11=9,25=1,30=1,71=1/1,2,3;
 4/5=5,16=3,69=1/1;
 5/5=2,38=5/2;
 8/6=4,10=1/1;
 9/15=2,16=-3/6;
 10/5=1/2;
 7/12=2/1,2,3,16;
 1/18=20,19=15,80=1/3(-8);
 2/9=110/2;
 6/7=2,8=2,9=2,10=2/1;
 99//99;
 -------------
 dimethylamine
 -------------
 Symbolic Z-matrix:
 Charge =  0 Multiplicity = 1
 N                    -0.41292   2.86292  -0.02426 
 C                     1.04346   2.8769   -0.04516 
 H                    -0.74497   3.53338   0.66846 
 C                    -0.9162    1.5379    0.3115 
 H                    -0.60032   0.7952   -0.42832 
 H                    -2.01049   1.55376   0.31525 
 H                    -0.5805    1.2203    1.30412 
 H                     1.39469   3.88046  -0.30449 
 H                     1.43528   2.18609  -0.79879 
 H                     1.46178   2.61576   0.93243 
 

 GradGradGradGradGradGradGradGradGradGradGradGradGradGradGradGradGradGrad
 Berny optimization.
 Initialization pass.
                           ----------------------------
                           !    Initial Parameters    !
                           ! (Angstroms and Degrees)  !
 --------------------------                            --------------------------
 ! Name  Definition              Value          Derivative Info.                !
 --------------------------------------------------------------------------------
 ! R1    R(1,2)                  1.4566         estimate D2E/DX2                !
 ! R2    R(1,3)                  1.0196         estimate D2E/DX2                !
 ! R3    R(1,4)                  1.4566         estimate D2E/DX2                !
 ! R4    R(2,8)                  1.0944         estimate D2E/DX2                !
 ! R5    R(2,9)                  1.0949         estimate D2E/DX2                !
 ! R6    R(2,10)                 1.0949         estimate D2E/DX2                !
 ! R7    R(4,5)                  1.0949         estimate D2E/DX2                !
 ! R8    R(4,6)                  1.0944         estimate D2E/DX2                !
 ! R9    R(4,7)                  1.0949         estimate D2E/DX2                !
 ! A1    A(2,1,3)              109.2102         estimate D2E/DX2                !
 ! A2    A(2,1,4)              110.9468         estimate D2E/DX2                !
 ! A3    A(3,1,4)              109.2102         estimate D2E/DX2                !
 ! A4    A(1,2,8)              109.4558         estimate D2E/DX2                !
 ! A5    A(1,2,9)              111.2003         estimate D2E/DX2                !
 ! A6    A(1,2,10)             111.5242         estimate D2E/DX2                !
 ! A7    A(8,2,9)              107.4952         estimate D2E/DX2                !
 ! A8    A(8,2,10)             107.9182         estimate D2E/DX2                !
 ! A9    A(9,2,10)             109.1092         estimate D2E/DX2                !
 ! A10   A(1,4,5)              111.2003         estimate D2E/DX2                !
 ! A11   A(1,4,6)              109.4558         estimate D2E/DX2                !
 ! A12   A(1,4,7)              111.5242         estimate D2E/DX2                !
 ! A13   A(5,4,6)              107.4952         estimate D2E/DX2                !
 ! A14   A(5,4,7)              109.1092         estimate D2E/DX2                !
 ! A15   A(6,4,7)              107.9182         estimate D2E/DX2                !
 ! D1    D(3,1,2,8)            -59.8611         estimate D2E/DX2                !
 ! D2    D(3,1,2,9)           -178.4809         estimate D2E/DX2                !
 ! D3    D(3,1,2,10)            59.4842         estimate D2E/DX2                !
 ! D4    D(4,1,2,8)            179.7096         estimate D2E/DX2                !
 ! D5    D(4,1,2,9)             61.0898         estimate D2E/DX2                !
 ! D6    D(4,1,2,10)           -60.9451         estimate D2E/DX2                !
 ! D7    D(2,1,4,5)            -61.0898         estimate D2E/DX2                !
 ! D8    D(2,1,4,6)           -179.7096         estimate D2E/DX2                !
 ! D9    D(2,1,4,7)             60.945          estimate D2E/DX2                !
 ! D10   D(3,1,4,5)            178.4809         estimate D2E/DX2                !
 ! D11   D(3,1,4,6)             59.8611         estimate D2E/DX2                !
 ! D12   D(3,1,4,7)            -59.4843         estimate D2E/DX2                !
 --------------------------------------------------------------------------------
 Trust Radius=3.00D-01 FncErr=1.00D-07 GrdErr=1.00D-07 EigMax=2.50D+02 EigMin=1.00D-04
 Number of steps in this run=     46 maximum allowed number of steps=    100.
 GradGradGradGradGradGradGradGradGradGradGradGradGradGradGradGradGradGrad

                          Input orientation:                          
 ---------------------------------------------------------------------
 Center     Atomic      Atomic             Coordinates (Angstroms)
 Number     Number       Type             X           Y           Z
 ---------------------------------------------------------------------
      1          7           0       -0.412923    2.862916   -0.024263
      2          6           0        1.043465    2.876900   -0.045160
      3          1           0       -0.744966    3.533382    0.668464
      4          6           0       -0.916197    1.537896    0.311497
      5          1           0       -0.600321    0.795199   -0.428316
      6          1           0       -2.010492    1.553758    0.315245
      7          1           0       -0.580499    1.220304    1.304123
      8          1           0        1.394689    3.880460   -0.304495
      9          1           0        1.435275    2.186087   -0.798792
     10          1           0        1.461781    2.615760    0.932430
 ---------------------------------------------------------------------
                    Distance matrix (angstroms):
                    1          2          3          4          5
     1  N    0.000000
     2  C    1.456605   0.000000
     3  H    1.019631   2.034382   0.000000
     4  C    1.456605   2.400086   2.034382   0.000000
     5  H    2.115142   2.679985   2.953217   1.094851   0.000000
     6  H    2.093177   3.347723   2.375970   1.094416   1.765468
     7  H    2.119165   2.683679   2.404463   1.094927   1.783943
     8  H    2.093177   1.094416   2.375970   3.347723   3.676171
     9  H    2.115142   1.094851   2.953217   2.679984   2.493085
    10  H    2.119165   1.094927   2.404462   2.683679   3.068931
                    6          7          8          9         10
     6  H    0.000000
     7  H    1.770297   0.000000
     8  H    4.170477   3.683130   0.000000
     9  H    3.676171   3.068930   1.765468   0.000000
    10  H    3.683130   2.501272   1.770297   1.783943   0.000000
 Stoichiometry    C2H7N
 Framework group  CS[SG(HN),X(C2H6)]
 Deg. of freedom    13
 Full point group                 CS      NOp   2
 Largest Abelian subgroup         CS      NOp   2
 Largest concise Abelian subgroup CS      NOp   2
                         Standard orientation:                         
 ---------------------------------------------------------------------
 Center     Atomic      Atomic             Coordinates (Angstroms)
 Number     Number       Type             X           Y           Z
 ---------------------------------------------------------------------
      1          7           0        0.031286    0.596690   -0.000000
      2          6           0        0.031286   -0.228897    1.200043
      3          1           0       -0.798941    1.188611    0.000000
      4          6           0        0.031286   -0.228897   -1.200043
      5          1           0        0.924833   -0.859859   -1.246542
      6          1           0        0.036517    0.414646   -2.085239
      7          1           0       -0.859100   -0.864126   -1.250636
      8          1           0        0.036517    0.414646    2.085239
      9          1           0        0.924833   -0.859859    1.246542
     10          1           0       -0.859100   -0.864126    1.250636
 ---------------------------------------------------------------------
 Rotational constants (GHZ):          34.0294121           9.4692851           8.3252651
 Standard basis: Aug-CC-pVDZ (5D, 7F)
 There are    77 symmetry adapted cartesian basis functions of A'  symmetry.
 There are    61 symmetry adapted cartesian basis functions of A"  symmetry.
 There are    73 symmetry adapted basis functions of A'  symmetry.
 There are    59 symmetry adapted basis functions of A"  symmetry.
   132 basis functions,   206 primitive gaussians,   138 cartesian basis functions
    13 alpha electrons       13 beta electrons
       nuclear repulsion energy        84.2861301914 Hartrees.
 NAtoms=   10 NActive=   10 NUniq=    6 SFac= 2.78D+00 NAtFMM=   60 NAOKFM=F Big=F
 Integral buffers will be    131072 words long.
 Raffenetti 1 integral format.
 Two-electron integral symmetry is turned on.
 One-electron integrals computed using PRISM.
 NBasis=   132 RedAO= T EigKep=  2.30D-04  NBF=    73    59
 NBsUse=   132 1.00D-06 EigRej= -1.00D+00 NBFU=    73    59
 ExpMin= 2.97D-02 ExpMax= 9.05D+03 ExpMxC= 3.09D+02 IAcc=3 IRadAn=         5 AccDes= 0.00D+00
 Harris functional with IExCor=  205 and IRadAn=       5 diagonalized for initial guess.
 HarFok:  IExCor=  205 AccDes= 0.00D+00 IRadAn=         5 IDoV= 1 UseB2=F ITyADJ=14
 ICtDFT=  3500011 ScaDFX=  1.000000  1.000000  1.000000  1.000000
 FoFCou: FMM=F IPFlag=           0 FMFlag=      100000 FMFlg1=           0
         NFxFlg=           0 DoJE=T BraDBF=F KetDBF=T FulRan=T
         wScrn=  0.000000 ICntrl=       500 IOpCl=  0 I1Cent=   200000004 NGrid=           0
         NMat0=    1 NMatS0=      1 NMatT0=    0 NMatD0=    1 NMtDS0=    0 NMtDT0=    0
 Petite list used in FoFCou.
 Initial guess orbital symmetries:
       Occupied  (A') (A") (A') (A') (A") (A') (A') (A") (A') (A")
                 (A') (A") (A')
       Virtual   (A') (A') (A") (A') (A') (A") (A') (A") (A') (A")
                 (A') (A") (A') (A") (A') (A') (A") (A') (A") (A")
                 (A') (A') (A") (A') (A") (A') (A') (A") (A') (A')
                 (A") (A') (A") (A') (A") (A') (A') (A") (A') (A")
                 (A') (A') (A") (A') (A") (A") (A") (A') (A') (A")
                 (A') (A') (A") (A') (A") (A') (A") (A') (A") (A")
                 (A') (A') (A") (A') (A") (A') (A") (A') (A") (A")
                 (A') (A') (A") (A') (A") (A") (A') (A') (A') (A")
                 (A") (A') (A') (A') (A") (A') (A") (A") (A") (A')
                 (A') (A') (A") (A') (A") (A') (A") (A") (A') (A')
                 (A") (A") (A') (A") (A') (A') (A") (A') (A') (A")
                 (A") (A') (A') (A") (A') (A") (A') (A") (A')
 The electronic state of the initial guess is 1-A'.
 Keep R1 ints in memory in symmetry-blocked form, NReq=57825460.
 Requested convergence on RMS density matrix=1.00D-08 within 128 cycles.
 Requested convergence on MAX density matrix=1.00D-06.
 Requested convergence on             energy=1.00D-06.
 No special actions if energy rises.
 SCF Done:  E(RHF) =  -134.258730317     A.U. after   11 cycles
            NFock= 11  Conv=0.68D-08     -V/T= 2.0016
 ExpMin= 2.97D-02 ExpMax= 9.05D+03 ExpMxC= 3.09D+02 IAcc=3 IRadAn=         5 AccDes= 0.00D+00
 HarFok:  IExCor=  205 AccDes= 0.00D+00 IRadAn=         5 IDoV=-2 UseB2=F ITyADJ=14
 ICtDFT= 12500011 ScaDFX=  1.000000  1.000000  1.000000  1.000000
 Range of M.O.s used for correlation:     4   132
 NBasis=   132 NAE=    13 NBE=    13 NFC=     3 NFV=     0
 NROrb=    129 NOA=    10 NOB=    10 NVA=   119 NVB=   119

 **** Warning!!: The largest alpha MO coefficient is  0.17213911D+02

 Fully direct method using O(ONN) memory.
 JobTyp=1 Pass  1:  I=   4 to  13 NPSUse= 32 ParTrn=T ParDer=T DoDerP=T.
 Spin components of T(2) and E(2):
     alpha-alpha T2 =       0.1907630767D-01 E2=     -0.5587604956D-01
     alpha-beta  T2 =       0.1222117298D+00 E2=     -0.3777077291D+00
     beta-beta   T2 =       0.1907630767D-01 E2=     -0.5587604956D-01
 ANorm=    0.1077202091D+01
 E2 =    -0.4894598283D+00 EUMP2 =    -0.13474819014483D+03
          IDoAtm=1111111111
          Differentiating once with respect to electric field.
                with respect to dipole field.
          Differentiating once with respect to nuclear coordinates.
 Keep R1 ints in memory in symmetry-blocked form, NReq=57826827.
          There are     1 degrees of freedom in the 1st order CPHF.  IDoFFX=0 NUNeed=     1.
 LinEq1:  Iter=  0 NonCon=     1 RMS=3.53D-03 Max=3.04D-02 NDo=     1
 AX will form     1 AO Fock derivatives at one time.
 LinEq1:  Iter=  1 NonCon=     1 RMS=5.54D-04 Max=3.94D-03 NDo=     1
 LinEq1:  Iter=  2 NonCon=     1 RMS=2.20D-04 Max=1.86D-03 NDo=     1
 LinEq1:  Iter=  3 NonCon=     1 RMS=4.72D-05 Max=2.83D-04 NDo=     1
 LinEq1:  Iter=  4 NonCon=     1 RMS=2.10D-05 Max=2.44D-04 NDo=     1
 LinEq1:  Iter=  5 NonCon=     1 RMS=3.55D-06 Max=3.01D-05 NDo=     1
 LinEq1:  Iter=  6 NonCon=     1 RMS=6.57D-07 Max=4.84D-06 NDo=     1
 LinEq1:  Iter=  7 NonCon=     1 RMS=1.12D-07 Max=8.28D-07 NDo=     1
 LinEq1:  Iter=  8 NonCon=     1 RMS=2.20D-08 Max=1.91D-07 NDo=     1
 LinEq1:  Iter=  9 NonCon=     1 RMS=3.99D-09 Max=3.71D-08 NDo=     1
 LinEq1:  Iter= 10 NonCon=     1 RMS=7.06D-10 Max=6.91D-09 NDo=     1
 LinEq1:  Iter= 11 NonCon=     1 RMS=1.67D-10 Max=1.56D-09 NDo=     1
 LinEq1:  Iter= 12 NonCon=     0 RMS=2.91D-11 Max=2.00D-10 NDo=     1
 Linear equations converged to 1.000D-10 1.000D-09 after    12 iterations.
 End of Minotr F.D. properties file   721 does not exist.
 End of Minotr F.D. properties file   722 does not exist.
 End of Minotr F.D. properties file   788 does not exist.

 **********************************************************************

            Population analysis using the SCF density.

 **********************************************************************

 Orbital symmetries:
       Occupied  (A') (A") (A') (A') (A") (A') (A') (A') (A") (A")
                 (A') (A") (A')
       Virtual   (A') (A") (A') (A') (A") (A') (A") (A') (A") (A')
                 (A') (A") (A') (A") (A') (A") (A') (A") (A') (A')
                 (A") (A') (A') (A") (A') (A") (A') (A") (A") (A')
                 (A') (A') (A") (A") (A') (A') (A') (A") (A') (A")
                 (A') (A") (A") (A') (A") (A') (A') (A') (A") (A")
                 (A') (A') (A") (A') (A") (A') (A") (A") (A") (A')
                 (A') (A") (A') (A") (A') (A') (A") (A") (A') (A")
                 (A') (A') (A') (A") (A") (A") (A') (A') (A') (A")
                 (A") (A') (A') (A') (A") (A') (A") (A") (A") (A')
                 (A') (A') (A") (A') (A') (A") (A") (A") (A') (A')
                 (A") (A") (A') (A") (A') (A") (A') (A') (A') (A")
                 (A") (A') (A') (A") (A') (A") (A') (A") (A')
 The electronic state is 1-A'.
 Alpha  occ. eigenvalues --  -15.54898 -11.24668 -11.24667  -1.19977  -0.94494
 Alpha  occ. eigenvalues --   -0.85253  -0.65850  -0.61309  -0.58735  -0.54016
 Alpha  occ. eigenvalues --   -0.51200  -0.50075  -0.36701
 Alpha virt. eigenvalues --    0.03632   0.04927   0.05068   0.05722   0.07534
 Alpha virt. eigenvalues --    0.07695   0.08098   0.11872   0.14227   0.14630
 Alpha virt. eigenvalues --    0.16192   0.17205   0.17355   0.17942   0.19621
 Alpha virt. eigenvalues --    0.21075   0.21395   0.26429   0.27398   0.28054
 Alpha virt. eigenvalues --    0.31345   0.31513   0.34052   0.35271   0.38160
 Alpha virt. eigenvalues --    0.39320   0.39615   0.43988   0.44683   0.45212
 Alpha virt. eigenvalues --    0.45811   0.46746   0.48067   0.48517   0.49385
 Alpha virt. eigenvalues --    0.51244   0.53679   0.53810   0.56994   0.58840
 Alpha virt. eigenvalues --    0.61277   0.61490   0.62663   0.63107   0.63234
 Alpha virt. eigenvalues --    0.63645   0.64609   0.66477   0.67057   0.70710
 Alpha virt. eigenvalues --    0.70729   0.71714   0.71902   0.76622   0.77931
 Alpha virt. eigenvalues --    0.79508   0.81382   0.87456   0.89362   0.89799
 Alpha virt. eigenvalues --    0.98034   1.01442   1.01750   1.09559   1.09742
 Alpha virt. eigenvalues --    1.14453   1.16304   1.17496   1.18476   1.25333
 Alpha virt. eigenvalues --    1.29575   1.40849   1.42284   1.44739   1.54463
 Alpha virt. eigenvalues --    1.58253   1.62928   1.66066   1.77867   1.79756
 Alpha virt. eigenvalues --    1.81591   1.86208   1.89624   1.90917   1.94680
 Alpha virt. eigenvalues --    1.99130   2.03605   2.09183   2.10467   2.10964
 Alpha virt. eigenvalues --    2.13233   2.18875   2.18913   2.24164   2.30714
 Alpha virt. eigenvalues --    2.32599   2.33154   2.40363   2.41339   2.49753
 Alpha virt. eigenvalues --    2.50821   2.54569   2.57361   2.59346   2.65575
 Alpha virt. eigenvalues --    2.69649   2.70358   2.79977   2.86585   2.87741
 Alpha virt. eigenvalues --    2.90870   2.93835   2.98760   3.02141   3.11626
 Alpha virt. eigenvalues --    3.17926   3.19411   3.23147   3.59496
          Condensed to atoms (all electrons):
               1          2          3          4          5          6
     1  N    7.067644   0.226501   0.336679   0.226501  -0.107337  -0.063284
     2  C    0.226501   4.030623  -0.060173  -0.043803   0.006731  -0.012901
     3  H    0.336679  -0.060173   0.821655  -0.060173   0.036517  -0.011738
     4  C    0.226501  -0.043803  -0.060173   4.030623   0.368247   0.476911
     5  H   -0.107337   0.006731   0.036517   0.368247   1.124347  -0.212064
     6  H   -0.063284  -0.012901  -0.011738   0.476911  -0.212064   1.186507
     7  H    0.072274   0.003132  -0.040385   0.280918  -0.108026  -0.175721
     8  H   -0.063284   0.476911  -0.011738  -0.012901   0.004539  -0.006643
     9  H   -0.107337   0.368247   0.036517   0.006731   0.016992   0.004539
    10  H    0.072274   0.280918  -0.040385   0.003132  -0.017897   0.006418
               7          8          9         10
     1  N    0.072274  -0.063284  -0.107337   0.072274
     2  C    0.003132   0.476911   0.368247   0.280918
     3  H   -0.040385  -0.011738   0.036517  -0.040385
     4  C    0.280918  -0.012901   0.006731   0.003132
     5  H   -0.108026   0.004539   0.016992  -0.017897
     6  H   -0.175721  -0.006643   0.004539   0.006418
     7  H    1.063306   0.006418  -0.017897   0.002017
     8  H    0.006418   1.186507  -0.212064  -0.175721
     9  H   -0.017897  -0.212064   1.124347  -0.108026
    10  H    0.002017  -0.175721  -0.108026   1.063306
 Mulliken charges:
               1
     1  N   -0.660630
     2  C    0.723813
     3  H   -0.006777
     4  C    0.723813
     5  H   -0.112050
     6  H   -0.192023
     7  H   -0.086037
     8  H   -0.192023
     9  H   -0.112050
    10  H   -0.086037
 Sum of Mulliken charges =  -0.00000
 Mulliken charges with hydrogens summed into heavy atoms:
               1
     1  N   -0.667407
     2  C    0.333704
     4  C    0.333704
 Electronic spatial extent (au):  <R**2>=            203.3726
 Charge=             -0.0000 electrons
 Dipole moment (field-independent basis, Debye):
    X=             -1.0137    Y=             -0.5431    Z=             -0.0000  Tot=              1.1500
 Quadrupole moment (field-independent basis, Debye-Ang):
   XX=            -20.8123   YY=            -21.7331   ZZ=            -20.0905
   XY=             -2.2918   XZ=              0.0000   YZ=             -0.0000
 Traceless Quadrupole moment (field-independent basis, Debye-Ang):
   XX=              0.0663   YY=             -0.8545   ZZ=              0.7881
   XY=             -2.2918   XZ=              0.0000   YZ=             -0.0000
 Octapole moment (field-independent basis, Debye-Ang**2):
  XXX=             -1.1484  YYY=              1.3955  ZZZ=              0.0000  XYY=             -2.3641
  XXY=             -0.2873  XXZ=              0.0000  XZZ=              0.5956  YZZ=              1.9779
  YYZ=              0.0000  XYZ=             -0.0000
 Hexadecapole moment (field-independent basis, Debye-Ang**3):
 XXXX=            -38.3575 YYYY=            -61.3149 ZZZZ=           -179.6979 XXXY=             -0.9485
 XXXZ=              0.0000 YYYX=             -2.7990 YYYZ=              0.0000 ZZZX=              0.0000
 ZZZY=              0.0000 XXYY=            -14.9011 XXZZ=            -37.8116 YYZZ=            -39.3306
 XXYZ=             -0.0000 YYXZ=             -0.0000 ZZXY=             -0.2308
 N-N= 8.428613019144D+01 E-N=-4.814976991490D+02  KE= 1.340447978326D+02
 Symmetry A'   KE= 9.225465191098D+01
 Symmetry A"   KE= 4.179014592158D+01
 Calling FoFJK, ICntrl=  10002127 FMM=F ISym2X=1 I1Cent= 0 IOpClX= 0 NMat=1 NMatS=1 NMatT=0.
 ***** Axes restored to original set *****
 -------------------------------------------------------------------
 Center     Atomic                   Forces (Hartrees/Bohr)
 Number     Number              X              Y              Z
 -------------------------------------------------------------------
      1        7          -0.002418146    0.000114364   -0.012857234
      2        6          -0.001269782    0.008385654    0.002377988
      3        1           0.000155801   -0.000367117   -0.000522225
      4        6          -0.006639388    0.004716693    0.003355251
      5        1           0.003388404   -0.000348318   -0.003467189
      6        1          -0.004573736   -0.000275519   -0.000131593
      7        1           0.003468204   -0.007716125    0.007932014
      8        1           0.001743658    0.004041050   -0.001281352
      9        1          -0.001653503   -0.003793368   -0.002549567
     10        1           0.007798489   -0.004757314    0.007143907
 -------------------------------------------------------------------
 Cartesian Forces:  Max     0.012857234 RMS     0.004778472

 GradGradGradGradGradGradGradGradGradGradGradGradGradGradGradGradGradGrad
 Berny optimization.
 FormGI is forming the generalized inverse of G from B-inverse, IUseBI=4.
 Internal  Forces:  Max     0.010492366 RMS     0.004152259
 Search for a local minimum.
 Step number   1 out of a maximum of   46
 All quantities printed in internal units (Hartrees-Bohrs-Radians)
 Mixed Optimization -- RFO/linear search
 Second derivative matrix not updated -- first step.
 ITU=  0
     Eigenvalues ---    0.00943   0.00943   0.03076   0.07231   0.07231
     Eigenvalues ---    0.07543   0.07543   0.10798   0.16000   0.16000
     Eigenvalues ---    0.16000   0.16000   0.16000   0.16000   0.23447
     Eigenvalues ---    0.34249   0.34249   0.34258   0.34258   0.34307
     Eigenvalues ---    0.34307   0.37393   0.37393   0.44397
 RFO step:  Lambda=-3.10942487D-03 EMin= 9.43008540D-03
 Linear search not attempted -- first point.
 Iteration  1 RMS(Cart)=  0.02964785 RMS(Int)=  0.00065632
 Iteration  2 RMS(Cart)=  0.00096717 RMS(Int)=  0.00037581
 Iteration  3 RMS(Cart)=  0.00000079 RMS(Int)=  0.00037581
 ClnCor:  largest displacement from symmetrization is 2.25D-10 for atom     8.
 Variable       Old X    -DE/DX   Delta X   Delta X   Delta X     New X
                                 (Linear)    (Quad)   (Total)
    R1        2.75258   0.00657   0.00000   0.01743   0.01743   2.77002
    R2        1.92682  -0.00065   0.00000  -0.00145  -0.00145   1.92538
    R3        2.75258   0.00657   0.00000   0.01743   0.01743   2.77002
    R4        2.06815   0.00457   0.00000   0.01320   0.01320   2.08134
    R5        2.06897   0.00356   0.00000   0.01029   0.01029   2.07926
    R6        2.06911   0.01049   0.00000   0.03036   0.03036   2.09947
    R7        2.06897   0.00356   0.00000   0.01029   0.01029   2.07926
    R8        2.06815   0.00457   0.00000   0.01320   0.01320   2.08134
    R9        2.06911   0.01049   0.00000   0.03036   0.03036   2.09947
    A1        1.90608  -0.00132   0.00000  -0.01217  -0.01215   1.89393
    A2        1.93639   0.00326   0.00000   0.01111   0.01112   1.94751
    A3        1.90608  -0.00132   0.00000  -0.01217  -0.01215   1.89393
    A4        1.91036   0.00088   0.00000   0.01034   0.00972   1.92008
    A5        1.94081  -0.00670   0.00000  -0.04923  -0.04904   1.89177
    A6        1.94646   0.00698   0.00000   0.04595   0.04567   1.99213
    A7        1.87614   0.00158   0.00000   0.00304   0.00290   1.87904
    A8        1.88353  -0.00103   0.00000   0.00961   0.00865   1.89218
    A9        1.90431  -0.00174   0.00000  -0.01952  -0.01906   1.88525
   A10        1.94081  -0.00670   0.00000  -0.04923  -0.04904   1.89177
   A11        1.91036   0.00088   0.00000   0.01034   0.00972   1.92008
   A12        1.94646   0.00698   0.00000   0.04595   0.04567   1.99213
   A13        1.87614   0.00158   0.00000   0.00304   0.00290   1.87904
   A14        1.90431  -0.00174   0.00000  -0.01952  -0.01906   1.88525
   A15        1.88353  -0.00103   0.00000   0.00961   0.00865   1.89218
    D1       -1.04477  -0.00149   0.00000   0.00863   0.00832  -1.03645
    D2       -3.11508   0.00012   0.00000   0.02855   0.02831  -3.08677
    D3        1.03820   0.00219   0.00000   0.05613   0.05667   1.09487
    D4        3.13652  -0.00105   0.00000   0.02465   0.02435  -3.12231
    D5        1.06622   0.00055   0.00000   0.04457   0.04434   1.11056
    D6       -1.06369   0.00262   0.00000   0.07215   0.07270  -0.99100
    D7       -1.06622  -0.00055   0.00000  -0.04457  -0.04434  -1.11056
    D8       -3.13652   0.00105   0.00000  -0.02465  -0.02435   3.12231
    D9        1.06369  -0.00262   0.00000  -0.07215  -0.07270   0.99100
   D10        3.11508  -0.00012   0.00000  -0.02855  -0.02831   3.08677
   D11        1.04477   0.00149   0.00000  -0.00863  -0.00832   1.03645
   D12       -1.03820  -0.00219   0.00000  -0.05613  -0.05667  -1.09487
         Item               Value     Threshold  Converged?
 Maximum Force            0.010492     0.000450     NO 
 RMS     Force            0.004152     0.000300     NO 
 Maximum Displacement     0.081319     0.001800     NO 
 RMS     Displacement     0.029714     0.001200     NO 
 Predicted change in Energy=-1.625731D-03
 GradGradGradGradGradGradGradGradGradGradGradGradGradGradGradGradGradGrad

                          Input orientation:                          
 ---------------------------------------------------------------------
 Center     Atomic      Atomic             Coordinates (Angstroms)
 Number     Number       Type             X           Y           Z
 ---------------------------------------------------------------------
      1          7           0       -0.414240    2.858835   -0.046823
      2          6           0        1.051180    2.890680   -0.033148
      3          1           0       -0.758985    3.542438    0.625431
      4          6           0       -0.928409    1.538060    0.327135
      5          1           0       -0.601908    0.810939   -0.431379
      6          1           0       -2.029758    1.548631    0.327649
      7          1           0       -0.580435    1.179251    1.319341
      8          1           0        1.408792    3.898134   -0.298164
      9          1           0        1.420721    2.192968   -0.799496
     10          1           0        1.502854    2.602727    0.940185
 ---------------------------------------------------------------------
                    Distance matrix (angstroms):
                    1          2          3          4          5
     1  N    0.000000
     2  C    1.465831   0.000000
     3  H    1.018866   2.033523   0.000000
     4  C    1.465831   2.424491   2.033523   0.000000
     5  H    2.092123   2.686375   2.933020   1.100296   0.000000
     6  H    2.113471   3.379860   2.383024   1.101400   1.777376
     7  H    2.171411   2.724038   2.469421   1.110992   1.789172
     8  H    2.113471   1.101400   2.383024   3.379860   3.686655
     9  H    2.092123   1.100296   2.933020   2.686375   2.477204
    10  H    2.171411   1.110992   2.469421   2.724038   3.085727
                    6          7          8          9         10
     6  H    0.000000
     7  H    1.794557   0.000000
     8  H    4.211345   3.737066   0.000000
     9  H    3.686655   3.085727   1.777376   0.000000
    10  H    3.737066   2.551496   1.794557   1.789172   0.000000
 Stoichiometry    C2H7N
 Framework group  CS[SG(HN),X(C2H6)]
 Deg. of freedom    13
 Full point group                 CS      NOp   2
 Largest Abelian subgroup         CS      NOp   2
 Largest concise Abelian subgroup CS      NOp   2
                         Standard orientation:                         
 ---------------------------------------------------------------------
 Center     Atomic      Atomic             Coordinates (Angstroms)
 Number     Number       Type             X           Y           Z
 ---------------------------------------------------------------------
      1          7           0        0.027156    0.598364    0.000000
      2          6           0        0.027156   -0.225723    1.212246
      3          1           0       -0.813634    1.173829    0.000000
      4          6           0        0.027156   -0.225723   -1.212246
      5          1           0        0.962616   -0.804404   -1.238602
      6          1           0        0.007206    0.418072   -2.105673
      7          1           0       -0.820985   -0.940516   -1.275748
      8          1           0        0.007206    0.418072    2.105673
      9          1           0        0.962616   -0.804404    1.238602
     10          1           0       -0.820985   -0.940516    1.275748
 ---------------------------------------------------------------------
 Rotational constants (GHZ):          33.8441245           9.2929418           8.1899551
 Standard basis: Aug-CC-pVDZ (5D, 7F)
 There are    77 symmetry adapted cartesian basis functions of A'  symmetry.
 There are    61 symmetry adapted cartesian basis functions of A"  symmetry.
 There are    73 symmetry adapted basis functions of A'  symmetry.
 There are    59 symmetry adapted basis functions of A"  symmetry.
   132 basis functions,   206 primitive gaussians,   138 cartesian basis functions
    13 alpha electrons       13 beta electrons
       nuclear repulsion energy        83.6954176136 Hartrees.
 NAtoms=   10 NActive=   10 NUniq=    6 SFac= 2.78D+00 NAtFMM=   60 NAOKFM=F Big=F
 Integral buffers will be    131072 words long.
 Raffenetti 1 integral format.
 Two-electron integral symmetry is turned on.
 One-electron integrals computed using PRISM.
 NBasis=   132 RedAO= T EigKep=  2.43D-04  NBF=    73    59
 NBsUse=   132 1.00D-06 EigRej= -1.00D+00 NBFU=    73    59
 Initial guess from the checkpoint file:  "/gscratch/scrubbed/gds001/Gau-108813.chk"
 B after Tr=    -0.000000   -0.000000    0.000000
         Rot=    0.999835   -0.000000    0.000000   -0.018152 Ang=  -2.08 deg.
 Initial guess orbital symmetries:
       Occupied  (A') (A") (A') (A') (A") (A') (A') (A') (A") (A")
                 (A') (A") (A')
       Virtual   (A') (A") (A') (A') (A") (A') (A") (A') (A") (A')
                 (A') (A") (A') (A") (A') (A") (A') (A") (A') (A')
                 (A") (A') (A') (A") (A') (A") (A') (A") (A") (A')
                 (A') (A') (A") (A") (A') (A') (A') (A") (A') (A")
                 (A') (A") (A") (A') (A") (A') (A') (A') (A") (A")
                 (A') (A') (A") (A') (A") (A') (A") (A") (A") (A')
                 (A') (A") (A') (A") (A') (A') (A") (A") (A') (A")
                 (A') (A') (A') (A") (A") (A") (A') (A') (A') (A")
                 (A") (A') (A') (A') (A") (A') (A") (A") (A") (A')
                 (A') (A') (A") (A') (A') (A") (A") (A") (A') (A')
                 (A") (A") (A') (A") (A') (A") (A') (A') (A') (A")
                 (A") (A') (A') (A") (A') (A") (A') (A") (A')
 ExpMin= 2.97D-02 ExpMax= 9.05D+03 ExpMxC= 3.09D+02 IAcc=3 IRadAn=         5 AccDes= 0.00D+00
 Harris functional with IExCor=  205 and IRadAn=       5 diagonalized for initial guess.
 HarFok:  IExCor=  205 AccDes= 0.00D+00 IRadAn=         5 IDoV= 1 UseB2=F ITyADJ=14
 ICtDFT=  3500011 ScaDFX=  1.000000  1.000000  1.000000  1.000000
 FoFCou: FMM=F IPFlag=           0 FMFlag=      100000 FMFlg1=           0
         NFxFlg=           0 DoJE=T BraDBF=F KetDBF=T FulRan=T
         wScrn=  0.000000 ICntrl=       500 IOpCl=  0 I1Cent=   200000004 NGrid=           0
         NMat0=    1 NMatS0=      1 NMatT0=    0 NMatD0=    1 NMtDS0=    0 NMtDT0=    0
 Petite list used in FoFCou.
 Keep R1 ints in memory in symmetry-blocked form, NReq=57825460.
 Requested convergence on RMS density matrix=1.00D-08 within 128 cycles.
 Requested convergence on MAX density matrix=1.00D-06.
 Requested convergence on             energy=1.00D-06.
 No special actions if energy rises.
 SCF Done:  E(RHF) =  -134.258793603     A.U. after   10 cycles
            NFock= 10  Conv=0.63D-08     -V/T= 2.0025
 ExpMin= 2.97D-02 ExpMax= 9.05D+03 ExpMxC= 3.09D+02 IAcc=3 IRadAn=         5 AccDes= 0.00D+00
 HarFok:  IExCor=  205 AccDes= 0.00D+00 IRadAn=         5 IDoV=-2 UseB2=F ITyADJ=14
 ICtDFT= 12500011 ScaDFX=  1.000000  1.000000  1.000000  1.000000
 Range of M.O.s used for correlation:     4   132
 NBasis=   132 NAE=    13 NBE=    13 NFC=     3 NFV=     0
 NROrb=    129 NOA=    10 NOB=    10 NVA=   119 NVB=   119

 **** Warning!!: The largest alpha MO coefficient is  0.16618390D+02

 Fully direct method using O(ONN) memory.
 JobTyp=1 Pass  1:  I=   4 to  13 NPSUse= 32 ParTrn=T ParDer=T DoDerP=T.
 Spin components of T(2) and E(2):
     alpha-alpha T2 =       0.1924077128D-01 E2=     -0.5594640469D-01
     alpha-beta  T2 =       0.1235827346D+00 E2=     -0.3789221515D+00
     beta-beta   T2 =       0.1924077128D-01 E2=     -0.5594640469D-01
 ANorm=    0.1077990852D+01
 E2 =    -0.4908149609D+00 EUMP2 =    -0.13474960856339D+03
          IDoAtm=1111111111
          Differentiating once with respect to electric field.
                with respect to dipole field.
          Differentiating once with respect to nuclear coordinates.
 Keep R1 ints in memory in symmetry-blocked form, NReq=57826827.
          There are     1 degrees of freedom in the 1st order CPHF.  IDoFFX=0 NUNeed=     1.
 LinEq1:  Iter=  0 NonCon=     1 RMS=3.56D-03 Max=3.45D-02 NDo=     1
 AX will form     1 AO Fock derivatives at one time.
 LinEq1:  Iter=  1 NonCon=     1 RMS=5.72D-04 Max=3.68D-03 NDo=     1
 LinEq1:  Iter=  2 NonCon=     1 RMS=2.25D-04 Max=2.06D-03 NDo=     1
 LinEq1:  Iter=  3 NonCon=     1 RMS=4.91D-05 Max=2.99D-04 NDo=     1
 LinEq1:  Iter=  4 NonCon=     1 RMS=2.20D-05 Max=2.49D-04 NDo=     1
 LinEq1:  Iter=  5 NonCon=     1 RMS=3.76D-06 Max=3.11D-05 NDo=     1
 LinEq1:  Iter=  6 NonCon=     1 RMS=7.27D-07 Max=6.06D-06 NDo=     1
 LinEq1:  Iter=  7 NonCon=     1 RMS=1.36D-07 Max=1.39D-06 NDo=     1
 LinEq1:  Iter=  8 NonCon=     1 RMS=2.96D-08 Max=2.68D-07 NDo=     1
 LinEq1:  Iter=  9 NonCon=     1 RMS=5.58D-09 Max=5.68D-08 NDo=     1
 LinEq1:  Iter= 10 NonCon=     1 RMS=9.20D-10 Max=8.70D-09 NDo=     1
 LinEq1:  Iter= 11 NonCon=     1 RMS=1.95D-10 Max=1.60D-09 NDo=     1
 LinEq1:  Iter= 12 NonCon=     0 RMS=3.12D-11 Max=2.40D-10 NDo=     1
 Linear equations converged to 1.000D-10 1.000D-09 after    12 iterations.
 End of Minotr F.D. properties file   721 does not exist.
 End of Minotr F.D. properties file   722 does not exist.
 End of Minotr F.D. properties file   788 does not exist.
 Calling FoFJK, ICntrl=  10002127 FMM=F ISym2X=1 I1Cent= 0 IOpClX= 0 NMat=1 NMatS=1 NMatT=0.
 ***** Axes restored to original set *****
 -------------------------------------------------------------------
 Center     Atomic                   Forces (Hartrees/Bohr)
 Number     Number              X              Y              Z
 -------------------------------------------------------------------
      1        7           0.000244857   -0.000113028    0.000921033
      2        6           0.000414777    0.000371950   -0.000209910
      3        1          -0.000933204    0.001450394    0.000317729
      4        6          -0.000528060   -0.000272275   -0.000038315
      5        1           0.000234868   -0.001107841   -0.000218597
      6        1           0.000819268    0.000835340    0.000066448
      7        1           0.000632473    0.000432542   -0.000577132
      8        1          -0.001017997   -0.000420032    0.000400828
      9        1           0.000877957   -0.000668429   -0.000335639
     10        1          -0.000744940   -0.000508621   -0.000326444
 -------------------------------------------------------------------
 Cartesian Forces:  Max     0.001450394 RMS     0.000631219

 GradGradGradGradGradGradGradGradGradGradGradGradGradGradGradGradGradGrad
 Berny optimization.
 Using GEDIIS/GDIIS optimizer.
 FormGI is forming the generalized inverse of G from B-inverse, IUseBI=4.
 Internal  Forces:  Max     0.001844307 RMS     0.000750156
 Search for a local minimum.
 Step number   2 out of a maximum of   46
 All quantities printed in internal units (Hartrees-Bohrs-Radians)
 Mixed Optimization -- En-DIIS/RFO-DIIS
 Update second derivatives using D2CorX and points    1    2
 DE= -1.42D-03 DEPred=-1.63D-03 R= 8.72D-01
 TightC=F SS=  1.41D+00  RLast= 1.93D-01 DXNew= 5.0454D-01 5.7977D-01
 Trust test= 8.72D-01 RLast= 1.93D-01 DXMaxT set to 5.05D-01
 ITU=  1  0
 Use linear search instead of GDIIS.
     Eigenvalues ---    0.00919   0.00943   0.03120   0.07025   0.07141
     Eigenvalues ---    0.07674   0.07820   0.10816   0.15626   0.16000
     Eigenvalues ---    0.16000   0.16000   0.16000   0.17786   0.24101
     Eigenvalues ---    0.33222   0.34249   0.34258   0.34284   0.34307
     Eigenvalues ---    0.35183   0.37393   0.37681   0.44652
 RFO step:  Lambda=-1.08104708D-04 EMin= 9.19150503D-03
 Quartic linear search produced a step of -0.07265.
 Iteration  1 RMS(Cart)=  0.01392584 RMS(Int)=  0.00010007
 Iteration  2 RMS(Cart)=  0.00010575 RMS(Int)=  0.00002073
 Iteration  3 RMS(Cart)=  0.00000001 RMS(Int)=  0.00002073
 ClnCor:  largest displacement from symmetrization is 1.50D-10 for atom     8.
 Variable       Old X    -DE/DX   Delta X   Delta X   Delta X     New X
                                 (Linear)    (Quad)   (Total)
    R1        2.77002  -0.00050  -0.00127   0.00050  -0.00077   2.76925
    R2        1.92538   0.00150   0.00011   0.00298   0.00309   1.92847
    R3        2.77002  -0.00050  -0.00127   0.00050  -0.00077   2.76925
    R4        2.08134  -0.00081  -0.00096  -0.00087  -0.00183   2.07951
    R5        2.07926   0.00095  -0.00075   0.00360   0.00286   2.08211
    R6        2.09947  -0.00046  -0.00221   0.00179  -0.00041   2.09906
    R7        2.07926   0.00095  -0.00075   0.00360   0.00286   2.08211
    R8        2.08134  -0.00081  -0.00096  -0.00087  -0.00183   2.07951
    R9        2.09947  -0.00046  -0.00221   0.00179  -0.00041   2.09906
    A1        1.89393   0.00062   0.00088   0.00259   0.00348   1.89740
    A2        1.94751  -0.00184  -0.00081  -0.00564  -0.00644   1.94107
    A3        1.89393   0.00062   0.00088   0.00259   0.00348   1.89740
    A4        1.92008  -0.00102  -0.00071  -0.00467  -0.00534   1.91474
    A5        1.89177   0.00122   0.00356   0.00288   0.00644   1.89821
    A6        1.99213  -0.00100  -0.00332  -0.00224  -0.00555   1.98658
    A7        1.87904   0.00031  -0.00021   0.00424   0.00405   1.88309
    A8        1.89218   0.00085  -0.00063   0.00428   0.00370   1.89588
    A9        1.88525  -0.00028   0.00139  -0.00410  -0.00274   1.88251
   A10        1.89177   0.00122   0.00356   0.00288   0.00644   1.89821
   A11        1.92008  -0.00102  -0.00071  -0.00467  -0.00534   1.91474
   A12        1.99213  -0.00100  -0.00332  -0.00224  -0.00555   1.98658
   A13        1.87904   0.00031  -0.00021   0.00424   0.00405   1.88309
   A14        1.88525  -0.00028   0.00139  -0.00410  -0.00274   1.88251
   A15        1.89218   0.00085  -0.00063   0.00428   0.00370   1.89588
    D1       -1.03645   0.00050  -0.00060   0.02399   0.02339  -1.01306
    D2       -3.08677  -0.00001  -0.00206   0.01983   0.01779  -3.06898
    D3        1.09487   0.00013  -0.00412   0.02444   0.02030   1.11516
    D4       -3.12231   0.00046  -0.00177   0.02255   0.02079  -3.10152
    D5        1.11056  -0.00005  -0.00322   0.01839   0.01519   1.12574
    D6       -0.99100   0.00008  -0.00528   0.02300   0.01769  -0.97330
    D7       -1.11056   0.00005   0.00322  -0.01839  -0.01519  -1.12574
    D8        3.12231  -0.00046   0.00177  -0.02255  -0.02079   3.10152
    D9        0.99100  -0.00008   0.00528  -0.02300  -0.01769   0.97330
   D10        3.08677   0.00001   0.00206  -0.01983  -0.01779   3.06898
   D11        1.03645  -0.00050   0.00060  -0.02399  -0.02339   1.01306
   D12       -1.09487  -0.00013   0.00412  -0.02444  -0.02030  -1.11516
         Item               Value     Threshold  Converged?
 Maximum Force            0.001844     0.000450     NO 
 RMS     Force            0.000750     0.000300     NO 
 Maximum Displacement     0.035248     0.001800     NO 
 RMS     Displacement     0.013952     0.001200     NO 
 Predicted change in Energy=-6.459738D-05
 GradGradGradGradGradGradGradGradGradGradGradGradGradGradGradGradGradGrad

                          Input orientation:                          
 ---------------------------------------------------------------------
 Center     Atomic      Atomic             Coordinates (Angstroms)
 Number     Number       Type             X           Y           Z
 ---------------------------------------------------------------------
      1          7           0       -0.415438    2.858618   -0.054217
      2          6           0        1.049543    2.887749   -0.032991
      3          1           0       -0.766304    3.549109    0.610265
      4          6           0       -0.925154    1.538472    0.326402
      5          1           0       -0.609002    0.804416   -0.432011
      6          1           0       -2.025334    1.555885    0.342116
      7          1           0       -0.561782    1.185115    1.314794
      8          1           0        1.404219    3.899241   -0.282060
      9          1           0        1.428876    2.196864   -0.802902
     10          1           0        1.490191    2.587193    0.941337
 ---------------------------------------------------------------------
                    Distance matrix (angstroms):
                    1          2          3          4          5
     1  N    0.000000
     2  C    1.465424   0.000000
     3  H    1.020501   2.036780   0.000000
     4  C    1.465424   2.418500   2.036780   0.000000
     5  H    2.097603   2.692631   2.940140   1.101807   0.000000
     6  H    2.108544   3.371859   2.372763   1.100430   1.780442
     7  H    2.167076   2.704044   2.475209   1.110774   1.788432
     8  H    2.108544   1.100430   2.372763   3.371859   3.695062
     9  H    2.097603   1.101807   2.940140   2.692631   2.495880
    10  H    2.167076   1.110774   2.475209   2.704044   3.077497
                    6          7          8          9         10
     6  H    0.000000
     7  H    1.795984   0.000000
     8  H    4.200327   3.712355   0.000000
     9  H    3.695062   3.077497   1.780442   0.000000
    10  H    3.712355   2.513143   1.795984   1.788432   0.000000
 Stoichiometry    C2H7N
 Framework group  CS[SG(HN),X(C2H6)]
 Deg. of freedom    13
 Full point group                 CS      NOp   2
 Largest Abelian subgroup         CS      NOp   2
 Largest concise Abelian subgroup CS      NOp   2
                         Standard orientation:                         
 ---------------------------------------------------------------------
 Center     Atomic      Atomic             Coordinates (Angstroms)
 Number     Number       Type             X           Y           Z
 ---------------------------------------------------------------------
      1          7           0        0.027684    0.600871   -0.000000
      2          6           0        0.027684   -0.226886    1.209250
      3          1           0       -0.812227    1.180501   -0.000000
      4          6           0        0.027684   -0.226886   -1.209250
      5          1           0        0.969333   -0.797658   -1.247940
      6          1           0       -0.013817    0.417705   -2.100163
      7          1           0       -0.812403   -0.952030   -1.256571
      8          1           0       -0.013817    0.417705    2.100163
      9          1           0        0.969333   -0.797658    1.247940
     10          1           0       -0.812403   -0.952030    1.256571
 ---------------------------------------------------------------------
 Rotational constants (GHZ):          33.6445006           9.3405905           8.2136156
 Standard basis: Aug-CC-pVDZ (5D, 7F)
 There are    77 symmetry adapted cartesian basis functions of A'  symmetry.
 There are    61 symmetry adapted cartesian basis functions of A"  symmetry.
 There are    73 symmetry adapted basis functions of A'  symmetry.
 There are    59 symmetry adapted basis functions of A"  symmetry.
   132 basis functions,   206 primitive gaussians,   138 cartesian basis functions
    13 alpha electrons       13 beta electrons
       nuclear repulsion energy        83.7355747598 Hartrees.
 NAtoms=   10 NActive=   10 NUniq=    6 SFac= 2.78D+00 NAtFMM=   60 NAOKFM=F Big=F
 Integral buffers will be    131072 words long.
 Raffenetti 1 integral format.
 Two-electron integral symmetry is turned on.
 One-electron integrals computed using PRISM.
 NBasis=   132 RedAO= T EigKep=  2.43D-04  NBF=    73    59
 NBsUse=   132 1.00D-06 EigRej= -1.00D+00 NBFU=    73    59
 Initial guess from the checkpoint file:  "/gscratch/scrubbed/gds001/Gau-108813.chk"
 B after Tr=     0.000000   -0.000000   -0.000000
         Rot=    0.999996   -0.000000    0.000000   -0.002905 Ang=  -0.33 deg.
 Initial guess orbital symmetries:
       Occupied  (A') (A") (A') (A') (A") (A') (A') (A') (A") (A")
                 (A') (A") (A')
       Virtual   (A') (A") (A') (A') (A") (A') (A") (A') (A") (A')
                 (A') (A") (A') (A") (A') (A") (A') (A") (A') (A')
                 (A") (A') (A') (A") (A') (A") (A') (A") (A") (A')
                 (A') (A') (A") (A") (A') (A') (A') (A") (A') (A")
                 (A') (A") (A") (A') (A") (A') (A') (A') (A") (A')
                 (A") (A') (A") (A') (A") (A') (A") (A") (A") (A')
                 (A') (A") (A') (A") (A') (A') (A") (A") (A') (A")
                 (A') (A') (A') (A") (A") (A") (A') (A') (A') (A")
                 (A") (A') (A') (A') (A") (A') (A") (A") (A") (A')
                 (A') (A') (A") (A') (A") (A') (A") (A") (A') (A')
                 (A") (A") (A') (A") (A') (A') (A") (A') (A") (A')
                 (A") (A') (A') (A") (A') (A") (A') (A") (A')
 ExpMin= 2.97D-02 ExpMax= 9.05D+03 ExpMxC= 3.09D+02 IAcc=3 IRadAn=         5 AccDes= 0.00D+00
 Harris functional with IExCor=  205 and IRadAn=       5 diagonalized for initial guess.
 HarFok:  IExCor=  205 AccDes= 0.00D+00 IRadAn=         5 IDoV= 1 UseB2=F ITyADJ=14
 ICtDFT=  3500011 ScaDFX=  1.000000  1.000000  1.000000  1.000000
 FoFCou: FMM=F IPFlag=           0 FMFlag=      100000 FMFlg1=           0
         NFxFlg=           0 DoJE=T BraDBF=F KetDBF=T FulRan=T
         wScrn=  0.000000 ICntrl=       500 IOpCl=  0 I1Cent=   200000004 NGrid=           0
         NMat0=    1 NMatS0=      1 NMatT0=    0 NMatD0=    1 NMtDS0=    0 NMtDT0=    0
 Petite list used in FoFCou.
 Keep R1 ints in memory in symmetry-blocked form, NReq=57825460.
 Requested convergence on RMS density matrix=1.00D-08 within 128 cycles.
 Requested convergence on MAX density matrix=1.00D-06.
 Requested convergence on             energy=1.00D-06.
 No special actions if energy rises.
 SCF Done:  E(RHF) =  -134.258807676     A.U. after    9 cycles
            NFock=  9  Conv=0.79D-08     -V/T= 2.0025
 ExpMin= 2.97D-02 ExpMax= 9.05D+03 ExpMxC= 3.09D+02 IAcc=3 IRadAn=         5 AccDes= 0.00D+00
 HarFok:  IExCor=  205 AccDes= 0.00D+00 IRadAn=         5 IDoV=-2 UseB2=F ITyADJ=14
 ICtDFT= 12500011 ScaDFX=  1.000000  1.000000  1.000000  1.000000
 Range of M.O.s used for correlation:     4   132
 NBasis=   132 NAE=    13 NBE=    13 NFC=     3 NFV=     0
 NROrb=    129 NOA=    10 NOB=    10 NVA=   119 NVB=   119

 **** Warning!!: The largest alpha MO coefficient is  0.16374373D+02

 Fully direct method using O(ONN) memory.
 JobTyp=1 Pass  1:  I=   4 to  13 NPSUse= 32 ParTrn=T ParDer=T DoDerP=T.
 Spin components of T(2) and E(2):
     alpha-alpha T2 =       0.1924675045D-01 E2=     -0.5595841389D-01
     alpha-beta  T2 =       0.1236089103D+00 E2=     -0.3789642401D+00
     beta-beta   T2 =       0.1924675045D-01 E2=     -0.5595841389D-01
 ANorm=    0.1078008539D+01
 E2 =    -0.4908810679D+00 EUMP2 =    -0.13474968874369D+03
          IDoAtm=1111111111
          Differentiating once with respect to electric field.
                with respect to dipole field.
          Differentiating once with respect to nuclear coordinates.
 Keep R1 ints in memory in symmetry-blocked form, NReq=57826827.
          There are     1 degrees of freedom in the 1st order CPHF.  IDoFFX=0 NUNeed=     1.
 LinEq1:  Iter=  0 NonCon=     1 RMS=3.56D-03 Max=3.54D-02 NDo=     1
 AX will form     1 AO Fock derivatives at one time.
 LinEq1:  Iter=  1 NonCon=     1 RMS=5.74D-04 Max=3.72D-03 NDo=     1
 LinEq1:  Iter=  2 NonCon=     1 RMS=2.26D-04 Max=2.10D-03 NDo=     1
 LinEq1:  Iter=  3 NonCon=     1 RMS=4.92D-05 Max=2.98D-04 NDo=     1
 LinEq1:  Iter=  4 NonCon=     1 RMS=2.20D-05 Max=2.50D-04 NDo=     1
 LinEq1:  Iter=  5 NonCon=     1 RMS=3.78D-06 Max=3.13D-05 NDo=     1
 LinEq1:  Iter=  6 NonCon=     1 RMS=7.29D-07 Max=5.95D-06 NDo=     1
 LinEq1:  Iter=  7 NonCon=     1 RMS=1.35D-07 Max=1.34D-06 NDo=     1
 LinEq1:  Iter=  8 NonCon=     1 RMS=2.95D-08 Max=2.72D-07 NDo=     1
 LinEq1:  Iter=  9 NonCon=     1 RMS=5.59D-09 Max=5.61D-08 NDo=     1
 LinEq1:  Iter= 10 NonCon=     1 RMS=9.17D-10 Max=8.46D-09 NDo=     1
 LinEq1:  Iter= 11 NonCon=     1 RMS=1.95D-10 Max=1.58D-09 NDo=     1
 LinEq1:  Iter= 12 NonCon=     0 RMS=3.11D-11 Max=2.43D-10 NDo=     1
 Linear equations converged to 1.000D-10 1.000D-09 after    12 iterations.
 End of Minotr F.D. properties file   721 does not exist.
 End of Minotr F.D. properties file   722 does not exist.
 End of Minotr F.D. properties file   788 does not exist.
 Calling FoFJK, ICntrl=  10002127 FMM=F ISym2X=1 I1Cent= 0 IOpClX= 0 NMat=1 NMatS=1 NMatT=0.
 ***** Axes restored to original set *****
 -------------------------------------------------------------------
 Center     Atomic                   Forces (Hartrees/Bohr)
 Number     Number              X              Y              Z
 -------------------------------------------------------------------
      1        7           0.000425369   -0.000507326    0.000432540
      2        6           0.000295362    0.000526644   -0.000134862
      3        1          -0.000119288    0.000086759   -0.000329709
      4        6          -0.000610977   -0.000092642    0.000030090
      5        1          -0.000075249    0.000049334    0.000092340
      6        1           0.000193453    0.000006592    0.000128440
      7        1           0.000219501    0.000164847   -0.000280404
      8        1          -0.000039323   -0.000152459    0.000170805
      9        1           0.000002545    0.000102490    0.000078182
     10        1          -0.000291394   -0.000184239   -0.000187422
 -------------------------------------------------------------------
 Cartesian Forces:  Max     0.000610977 RMS     0.000256292

 GradGradGradGradGradGradGradGradGradGradGradGradGradGradGradGradGradGrad
 Berny optimization.
 Using GEDIIS/GDIIS optimizer.
 FormGI is forming the generalized inverse of G from B-inverse, IUseBI=4.
 Internal  Forces:  Max     0.000389629 RMS     0.000161688
 Search for a local minimum.
 Step number   3 out of a maximum of   46
 All quantities printed in internal units (Hartrees-Bohrs-Radians)
 Mixed Optimization -- En-DIIS/RFO-DIIS
 Swapping is turned off.
 Update second derivatives using D2CorX and points    1    2    3
 DE= -8.02D-05 DEPred=-6.46D-05 R= 1.24D+00
 TightC=F SS=  1.41D+00  RLast= 6.99D-02 DXNew= 8.4853D-01 2.0956D-01
 Trust test= 1.24D+00 RLast= 6.99D-02 DXMaxT set to 5.05D-01
 ITU=  1  1  0
     Eigenvalues ---    0.00587   0.00943   0.03128   0.07064   0.07077
     Eigenvalues ---    0.07662   0.07676   0.10779   0.15934   0.16000
     Eigenvalues ---    0.16000   0.16000   0.16052   0.17586   0.26415
     Eigenvalues ---    0.33999   0.34249   0.34258   0.34285   0.34307
     Eigenvalues ---    0.35345   0.37393   0.37811   0.46106
 En-DIIS/RFO-DIIS/Sim-DIIS IScMMF=       -3 using points:     3    2
 RFO step:  Lambda=-3.85648137D-05.
 DidBck=F Rises=F RFO-DIIS coefs:    2.06670   -1.06670
 Iteration  1 RMS(Cart)=  0.01331406 RMS(Int)=  0.00009358
 Iteration  2 RMS(Cart)=  0.00010925 RMS(Int)=  0.00000826
 Iteration  3 RMS(Cart)=  0.00000001 RMS(Int)=  0.00000826
 ClnCor:  largest displacement from symmetrization is 4.11D-11 for atom     8.
 Variable       Old X    -DE/DX   Delta X   Delta X   Delta X     New X
                                 (Linear)    (Quad)   (Total)
    R1        2.76925  -0.00003  -0.00082   0.00079  -0.00003   2.76922
    R2        1.92847  -0.00011   0.00330  -0.00303   0.00026   1.92873
    R3        2.76925  -0.00003  -0.00082   0.00079  -0.00003   2.76922
    R4        2.07951  -0.00019  -0.00196   0.00098  -0.00097   2.07854
    R5        2.08211  -0.00012   0.00305  -0.00280   0.00025   2.08237
    R6        2.09906  -0.00023  -0.00044  -0.00017  -0.00061   2.09845
    R7        2.08211  -0.00012   0.00305  -0.00280   0.00025   2.08237
    R8        2.07951  -0.00019  -0.00196   0.00098  -0.00097   2.07854
    R9        2.09906  -0.00023  -0.00044  -0.00017  -0.00061   2.09845
    A1        1.89740  -0.00007   0.00371  -0.00335   0.00037   1.89777
    A2        1.94107   0.00026  -0.00687   0.00728   0.00041   1.94148
    A3        1.89740  -0.00007   0.00371  -0.00335   0.00037   1.89777
    A4        1.91474   0.00013  -0.00569   0.00635   0.00065   1.91539
    A5        1.89821   0.00011   0.00687  -0.00527   0.00161   1.89981
    A6        1.98658  -0.00039  -0.00592   0.00155  -0.00437   1.98221
    A7        1.88309   0.00001   0.00432  -0.00239   0.00194   1.88503
    A8        1.89588   0.00013   0.00395  -0.00190   0.00203   1.89791
    A9        1.88251   0.00002  -0.00292   0.00133  -0.00158   1.88093
   A10        1.89821   0.00011   0.00687  -0.00527   0.00161   1.89981
   A11        1.91474   0.00013  -0.00569   0.00635   0.00065   1.91539
   A12        1.98658  -0.00039  -0.00592   0.00155  -0.00437   1.98221
   A13        1.88309   0.00001   0.00432  -0.00239   0.00194   1.88503
   A14        1.88251   0.00002  -0.00292   0.00133  -0.00158   1.88093
   A15        1.89588   0.00013   0.00395  -0.00190   0.00203   1.89791
    D1       -1.01306   0.00018   0.02495  -0.00134   0.02361  -0.98945
    D2       -3.06898   0.00003   0.01897   0.00098   0.01995  -3.04903
    D3        1.11516   0.00018   0.02165   0.00201   0.02367   1.13883
    D4       -3.10152   0.00016   0.02218   0.00049   0.02266  -3.07886
    D5        1.12574   0.00001   0.01620   0.00281   0.01901   1.14475
    D6       -0.97330   0.00016   0.01887   0.00384   0.02272  -0.95058
    D7       -1.12574  -0.00001  -0.01620  -0.00281  -0.01901  -1.14475
    D8        3.10152  -0.00016  -0.02218  -0.00049  -0.02266   3.07886
    D9        0.97330  -0.00016  -0.01887  -0.00384  -0.02272   0.95058
   D10        3.06898  -0.00003  -0.01897  -0.00098  -0.01995   3.04903
   D11        1.01306  -0.00018  -0.02495   0.00134  -0.02361   0.98945
   D12       -1.11516  -0.00018  -0.02165  -0.00201  -0.02367  -1.13883
         Item               Value     Threshold  Converged?
 Maximum Force            0.000390     0.000450     YES
 RMS     Force            0.000162     0.000300     YES
 Maximum Displacement     0.034318     0.001800     NO 
 RMS     Displacement     0.013308     0.001200     NO 
 Predicted change in Energy=-1.939561D-05
 GradGradGradGradGradGradGradGradGradGradGradGradGradGradGradGradGradGrad

                          Input orientation:                          
 ---------------------------------------------------------------------
 Center     Atomic      Atomic             Coordinates (Angstroms)
 Number     Number       Type             X           Y           Z
 ---------------------------------------------------------------------
      1          7           0       -0.414743    2.855304   -0.062840
      2          6           0        1.049995    2.887504   -0.032475
      3          1           0       -0.771596    3.552017    0.592104
      4          6           0       -0.924957    1.538053    0.326964
      5          1           0       -0.620140    0.799360   -0.431781
      6          1           0       -2.024219    1.559672    0.358046
      7          1           0       -0.546993    1.188827    1.310978
      8          1           0        1.404262    3.902296   -0.265934
      9          1           0        1.437251    2.205140   -0.806224
     10          1           0        1.480953    2.574489    0.941894
 ---------------------------------------------------------------------
                    Distance matrix (angstroms):
                    1          2          3          4          5
     1  N    0.000000
     2  C    1.465406   0.000000
     3  H    1.020640   2.037123   0.000000
     4  C    1.465406   2.418811   2.037123   0.000000
     5  H    2.098860   2.703542   2.940817   1.101941   0.000000
     6  H    2.108606   3.371414   2.365013   1.099914   1.781387
     7  H    2.163796   2.690862   2.480301   1.110450   1.787245
     8  H    2.108606   1.099914   2.365013   3.371414   3.708628
     9  H    2.098860   1.101941   2.940817   2.703542   2.519779
    10  H    2.163796   1.110450   2.480301   2.690862   3.074518
                    6          7          8          9         10
     6  H    0.000000
     7  H    1.796609   0.000000
     8  H    4.199014   3.695533   0.000000
     9  H    3.708628   3.074518   1.781387   0.000000
    10  H    3.695533   2.483716   1.796609   1.787245   0.000000
 Stoichiometry    C2H7N
 Framework group  CS[SG(HN),X(C2H6)]
 Deg. of freedom    13
 Full point group                 CS      NOp   2
 Largest Abelian subgroup         CS      NOp   2
 Largest concise Abelian subgroup CS      NOp   2
                         Standard orientation:                         
 ---------------------------------------------------------------------
 Center     Atomic      Atomic             Coordinates (Angstroms)
 Number     Number       Type             X           Y           Z
 ---------------------------------------------------------------------
      1          7           0        0.027943    0.600773   -0.000000
      2          6           0        0.027943   -0.226725    1.209405
      3          1           0       -0.811527    1.181288   -0.000000
      4          6           0        0.027943   -0.226725   -1.209405
      5          1           0        0.977553   -0.783471   -1.259889
      6          1           0       -0.036959    0.416173   -2.099507
      7          1           0       -0.800286   -0.965700   -1.241858
      8          1           0       -0.036959    0.416173    2.099507
      9          1           0        0.977553   -0.783471    1.259889
     10          1           0       -0.800286   -0.965700    1.241858
 ---------------------------------------------------------------------
 Rotational constants (GHZ):          33.6490431           9.3434876           8.2143734
 Standard basis: Aug-CC-pVDZ (5D, 7F)
 There are    77 symmetry adapted cartesian basis functions of A'  symmetry.
 There are    61 symmetry adapted cartesian basis functions of A"  symmetry.
 There are    73 symmetry adapted basis functions of A'  symmetry.
 There are    59 symmetry adapted basis functions of A"  symmetry.
   132 basis functions,   206 primitive gaussians,   138 cartesian basis functions
    13 alpha electrons       13 beta electrons
       nuclear repulsion energy        83.7442619916 Hartrees.
 NAtoms=   10 NActive=   10 NUniq=    6 SFac= 2.78D+00 NAtFMM=   60 NAOKFM=F Big=F
 Integral buffers will be    131072 words long.
 Raffenetti 1 integral format.
 Two-electron integral symmetry is turned on.
 One-electron integrals computed using PRISM.
 NBasis=   132 RedAO= T EigKep=  2.44D-04  NBF=    73    59
 NBsUse=   132 1.00D-06 EigRej= -1.00D+00 NBFU=    73    59
 Initial guess from the checkpoint file:  "/gscratch/scrubbed/gds001/Gau-108813.chk"
 B after Tr=     0.000000    0.000000    0.000000
         Rot=    0.999990    0.000000   -0.000000   -0.004367 Ang=  -0.50 deg.
 Initial guess orbital symmetries:
       Occupied  (A') (A") (A') (A') (A") (A') (A') (A') (A") (A")
                 (A') (A") (A')
       Virtual   (A') (A") (A') (A') (A") (A') (A") (A') (A") (A')
                 (A') (A") (A') (A") (A') (A") (A') (A") (A') (A')
                 (A") (A') (A') (A") (A') (A") (A') (A") (A") (A')
                 (A') (A') (A") (A") (A') (A') (A') (A") (A') (A")
                 (A') (A") (A") (A') (A") (A') (A') (A') (A") (A')
                 (A") (A') (A") (A') (A") (A') (A") (A") (A") (A')
                 (A') (A") (A') (A") (A') (A') (A") (A") (A') (A")
                 (A') (A') (A') (A") (A") (A") (A') (A') (A') (A")
                 (A") (A') (A') (A') (A") (A') (A") (A") (A") (A')
                 (A') (A') (A") (A') (A') (A") (A") (A") (A') (A')
                 (A") (A") (A') (A") (A') (A') (A") (A') (A") (A')
                 (A") (A') (A') (A") (A') (A") (A') (A") (A')
 ExpMin= 2.97D-02 ExpMax= 9.05D+03 ExpMxC= 3.09D+02 IAcc=3 IRadAn=         5 AccDes= 0.00D+00
 Harris functional with IExCor=  205 and IRadAn=       5 diagonalized for initial guess.
 HarFok:  IExCor=  205 AccDes= 0.00D+00 IRadAn=         5 IDoV= 1 UseB2=F ITyADJ=14
 ICtDFT=  3500011 ScaDFX=  1.000000  1.000000  1.000000  1.000000
 FoFCou: FMM=F IPFlag=           0 FMFlag=      100000 FMFlg1=           0
         NFxFlg=           0 DoJE=T BraDBF=F KetDBF=T FulRan=T
         wScrn=  0.000000 ICntrl=       500 IOpCl=  0 I1Cent=   200000004 NGrid=           0
         NMat0=    1 NMatS0=      1 NMatT0=    0 NMatD0=    1 NMtDS0=    0 NMtDT0=    0
 Petite list used in FoFCou.
 Keep R1 ints in memory in symmetry-blocked form, NReq=57825460.
 Requested convergence on RMS density matrix=1.00D-08 within 128 cycles.
 Requested convergence on MAX density matrix=1.00D-06.
 Requested convergence on             energy=1.00D-06.
 No special actions if energy rises.
 SCF Done:  E(RHF) =  -134.258842427     A.U. after    9 cycles
            NFock=  9  Conv=0.66D-08     -V/T= 2.0025
 ExpMin= 2.97D-02 ExpMax= 9.05D+03 ExpMxC= 3.09D+02 IAcc=3 IRadAn=         5 AccDes= 0.00D+00
 HarFok:  IExCor=  205 AccDes= 0.00D+00 IRadAn=         5 IDoV=-2 UseB2=F ITyADJ=14
 ICtDFT= 12500011 ScaDFX=  1.000000  1.000000  1.000000  1.000000
 Range of M.O.s used for correlation:     4   132
 NBasis=   132 NAE=    13 NBE=    13 NFC=     3 NFV=     0
 NROrb=    129 NOA=    10 NOB=    10 NVA=   119 NVB=   119

 **** Warning!!: The largest alpha MO coefficient is  0.16123984D+02

 Fully direct method using O(ONN) memory.
 JobTyp=1 Pass  1:  I=   4 to  13 NPSUse= 32 ParTrn=T ParDer=T DoDerP=T.
 Spin components of T(2) and E(2):
     alpha-alpha T2 =       0.1924646107D-01 E2=     -0.5595981166D-01
     alpha-beta  T2 =       0.1235911269D+00 E2=     -0.3789492137D+00
     beta-beta   T2 =       0.1924646107D-01 E2=     -0.5595981166D-01
 ANorm=    0.1078000023D+01
 E2 =    -0.4908688370D+00 EUMP2 =    -0.13474971126438D+03
          IDoAtm=1111111111
          Differentiating once with respect to electric field.
                with respect to dipole field.
          Differentiating once with respect to nuclear coordinates.
 Keep R1 ints in memory in symmetry-blocked form, NReq=57826827.
          There are     1 degrees of freedom in the 1st order CPHF.  IDoFFX=0 NUNeed=     1.
 LinEq1:  Iter=  0 NonCon=     1 RMS=3.57D-03 Max=3.64D-02 NDo=     1
 AX will form     1 AO Fock derivatives at one time.
 LinEq1:  Iter=  1 NonCon=     1 RMS=5.74D-04 Max=3.77D-03 NDo=     1
 LinEq1:  Iter=  2 NonCon=     1 RMS=2.27D-04 Max=2.14D-03 NDo=     1
 LinEq1:  Iter=  3 NonCon=     1 RMS=4.94D-05 Max=2.97D-04 NDo=     1
 LinEq1:  Iter=  4 NonCon=     1 RMS=2.21D-05 Max=2.49D-04 NDo=     1
 LinEq1:  Iter=  5 NonCon=     1 RMS=3.78D-06 Max=3.12D-05 NDo=     1
 LinEq1:  Iter=  6 NonCon=     1 RMS=7.29D-07 Max=5.84D-06 NDo=     1
 LinEq1:  Iter=  7 NonCon=     1 RMS=1.35D-07 Max=1.30D-06 NDo=     1
 LinEq1:  Iter=  8 NonCon=     1 RMS=2.95D-08 Max=2.77D-07 NDo=     1
 LinEq1:  Iter=  9 NonCon=     1 RMS=5.59D-09 Max=5.56D-08 NDo=     1
 LinEq1:  Iter= 10 NonCon=     1 RMS=9.09D-10 Max=8.24D-09 NDo=     1
 LinEq1:  Iter= 11 NonCon=     1 RMS=1.94D-10 Max=1.54D-09 NDo=     1
 LinEq1:  Iter= 12 NonCon=     0 RMS=3.10D-11 Max=2.42D-10 NDo=     1
 Linear equations converged to 1.000D-10 1.000D-09 after    12 iterations.
 End of Minotr F.D. properties file   721 does not exist.
 End of Minotr F.D. properties file   722 does not exist.
 End of Minotr F.D. properties file   788 does not exist.
 Calling FoFJK, ICntrl=  10002127 FMM=F ISym2X=1 I1Cent= 0 IOpClX= 0 NMat=1 NMatS=1 NMatT=0.
 ***** Axes restored to original set *****
 -------------------------------------------------------------------
 Center     Atomic                   Forces (Hartrees/Bohr)
 Number     Number              X              Y              Z
 -------------------------------------------------------------------
      1        7           0.000069195   -0.000056175    0.000169296
      2        6          -0.000130706   -0.000181321   -0.000007342
      3        1           0.000051643   -0.000155045   -0.000298337
      4        6           0.000206979    0.000049413   -0.000068800
      5        1          -0.000154793    0.000159094    0.000033715
      6        1          -0.000050451   -0.000060856    0.000043343
      7        1          -0.000068404   -0.000046311    0.000057400
      8        1           0.000082778    0.000030176    0.000019095
      9        1          -0.000085162    0.000206671    0.000021043
     10        1           0.000078921    0.000054355    0.000030587
 -------------------------------------------------------------------
 Cartesian Forces:  Max     0.000298337 RMS     0.000113967

 GradGradGradGradGradGradGradGradGradGradGradGradGradGradGradGradGradGrad
 Berny optimization.
 Using GEDIIS/GDIIS optimizer.
 FormGI is forming the generalized inverse of G from B-inverse, IUseBI=4.
 Internal  Forces:  Max     0.000315337 RMS     0.000096611
 Search for a local minimum.
 Step number   4 out of a maximum of   46
 All quantities printed in internal units (Hartrees-Bohrs-Radians)
 Mixed Optimization -- En-DIIS/RFO-DIIS
 Swapping is turned off.
 Update second derivatives using D2CorX and points    1    2    3    4
 DE= -2.25D-05 DEPred=-1.94D-05 R= 1.16D+00
 TightC=F SS=  1.41D+00  RLast= 7.67D-02 DXNew= 8.4853D-01 2.3007D-01
 Trust test= 1.16D+00 RLast= 7.67D-02 DXMaxT set to 5.05D-01
 ITU=  1  1  1  0
     Eigenvalues ---    0.00434   0.00943   0.03121   0.07107   0.07375
     Eigenvalues ---    0.07651   0.07931   0.10786   0.15986   0.16000
     Eigenvalues ---    0.16000   0.16000   0.16699   0.17729   0.26311
     Eigenvalues ---    0.34230   0.34249   0.34258   0.34307   0.34730
     Eigenvalues ---    0.36239   0.37393   0.37568   0.47186
 En-DIIS/RFO-DIIS/Sim-DIIS IScMMF=       -3 using points:     4    3    2
 RFO step:  Lambda=-4.09945934D-06.
 DidBck=F Rises=F RFO-DIIS coefs:    1.28220   -0.23699   -0.04521
 Iteration  1 RMS(Cart)=  0.00393155 RMS(Int)=  0.00000797
 Iteration  2 RMS(Cart)=  0.00001009 RMS(Int)=  0.00000057
 Iteration  3 RMS(Cart)=  0.00000000 RMS(Int)=  0.00000057
 ClnCor:  largest displacement from symmetrization is 1.23D-11 for atom     8.
 Variable       Old X    -DE/DX   Delta X   Delta X   Delta X     New X
                                 (Linear)    (Quad)   (Total)
    R1        2.76922  -0.00005  -0.00004  -0.00012  -0.00017   2.76905
    R2        1.92873  -0.00032   0.00021  -0.00075  -0.00054   1.92819
    R3        2.76922  -0.00005  -0.00004  -0.00012  -0.00017   2.76905
    R4        2.07854   0.00005  -0.00036   0.00034  -0.00002   2.07852
    R5        2.08237  -0.00017   0.00020  -0.00050  -0.00030   2.08207
    R6        2.09845   0.00004  -0.00019   0.00032   0.00013   2.09858
    R7        2.08237  -0.00017   0.00020  -0.00050  -0.00030   2.08207
    R8        2.07854   0.00005  -0.00036   0.00034  -0.00002   2.07852
    R9        2.09845   0.00004  -0.00019   0.00032   0.00013   2.09858
    A1        1.89777  -0.00005   0.00026   0.00020   0.00046   1.89823
    A2        1.94148   0.00021  -0.00018   0.00092   0.00074   1.94222
    A3        1.89777  -0.00005   0.00026   0.00020   0.00046   1.89823
    A4        1.91539   0.00006  -0.00006  -0.00012  -0.00018   1.91521
    A5        1.89981  -0.00006   0.00075  -0.00061   0.00014   1.89995
    A6        1.98221   0.00012  -0.00149   0.00182   0.00033   1.98254
    A7        1.88503  -0.00007   0.00073  -0.00114  -0.00041   1.88462
    A8        1.89791  -0.00010   0.00074  -0.00107  -0.00033   1.89757
    A9        1.88093   0.00005  -0.00057   0.00099   0.00042   1.88135
   A10        1.89981  -0.00006   0.00075  -0.00061   0.00014   1.89995
   A11        1.91539   0.00006  -0.00006  -0.00012  -0.00018   1.91521
   A12        1.98221   0.00012  -0.00149   0.00182   0.00033   1.98254
   A13        1.88503  -0.00007   0.00073  -0.00114  -0.00041   1.88462
   A14        1.88093   0.00005  -0.00057   0.00099   0.00042   1.88135
   A15        1.89791  -0.00010   0.00074  -0.00107  -0.00033   1.89757
    D1       -0.98945   0.00003   0.00772   0.00011   0.00783  -0.98162
    D2       -3.04903   0.00011   0.00643   0.00191   0.00835  -3.04068
    D3        1.13883   0.00002   0.00760  -0.00010   0.00750   1.14633
    D4       -3.07886  -0.00001   0.00734  -0.00082   0.00652  -3.07234
    D5        1.14475   0.00007   0.00605   0.00098   0.00703   1.15178
    D6       -0.95058  -0.00002   0.00721  -0.00102   0.00619  -0.94439
    D7       -1.14475  -0.00007  -0.00605  -0.00098  -0.00703  -1.15178
    D8        3.07886   0.00001  -0.00734   0.00082  -0.00652   3.07234
    D9        0.95058   0.00002  -0.00721   0.00102  -0.00619   0.94439
   D10        3.04903  -0.00011  -0.00643  -0.00191  -0.00835   3.04068
   D11        0.98945  -0.00003  -0.00772  -0.00011  -0.00783   0.98162
   D12       -1.13883  -0.00002  -0.00760   0.00010  -0.00750  -1.14633
         Item               Value     Threshold  Converged?
 Maximum Force            0.000315     0.000450     YES
 RMS     Force            0.000097     0.000300     YES
 Maximum Displacement     0.012065     0.001800     NO 
 RMS     Displacement     0.003932     0.001200     NO 
 Predicted change in Energy=-2.046811D-06
 GradGradGradGradGradGradGradGradGradGradGradGradGradGradGradGradGradGrad

                          Input orientation:                          
 ---------------------------------------------------------------------
 Center     Atomic      Atomic             Coordinates (Angstroms)
 Number     Number       Type             X           Y           Z
 ---------------------------------------------------------------------
      1          7           0       -0.414079    2.853717   -0.065147
      2          6           0        1.050478    2.887349   -0.031979
      3          1           0       -0.773200    3.552664    0.585720
      4          6           0       -0.924856    1.537637    0.327530
      5          1           0       -0.624516    0.797977   -0.431826
      6          1           0       -2.023952    1.561159    0.362557
      7          1           0       -0.544269    1.188411    1.310611
      8          1           0        1.403913    3.903361   -0.261311
      9          1           0        1.439958    2.208597   -0.807558
     10          1           0        1.480335    2.571789    0.942135
 ---------------------------------------------------------------------
                    Distance matrix (angstroms):
                    1          2          3          4          5
     1  N    0.000000
     2  C    1.465318   0.000000
     3  H    1.020355   2.037154   0.000000
     4  C    1.465318   2.419280   2.037154   0.000000
     5  H    2.098763   2.707575   2.940376   1.101781   0.000000
     6  H    2.108395   3.371432   2.362260   1.099905   1.780986
     7  H    2.164003   2.689267   2.483459   1.110520   1.787447
     8  H    2.108395   1.099905   2.362260   3.371432   3.713087
     9  H    2.098763   1.101781   2.940376   2.707575   2.528454
    10  H    2.164003   1.110520   2.483459   2.689267   3.076456
                    6          7          8          9         10
     6  H    0.000000
     7  H    1.796443   0.000000
     8  H    4.198259   3.692873   0.000000
     9  H    3.713087   3.076456   1.780986   0.000000
    10  H    3.692873   2.479624   1.796443   1.787447   0.000000
 Stoichiometry    C2H7N
 Framework group  CS[SG(HN),X(C2H6)]
 Deg. of freedom    13
 Full point group                 CS      NOp   2
 Largest Abelian subgroup         CS      NOp   2
 Largest concise Abelian subgroup CS      NOp   2
                         Standard orientation:                         
 ---------------------------------------------------------------------
 Center     Atomic      Atomic             Coordinates (Angstroms)
 Number     Number       Type             X           Y           Z
 ---------------------------------------------------------------------
      1          7           0        0.027917    0.600292    0.000000
      2          6           0        0.027917   -0.226708    1.209640
      3          1           0       -0.810558    1.181742    0.000000
      4          6           0        0.027917   -0.226708   -1.209640
      5          1           0        0.980353   -0.777896   -1.264227
      6          1           0       -0.043721    0.416306   -2.099130
      7          1           0       -0.796567   -0.970058   -1.239812
      8          1           0       -0.043721    0.416306    2.099130
      9          1           0        0.980353   -0.777896    1.264227
     10          1           0       -0.796567   -0.970058    1.239812
 ---------------------------------------------------------------------
 Rotational constants (GHZ):          33.6686852           9.3398572           8.2124086
 Standard basis: Aug-CC-pVDZ (5D, 7F)
 There are    77 symmetry adapted cartesian basis functions of A'  symmetry.
 There are    61 symmetry adapted cartesian basis functions of A"  symmetry.
 There are    73 symmetry adapted basis functions of A'  symmetry.
 There are    59 symmetry adapted basis functions of A"  symmetry.
   132 basis functions,   206 primitive gaussians,   138 cartesian basis functions
    13 alpha electrons       13 beta electrons
       nuclear repulsion energy        83.7435831702 Hartrees.
 NAtoms=   10 NActive=   10 NUniq=    6 SFac= 2.78D+00 NAtFMM=   60 NAOKFM=F Big=F
 Integral buffers will be    131072 words long.
 Raffenetti 1 integral format.
 Two-electron integral symmetry is turned on.
 One-electron integrals computed using PRISM.
 NBasis=   132 RedAO= T EigKep=  2.44D-04  NBF=    73    59
 NBsUse=   132 1.00D-06 EigRej= -1.00D+00 NBFU=    73    59
 Initial guess from the checkpoint file:  "/gscratch/scrubbed/gds001/Gau-108813.chk"
 B after Tr=    -0.000000    0.000000   -0.000000
         Rot=    0.999999    0.000000    0.000000   -0.001414 Ang=  -0.16 deg.
 Initial guess orbital symmetries:
       Occupied  (A') (A") (A') (A') (A") (A') (A') (A') (A") (A")
[...]
 12,-0.00101900,-0.00155268,0.00027262,0.00008257,-0.02995644,-0.009847
 20,-0.00081098,-0.00328531,0.00266087,0.00012308,0.00011636,0.00033496
 ,-0.00008562,0.00027786,-0.00049570,-0.07291695,0.08287347,-0.15361929
 ,-0.00380518,0.00581077,0.00226978,0.00354384,-0.00031551,-0.00050632,
 0.07417626,-0.08556786,0.14984655,-0.00184383,-0.00168379,-0.00047749,
 0.02858955,-0.12975335,0.02616308,0.00040874,0.00021381,0.00000703,0.0
 0029143,-0.00013385,0.00007527,0.00008385,0.00017277,0.00014857,0.0000
 9173,0.00018464,-0.00004631,-0.00004030,-0.00003106,-0.00005994,-0.031
 25688,0.00142759,0.00180903,-0.00086870,-0.12033298,-0.31031546,0.0632
 5292,0.00003450,-0.00011292,-0.00017691,0.00076304,0.00042556,0.000175
 17,0.00019788,-0.00002359,-0.00010408,0.00027457,-0.00010555,-0.000130
 51,-0.00001628,-0.00010370,0.00011200,0.12606558,0.30919841,0.00019999
 ,0.00028125,0.00066636,0.02842806,0.07192834,0.05712222,-0.00030847,-0
 .00001131,-0.00011734,0.00000361,0.00038995,0.00077496,0.00020771,-0.0
 0014209,-0.00021655,-0.00000819,-0.00008848,-0.00030028,-0.00017296,-0
 .00009673,-0.00014452,-0.02414421,-0.06492606,-0.06462222,-0.00467809,
 0.00315596,0.00172971,0.05007414,0.26320379,0.29479009,0.00025424,-0.0
 0008244,0.00044066,0.00079946,-0.00041376,-0.00047204,0.00023848,0.000
 77795,0.00034575,0.00011584,0.00011338,-0.00004031,0.00008091,0.000045
 99,0.00017093,0.00432819,-0.00630585,-0.00440126,-0.04921236,-0.004539
 03,0.00261830,0.00344310,0.25908297,-0.26966707,-0.51557398,-0.0009508
 0,0.00008219,-0.00055576,-0.00022751,-0.00051732,0.00041641,0.00013627
 ,-0.00016966,0.00010962,0.00011081,-0.00013416,-0.00029934,-0.00010971
 ,0.00018507,-0.00000569,0.00542116,-0.00108943,-0.00698744,-0.26077342
 ,0.27058594,-0.00388433,0.00157312,0.00277533,0.29415710,-0.51917909,-
 0.36720763,-0.00076624,-0.00008992,-0.00021566,-0.00015930,0.00024806,
 0.00005748,-0.00037264,-0.00049593,-0.00025104,-0.00005291,-0.00022680
 ,-0.00013367,-0.00000586,0.00002194,0.00005856,-0.00084146,0.00577230,
 0.00648893,-0.28938615,0.51327826,0.35629040,-0.00043509,-0.00003625,0
 .00040818,-0.00312880,0.03256646,-0.09989326,-0.00020249,-0.00016722,0
 .00019313,0.00014384,0.00029554,0.00024951,0.00012997,-0.00002646,-0.0
 0003342,-0.00009555,0.00003731,0.00013416,-0.00007607,0.00008397,-0.00
 033543,-0.00065248,-0.00210804,0.00019572,-0.00200081,0.00184927,0.001
 31180,0.00631749,-0.00033316,0.00104263,-0.00021367,0.03313083,0.02514
 806,0.06761619,-0.00022727,0.00036073,-0.00057014,0.00022707,-0.000456
 25,0.00028698,-0.00013947,0.00009417,0.00004397,0.00002218,0.00000300,
 0.00009546,-0.00000809,-0.00005028,-0.00001608,-0.00045590,0.00031765,
 -0.00034743,0.00027839,-0.00189386,-0.00090194,-0.03249458,-0.02456584
 ,0.00425947,-0.00023307,0.00181796,-0.09750943,0.06295003,-0.14412364,
 -0.00027132,0.00008486,-0.00041832,-0.00014466,-0.00000747,0.00027272,
 -0.00004838,-0.00016610,0.00010076,-0.00010225,0.00006271,-0.00019030,
 0.00004886,0.00023365,-0.00040489,-0.00082454,-0.00310610,0.00034845,-
 0.00317737,0.00617483,0.00213730,0.09776962,-0.06599334,0.14045996,-0.
 01269158,-0.00406733,-0.00919766,0.00121518,0.00203580,-0.00137598,0.0
 1264968,0.00846011,-0.00368794,-0.11269165,-0.00433926,-0.00591882,-0.
 00060023,0.28810605,1.02995794,0.00619232,-0.00035940,-0.00301394,-0.2
 5351935,-0.02499191,0.03718261,0.00122230,0.00077277,0.00063805,-0.000
 91508,0.00044561,0.00039884,-0.00171338,0.00052010,0.00054486,-0.00122
 299,0.00009666,0.00022116,-0.00015704,-0.00085384,-0.00071421,-0.00030
 676,0.00015723,0.00054936,0.00043599,0.00077337,0.00004933,-0.00035857
 ,0.00100135,-0.00044651,-0.00242127,-0.00001724,0.00171142,-0.00056994
 ,0.00020449,-0.00022162,0.00004538,-0.00023922,-0.00084854,1.07155158,
 0.01380034,0.00772057,-0.00208546,-0.00268755,0.00022754,-0.00054324,-
 0.00035260,-0.00100435,0.00015909,-0.11251921,-0.07042894,-0.00435994,
 -0.00790242,-0.00157678,0.00055711,-0.00053509,-0.00253672,0.00007282,
 -0.00019962,0.00030921,-0.13085397,0.27899793,-0.04669025,0.00111656,-
 0.00117566,-0.00094454,-0.00003691,0.00043738,0.00065807,0.00003458,-0
 .00007071,0.00030507,0.06716966,0.09120892,0.09405965,-0.07403411,-0.0
 0096266,0.00026947,-0.00023978,-0.00003265,0.00023769,0.00006179,0.000
 21371,0.00039373,-0.00037583,0.09712586,-0.17076356,-0.27366614,-0.091
 51748,0.16999803,-0.00013013,0.00453431,0.00173089,-0.00013901,-0.0001
 8592,0.00036651,0.00013361,0.00052582,-0.00041894,0.10033184,-0.274410
 56,-0.18164520,-0.09386799,0.27103948,0.18193789,0.00543884,0.00154382
 ,-0.00147529,0.00100143,0.00137879,-0.00058127,0.00012362,0.00022098,0
 .00047257,-1.13325791,0.01277442,0.03622417,0.00311915,-0.00550738,-0.
 00606758,1.11907821,-0.00707206,-0.00275850,0.00148828,0.00051080,-0.0
 0007820,0.00037205,0.00078746,0.00054739,-0.00035005,0.01184414,0.2355
 9339,0.00214936,0.00084410,-0.00170667,-0.00064576,-0.00963607,-0.2319
 7878,0.00270180,0.00204426,-0.00020742,-0.00014642,0.00006355,0.000728
 27,0.00013717,0.00004016,0.00014801,0.03355088,0.00198499,0.23854346,0
 .00069618,-0.00083544,-0.00182044,-0.03190695,-0.00469499,-0.23483184,
 0.00004630,-0.00115383,0.00003187,0.00024542,-0.00016310,-0.00045885,0
 .00012360,-0.00025149,0.00029777,-0.00346237,-0.00267014,0.00484837,0.
 00247768,0.00037220,-0.00055231,0.00463426,0.00291578,-0.00500859,-0.0
 0370334,-0.00066696,0.00041768,-0.00019647,-0.00004741,0.00004329,0.00
 026865,-0.00009226,0.00011441,-0.00016990,0.00174938,-0.00181395,0.000
 85950,0.00022605,0.00189556,-0.00077126,-0.00187827,0.00057730,0.00149
 233,0.00083651,-0.00092949,0.00008923,-0.00037096,0.00069905,0.0000405
 2,-0.00006762,0.00010009,-0.00011916,0.00009600,-0.00013949,-0.0036804
 4,-0.00427737,-0.00759112,-0.00075384,0.00406922,0.00015588,0.00363667
 ,0.00181523,-0.00203204,0.00085707,-0.00148403,0.00888249,-0.00425186,
 -0.00402417,0.00081935,0.08460487,-0.41693239,0.09672862,0.00079871,0.
 00048286,-0.00007785,0.00063069,0.00062366,-0.00022909,-0.00006825,-0.
 00008534,0.00006244,0.00031286,0.00000092,0.00001623,-0.00010920,-0.00
 017497,0.00002469,-0.08065882,0.00476224,0.00605294,-0.00030110,-0.416
 44461,-0.91925142,0.27289296,-0.00020839,-0.00027250,-0.00045999,0.001
 59306,0.00032123,0.00035941,-0.00000774,-0.00016822,-0.00016136,0.0009
 8072,-0.00005842,-0.00005705,0.00005104,-0.00020815,0.00018212,0.41250
 244,0.90504292,-0.00268798,-0.00183194,0.00067636,0.09773467,0.2754977
 4,0.17551721,-0.00021644,-0.00016425,0.00028980,-0.00025845,0.00007769
 ,0.00069998,0.00009562,0.00017987,-0.00018726,-0.00028845,-0.00008736,
 -0.00033846,-0.00005808,-0.00005665,-0.00004636,-0.09510053,-0.2739045
 0,-0.17209587,-0.00106252,0.00019746,0.00123291,0.01767053,0.12978229,
 0.15493059,0.00028097,0.00010323,0.00005637,0.00032250,-0.00019355,-0.
 00024409,0.00017611,0.00039154,0.00018410,-0.00020370,-0.00009917,-0.0
 0018364,-0.00011409,0.00004822,0.00000319,-0.00182969,-0.00184704,0.00
 087671,-0.01665537,-0.00102775,0.00217988,0.00098847,0.12534887,-0.102
 02323,-0.24337770,-0.00041706,-0.00003265,-0.00040019,0.00018700,-0.00
 021240,-0.00054695,0.00006418,-0.00002227,0.00008088,0.00004653,-0.000
 07364,-0.00005313,0.00005809,0.00001800,0.00001205,0.00305649,0.004614
 81,-0.00288535,-0.12824924,0.09302135,-0.00339043,0.00178616,0.0020011
 5,0.15421568,-0.25077404,-0.20089566,-0.00065173,-0.00001390,-0.000240
 52,0.00020329,0.00021002,0.00045400,-0.00024797,-0.00027334,-0.0002019
 3,0.00013066,-0.00011914,-0.00014287,0.00002965,-0.00004664,0.00009144
 ,0.00221043,0.00487830,-0.00319430,-0.15294399,0.24450659,0.20154199,-
 0.00004644,-0.00053594,0.00045898,-0.00195835,0.00108015,-0.00412735,-
 0.00000070,-0.00000856,0.00002394,-0.00000832,0.00001571,-0.00007503,0
 .00004553,0.00000221,0.00004504,-0.00024676,-0.00009591,0.00014334,-0.
 00013825,-0.00000027,-0.00009793,0.00057070,-0.00138170,-0.00009707,0.
 00141525,0.00093289,0.00044443,0.00036733,-0.00094664,0.00068958,0.000
 13349,-0.00331027,-0.00341596,-0.00416617,-0.00029540,0.00020216,-0.00
 033508,0.00007173,0.00036047,0.00048403,-0.00000903,-0.00013376,-0.000
 00564,0.00007646,-0.00006388,0.00001532,0.00000496,-0.00011465,0.00002
 534,0.00455050,0.00392680,0.00317476,-0.00013374,0.00253016,-0.0001540
 2,-0.00000856,-0.00398091,0.00067672,-0.00009304,0.00051733,0.00450876
 ,0.00082015,-0.00749769,-0.00003461,0.00009446,-0.00010026,0.00006558,
 -0.00011309,0.00003340,-0.00000025,0.00004017,0.00008260,-0.00014454,0
 .00007239,-0.00004667,0.00001310,0.00010447,-0.00011994,-0.00445426,-0
 .00342880,-0.00132110,-0.00391214,0.00167533,0.00058671,0.00328164,0.0
 0082796,0.00786562,-0.01399324,-0.00591791,-0.00838364,0.00041096,0.00
 400066,-0.00082561,0.01278916,0.00846518,-0.00398125,-0.11319755,-0.00
 379343,-0.00558246,-0.00056737,0.30145047,1.03968458,0.00586278,-0.000
 65433,-0.00233428,-0.24432105,-0.04182943,0.02707560,0.00165942,0.0021
 4765,0.00160963,-0.00075297,0.00036639,0.00030220,-0.00202533,0.001901
 39,-0.00079354,-0.00318011,-0.00003648,0.00013516,-0.00006321,-0.00212
 109,0.00067749,0.00067950,-0.00181771,-0.00026544,0.00068994,0.0008931
 4,0.00000278,-0.00138852,0.00299064,0.00038208,-0.00181535,0.00044409,
 0.00172067,-0.00044139,-0.00189587,0.00068648,-0.00013331,-0.00021161,
 -0.00102118,1.09310550,0.01381198,0.00778555,-0.00169279,-0.00241221,0
 .00106147,-0.00015963,-0.00042674,-0.00081473,-0.00005347,-0.10857888,
 -0.08382543,-0.00395007,-0.00771548,-0.00110291,-0.00001631,-0.0007339
 2,-0.00181278,0.00006407,-0.00011656,0.00033740,-0.12672928,0.26316179
 ,-0.05568664,0.00072453,-0.00067213,-0.00076232,0.00022068,0.00011596,
 0.00055674,0.00006888,-0.00006745,0.00035525,0.06327443,0.08668534,0.0
 8991491,-0.07033393,-0.00104287,0.00065835,-0.00000914,0.00003296,-0.0
 0011298,0.00000718,0.00021987,0.00029843,-0.00026015,0.09280106,-0.161
 10543,-0.25975999,-0.08706145,0.16025277,-0.00033720,0.00440854,0.0016
 6321,0.00023208,-0.00025040,0.00022526,0.00017598,0.00045586,-0.000467
 22,0.09604763,-0.26012789,-0.17370798,-0.08971777,0.25715859,0.1740220
 5,0.00531318,0.00137282,-0.00148448,0.00049083,0.00245116,-0.00101371,
 0.00013778,0.00020119,0.00055315,-1.15126827,0.01257917,0.03724902,0.0
 0345159,-0.00533107,-0.00587804,1.13682990,-0.00670881,-0.00258840,0.0
 0117443,0.00045972,-0.00136495,0.00035822,0.00075053,0.00048725,-0.000
 24872,0.01217926,0.23873729,0.00250993,0.00071688,-0.00192261,-0.00081
 550,-0.00958821,-0.23493448,0.00244615,0.00176989,-0.00050658,0.000152
 57,0.00031230,0.00001163,0.00015412,0.00004065,0.00014797,0.03453002,0
 .00235551,0.24242675,0.00050301,-0.00110261,-0.00185387,-0.03317897,-0
 .00476493,-0.23834971,-0.00004138,-0.00129390,0.00016256,0.00018030,0.
 00012648,-0.00058337,0.00013855,-0.00023722,0.00034998,-0.00251806,-0.
 00235006,0.00372991,0.00249902,0.00028516,-0.00057022,0.00461697,0.002
 91193,-0.00484102,-0.00472843,-0.00070796,0.00055536,-0.00029663,-0.00
 003001,0.00003213,0.00029001,-0.00007693,0.00011137,-0.00018788,0.0020
 2770,-0.00142952,0.00210799,0.00023491,0.00197653,-0.00086177,-0.00184
 130,0.00047962,0.00149172,0.00061134,-0.00134525,0.00011916,-0.0002354
 7,0.00065440,0.00000198,-0.00012657,0.00003073,-0.00010617,0.00006763,
 -0.00012901,-0.00471827,-0.00302901,-0.01078038,-0.00069902,0.00396226
 ,0.00013402,0.00371348,0.00177105,-0.00219289,0.00184221,-0.00260779,0
 .01224491,-0.00393819,-0.00373251,0.00091662,0.08514352,-0.42328653,0.
 09797523,0.00070692,0.00045514,-0.00017646,-0.00027216,0.00068835,-0.0
 0003536,-0.00001973,-0.00013705,-0.00006128,0.00087236,-0.00060426,0.0
 0005370,-0.00004244,-0.00017994,0.00001416,-0.08106364,0.00449962,0.00
 590116,-0.00037546,-0.42331791,-0.93389155,0.27701485,-0.00020690,-0.0
 0025914,-0.00050202,0.00279685,-0.00061615,0.00050604,-0.00018143,-0.0
 0008317,-0.00004953,0.00025376,0.00096318,-0.00021294,-0.00009453,-0.0
 0021085,0.00017590,0.41912921,0.91953180,-0.00244917,-0.00179595,0.000
 25337,0.09907646,0.27953745,0.17866552,-0.00019888,-0.00017554,0.00032
 659,-0.00076459,-0.00008883,0.00002578,-0.00006258,0.00001770,0.000029
 77,0.00000681,-0.00008866,0.00034621,-0.00004939,-0.00001969,-0.000004
 39,-0.09652446,-0.27752308,-0.17494390,-0.00068286,-0.00020168,0.00090
 468,0.01748323,0.12295509,0.14635953,0.00019015,0.00011461,-0.00006282
 ,-0.00002003,0.00002107,-0.00014160,0.00009722,0.00020584,0.00003934,-
 0.00014832,-0.00005717,0.00006104,0.00006832,-0.00002939,-0.00007945,-
 0.00186413,-0.00151817,0.00114046,-0.01662255,-0.00084240,0.00177486,0
 .00091847,0.11821212,-0.09757701,-0.23150474,-0.00036700,-0.00003564,-
 0.00042356,0.00010969,-0.00001054,-0.00051542,0.00017012,-0.00004306,0
 .00005868,-0.00008441,0.00009829,0.00007501,0.00001041,-0.00001708,-0.
 00002304,0.00313720,0.00482033,-0.00286822,-0.12127010,0.08842372,-0.0
 0334372,0.00209368,0.00195289,0.14539316,-0.23869555,-0.19143937,-0.00
 059869,-0.00009065,-0.00025359,0.00020043,-0.00028607,0.00036639,-0.00
 015029,-0.00007594,-0.00010357,0.00012901,0.00004186,-0.00002259,-0.00
 005068,-0.00003701,0.00010401,0.00228488,0.00450743,-0.00327943,-0.144
 37797,0.23270621,0.19213360,-0.00001528,-0.00061161,0.00050294,-0.0019
 1583,0.00151028,-0.00582482,0.00000991,0.00000150,0.00002115,0.0000886
 4,-0.00001802,-0.00008529,0.00001731,0.00002754,0.00006948,-0.00029602
 ,-0.00005988,0.00011938,-0.00017284,-0.00000841,-0.00008809,0.00047749
 ,-0.00136049,-0.00017467,0.00149897,0.00092437,0.00051387,0.00030765,-
 0.00119961,0.00067276,0.00002794,-0.00282384,-0.00238440,-0.00345892,-
 0.00028578,0.00019335,-0.00039026,0.00032770,0.00021748,0.00055561,0.0
 0005924,0.00008117,0.00002343,-0.00001312,0.00004481,0.00003541,0.0000
 3038,-0.00015231,0.00004503,0.00453040,0.00384438,0.00300482,-0.000220
 10,0.00256614,-0.00016394,-0.00040527,-0.00508338,0.00056160,-0.000053
 82,0.00051096,0.00277240,0.00146036,-0.01042508,-0.00001373,0.00007129
 ,-0.00008156,0.00004809,-0.00007959,-0.00006565,0.00006208,0.00006211,
 0.00005833,-0.00009626,0.00006233,-0.00000692,0.00001003,0.00012104,-0
 .00006139,-0.00444704,-0.00354119,-0.00141951,-0.00384322,0.00157660,0
 .00054164,0.00494605,0.00032087,0.01094918,-0.31744754,-1.43594107,1.7
 7419463,-1.38019655,2.70338840,1.51845571,0.03290701,0.01025755,0.0089
 9856,-0.00887414,-0.01665598,-0.00862162,-0.00888809,0.00285977,-0.005
 86386,-0.01821788,-0.00258545,-0.01492074,0.00325138,-0.00250354,-0.00
 085217,0.28656845,1.42408333,1.36990991,-0.02073980,0.00906203,0.01216
 893,-0.27612648,1.43010484,-1.79359565,-2.66897919,-0.01303344,0.01315
 691,0.00451352,-1.41244177,1.78683228,1.39250789,-2.70205001,-1.482898
 20,-0.01078300,0.01016694,0.01220207,-1.37638525,2.66713634,1.45997707
 ,-0.00304025,0.00187832,0.00199083,-0.00012157,0.00091551,-0.00087051,
 0.00477230,-0.00438703,-0.00328295,-0.00358357,0.02155374,0.02854966,-
 0.02510153,-0.00008256,-0.00008439,0.00084219,-0.02032607,-0.01292804,
 0.02381276,0.00055186,-0.01148581,0.00206136,0.00832343,-0.01614659,0.
 00031118,0.00146633,0.00300917,-0.00313330,-0.00434127,0.01277834,0.00
 185081,-0.00238471,-0.00051768,0.00046681,0.00080021,-0.00259806,-0.00
 115760,0.00092881,0.00139309,-0.00096646,0.00024250,0.00166391,0.00334
 996,-0.00019404,0.00085203,-0.00136692,0.00184079,0.00243029,-0.002571
 91,-0.00032848,0.00004686,0.00036435,-0.00189461,0.00199505,0.00348644
 ,0.00146382,-0.00296570,-0.00444761,-0.00085035,-0.00151661,-0.0008805
 9,-0.00269371,-0.00015888,0.00055544,-0.00008313,-0.00053380,0.0001247
 2,0.00051120,-0.00163623,0.00101511,-0.00080156,0.00183746,-0.00120348
 ,0.00285552,-0.00062664,0.00024586,-0.00228085,0.00036359,-0.00009170,
 0.00037321,-0.00012119,-0.00016182,0.00175376,0.00040431,-0.00109338,0
 .00046563,-0.00091755,0.00020802,0.00001071,0.00007361,0.00088728,-0.0
 0196126,-0.00237750,0.00114881,0.00002694,0.00066455,-0.00028091,0.003
 01354,0.00215644,-0.00072250,-0.00064883,0.00124115,0.00051223,-0.0001
 2467,0.00000037,-0.00023222,-0.00049133,-0.00178452,-0.00001823,-0.000
 96386,-0.00045666,0.00028463,0.00004172,0.00036740,-0.00010446,-0.0000
 6305,0.00009284,-0.00019459,0.00127381,0.00002400,-0.00011946,0.000125
 14,-0.00029368,0.00028498,-0.00058382,0.00042500,0.00056144,0.00023161
 ,0.00195454,-0.00052812,0.00008573,-0.00058775,-0.00004635,0.00072105,
 -0.00127161,-0.00081972,-0.00038810,-0.00097281,-0.00017755,-0.0003002
 2,0.00007056,-0.00006827,-0.00000791,-0.00012569,0.00128490,0.00032222
 ,-0.00162265,0.00140581,-0.00019457,-0.00010556,-0.00026527,-0.0004795
 5,0.00346244,-0.00168915,-0.00004973,-0.00035431,0.00140669,0.00002692
 ,0.00015506,0.00004433,0.00012537,0.00002743,0.00003946,0.00004615,-0.
 00153079,-0.00032939,-0.00173282,-0.00109370,0.00000049,-0.00027723,-0
 .00031224,-0.00016748,0.00015251,0.00010444,-0.00021388,0.00262997,-0.
 00076958,0.00032201,0.00020515,0.00077181,-0.00005059,0.00007223,-0.00
 015260,0.00060141,-0.00111292,0.00110453,-0.00332989,-0.00074961,-0.00
 036317,0.00055323,-0.00122303,-0.00008956,0.00337396,0.00159995,-0.000
 56146,0.00072611,-0.00027664,0.00026643,0.00007148,-0.00000361,-0.0000
 2141,0.00011153,0.00021249,-0.00003553,-0.00008866,-0.00005310,-0.0000
 6294,-0.00144739,-0.00060342,0.00127593,-0.00003808,-0.00022468,-0.000
 38641,0.00120704,0.00015062,-0.00156076,-0.00042405,0.00003843,-0.0001
 4932,0.00008201,-0.00000292,0.00002955,0.00001860,0.00003383,0.0000157
 2,-0.00000663,-0.00002188,-0.00004082,0.00005334,0.00051217,0.00068094
 ,0.00175989,-0.00047463,-0.00053039,-0.00123912,0.00106981,0.00000788,
 -0.00076348,-0.00004372,0.00027263,-0.00023593,-0.00009565,0.00036514,
 -0.00006966,0.00002862,0.00001883,-0.00001543,-0.00002435,0.00000286,-
 0.00006528,0.00001392,0.00001209,0.00084228,-0.00067743,0.00030018,0.0
 0430583,0.00120143,0.00201455,-0.00058716,0.00367777,0.00392261,-0.000
 07641,-0.00324491,-0.00373563,-0.00015869,-0.00104384,-0.00074806,-0.0
 0056472,-0.00008119,0.00031702,0.00003252,0.00001603,-0.00000740,0.000
 09908,0.00019071,0.00006735,-0.00000207,0.00002651,-0.00015732,-0.0030
 3017,0.00052958,0.00002210,0.00129631,0.00123307,0.00136012,-0.0028026
 5,-0.00073975,-0.00001758,-0.00030313,0.00013079,-0.00145015,-0.001057
 26,-0.00075992,-0.00019239,0.00044500,0.00002201,0.00008426,0.00005844
 ,-0.00000143,0.00010780,0.00008093,0.00001786,0.00020252,0.00007410,-0
 .00035476,-0.00006301,0.00164928,-0.00056064,-0.00158690,0.00081065,-0
 .00213394,0.00144657,-0.00079785,0.00062720,-0.00051445,-0.00023332,-0
 .00014168,-0.00003277,-0.00016005,-0.00000104,0.00039380,-0.00001741,0
 .00001448,0.00000830,0.00011168,-0.00000536,0.00017025,0.00011994,-0.0
 0025796,-0.00028728,-0.00163005,0.00226733,-0.00041721,-0.00123773,0.0
 0051909,-0.00207420,-0.00136015,-0.00002382,-0.00084912,0.00340260,-0.
 00131495,0.00144380,-0.00003119,-0.00026000,0.00042990,0.00013699,0.00
 014315,-0.00005097,-0.00007003,-0.00003500,0.00003575,-0.00021675,0.00
 006556,-0.00016698,0.00003170,0.00009134,-0.00005594,-0.00001821,-0.00
 007744,0.00014714,-0.00063722,0.00081055,-0.00025518,-0.00166053,-0.00
 051359,-0.00016661,0.00151073,-0.00042777,0.00049892,0.00058636,0.0001
 0688,-0.00037308,0.00044016,-0.00006655,0.00001752,-0.00006403,-0.0000
 1234,-0.00002790,0.00007880,-0.00036499,-0.00009859,-0.00007116,-0.000
 03648,-0.00006735,0.00012932,-0.00038777,-0.00005367,0.00019160,0.0008
 9207,0.00052592,0.00166423,-0.00065069,-0.00066363,-0.00219022,0.00114
 112,-0.00041414,-0.00085175,0.00048646,-0.00037849,0.00017443,-0.00003
 359,-0.00054749,-0.00008032,-0.00004467,0.00022734,-0.00000432,0.00009
 606,-0.00001745,0.00028497,0.00016250,0.00016500,-0.00009458,0.0000431
 6,-0.00016191,-0.00004307,-0.00005909,0.00081969,0.00114063,-0.0011412
 5,0.00097109\\@


 HE THAT RISETH LATE MUST TROT ALL DAY.

                  -- BENJAMIN FRANKLIN
 Job cpu time:       1 days  2 hours 58 minutes 20.9 seconds.
 Elapsed time:       0 days  0 hours 52 minutes  4.2 seconds.
 File lengths (MBytes):  RWF=   1364 Int=      0 D2E=      0 Chk=     48 Scr=      8
 Normal termination of Gaussian 16 at Wed Nov 24 12:35:22 2021.
