 Entering Gaussian System, Link 0=g16
 Input=menh2_mp2_avtz_opt_anharm.gjf
 Output=menh2_mp2_avtz_opt_anharm.log
 Initial command:
 /sw/contrib/gaussian/g16/A03/g16/l1.exe "/gscratch/scrubbed/gds001/Gau-22803.inp" -scrdir="/gscratch/scrubbed/gds001/"
 Entering Link 1 = /sw/contrib/gaussian/g16/A03/g16/l1.exe PID=     22804.
  
 Copyright (c) 1988,1990,1992,1993,1995,1998,2003,2009,2016,
            Gaussian, Inc.  All Rights Reserved.
  
 This is part of the Gaussian(R) 16 program.  It is based on
 the Gaussian(R) 09 system (copyright 2009, Gaussian, Inc.),
 the Gaussian(R) 03 system (copyright 2003, Gaussian, Inc.),
 the Gaussian(R) 98 system (copyright 1998, Gaussian, Inc.),
 the Gaussian(R) 94 system (copyright 1995, Gaussian, Inc.),
 the Gaussian 92(TM) system (copyright 1992, Gaussian, Inc.),
 the Gaussian 90(TM) system (copyright 1990, Gaussian, Inc.),
 the Gaussian 88(TM) system (copyright 1988, Gaussian, Inc.),
 the Gaussian 86(TM) system (copyright 1986, Carnegie Mellon
 University), and the Gaussian 82(TM) system (copyright 1983,
 Carnegie Mellon University). Gaussian is a federally registered
 trademark of Gaussian, Inc.
  
 This software contains proprietary and confidential information,
 including trade secrets, belonging to Gaussian, Inc.
  
 This software is provided under written license and may be
 used, copied, transmitted, or stored only in accord with that
 written license.
  
 The following legend is applicable only to US Government
 contracts under FAR:
  
                    RESTRICTED RIGHTS LEGEND
  
 Use, reproduction and disclosure by the US Government is
 subject to restrictions as set forth in subparagraphs (a)
 and (c) of the Commercial Computer Software - Restricted
 Rights clause in FAR 52.227-19.
  
 Gaussian, Inc.
 340 Quinnipiac St., Bldg. 40, Wallingford CT 06492
  
  
 ---------------------------------------------------------------
 Warning -- This program may not be used in any manner that
 competes with the business of Gaussian, Inc. or will provide
 assistance to any competitor of Gaussian, Inc.  The licensee
 of this program is prohibited from giving any competitor of
 Gaussian, Inc. access to this program.  By using this program,
 the user acknowledges that Gaussian, Inc. is engaged in the
 business of creating and licensing software in the field of
 computational chemistry and represents and warrants to the
 licensee that it is not a competitor of Gaussian, Inc. and that
 it will not use this program in any manner prohibited above.
 ---------------------------------------------------------------
  

 Cite this work as:
 Gaussian 16, Revision A.03,
 M. J. Frisch, G. W. Trucks, H. B. Schlegel, G. E. Scuseria, 
 M. A. Robb, J. R. Cheeseman, G. Scalmani, V. Barone, 
 G. A. Petersson, H. Nakatsuji, X. Li, M. Caricato, A. V. Marenich, 
 J. Bloino, B. G. Janesko, R. Gomperts, B. Mennucci, H. P. Hratchian, 
 J. V. Ortiz, A. F. Izmaylov, J. L. Sonnenberg, D. Williams-Young, 
 F. Ding, F. Lipparini, F. Egidi, J. Goings, B. Peng, A. Petrone, 
 T. Henderson, D. Ranasinghe, V. G. Zakrzewski, J. Gao, N. Rega, 
 G. Zheng, W. Liang, M. Hada, M. Ehara, K. Toyota, R. Fukuda, 
 J. Hasegawa, M. Ishida, T. Nakajima, Y. Honda, O. Kitao, H. Nakai, 
 T. Vreven, K. Throssell, J. A. Montgomery, Jr., J. E. Peralta, 
 F. Ogliaro, M. J. Bearpark, J. J. Heyd, E. N. Brothers, K. N. Kudin, 
 V. N. Staroverov, T. A. Keith, R. Kobayashi, J. Normand, 
 K. Raghavachari, A. P. Rendell, J. C. Burant, S. S. Iyengar, 
 J. Tomasi, M. Cossi, J. M. Millam, M. Klene, C. Adamo, R. Cammi, 
 J. W. Ochterski, R. L. Martin, K. Morokuma, O. Farkas, 
 J. B. Foresman, and D. J. Fox, Gaussian, Inc., Wallingford CT, 2016.
 
 ******************************************
 Gaussian 16:  ES64L-G16RevA.03 25-Dec-2016
                20-Dec-2021 
 ******************************************
 %nprocshared=28
 Will use up to   28 processors via shared memory.
 %mem=41GB
 ----------------------------------------------
 # MP2/aug-cc-pVTZ opt freq=(vibrot,anharmonic)
 ----------------------------------------------
 1/18=20,19=15,38=1,80=1/1,3;
 2/9=110,12=2,17=6,18=5,40=1/2;
 3/5=16,6=1,7=10,11=9,25=1,30=1,71=1/1,2,3;
 4//1;
 5/5=2,38=5/2;
 8/6=4,10=1/1;
 9/15=2,16=-3/6;
 10/5=1/2;
 6/7=2,8=2,9=2,10=2/1;
 7/12=2/1,2,3,16;
 1/18=20,19=15,80=1/3(2);
 2/9=110/2;
 99//99;
 2/9=110/2;
 3/5=16,6=1,7=10,11=9,25=1,30=1,71=1/1,2,3;
 4/5=5,16=3,69=1/1;
 5/5=2,38=5/2;
 8/6=4,10=1/1;
 9/15=2,16=-3/6;
 10/5=1/2;
 7/12=2/1,2,3,16;
 1/18=20,19=15,80=1/3(-8);
 2/9=110/2;
 6/7=2,8=2,9=2,10=2/1;
 99//99;
 ----
 bleh
 ----
 Symbolic Z-matrix:
 Charge =  0 Multiplicity = 1
 N                     0.        0.        0.40731 
 C                    -1.18925  -0.68661  -0.06566 
 H                    -2.07884  -0.17899   0.30533 
 H                    -1.19443  -1.71084   0.30533 
 H                    -1.23924  -0.71548  -1.16709 
 H                     0.00096   0.95827   0.05785 
 H                     0.83044  -0.48611   0.06899 
 

 GradGradGradGradGradGradGradGradGradGradGradGradGradGradGradGradGradGrad
 Berny optimization.
 Initialization pass.
                           ----------------------------
                           !    Initial Parameters    !
                           ! (Angstroms and Degrees)  !
 --------------------------                            --------------------------
 ! Name  Definition              Value          Derivative Info.                !
 --------------------------------------------------------------------------------
 ! R1    R(1,2)                  1.4524         estimate D2E/DX2                !
 ! R2    R(1,6)                  1.02           estimate D2E/DX2                !
 ! R3    R(1,7)                  1.02           estimate D2E/DX2                !
 ! R4    R(2,3)                  1.0894         estimate D2E/DX2                !
 ! R5    R(2,4)                  1.0894         estimate D2E/DX2                !
 ! R6    R(2,5)                  1.1029         estimate D2E/DX2                !
 ! A1    A(2,1,6)              109.471          estimate D2E/DX2                !
 ! A2    A(2,1,7)              109.4713         estimate D2E/DX2                !
 ! A3    A(6,1,7)              109.4713         estimate D2E/DX2                !
 ! A4    A(1,2,3)              109.7231         estimate D2E/DX2                !
 ! A5    A(1,2,4)              109.7231         estimate D2E/DX2                !
 ! A6    A(1,2,5)              112.0051         estimate D2E/DX2                !
 ! A7    A(3,2,4)              108.5579         estimate D2E/DX2                !
 ! A8    A(3,2,5)              108.377          estimate D2E/DX2                !
 ! A9    A(4,2,5)              108.377          estimate D2E/DX2                !
 ! D1    D(6,1,2,3)            -60.8108         estimate D2E/DX2                !
 ! D2    D(6,1,2,4)            180.0            estimate D2E/DX2                !
 ! D3    D(6,1,2,5)             59.5946         estimate D2E/DX2                !
 ! D4    D(7,1,2,3)            179.1893         estimate D2E/DX2                !
 ! D5    D(7,1,2,4)             60.0            estimate D2E/DX2                !
 ! D6    D(7,1,2,5)            -60.4053         estimate D2E/DX2                !
 --------------------------------------------------------------------------------
 Trust Radius=3.00D-01 FncErr=1.00D-07 GrdErr=1.00D-07 EigMax=2.50D+02 EigMin=1.00D-04
 Number of steps in this run=     31 maximum allowed number of steps=    100.
 GradGradGradGradGradGradGradGradGradGradGradGradGradGradGradGradGradGrad

                          Input orientation:                          
 ---------------------------------------------------------------------
 Center     Atomic      Atomic             Coordinates (Angstroms)
 Number     Number       Type             X           Y           Z
 ---------------------------------------------------------------------
      1          7           0        0.000000    0.000000    0.407311
      2          6           0       -1.189245   -0.686611   -0.065659
      3          1           0       -2.078844   -0.178985    0.305328
      4          1           0       -1.194428   -1.710840    0.305328
      5          1           0       -1.239238   -0.715475   -1.167094
      6          1           0        0.000956    0.958266    0.057847
      7          1           0        0.830442   -0.486113    0.068992
 ---------------------------------------------------------------------
                    Distance matrix (angstroms):
                    1          2          3          4          5
     1  N    0.000000
     2  C    1.452391   0.000000
     3  H    2.089026   1.089358   0.000000
     4  H    2.089027   1.089359   1.768833   0.000000
     5  H    2.127526   1.102947   1.777860   1.777860   0.000000
     6  H    1.020000   2.034073   2.383308   2.935016   2.416603
     7  H    1.020000   2.034077   2.934984   2.378216   2.421589
                    6          7
     6  H    0.000000
     7  H    1.665654   0.000000
 Stoichiometry    CH5N
 Framework group  C1[X(CH5N)]
 Deg. of freedom    15
 Full point group                 C1      NOp   1
 Largest Abelian subgroup         C1      NOp   1
 Largest concise Abelian subgroup C1      NOp   1
                         Standard orientation:                         
 ---------------------------------------------------------------------
 Center     Atomic      Atomic             Coordinates (Angstroms)
 Number     Number       Type             X           Y           Z
 ---------------------------------------------------------------------
      1          7           0        0.744060   -0.000001   -0.122394
      2          6           0       -0.702019    0.000006    0.012862
      3          1           0       -1.116984   -0.880630   -0.476001
      4          1           0       -1.115784    0.888157   -0.463257
      5          1           0       -1.018257   -0.007391    1.069475
      6          1           0        1.127340   -0.832908    0.324554
      7          1           0        1.127378    0.832745    0.324819
 ---------------------------------------------------------------------
 Rotational constants (GHZ):         102.0480704          23.2294289          22.2115461
 Standard basis: Aug-CC-pVTZ (5D, 7F)
 There are   235 symmetry adapted cartesian basis functions of A   symmetry.
 There are   207 symmetry adapted basis functions of A   symmetry.
   207 basis functions,   279 primitive gaussians,   235 cartesian basis functions
     9 alpha electrons        9 beta electrons
       nuclear repulsion energy        42.1379837182 Hartrees.
 NAtoms=    7 NActive=    7 NUniq=    7 SFac= 1.00D+00 NAtFMM=   60 NAOKFM=F Big=F
 Integral buffers will be    131072 words long.
 Raffenetti 1 integral format.
 Two-electron integral symmetry is turned on.
 One-electron integrals computed using PRISM.
 NBasis=   207 RedAO= T EigKep=  3.97D-05  NBF=   207
 NBsUse=   207 1.00D-06 EigRej= -1.00D+00 NBFU=   207
 ExpMin= 2.53D-02 ExpMax= 1.14D+04 ExpMxC= 3.89D+02 IAcc=3 IRadAn=         5 AccDes= 0.00D+00
 Harris functional with IExCor=  205 and IRadAn=       5 diagonalized for initial guess.
 HarFok:  IExCor=  205 AccDes= 0.00D+00 IRadAn=         5 IDoV= 1 UseB2=F ITyADJ=14
 ICtDFT=  3500011 ScaDFX=  1.000000  1.000000  1.000000  1.000000
 FoFCou: FMM=F IPFlag=           0 FMFlag=      100000 FMFlg1=           0
         NFxFlg=           0 DoJE=T BraDBF=F KetDBF=T FulRan=T
         wScrn=  0.000000 ICntrl=       500 IOpCl=  0 I1Cent=   200000004 NGrid=           0
         NMat0=    1 NMatS0=      1 NMatT0=    0 NMatD0=    1 NMtDS0=    0 NMtDT0=    0
 Petite list used in FoFCou.
 Keep R1 ints in memory in canonical form, NReq=245616470.
 Requested convergence on RMS density matrix=1.00D-08 within 128 cycles.
 Requested convergence on MAX density matrix=1.00D-06.
 Requested convergence on             energy=1.00D-06.
 No special actions if energy rises.
 SCF Done:  E(RHF) =  -95.2545056412     A.U. after   11 cycles
            NFock= 11  Conv=0.37D-08     -V/T= 2.0016
 ExpMin= 2.53D-02 ExpMax= 1.14D+04 ExpMxC= 3.89D+02 IAcc=3 IRadAn=         5 AccDes= 0.00D+00
 HarFok:  IExCor=  205 AccDes= 0.00D+00 IRadAn=         5 IDoV=-2 UseB2=F ITyADJ=14
 ICtDFT= 12500011 ScaDFX=  1.000000  1.000000  1.000000  1.000000
 Range of M.O.s used for correlation:     3   207
 NBasis=   207 NAE=     9 NBE=     9 NFC=     2 NFV=     0
 NROrb=    205 NOA=     7 NOB=     7 NVA=   198 NVB=   198

 **** Warning!!: The largest alpha MO coefficient is  0.54060192D+02

 Fully direct method using O(ONN) memory.
 JobTyp=1 Pass  1:  I=   3 to   9 NPSUse= 28 ParTrn=T ParDer=T DoDerP=T.
 Spin components of T(2) and E(2):
     alpha-alpha T2 =       0.1389643739D-01 E2=     -0.4495611241D-01
     alpha-beta  T2 =       0.9139362486D-01 E2=     -0.3219024264D+00
     beta-beta   T2 =       0.1389643739D-01 E2=     -0.4495611241D-01
 ANorm=    0.1057916112D+01
 E2 =    -0.4118146512D+00 EUMP2 =    -0.95666320292428D+02
          IDoAtm=1111111
          Differentiating once with respect to electric field.
                with respect to dipole field.
          Differentiating once with respect to nuclear coordinates.
 Keep R1 ints in memory in canonical form, NReq=245618749.
          There are     1 degrees of freedom in the 1st order CPHF.  IDoFFX=0 NUNeed=     1.
 LinEq1:  Iter=  0 NonCon=     1 RMS=2.58D-03 Max=2.51D-02 NDo=     1
 AX will form     1 AO Fock derivatives at one time.
 LinEq1:  Iter=  1 NonCon=     1 RMS=7.72D-04 Max=7.94D-03 NDo=     1
 LinEq1:  Iter=  2 NonCon=     1 RMS=2.48D-04 Max=2.59D-03 NDo=     1
 LinEq1:  Iter=  3 NonCon=     1 RMS=5.85D-05 Max=5.05D-04 NDo=     1
 LinEq1:  Iter=  4 NonCon=     1 RMS=1.87D-05 Max=1.77D-04 NDo=     1
 LinEq1:  Iter=  5 NonCon=     1 RMS=4.34D-06 Max=3.28D-05 NDo=     1
 LinEq1:  Iter=  6 NonCon=     1 RMS=8.69D-07 Max=8.22D-06 NDo=     1
 LinEq1:  Iter=  7 NonCon=     1 RMS=1.54D-07 Max=1.67D-06 NDo=     1
 LinEq1:  Iter=  8 NonCon=     1 RMS=2.93D-08 Max=2.75D-07 NDo=     1
 LinEq1:  Iter=  9 NonCon=     1 RMS=5.74D-09 Max=4.47D-08 NDo=     1
 LinEq1:  Iter= 10 NonCon=     1 RMS=8.20D-10 Max=6.95D-09 NDo=     1
 LinEq1:  Iter= 11 NonCon=     1 RMS=1.27D-10 Max=1.06D-09 NDo=     1
 LinEq1:  Iter= 12 NonCon=     0 RMS=1.77D-11 Max=1.35D-10 NDo=     1
 Linear equations converged to 1.000D-10 1.000D-09 after    12 iterations.
 End of Minotr F.D. properties file   721 does not exist.
 End of Minotr F.D. properties file   722 does not exist.
 End of Minotr F.D. properties file   788 does not exist.

 **********************************************************************

            Population analysis using the SCF density.

 **********************************************************************

 Orbital symmetries:
       Occupied  (A) (A) (A) (A) (A) (A) (A) (A) (A)
       Virtual   (A) (A) (A) (A) (A) (A) (A) (A) (A) (A) (A) (A)
                 (A) (A) (A) (A) (A) (A) (A) (A) (A) (A) (A) (A)
                 (A) (A) (A) (A) (A) (A) (A) (A) (A) (A) (A) (A)
                 (A) (A) (A) (A) (A) (A) (A) (A) (A) (A) (A) (A)
                 (A) (A) (A) (A) (A) (A) (A) (A) (A) (A) (A) (A)
                 (A) (A) (A) (A) (A) (A) (A) (A) (A) (A) (A) (A)
                 (A) (A) (A) (A) (A) (A) (A) (A) (A) (A) (A) (A)
                 (A) (A) (A) (A) (A) (A) (A) (A) (A) (A) (A) (A)
                 (A) (A) (A) (A) (A) (A) (A) (A) (A) (A) (A) (A)
                 (A) (A) (A) (A) (A) (A) (A) (A) (A) (A) (A) (A)
                 (A) (A) (A) (A) (A) (A) (A) (A) (A) (A) (A) (A)
                 (A) (A) (A) (A) (A) (A) (A) (A) (A) (A) (A) (A)
                 (A) (A) (A) (A) (A) (A) (A) (A) (A) (A) (A) (A)
                 (A) (A) (A) (A) (A) (A) (A) (A) (A) (A) (A) (A)
                 (A) (A) (A) (A) (A) (A) (A) (A) (A) (A) (A) (A)
                 (A) (A) (A) (A) (A) (A) (A) (A) (A) (A) (A) (A)
                 (A) (A) (A) (A) (A) (A)
 The electronic state is 1-A.
 Alpha  occ. eigenvalues --  -15.53944 -11.24070  -1.17057  -0.89092  -0.66654
 Alpha  occ. eigenvalues --   -0.59907  -0.55878  -0.51859  -0.38674
 Alpha virt. eigenvalues --    0.02961   0.04296   0.04353   0.04953   0.06874
 Alpha virt. eigenvalues --    0.09864   0.12660   0.12669   0.14013   0.14025
 Alpha virt. eigenvalues --    0.15666   0.16733   0.20224   0.22571   0.23681
 Alpha virt. eigenvalues --    0.25689   0.27436   0.28317   0.28911   0.29719
 Alpha virt. eigenvalues --    0.33310   0.33584   0.34247   0.34559   0.37591
 Alpha virt. eigenvalues --    0.38955   0.39509   0.40242   0.40362   0.43673
 Alpha virt. eigenvalues --    0.44353   0.44558   0.45429   0.46947   0.48553
 Alpha virt. eigenvalues --    0.49465   0.50138   0.50325   0.53444   0.58109
 Alpha virt. eigenvalues --    0.60189   0.61377   0.64133   0.65354   0.76134
 Alpha virt. eigenvalues --    0.79451   0.80011   0.80505   0.82871   0.85094
 Alpha virt. eigenvalues --    0.86679   0.88069   0.90659   0.91207   0.93789
 Alpha virt. eigenvalues --    0.94024   0.94779   0.96874   0.97520   0.97938
 Alpha virt. eigenvalues --    0.99510   1.01456   1.05516   1.06604   1.07898
 Alpha virt. eigenvalues --    1.08481   1.08830   1.10390   1.11055   1.13877
 Alpha virt. eigenvalues --    1.15592   1.19765   1.20554   1.21982   1.25463
 Alpha virt. eigenvalues --    1.25932   1.28813   1.29066   1.30552   1.33557
 Alpha virt. eigenvalues --    1.38441   1.41227   1.45218   1.45712   1.46862
 Alpha virt. eigenvalues --    1.51557   1.60905   1.61102   1.64239   1.64611
 Alpha virt. eigenvalues --    1.66721   1.67255   1.70556   1.73043   1.75140
 Alpha virt. eigenvalues --    1.83696   1.84988   1.93311   1.94430   2.00038
 Alpha virt. eigenvalues --    2.00486   2.01531   2.02100   2.04330   2.07297
 Alpha virt. eigenvalues --    2.07865   2.19364   2.21220   2.23018   2.23237
 Alpha virt. eigenvalues --    2.27059   2.31507   2.38135   2.42904   2.44631
 Alpha virt. eigenvalues --    2.49993   2.52620   2.56528   2.61241   2.70855
 Alpha virt. eigenvalues --    2.91570   3.13616   3.36644   3.38156   3.42235
 Alpha virt. eigenvalues --    3.56969   3.59925   3.60749   3.61379   3.63660
 Alpha virt. eigenvalues --    3.70421   3.74731   3.83716   3.86219   3.90034
 Alpha virt. eigenvalues --    3.91022   3.95794   4.00717   4.07288   4.07945
 Alpha virt. eigenvalues --    4.09273   4.11104   4.14951   4.20187   4.21486
 Alpha virt. eigenvalues --    4.27818   4.28580   4.30286   4.37633   4.41639
 Alpha virt. eigenvalues --    4.45966   4.48982   4.58485   4.59523   4.62819
 Alpha virt. eigenvalues --    4.66084   4.73245   4.75809   4.78265   4.80807
 Alpha virt. eigenvalues --    4.87856   4.88417   4.97716   4.97966   5.02257
 Alpha virt. eigenvalues --    5.02886   5.09711   5.10910   5.16262   5.19351
 Alpha virt. eigenvalues --    5.21284   5.24165   5.36569   5.47899   5.53229
 Alpha virt. eigenvalues --    5.54579   5.58864   5.78653   5.83036   5.85022
 Alpha virt. eigenvalues --    5.88151   5.93883   5.95024   6.07798   6.08321
 Alpha virt. eigenvalues --    6.14529   6.27410   6.39255   6.53778   6.55281
 Alpha virt. eigenvalues --    6.69225   6.72069   6.79790   6.97426   7.10139
 Alpha virt. eigenvalues --    7.73419  16.83873  17.98223
          Condensed to atoms (all electrons):
               1          2          3          4          5          6
     1  N    6.863981   0.069438  -0.006931  -0.007306  -0.020868   0.305737
     2  C    0.069438   5.489058   0.393674   0.393471   0.399906  -0.003859
     3  H   -0.006931   0.393674   0.259561   0.014645   0.014505   0.000689
     4  H   -0.007306   0.393471   0.014645   0.259374   0.014459  -0.003967
     5  H   -0.020868   0.399906   0.014505   0.014459   0.277625   0.005870
     6  H    0.305737  -0.003859   0.000689  -0.003967   0.005870   0.583398
     7  H    0.305144  -0.003727  -0.003998   0.000704   0.005833  -0.031786
               7
     1  N    0.305144
     2  C   -0.003727
     3  H   -0.003998
     4  H    0.000704
     5  H    0.005833
     6  H   -0.031786
     7  H    0.583733
 Mulliken charges:
               1
     1  N   -0.509195
     2  C   -0.737962
     3  H    0.327854
     4  H    0.328620
     5  H    0.302669
     6  H    0.143917
     7  H    0.144096
 Sum of Mulliken charges =  -0.00000
 Mulliken charges with hydrogens summed into heavy atoms:
               1
     1  N   -0.221182
     2  C    0.221182
 Electronic spatial extent (au):  <R**2>=             94.7882
 Charge=             -0.0000 electrons
 Dipole moment (field-independent basis, Debye):
    X=             -0.2831    Y=              0.0003    Z=              1.3346  Tot=              1.3643
 Quadrupole moment (field-independent basis, Debye-Ang):
   XX=            -14.2579   YY=            -12.4462   ZZ=            -15.4991
   XY=             -0.0025   XZ=              2.0798   YZ=              0.0012
 Traceless Quadrupole moment (field-independent basis, Debye-Ang):
   XX=             -0.1902   YY=              1.6215   ZZ=             -1.4313
   XY=             -0.0025   XZ=              2.0798   YZ=              0.0012
 Octapole moment (field-independent basis, Debye-Ang**2):
  XXX=              2.6058  YYY=              0.0126  ZZZ=              1.6793  XYY=              2.0942
  XXY=              0.0024  XXZ=              1.9939  XZZ=             -0.7609  YZZ=             -0.0117
  YYZ=              0.4164  XYZ=             -0.0012
 Hexadecapole moment (field-independent basis, Debye-Ang**3):
 XXXX=            -76.0479 YYYY=            -23.3923 ZZZZ=            -25.3918 XXXY=             -0.0055
 XXXZ=              4.2271 YYYX=             -0.0195 YYYZ=              0.0014 ZZZX=              1.7239
 ZZZY=              0.0018 XXYY=            -14.2883 XXZZ=            -18.0981 YYZZ=             -8.2071
 XXYZ=              0.0041 YYXZ=              2.1645 ZZXY=              0.0123
 N-N= 4.213798371817D+01 E-N=-3.067410758758D+02  KE= 9.509880553948D+01
 Calling FoFJK, ICntrl=  10002127 FMM=F ISym2X=0 I1Cent= 0 IOpClX= 0 NMat=1 NMatS=1 NMatT=0.
 ***** Axes restored to original set *****
 -------------------------------------------------------------------
 Center     Atomic                   Forces (Hartrees/Bohr)
 Number     Number              X              Y              Z
 -------------------------------------------------------------------
      1        7           0.006598141    0.003739404    0.003737863
      2        6          -0.002536718   -0.001434682   -0.012092855
      3        1           0.000691287   -0.001317634    0.000274878
      4        1          -0.000790331    0.001288332    0.000293466
      5        1          -0.004494539   -0.002627270    0.005179990
      6        1           0.005068779   -0.008190480    0.001392744
      7        1          -0.004536620    0.008542330    0.001213913
 -------------------------------------------------------------------
 Cartesian Forces:  Max     0.012092855 RMS     0.004753738

 GradGradGradGradGradGradGradGradGradGradGradGradGradGradGradGradGradGrad
 Berny optimization.
 FormGI is forming the generalized inverse of G from B-inverse, IUseBI=4.
 Internal  Forces:  Max     0.009838634 RMS     0.004531785
 Search for a local minimum.
 Step number   1 out of a maximum of   31
 All quantities printed in internal units (Hartrees-Bohrs-Radians)
 Mixed Optimization -- RFO/linear search
 Second derivative matrix not updated -- first step.
 ITU=  0
     Eigenvalues ---    0.00999   0.04428   0.07336   0.07599   0.16000
     Eigenvalues ---    0.16000   0.16000   0.16000   0.16000   0.33358
     Eigenvalues ---    0.34887   0.34887   0.37933   0.44338   0.44338
 RFO step:  Lambda=-1.89983740D-03 EMin= 9.98750906D-03
 Linear search not attempted -- first point.
 Iteration  1 RMS(Cart)=  0.03156826 RMS(Int)=  0.00065744
 Iteration  2 RMS(Cart)=  0.00050667 RMS(Int)=  0.00014012
 Iteration  3 RMS(Cart)=  0.00000012 RMS(Int)=  0.00014012
 Variable       Old X    -DE/DX   Delta X   Delta X   Delta X     New X
                                 (Linear)    (Quad)   (Total)
    R1        2.74462   0.00984   0.00000   0.02581   0.02581   2.77043
    R2        1.92752  -0.00817   0.00000  -0.01834  -0.01834   1.90918
    R3        1.92752  -0.00817   0.00000  -0.01834  -0.01834   1.90918
    R4        2.05859  -0.00108   0.00000  -0.00309  -0.00309   2.05550
    R5        2.05859  -0.00111   0.00000  -0.00316  -0.00316   2.05543
    R6        2.08427  -0.00490   0.00000  -0.01461  -0.01461   2.06966
    A1        1.91063   0.00427   0.00000   0.01955   0.01956   1.93019
    A2        1.91063   0.00424   0.00000   0.01939   0.01940   1.93004
    A3        1.91063  -0.00558   0.00000  -0.04814  -0.04811   1.86252
    A4        1.91503  -0.00127   0.00000  -0.01102  -0.01130   1.90373
    A5        1.91503  -0.00131   0.00000  -0.01133  -0.01161   1.90342
    A6        1.95486   0.00870   0.00000   0.06033   0.06010   2.01496
    A7        1.89469  -0.00119   0.00000  -0.02069  -0.02102   1.87368
    A8        1.89154  -0.00261   0.00000  -0.00967  -0.00989   1.88164
    A9        1.89153  -0.00261   0.00000  -0.00982  -0.01003   1.88151
    D1       -1.06135  -0.00232   0.00000  -0.03578  -0.03574  -1.09708
    D2        3.14159   0.00072   0.00000   0.00324   0.00318  -3.13842
    D3        1.04012  -0.00078   0.00000  -0.01607  -0.01607   1.02405
    D4        3.12744  -0.00070   0.00000  -0.00067  -0.00061   3.12683
    D5        1.04720   0.00234   0.00000   0.03835   0.03830   1.08550
    D6       -1.05427   0.00084   0.00000   0.01904   0.01905  -1.03522
         Item               Value     Threshold  Converged?
 Maximum Force            0.009839     0.000450     NO 
 RMS     Force            0.004532     0.000300     NO 
 Maximum Displacement     0.082300     0.001800     NO 
 RMS     Displacement     0.031468     0.001200     NO 
 Predicted change in Energy=-9.613291D-04
 GradGradGradGradGradGradGradGradGradGradGradGradGradGradGradGradGradGrad

                          Input orientation:                          
 ---------------------------------------------------------------------
 Center     Atomic      Atomic             Coordinates (Angstroms)
 Number     Number       Type             X           Y           Z
 ---------------------------------------------------------------------
      1          7           0        0.003674    0.001889    0.414181
      2          6           0       -1.190591   -0.687381   -0.083748
      3          1           0       -2.076315   -0.186579    0.300736
      4          1           0       -1.200105   -1.704547    0.301411
      5          1           0       -1.282789   -0.741194   -1.173750
      6          1           0        0.034195    0.951978    0.071990
      7          1           0        0.841574   -0.453922    0.081233
 ---------------------------------------------------------------------
                    Distance matrix (angstroms):
                    1          2          3          4          5
     1  N    0.000000
     2  C    1.466047   0.000000
     3  H    2.091589   1.087722   0.000000
     4  H    2.091345   1.087688   1.752704   0.000000
     5  H    2.174554   1.095217   1.763913   1.763799   0.000000
     6  H    1.010294   2.052280   2.408919   2.938240   2.480554
     7  H    1.010294   2.052173   2.938321   2.404369   2.484034
                    6          7
     6  H    0.000000
     7  H    1.621265   0.000000
 Stoichiometry    CH5N
 Framework group  C1[X(CH5N)]
 Deg. of freedom    15
 Full point group                 C1      NOp   1
 Largest Abelian subgroup         C1      NOp   1
 Largest concise Abelian subgroup C1      NOp   1
                         Standard orientation:                         
 ---------------------------------------------------------------------
 Center     Atomic      Atomic             Coordinates (Angstroms)
 Number     Number       Type             X           Y           Z
 ---------------------------------------------------------------------
      1          7           0        0.751188   -0.000051   -0.120423
      2          6           0       -0.708383   -0.000042    0.017232
      3          1           0       -1.113237   -0.873243   -0.489474
      4          1           0       -1.111960    0.879432   -0.479473
      5          1           0       -1.084062   -0.005544    1.045986
      6          1           0        1.150690   -0.810651    0.331261
      7          1           0        1.150550    0.810614    0.331270
 ---------------------------------------------------------------------
 Rotational constants (GHZ):         104.5535158          22.7388593          21.8431427
 Standard basis: Aug-CC-pVTZ (5D, 7F)
 There are   235 symmetry adapted cartesian basis functions of A   symmetry.
 There are   207 symmetry adapted basis functions of A   symmetry.
   207 basis functions,   279 primitive gaussians,   235 cartesian basis functions
     9 alpha electrons        9 beta electrons
       nuclear repulsion energy        42.0248442247 Hartrees.
 NAtoms=    7 NActive=    7 NUniq=    7 SFac= 1.00D+00 NAtFMM=   60 NAOKFM=F Big=F
 Integral buffers will be    131072 words long.
 Raffenetti 1 integral format.
 Two-electron integral symmetry is turned on.
 One-electron integrals computed using PRISM.
 NBasis=   207 RedAO= T EigKep=  4.05D-05  NBF=   207
 NBsUse=   207 1.00D-06 EigRej= -1.00D+00 NBFU=   207
 Initial guess from the checkpoint file:  "/gscratch/scrubbed/gds001/Gau-22804.chk"
 B after Tr=    -0.000000   -0.000000   -0.000000
         Rot=    0.999991    0.000537    0.004314    0.000023 Ang=   0.50 deg.
 ExpMin= 2.53D-02 ExpMax= 1.14D+04 ExpMxC= 3.89D+02 IAcc=3 IRadAn=         5 AccDes= 0.00D+00
 Harris functional with IExCor=  205 and IRadAn=       5 diagonalized for initial guess.
 HarFok:  IExCor=  205 AccDes= 0.00D+00 IRadAn=         5 IDoV= 1 UseB2=F ITyADJ=14
 ICtDFT=  3500011 ScaDFX=  1.000000  1.000000  1.000000  1.000000
 FoFCou: FMM=F IPFlag=           0 FMFlag=      100000 FMFlg1=           0
         NFxFlg=           0 DoJE=T BraDBF=F KetDBF=T FulRan=T
         wScrn=  0.000000 ICntrl=       500 IOpCl=  0 I1Cent=   200000004 NGrid=           0
         NMat0=    1 NMatS0=      1 NMatT0=    0 NMatD0=    1 NMtDS0=    0 NMtDT0=    0
 Petite list used in FoFCou.
 Keep R1 ints in memory in canonical form, NReq=245616294.
 Requested convergence on RMS density matrix=1.00D-08 within 128 cycles.
 Requested convergence on MAX density matrix=1.00D-06.
 Requested convergence on             energy=1.00D-06.
 No special actions if energy rises.
 SCF Done:  E(RHF) =  -95.2555930957     A.U. after    9 cycles
            NFock=  9  Conv=0.49D-08     -V/T= 2.0015
 ExpMin= 2.53D-02 ExpMax= 1.14D+04 ExpMxC= 3.89D+02 IAcc=3 IRadAn=         5 AccDes= 0.00D+00
 HarFok:  IExCor=  205 AccDes= 0.00D+00 IRadAn=         5 IDoV=-2 UseB2=F ITyADJ=14
 ICtDFT= 12500011 ScaDFX=  1.000000  1.000000  1.000000  1.000000
 Range of M.O.s used for correlation:     3   207
 NBasis=   207 NAE=     9 NBE=     9 NFC=     2 NFV=     0
 NROrb=    205 NOA=     7 NOB=     7 NVA=   198 NVB=   198

 **** Warning!!: The largest alpha MO coefficient is  0.47217594D+02

 Fully direct method using O(ONN) memory.
 JobTyp=1 Pass  1:  I=   3 to   9 NPSUse= 28 ParTrn=T ParDer=T DoDerP=T.
 Spin components of T(2) and E(2):
     alpha-alpha T2 =       0.1388857625D-01 E2=     -0.4492573952D-01
     alpha-beta  T2 =       0.9121378568D-01 E2=     -0.3217116165D+00
     beta-beta   T2 =       0.1388857625D-01 E2=     -0.4492573952D-01
 ANorm=    0.1057823680D+01
 E2 =    -0.4115630955D+00 EUMP2 =    -0.95667156191200D+02
          IDoAtm=1111111
          Differentiating once with respect to electric field.
                with respect to dipole field.
          Differentiating once with respect to nuclear coordinates.
 Keep R1 ints in memory in canonical form, NReq=245618661.
          There are     1 degrees of freedom in the 1st order CPHF.  IDoFFX=0 NUNeed=     1.
 LinEq1:  Iter=  0 NonCon=     1 RMS=2.57D-03 Max=2.56D-02 NDo=     1
 AX will form     1 AO Fock derivatives at one time.
 LinEq1:  Iter=  1 NonCon=     1 RMS=7.65D-04 Max=8.10D-03 NDo=     1
 LinEq1:  Iter=  2 NonCon=     1 RMS=2.44D-04 Max=2.55D-03 NDo=     1
 LinEq1:  Iter=  3 NonCon=     1 RMS=5.75D-05 Max=4.89D-04 NDo=     1
 LinEq1:  Iter=  4 NonCon=     1 RMS=1.85D-05 Max=1.68D-04 NDo=     1
 LinEq1:  Iter=  5 NonCon=     1 RMS=4.37D-06 Max=3.25D-05 NDo=     1
 LinEq1:  Iter=  6 NonCon=     1 RMS=8.71D-07 Max=8.48D-06 NDo=     1
 LinEq1:  Iter=  7 NonCon=     1 RMS=1.51D-07 Max=1.59D-06 NDo=     1
 LinEq1:  Iter=  8 NonCon=     1 RMS=2.86D-08 Max=2.80D-07 NDo=     1
 LinEq1:  Iter=  9 NonCon=     1 RMS=5.59D-09 Max=4.55D-08 NDo=     1
 LinEq1:  Iter= 10 NonCon=     1 RMS=7.90D-10 Max=6.37D-09 NDo=     1
 LinEq1:  Iter= 11 NonCon=     1 RMS=1.23D-10 Max=9.63D-10 NDo=     1
 LinEq1:  Iter= 12 NonCon=     0 RMS=1.75D-11 Max=1.26D-10 NDo=     1
 Linear equations converged to 1.000D-10 1.000D-09 after    12 iterations.
 End of Minotr F.D. properties file   721 does not exist.
 End of Minotr F.D. properties file   722 does not exist.
 End of Minotr F.D. properties file   788 does not exist.
 Calling FoFJK, ICntrl=  10002127 FMM=F ISym2X=0 I1Cent= 0 IOpClX= 0 NMat=1 NMatS=1 NMatT=0.
 ***** Axes restored to original set *****
 -------------------------------------------------------------------
 Center     Atomic                   Forces (Hartrees/Bohr)
 Number     Number              X              Y              Z
 -------------------------------------------------------------------
      1        7          -0.002789365   -0.001617215    0.000569022
      2        6           0.000526096    0.000306758   -0.000550456
      3        1          -0.000009774    0.000318156    0.000505146
      4        1           0.000251126   -0.000173520    0.000529450
      5        1           0.001194010    0.000675788    0.000559132
      6        1           0.000019301    0.000927427   -0.000792560
      7        1           0.000808607   -0.000437394   -0.000819733
 -------------------------------------------------------------------
 Cartesian Forces:  Max     0.002789365 RMS     0.000908278

 GradGradGradGradGradGradGradGradGradGradGradGradGradGradGradGradGradGrad
 Berny optimization.
 Using GEDIIS/GDIIS optimizer.
 FormGI is forming the generalized inverse of G from B-inverse, IUseBI=4.
 Internal  Forces:  Max     0.002482121 RMS     0.000846821
 Search for a local minimum.
 Step number   2 out of a maximum of   31
 All quantities printed in internal units (Hartrees-Bohrs-Radians)
 Mixed Optimization -- En-DIIS/RFO-DIIS
 Update second derivatives using D2CorX and points    1    2
 DE= -8.36D-04 DEPred=-9.61D-04 R= 8.70D-01
 TightC=F SS=  1.41D+00  RLast= 1.12D-01 DXNew= 5.0454D-01 3.3589D-01
 Trust test= 8.70D-01 RLast= 1.12D-01 DXMaxT set to 3.36D-01
 ITU=  1  0
 Use linear search instead of GDIIS.
     Eigenvalues ---    0.00999   0.04210   0.06911   0.07662   0.15668
     Eigenvalues ---    0.16000   0.16000   0.16000   0.17787   0.32934
     Eigenvalues ---    0.34887   0.34926   0.39669   0.44338   0.46145
 RFO step:  Lambda=-3.36433924D-05 EMin= 9.98665042D-03
 Quartic linear search produced a step of -0.10342.
 Iteration  1 RMS(Cart)=  0.00590408 RMS(Int)=  0.00002889
 Iteration  2 RMS(Cart)=  0.00002221 RMS(Int)=  0.00001640
 Iteration  3 RMS(Cart)=  0.00000000 RMS(Int)=  0.00001640
 Variable       Old X    -DE/DX   Delta X   Delta X   Delta X     New X
                                 (Linear)    (Quad)   (Total)
    R1        2.77043  -0.00248  -0.00267  -0.00276  -0.00543   2.76500
    R2        1.90918   0.00114   0.00190   0.00010   0.00200   1.91118
    R3        1.90918   0.00114   0.00190   0.00009   0.00199   1.91117
    R4        2.05550   0.00033   0.00032   0.00048   0.00080   2.05630
    R5        2.05543   0.00035   0.00033   0.00051   0.00084   2.05627
    R6        2.06966  -0.00069   0.00151  -0.00361  -0.00210   2.06756
    A1        1.93019  -0.00042  -0.00202  -0.00197  -0.00401   1.92618
    A2        1.93004  -0.00044  -0.00201  -0.00207  -0.00409   1.92594
    A3        1.86252   0.00005   0.00498  -0.00936  -0.00442   1.85810
    A4        1.90373  -0.00022   0.00117  -0.00247  -0.00128   1.90245
    A5        1.90342  -0.00020   0.00120  -0.00243  -0.00121   1.90221
    A6        2.01496  -0.00167  -0.00622  -0.00235  -0.00855   2.00641
    A7        1.87368   0.00027   0.00217  -0.00071   0.00150   1.87517
    A8        1.88164   0.00098   0.00102   0.00408   0.00511   1.88676
    A9        1.88151   0.00098   0.00104   0.00408   0.00513   1.88664
    D1       -1.09708  -0.00019   0.00370  -0.00759  -0.00390  -1.10098
    D2       -3.13842  -0.00027  -0.00033  -0.00398  -0.00429   3.14048
    D3        1.02405  -0.00023   0.00166  -0.00580  -0.00413   1.01992
    D4        3.12683   0.00030   0.00006   0.00652   0.00656   3.13340
    D5        1.08550   0.00021  -0.00396   0.01014   0.00617   1.09167
    D6       -1.03522   0.00025  -0.00197   0.00831   0.00633  -1.02889
         Item               Value     Threshold  Converged?
 Maximum Force            0.002482     0.000450     NO 
 RMS     Force            0.000847     0.000300     NO 
 Maximum Displacement     0.017640     0.001800     NO 
 RMS     Displacement     0.005914     0.001200     NO 
 Predicted change in Energy=-2.803039D-05
 GradGradGradGradGradGradGradGradGradGradGradGradGradGradGradGradGradGrad

                          Input orientation:                          
 ---------------------------------------------------------------------
 Center     Atomic      Atomic             Coordinates (Angstroms)
 Number     Number       Type             X           Y           Z
 ---------------------------------------------------------------------
      1          7           0        0.000971    0.000143    0.416053
      2          6           0       -1.190553   -0.687439   -0.082328
      3          1           0       -2.076131   -0.185322    0.301982
      4          1           0       -1.199445   -1.704936    0.303227
      5          1           0       -1.273455   -0.736253   -1.172195
      6          1           0        0.030577    0.949491    0.068649
      7          1           0        0.837679   -0.455442    0.076665
 ---------------------------------------------------------------------
                    Distance matrix (angstroms):
                    1          2          3          4          5
     1  N    0.000000
     2  C    1.463175   0.000000
     3  H    2.088483   1.088147   0.000000
     4  H    2.088306   1.088132   1.754368   0.000000
     5  H    2.165403   1.094105   1.766638   1.766548   0.000000
     6  H    1.011350   2.047802   2.404260   2.934956   2.466157
     7  H    1.011347   2.047639   2.934965   2.400508   2.468884
                    6          7
     6  H    0.000000
     7  H    1.620283   0.000000
 Stoichiometry    CH5N
 Framework group  C1[X(CH5N)]
 Deg. of freedom    15
 Full point group                 C1      NOp   1
 Largest Abelian subgroup         C1      NOp   1
 Largest concise Abelian subgroup C1      NOp   1
                         Standard orientation:                         
 ---------------------------------------------------------------------
 Center     Atomic      Atomic             Coordinates (Angstroms)
 Number     Number       Type             X           Y           Z
 ---------------------------------------------------------------------
      1          7           0        0.749225   -0.000038   -0.122401
      2          6           0       -0.707228   -0.000042    0.017693
      3          1           0       -1.111772   -0.874705   -0.487650
      4          1           0       -1.110764    0.879645   -0.479644
      5          1           0       -1.071810   -0.004458    1.049257
      6          1           0        1.146685   -0.810126    0.334339
      7          1           0        1.146454    0.810156    0.334346
 ---------------------------------------------------------------------
 Rotational constants (GHZ):         104.2046118          22.8374754          21.9469983
 Standard basis: Aug-CC-pVTZ (5D, 7F)
 There are   235 symmetry adapted cartesian basis functions of A   symmetry.
 There are   207 symmetry adapted basis functions of A   symmetry.
   207 basis functions,   279 primitive gaussians,   235 cartesian basis functions
     9 alpha electrons        9 beta electrons
       nuclear repulsion energy        42.0695186154 Hartrees.
 NAtoms=    7 NActive=    7 NUniq=    7 SFac= 1.00D+00 NAtFMM=   60 NAOKFM=F Big=F
 Integral buffers will be    131072 words long.
 Raffenetti 1 integral format.
 Two-electron integral symmetry is turned on.
 One-electron integrals computed using PRISM.
 NBasis=   207 RedAO= T EigKep=  4.00D-05  NBF=   207
 NBsUse=   207 1.00D-06 EigRej= -1.00D+00 NBFU=   207
 Initial guess from the checkpoint file:  "/gscratch/scrubbed/gds001/Gau-22804.chk"
 B after Tr=     0.000000   -0.000000    0.000000
         Rot=    1.000000    0.000371   -0.000704   -0.000023 Ang=   0.09 deg.
 Keep R1 ints in memory in canonical form, NReq=245616338.
 Requested convergence on RMS density matrix=1.00D-08 within 128 cycles.
 Requested convergence on MAX density matrix=1.00D-06.
 Requested convergence on             energy=1.00D-06.
 No special actions if energy rises.
 SCF Done:  E(RHF) =  -95.2556106727     A.U. after    8 cycles
            NFock=  8  Conv=0.57D-08     -V/T= 2.0014
 ExpMin= 2.53D-02 ExpMax= 1.14D+04 ExpMxC= 3.89D+02 IAcc=3 IRadAn=         5 AccDes= 0.00D+00
 HarFok:  IExCor=  205 AccDes= 0.00D+00 IRadAn=         5 IDoV=-2 UseB2=F ITyADJ=14
 ICtDFT= 12500011 ScaDFX=  1.000000  1.000000  1.000000  1.000000
 Range of M.O.s used for correlation:     3   207
 NBasis=   207 NAE=     9 NBE=     9 NFC=     2 NFV=     0
 NROrb=    205 NOA=     7 NOB=     7 NVA=   198 NVB=   198

 **** Warning!!: The largest alpha MO coefficient is  0.49914850D+02

 Fully direct method using O(ONN) memory.
 JobTyp=1 Pass  1:  I=   3 to   9 NPSUse= 28 ParTrn=T ParDer=T DoDerP=T.
 Spin components of T(2) and E(2):
     alpha-alpha T2 =       0.1388251216D-01 E2=     -0.4493002972D-01
     alpha-beta  T2 =       0.9118150955D-01 E2=     -0.3217161241D+00
     beta-beta   T2 =       0.1388251216D-01 E2=     -0.4493002972D-01
 ANorm=    0.1057802691D+01
 E2 =    -0.4115761836D+00 EUMP2 =    -0.95667186856224D+02
          IDoAtm=1111111
          Differentiating once with respect to electric field.
                with respect to dipole field.
          Differentiating once with respect to nuclear coordinates.
 Keep R1 ints in memory in canonical form, NReq=245618661.
          There are     1 degrees of freedom in the 1st order CPHF.  IDoFFX=0 NUNeed=     1.
 LinEq1:  Iter=  0 NonCon=     1 RMS=2.57D-03 Max=2.54D-02 NDo=     1
 AX will form     1 AO Fock derivatives at one time.
 LinEq1:  Iter=  1 NonCon=     1 RMS=7.65D-04 Max=8.02D-03 NDo=     1
 LinEq1:  Iter=  2 NonCon=     1 RMS=2.44D-04 Max=2.57D-03 NDo=     1
 LinEq1:  Iter=  3 NonCon=     1 RMS=5.76D-05 Max=4.92D-04 NDo=     1
 LinEq1:  Iter=  4 NonCon=     1 RMS=1.85D-05 Max=1.63D-04 NDo=     1
 LinEq1:  Iter=  5 NonCon=     1 RMS=4.36D-06 Max=3.27D-05 NDo=     1
 LinEq1:  Iter=  6 NonCon=     1 RMS=8.71D-07 Max=8.47D-06 NDo=     1
 LinEq1:  Iter=  7 NonCon=     1 RMS=1.52D-07 Max=1.57D-06 NDo=     1
 LinEq1:  Iter=  8 NonCon=     1 RMS=2.87D-08 Max=2.79D-07 NDo=     1
 LinEq1:  Iter=  9 NonCon=     1 RMS=5.60D-09 Max=4.54D-08 NDo=     1
 LinEq1:  Iter= 10 NonCon=     1 RMS=7.88D-10 Max=6.39D-09 NDo=     1
 LinEq1:  Iter= 11 NonCon=     1 RMS=1.23D-10 Max=9.84D-10 NDo=     1
 LinEq1:  Iter= 12 NonCon=     0 RMS=1.73D-11 Max=1.26D-10 NDo=     1
 Linear equations converged to 1.000D-10 1.000D-09 after    12 iterations.
 End of Minotr F.D. properties file   721 does not exist.
 End of Minotr F.D. properties file   722 does not exist.
 End of Minotr F.D. properties file   788 does not exist.
 Calling FoFJK, ICntrl=  10002127 FMM=F ISym2X=0 I1Cent= 0 IOpClX= 0 NMat=1 NMatS=1 NMatT=0.
 ***** Axes restored to original set *****
 -------------------------------------------------------------------
 Center     Atomic                   Forces (Hartrees/Bohr)
 Number     Number              X              Y              Z
 -------------------------------------------------------------------
      1        7          -0.000254270   -0.000169093    0.000573701
      2        6          -0.000289344   -0.000162073   -0.000279923
      3        1          -0.000020941   -0.000045758    0.000066575
      4        1          -0.000063338    0.000008932    0.000085128
      5        1           0.000125778    0.000062599    0.000063320
      6        1           0.000114102    0.000375950   -0.000242884
      7        1           0.000388012   -0.000070556   -0.000265918
 -------------------------------------------------------------------
 Cartesian Forces:  Max     0.000573701 RMS     0.000228074

 GradGradGradGradGradGradGradGradGradGradGradGradGradGradGradGradGradGrad
 Berny optimization.
 Using GEDIIS/GDIIS optimizer.
 FormGI is forming the generalized inverse of G from B-inverse, IUseBI=4.
 Internal  Forces:  Max     0.000442034 RMS     0.000165477
 Search for a local minimum.
 Step number   3 out of a maximum of   31
 All quantities printed in internal units (Hartrees-Bohrs-Radians)
 Mixed Optimization -- En-DIIS/RFO-DIIS
 Swapping is turned off.
 Update second derivatives using D2CorX and points    1    2    3
 DE= -3.07D-05 DEPred=-2.80D-05 R= 1.09D+00
 TightC=F SS=  1.41D+00  RLast= 2.00D-02 DXNew= 5.6490D-01 5.9877D-02
 Trust test= 1.09D+00 RLast= 2.00D-02 DXMaxT set to 3.36D-01
 ITU=  1  1  0
     Eigenvalues ---    0.00996   0.03882   0.06976   0.07671   0.15440
     Eigenvalues ---    0.15895   0.16000   0.16000   0.17274   0.32787
     Eigenvalues ---    0.34887   0.34890   0.43069   0.44337   0.44469
 En-DIIS/RFO-DIIS/Sim-DIIS IScMMF=       -3 using points:     3    2
 RFO step:  Lambda=-2.68341317D-06.
 DidBck=F Rises=F RFO-DIIS coefs:    1.24688   -0.24688
 Iteration  1 RMS(Cart)=  0.00112079 RMS(Int)=  0.00000354
 Iteration  2 RMS(Cart)=  0.00000136 RMS(Int)=  0.00000318
 Iteration  3 RMS(Cart)=  0.00000000 RMS(Int)=  0.00000318
 Variable       Old X    -DE/DX   Delta X   Delta X   Delta X     New X
                                 (Linear)    (Quad)   (Total)
    R1        2.76500   0.00029  -0.00134   0.00206   0.00072   2.76572
    R2        1.91118   0.00044   0.00049   0.00062   0.00111   1.91228
    R3        1.91117   0.00044   0.00049   0.00062   0.00111   1.91228
    R4        2.05630   0.00002   0.00020  -0.00012   0.00008   2.05638
    R5        2.05627   0.00002   0.00021  -0.00012   0.00009   2.05636
    R6        2.06756  -0.00008  -0.00052   0.00014  -0.00038   2.06718
    A1        1.92618   0.00001  -0.00099   0.00039  -0.00061   1.92557
    A2        1.92594   0.00002  -0.00101   0.00047  -0.00055   1.92540
    A3        1.85810  -0.00012  -0.00109  -0.00123  -0.00233   1.85577
    A4        1.90245   0.00004  -0.00032   0.00043   0.00012   1.90256
    A5        1.90221   0.00004  -0.00030   0.00046   0.00016   1.90238
    A6        2.00641  -0.00018  -0.00211   0.00084  -0.00127   2.00514
    A7        1.87517  -0.00008   0.00037  -0.00114  -0.00077   1.87440
    A8        1.88676   0.00009   0.00126  -0.00039   0.00087   1.88763
    A9        1.88664   0.00009   0.00127  -0.00036   0.00090   1.88754
    D1       -1.10098  -0.00007  -0.00096  -0.00003  -0.00099  -1.10197
    D2        3.14048  -0.00003  -0.00106   0.00083  -0.00022   3.14026
    D3        1.01992  -0.00005  -0.00102   0.00038  -0.00064   1.01928
    D4        3.13340   0.00005   0.00162   0.00096   0.00258   3.13597
    D5        1.09167   0.00009   0.00152   0.00182   0.00334   1.09502
    D6       -1.02889   0.00007   0.00156   0.00136   0.00292  -1.02597
         Item               Value     Threshold  Converged?
 Maximum Force            0.000442     0.000450     YES
 RMS     Force            0.000165     0.000300     YES
 Maximum Displacement     0.002789     0.001800     NO 
 RMS     Displacement     0.001121     0.001200     YES
 Predicted change in Energy=-1.341367D-06
 GradGradGradGradGradGradGradGradGradGradGradGradGradGradGradGradGradGrad

                          Input orientation:                          
 ---------------------------------------------------------------------
 Center     Atomic      Atomic             Coordinates (Angstroms)
 Number     Number       Type             X           Y           Z
 ---------------------------------------------------------------------
      1          7           0        0.000924   -0.000125    0.416880
      2          6           0       -1.190813   -0.687667   -0.082163
      3          1           0       -2.076577   -0.185612    0.301920
      4          1           0       -1.200479   -1.705080    0.303735
      5          1           0       -1.271979   -0.735837   -1.171986
      6          1           0        0.030703    0.949463    0.068436
      7          1           0        0.837865   -0.454900    0.075229
 ---------------------------------------------------------------------
                    Distance matrix (angstroms):
                    1          2          3          4          5
     1  N    0.000000
     2  C    1.463556   0.000000
     3  H    2.088931   1.088190   0.000000
     4  H    2.088790   1.088181   1.753948   0.000000
     5  H    2.164729   1.093903   1.767067   1.767002   0.000000
     6  H    1.011937   2.048164   2.404899   2.935604   2.464927
     7  H    1.011937   2.048045   2.935623   2.402085   2.466965
                    6          7
     6  H    0.000000
     7  H    1.619812   0.000000
 Stoichiometry    CH5N
 Framework group  C1[X(CH5N)]
 Deg. of freedom    15
 Full point group                 C1      NOp   1
 Largest Abelian subgroup         C1      NOp   1
 Largest concise Abelian subgroup C1      NOp   1
                         Standard orientation:                         
 ---------------------------------------------------------------------
 Center     Atomic      Atomic             Coordinates (Angstroms)
 Number     Number       Type             X           Y           Z
 ---------------------------------------------------------------------
      1          7           0        0.749314   -0.000027   -0.122994
      2          6           0       -0.707446   -0.000032    0.017891
      3          1           0       -1.112320   -0.875117   -0.486551
      4          1           0       -1.111550    0.878821   -0.480563
      5          1           0       -1.070112   -0.003336    1.049921
      6          1           0        1.146816   -0.809898    0.335393
      7          1           0        1.146646    0.809914    0.335413
 ---------------------------------------------------------------------
 Rotational constants (GHZ):         104.1440591          22.8268457          21.9427448
 Standard basis: Aug-CC-pVTZ (5D, 7F)
 There are   235 symmetry adapted cartesian basis functions of A   symmetry.
 There are   207 symmetry adapted basis functions of A   symmetry.
   207 basis functions,   279 primitive gaussians,   235 cartesian basis functions
     9 alpha electrons        9 beta electrons
       nuclear repulsion energy        42.0607566472 Hartrees.
 NAtoms=    7 NActive=    7 NUniq=    7 SFac= 1.00D+00 NAtFMM=   60 NAOKFM=F Big=F
 Integral buffers will be    131072 words long.
 Raffenetti 1 integral format.
 Two-electron integral symmetry is turned on.
 One-electron integrals computed using PRISM.
 NBasis=   207 RedAO= T EigKep=  4.00D-05  NBF=   207
 NBsUse=   207 1.00D-06 EigRej= -1.00D+00 NBFU=   207
 Initial guess from the checkpoint file:  "/gscratch/scrubbed/gds001/Gau-22804.chk"
 B after Tr=     0.000000   -0.000000   -0.000000
         Rot=    1.000000    0.000371   -0.000161   -0.000011 Ang=   0.05 deg.
 Keep R1 ints in memory in canonical form, NReq=245616338.
 Requested convergence on RMS density matrix=1.00D-08 within 128 cycles.
 Requested convergence on MAX density matrix=1.00D-06.
 Requested convergence on             energy=1.00D-06.
 No special actions if energy rises.
 SCF Done:  E(RHF) =  -95.2555779916     A.U. after    7 cycles
            NFock=  7  Conv=0.41D-08     -V/T= 2.0014
 ExpMin= 2.53D-02 ExpMax= 1.14D+04 ExpMxC= 3.89D+02 IAcc=3 IRadAn=         5 AccDes= 0.00D+00
 HarFok:  IExCor=  205 AccDes= 0.00D+00 IRadAn=         5 IDoV=-2 UseB2=F ITyADJ=14
 ICtDFT= 12500011 ScaDFX=  1.000000  1.000000  1.000000  1.000000
 Range of M.O.s used for correlation:     3   207
 NBasis=   207 NAE=     9 NBE=     9 NFC=     2 NFV=     0
 NROrb=    205 NOA=     7 NOB=     7 NVA=   198 NVB=   198

 **** Warning!!: The largest alpha MO coefficient is  0.50342830D+02

 Fully direct method using O(ONN) memory.
 JobTyp=1 Pass  1:  I=   3 to   9 NPSUse= 28 ParTrn=T ParDer=T DoDerP=T.
 Spin components of T(2) and E(2):
     alpha-alpha T2 =       0.1388685933D-01 E2=     -0.4493205643D-01
     alpha-beta  T2 =       0.9121487673D-01 E2=     -0.3217462910D+00
     beta-beta   T2 =       0.1388685933D-01 E2=     -0.4493205643D-01
 ANorm=    0.1057822573D+01
 E2 =    -0.4116104038D+00 EUMP2 =    -0.95667188395489D+02
          IDoAtm=1111111
          Differentiating once with respect to electric field.
                with respect to dipole field.
          Differentiating once with respect to nuclear coordinates.
 Keep R1 ints in memory in canonical form, NReq=245618661.
          There are     1 degrees of freedom in the 1st order CPHF.  IDoFFX=0 NUNeed=     1.
 LinEq1:  Iter=  0 NonCon=     1 RMS=2.57D-03 Max=2.53D-02 NDo=     1
 AX will form     1 AO Fock derivatives at one time.
 LinEq1:  Iter=  1 NonCon=     1 RMS=7.65D-04 Max=7.99D-03 NDo=     1
 LinEq1:  Iter=  2 NonCon=     1 RMS=2.45D-04 Max=2.58D-03 NDo=     1
 LinEq1:  Iter=  3 NonCon=     1 RMS=5.77D-05 Max=4.94D-04 NDo=     1
 LinEq1:  Iter=  4 NonCon=     1 RMS=1.86D-05 Max=1.63D-04 NDo=     1
 LinEq1:  Iter=  5 NonCon=     1 RMS=4.37D-06 Max=3.30D-05 NDo=     1
 LinEq1:  Iter=  6 NonCon=     1 RMS=8.75D-07 Max=8.51D-06 NDo=     1
 LinEq1:  Iter=  7 NonCon=     1 RMS=1.52D-07 Max=1.57D-06 NDo=     1
 LinEq1:  Iter=  8 NonCon=     1 RMS=2.88D-08 Max=2.78D-07 NDo=     1
 LinEq1:  Iter=  9 NonCon=     1 RMS=5.60D-09 Max=4.54D-08 NDo=     1
 LinEq1:  Iter= 10 NonCon=     1 RMS=7.89D-10 Max=6.38D-09 NDo=     1
 LinEq1:  Iter= 11 NonCon=     1 RMS=1.23D-10 Max=9.89D-10 NDo=     1
 LinEq1:  Iter= 12 NonCon=     0 RMS=1.74D-11 Max=1.27D-10 NDo=     1
 Linear equations converged to 1.000D-10 1.000D-09 after    12 iterations.
 End of Minotr F.D. properties file   721 does not exist.
 End of Minotr F.D. properties file   722 does not exist.
 End of Minotr F.D. properties file   788 does not exist.
 Calling FoFJK, ICntrl=  10002127 FMM=F ISym2X=0 I1Cent= 0 IOpClX= 0 NMat=1 NMatS=1 NMatT=0.
 ***** Axes restored to original set *****
 -------------------------------------------------------------------
 Center     Atomic                   Forces (Hartrees/Bohr)
 Number     Number              X              Y              Z
 -------------------------------------------------------------------
      1        7           0.000125188    0.000052672    0.000199503
      2        6          -0.000125769   -0.000071699   -0.000117024
      3        1           0.000024451    0.000007415   -0.000000884
      4        1           0.000007492    0.000021092    0.000011894
      5        1          -0.000014900   -0.000016040   -0.000005611
      6        1          -0.000012960    0.000001492   -0.000034650
      7        1          -0.000003500    0.000005066   -0.000053228
 -------------------------------------------------------------------
 Cartesian Forces:  Max     0.000199503 RMS     0.000068643

 GradGradGradGradGradGradGradGradGradGradGradGradGradGradGradGradGradGrad
 Berny optimization.
 Using GEDIIS/GDIIS optimizer.
 FormGI is forming the generalized inverse of G from B-inverse, IUseBI=4.
 Internal  Forces:  Max     0.000154416 RMS     0.000041624
 Search for a local minimum.
 Step number   4 out of a maximum of   31
 All quantities printed in internal units (Hartrees-Bohrs-Radians)
 Mixed Optimization -- En-DIIS/RFO-DIIS
 Swapping is turned off.
 Update second derivatives using D2CorX and points    1    2    3    4
 DE= -1.54D-06 DEPred=-1.34D-06 R= 1.15D+00
 TightC=F SS=  1.41D+00  RLast= 6.39D-03 DXNew= 5.6490D-01 1.9176D-02
 Trust test= 1.15D+00 RLast= 6.39D-03 DXMaxT set to 3.36D-01
 ITU=  1  1  1  0
     Eigenvalues ---    0.00948   0.03157   0.06982   0.07620   0.15836
     Eigenvalues ---    0.15994   0.16000   0.16589   0.17749   0.32882
     Eigenvalues ---    0.34887   0.34958   0.41869   0.44338   0.46634
 En-DIIS/RFO-DIIS/Sim-DIIS IScMMF=       -3 using points:     4    3    2
 RFO step:  Lambda=-3.18545087D-07.
 DidBck=F Rises=F RFO-DIIS coefs:    1.46421   -0.45850   -0.00572
 Iteration  1 RMS(Cart)=  0.00051681 RMS(Int)=  0.00000076
 Iteration  2 RMS(Cart)=  0.00000043 RMS(Int)=  0.00000060
 Variable       Old X    -DE/DX   Delta X   Delta X   Delta X     New X
                                 (Linear)    (Quad)   (Total)
    R1        2.76572   0.00015   0.00030   0.00017   0.00047   2.76619
    R2        1.91228   0.00001   0.00053  -0.00037   0.00015   1.91244
    R3        1.91228   0.00001   0.00053  -0.00037   0.00015   1.91244
    R4        2.05638  -0.00002   0.00004  -0.00008  -0.00004   2.05634
    R5        2.05636  -0.00002   0.00005  -0.00008  -0.00003   2.05633
    R6        2.06718   0.00001  -0.00019   0.00013  -0.00006   2.06712
    A1        1.92557  -0.00005  -0.00030  -0.00038  -0.00068   1.92489
    A2        1.92540  -0.00004  -0.00028  -0.00036  -0.00063   1.92477
    A3        1.85577   0.00001  -0.00111   0.00039  -0.00072   1.85504
    A4        1.90256  -0.00003   0.00005  -0.00032  -0.00028   1.90229
    A5        1.90238  -0.00003   0.00007  -0.00028  -0.00022   1.90216
    A6        2.00514   0.00004  -0.00064   0.00078   0.00014   2.00528
    A7        1.87440   0.00001  -0.00035   0.00028  -0.00006   1.87434
    A8        1.88763   0.00000   0.00043  -0.00025   0.00019   1.88782
    A9        1.88754   0.00000   0.00045  -0.00023   0.00022   1.88776
    D1       -1.10197  -0.00002  -0.00048   0.00047  -0.00001  -1.10197
    D2        3.14026  -0.00001  -0.00013   0.00047   0.00034   3.14061
    D3        1.01928  -0.00002  -0.00032   0.00045   0.00013   1.01941
    D4        3.13597   0.00002   0.00123   0.00044   0.00167   3.13765
    D5        1.09502   0.00004   0.00159   0.00044   0.00203   1.09704
    D6       -1.02597   0.00003   0.00139   0.00042   0.00181  -1.02416
         Item               Value     Threshold  Converged?
 Maximum Force            0.000154     0.000450     YES
 RMS     Force            0.000042     0.000300     YES
 Maximum Displacement     0.001481     0.001800     YES
 RMS     Displacement     0.000517     0.001200     YES
 Predicted change in Energy=-1.591905D-07
 Optimization completed.
    -- Stationary point found.
                           ----------------------------
                           !   Optimized Parameters   !
                           ! (Angstroms and Degrees)  !
 --------------------------                            --------------------------
 ! Name  Definition              Value          Derivative Info.                !
 --------------------------------------------------------------------------------
 ! R1    R(1,2)                  1.4636         -DE/DX =    0.0002              !
 ! R2    R(1,6)                  1.0119         -DE/DX =    0.0                 !
 ! R3    R(1,7)                  1.0119         -DE/DX =    0.0                 !
 ! R4    R(2,3)                  1.0882         -DE/DX =    0.0                 !
 ! R5    R(2,4)                  1.0882         -DE/DX =    0.0                 !
 ! R6    R(2,5)                  1.0939         -DE/DX =    0.0                 !
 ! A1    A(2,1,6)              110.3273         -DE/DX =    0.0                 !
 ! A2    A(2,1,7)              110.3172         -DE/DX =    0.0                 !
 ! A3    A(6,1,7)              106.3275         -DE/DX =    0.0                 !
 ! A4    A(1,2,3)              109.0088         -DE/DX =    0.0                 !
 ! A5    A(1,2,4)              108.9981         -DE/DX =    0.0                 !
 ! A6    A(1,2,5)              114.8859         -DE/DX =    0.0                 !
 ! A7    A(3,2,4)              107.3954         -DE/DX =    0.0                 !
 ! A8    A(3,2,5)              108.1533         -DE/DX =    0.0                 !
 ! A9    A(4,2,5)              108.1481         -DE/DX =    0.0                 !
 ! D1    D(6,1,2,3)            -63.138          -DE/DX =    0.0                 !
 ! D2    D(6,1,2,4)            179.9237         -DE/DX =    0.0                 !
 ! D3    D(6,1,2,5)             58.4003         -DE/DX =    0.0                 !
 ! D4    D(7,1,2,3)            179.6781         -DE/DX =    0.0                 !
 ! D5    D(7,1,2,4)             62.7398         -DE/DX =    0.0                 !
 ! D6    D(7,1,2,5)            -58.7836         -DE/DX =    0.0                 !
 --------------------------------------------------------------------------------
 GradGradGradGradGradGradGradGradGradGradGradGradGradGradGradGradGradGrad

                          Input orientation:                          
 ---------------------------------------------------------------------
 Center     Atomic      Atomic             Coordinates (Angstroms)
 Number     Number       Type             X           Y           Z
 ---------------------------------------------------------------------
      1          7           0        0.000924   -0.000125    0.416880
      2          6           0       -1.190813   -0.687667   -0.082163
      3          1           0       -2.076577   -0.185612    0.301920
      4          1           0       -1.200479   -1.705080    0.303735
      5          1           0       -1.271979   -0.735837   -1.171986
      6          1           0        0.030703    0.949463    0.068436
      7          1           0        0.837865   -0.454900    0.075229
 ---------------------------------------------------------------------
                    Distance matrix (angstroms):
                    1          2          3          4          5
     1  N    0.000000
     2  C    1.463556   0.000000
     3  H    2.088931   1.088190   0.000000
     4  H    2.088790   1.088181   1.753948   0.000000
     5  H    2.164729   1.093903   1.767067   1.767002   0.000000
     6  H    1.011937   2.048164   2.404899   2.935604   2.464927
     7  H    1.011937   2.048045   2.935623   2.402085   2.466965
                    6          7
     6  H    0.000000
     7  H    1.619812   0.000000
 Stoichiometry    CH5N
 Framework group  C1[X(CH5N)]
 Deg. of freedom    15
 Full point group                 C1      NOp   1
 Largest Abelian subgroup         C1      NOp   1
 Largest concise Abelian subgroup C1      NOp   1
                         Standard orientation:                         
 ---------------------------------------------------------------------
 Center     Atomic      Atomic             Coordinates (Angstroms)
 Number     Number       Type             X           Y           Z
 ---------------------------------------------------------------------
      1          7           0        0.749314   -0.000027   -0.122994
      2          6           0       -0.707446   -0.000032    0.017891
      3          1           0       -1.112320   -0.875117   -0.486551
      4          1           0       -1.111550    0.878821   -0.480563
      5          1           0       -1.070112   -0.003336    1.049921
      6          1           0        1.146816   -0.809898    0.335393
      7          1           0        1.146646    0.809914    0.335413
 ---------------------------------------------------------------------
 Rotational constants (GHZ):         104.1440591          22.8268457          21.9427448

 **********************************************************************

            Population analysis using the SCF density.

 **********************************************************************

 Orbital symmetries:
       Occupied  (A) (A) (A) (A) (A) (A) (A) (A) (A)
       Virtual   (A) (A) (A) (A) (A) (A) (A) (A) (A) (A) (A) (A)
                 (A) (A) (A) (A) (A) (A) (A) (A) (A) (A) (A) (A)
                 (A) (A) (A) (A) (A) (A) (A) (A) (A) (A) (A) (A)
                 (A) (A) (A) (A) (A) (A) (A) (A) (A) (A) (A) (A)
                 (A) (A) (A) (A) (A) (A) (A) (A) (A) (A) (A) (A)
                 (A) (A) (A) (A) (A) (A) (A) (A) (A) (A) (A) (A)
                 (A) (A) (A) (A) (A) (A) (A) (A) (A) (A) (A) (A)
                 (A) (A) (A) (A) (A) (A) (A) (A) (A) (A) (A) (A)
                 (A) (A) (A) (A) (A) (A) (A) (A) (A) (A) (A) (A)
                 (A) (A) (A) (A) (A) (A) (A) (A) (A) (A) (A) (A)
                 (A) (A) (A) (A) (A) (A) (A) (A) (A) (A) (A) (A)
                 (A) (A) (A) (A) (A) (A) (A) (A) (A) (A) (A) (A)
                 (A) (A) (A) (A) (A) (A) (A) (A) (A) (A) (A) (A)
                 (A) (A) (A) (A) (A) (A) (A) (A) (A) (A) (A) (A)
                 (A) (A) (A) (A) (A) (A) (A) (A) (A) (A) (A) (A)
                 (A) (A) (A) (A) (A) (A) (A) (A) (A) (A) (A) (A)
                 (A) (A) (A) (A) (A) (A)
 The electronic state is 1-A.
 Alpha  occ. eigenvalues --  -15.53937 -11.24059  -1.16968  -0.89628  -0.66221
 Alpha  occ. eigenvalues --   -0.60367  -0.55658  -0.51739  -0.39141
 Alpha virt. eigenvalues --    0.02954   0.04285   0.04388   0.04919   0.06894
 Alpha virt. eigenvalues --    0.09859   0.12590   0.12739   0.13984   0.14113
 Alpha virt. eigenvalues --    0.15650   0.16790   0.20355   0.22652   0.23774
 Alpha virt. eigenvalues --    0.25648   0.27287   0.28313   0.28877   0.29581
 Alpha virt. eigenvalues --    0.33268   0.33818   0.34349   0.34513   0.37659
 Alpha virt. eigenvalues --    0.38861   0.39555   0.40218   0.40465   0.43673
 Alpha virt. eigenvalues --    0.44311   0.44519   0.45399   0.46742   0.48965
 Alpha virt. eigenvalues --    0.49584   0.50066   0.50364   0.53079   0.58002
 Alpha virt. eigenvalues --    0.60916   0.61251   0.64244   0.65344   0.76067
 Alpha virt. eigenvalues --    0.79576   0.80108   0.80589   0.82687   0.84977
 Alpha virt. eigenvalues --    0.86604   0.88451   0.90665   0.91652   0.93757
 Alpha virt. eigenvalues --    0.93855   0.95215   0.96792   0.97564   0.97868
 Alpha virt. eigenvalues --    0.99260   1.01055   1.05970   1.06785   1.07913
 Alpha virt. eigenvalues --    1.08470   1.09184   1.10689   1.11208   1.13753
 Alpha virt. eigenvalues --    1.15408   1.19368   1.20069   1.22055   1.25736
 Alpha virt. eigenvalues --    1.26153   1.28726   1.29301   1.30745   1.33898
 Alpha virt. eigenvalues --    1.38104   1.41052   1.45149   1.45661   1.46651
 Alpha virt. eigenvalues --    1.49818   1.60429   1.61578   1.64526   1.64798
 Alpha virt. eigenvalues --    1.66992   1.67726   1.70097   1.72142   1.77417
 Alpha virt. eigenvalues --    1.83310   1.84497   1.93057   1.95018   1.99617
 Alpha virt. eigenvalues --    1.99943   2.01377   2.02687   2.04113   2.07801
 Alpha virt. eigenvalues --    2.08521   2.19919   2.21274   2.22905   2.23889
 Alpha virt. eigenvalues --    2.27783   2.31642   2.40379   2.43350   2.45328
 Alpha virt. eigenvalues --    2.49100   2.53070   2.55891   2.59426   2.70029
 Alpha virt. eigenvalues --    2.90099   3.11730   3.36890   3.37682   3.41330
 Alpha virt. eigenvalues --    3.57573   3.59907   3.60747   3.61180   3.64203
 Alpha virt. eigenvalues --    3.69499   3.74605   3.84800   3.87187   3.88633
 Alpha virt. eigenvalues --    3.91541   3.95740   4.00794   4.07927   4.08449
 Alpha virt. eigenvalues --    4.10360   4.11090   4.15576   4.20812   4.20981
 Alpha virt. eigenvalues --    4.27564   4.30684   4.32096   4.37928   4.41676
 Alpha virt. eigenvalues --    4.45393   4.47770   4.57985   4.60310   4.63633
 Alpha virt. eigenvalues --    4.68295   4.72429   4.75492   4.79717   4.81367
 Alpha virt. eigenvalues --    4.88620   4.89015   4.97629   4.98709   5.04708
 Alpha virt. eigenvalues --    5.05110   5.10172   5.10614   5.16370   5.20051
 Alpha virt. eigenvalues --    5.22636   5.25083   5.35650   5.47722   5.54163
 Alpha virt. eigenvalues --    5.55533   5.57874   5.77937   5.80609   5.83580
 Alpha virt. eigenvalues --    5.90550   5.97747   5.98174   6.10836   6.11061
 Alpha virt. eigenvalues --    6.16802   6.24304   6.40447   6.54753   6.55132
 Alpha virt. eigenvalues --    6.69321   6.73336   6.79910   7.01487   7.07379
 Alpha virt. eigenvalues --    7.78456  16.82146  18.03714
          Condensed to atoms (all electrons):
               1          2          3          4          5          6
     1  N    6.857386   0.074009  -0.008054  -0.008238  -0.021857   0.302954
     2  C    0.074009   5.490844   0.394173   0.394080   0.395333  -0.001490
     3  H   -0.008054   0.394173   0.260876   0.014257   0.014463   0.001502
     4  H   -0.008238   0.394080   0.014257   0.260797   0.014443  -0.003728
     5  H   -0.021857   0.395333   0.014463   0.014443   0.271798   0.006653
     6  H    0.302954  -0.001490   0.001502  -0.003728   0.006653   0.586597
     7  H    0.302681  -0.001465  -0.003748   0.001516   0.006627  -0.031648
               7
     1  N    0.302681
     2  C   -0.001465
     3  H   -0.003748
     4  H    0.001516
     5  H    0.006627
     6  H   -0.031648
     7  H    0.586776
 Mulliken charges:
               1
     1  N   -0.498881
     2  C   -0.745484
     3  H    0.326532
     4  H    0.326873
     5  H    0.312540
     6  H    0.139159
     7  H    0.139262
 Sum of Mulliken charges =  -0.00000
 Mulliken charges with hydrogens summed into heavy atoms:
               1
     1  N   -0.220460
     2  C    0.220460
 Electronic spatial extent (au):  <R**2>=             95.3283
 Charge=             -0.0000 electrons
 Dipole moment (field-independent basis, Debye):
    X=             -0.2926    Y=              0.0003    Z=              1.3736  Tot=              1.4045
 Quadrupole moment (field-independent basis, Debye-Ang):
   XX=            -14.0522   YY=            -12.6120   ZZ=            -15.4152
   XY=             -0.0009   XZ=              2.0697   YZ=              0.0003
 Traceless Quadrupole moment (field-independent basis, Debye-Ang):
   XX=             -0.0257   YY=              1.4145   ZZ=             -1.3888
   XY=             -0.0009   XZ=              2.0697   YZ=              0.0003
 Octapole moment (field-independent basis, Debye-Ang**2):
  XXX=              2.7202  YYY=              0.0063  ZZZ=              1.7111  XYY=              2.0197
  XXY=              0.0002  XXZ=              2.2160  XZZ=             -0.8049  YZZ=             -0.0054
  YYZ=              0.4124  XYZ=             -0.0005
 Hexadecapole moment (field-independent basis, Debye-Ang**3):
 XXXX=            -76.4612 YYYY=            -23.3482 ZZZZ=            -25.2103 XXXY=             -0.0020
 XXXZ=              4.1722 YYYX=             -0.0086 YYYZ=             -0.0001 ZZZX=              1.6453
 ZZZY=              0.0011 XXYY=            -14.5401 XXZZ=            -17.9834 YYZZ=             -8.0806
 XXYZ=              0.0010 YYXZ=              2.1518 ZZXY=              0.0060
 N-N= 4.206075664721D+01 E-N=-3.065977970084D+02  KE= 9.511945298288D+01
 1\1\GINC-N2304\FOpt\RMP2-FC\Aug-CC-pVTZ\C1H5N1\GDS001\20-Dec-2021\0\\#
  MP2/aug-cc-pVTZ opt freq=(vibrot,anharmonic)\\bleh\\0,1\N,0.000924103
 8,-0.0001246587,0.4168804296\C,-1.1908129201,-0.6876673198,-0.08216257
 15\H,-2.0765774947,-0.1856123733,0.3019203952\H,-1.2004792032,-1.70507
 9519,0.3037354994\H,-1.2719787083,-0.7358372445,-1.1719862371\H,0.0307
 026082,0.9494631134,0.0684362176\H,0.8378652512,-0.4548995276,0.075229
 2212\\Version=ES64L-G16RevA.03\State=1-A\HF=-95.255578\MP2=-95.6671884
 \RMSD=4.138e-09\RMSF=6.864e-05\Dipole=0.0118348,0.0040807,-0.5330808\P
 G=C01 [X(C1H5N1)]\\@


 CLIMB THE MOUNTAINS AND GET THEIR GOOD TIDINGS.
 NATURE'S PEACE WILL FLOW INTO YOU AS SUNSHINE FLOWS INTO TREES.
 THE WINDS WILL BLOW THEIR OWN FRESHNESS INTO YOU, 
 AND CARES WILL DROP OFF LIKE AUTUMN LEAVES.

                                         -- JOHN MUIR
 Job cpu time:       0 days  0 hours 35 minutes 14.4 seconds.
 Elapsed time:       0 days  0 hours  1 minutes 54.7 seconds.
 File lengths (MBytes):  RWF=     80 Int=      0 D2E=      0 Chk=     12 Scr=      8
 Normal termination of Gaussian 16 at Mon Dec 20 12:32:43 2021.
 Link1:  Proceeding to internal job step number  2.
 ----------------------------------------------------------------------
 #N Geom=AllCheck Guess=TCheck SCRF=Check GenChk RMP2(FC)/Aug-CC-pVTZ F
 req
 ----------------------------------------------------------------------
 1/10=4,29=7,30=1,38=21,40=1,80=1/1,6,3;
 2/12=2,40=1/2;
 3/5=16,6=1,7=10,11=1,14=-4,25=1,30=1,70=2,71=2,116=1,140=1/1,2,3;
 4/5=101,69=2/1;
 5/5=2,38=6,98=1/2;
 8/6=3,8=1,10=1,19=11,30=-1/1;
 9/15=3,16=-3/6;
 11/6=1,8=1,15=11,17=12,24=-1,27=1,28=-2,29=300,32=6,42=3/1,2,10;
 10/6=2,21=1,60=-2/2;
 8/6=4,8=1,10=1,19=11,30=-1/11,4;
 10/5=1,20=4,60=-2/2;
 11/12=2,14=11,16=1,17=2,28=-2,42=3/2,10,12;
 6/7=2,8=2,9=2,10=2,22=-1/1;
 7/10=1,12=2,25=1,44=2,70=1,71=2/1,2,3,16;
 1/38=20,80=1/6(3);
 7/8=1,25=202,44=-1,70=1,71=1,92=10/16,17;
 1/10=4,30=1,38=20,80=1/3;
 99//99;
 3/5=16,6=1,7=10,11=1,14=-2,25=1,30=1,70=5,71=2,116=1,140=1/1,2,3;
 4/5=5,16=3,69=2/1;
 5/5=2,38=5,98=1/2;
 8/6=3,8=1,10=1,19=11,30=-1/1;
 9/15=3,16=-3/6;
 11/6=1,8=1,15=11,17=12,24=-1,27=1,28=-2,29=300,32=6,42=3/1,2,10;
 10/6=2,21=1,60=-2/2;
 8/6=4,8=1,10=1,19=11,30=-1/11,4;
 10/5=1,20=4,60=-2/2;
 11/12=2,14=11,16=1,17=2,28=-2,42=3/2,10,12;
 6/7=2,8=2,9=2,10=2,22=-1/1;
 7/7=1,10=1,12=2,25=1,44=2,70=1,71=1/1,2,3,16;
 1/38=20,80=1/6(-12);
 7/8=1,25=202,44=-1,70=1,71=1,92=10/16,17;
 1/10=4,30=1,38=20,80=1/3;
 99//99;
 Structure from the checkpoint file:  "/gscratch/scrubbed/gds001/Gau-22804.chk"
 ----
 bleh
 ----
 Charge =  0 Multiplicity = 1
 Redundant internal coordinates found in file.  (old form).
 N,0,0.0009241038,-0.0001246587,0.4168804296
 C,0,-1.1908129201,-0.6876673198,-0.0821625715
 H,0,-2.0765774947,-0.1856123733,0.3019203952
 H,0,-1.2004792032,-1.705079519,0.3037354994
 H,0,-1.2719787083,-0.7358372445,-1.1719862371
 H,0,0.0307026082,0.9494631134,0.0684362176
 H,0,0.8378652512,-0.4548995276,0.0752292212
 Recover connectivity data from disk.
 Numerical evaluation of third derivatives.
 Nuclear step= 0.010000 Angstroms, electric field step= 0.000333 atomic units, NStep=1.

 GradGradGradGradGradGradGradGradGradGradGradGradGradGradGradGradGradGrad
 Berny optimization.
 Initialization pass.
                           ----------------------------
                           !    Initial Parameters    !
                           ! (Angstroms and Degrees)  !
 --------------------------                            --------------------------
 ! Name  Definition              Value          Derivative Info.                !
 --------------------------------------------------------------------------------
 ! R1    R(1,2)                  1.4636         calculate D2E/DX2 analytically  !
 ! R2    R(1,6)                  1.0119         calculate D2E/DX2 analytically  !
 ! R3    R(1,7)                  1.0119         calculate D2E/DX2 analytically  !
 ! R4    R(2,3)                  1.0882         calculate D2E/DX2 analytically  !
 ! R5    R(2,4)                  1.0882         calculate D2E/DX2 analytically  !
 ! R6    R(2,5)                  1.0939         calculate D2E/DX2 analytically  !
 ! A1    A(2,1,6)              110.3273         calculate D2E/DX2 analytically  !
 ! A2    A(2,1,7)              110.3172         calculate D2E/DX2 analytically  !
 ! A3    A(6,1,7)              106.3275         calculate D2E/DX2 analytically  !
 ! A4    A(1,2,3)              109.0088         calculate D2E/DX2 analytically  !
 ! A5    A(1,2,4)              108.9981         calculate D2E/DX2 analytically  !
 ! A6    A(1,2,5)              114.8859         calculate D2E/DX2 analytically  !
 ! A7    A(3,2,4)              107.3954         calculate D2E/DX2 analytically  !
 ! A8    A(3,2,5)              108.1533         calculate D2E/DX2 analytically  !
 ! A9    A(4,2,5)              108.1481         calculate D2E/DX2 analytically  !
 ! D1    D(6,1,2,3)            -63.138          calculate D2E/DX2 analytically  !
 ! D2    D(6,1,2,4)            179.9237         calculate D2E/DX2 analytically  !
 ! D3    D(6,1,2,5)             58.4003         calculate D2E/DX2 analytically  !
 ! D4    D(7,1,2,3)            179.6781         calculate D2E/DX2 analytically  !
 ! D5    D(7,1,2,4)             62.7398         calculate D2E/DX2 analytically  !
 ! D6    D(7,1,2,5)            -58.7836         calculate D2E/DX2 analytically  !
 --------------------------------------------------------------------------------
 Trust Radius=3.00D-01 FncErr=1.00D-07 GrdErr=1.00D-07 EigMax=2.50D+02 EigMin=1.00D-04
 Number of steps in this run=      2 maximum allowed number of steps=      2.
 GradGradGradGradGradGradGradGradGradGradGradGradGradGradGradGradGradGrad

                          Input orientation:                          
 ---------------------------------------------------------------------
 Center     Atomic      Atomic             Coordinates (Angstroms)
 Number     Number       Type             X           Y           Z
 ---------------------------------------------------------------------
      1          7           0        0.000924   -0.000125    0.416880
      2          6           0       -1.190813   -0.687667   -0.082163
      3          1           0       -2.076577   -0.185612    0.301920
      4          1           0       -1.200479   -1.705080    0.303735
      5          1           0       -1.271979   -0.735837   -1.171986
      6          1           0        0.030703    0.949463    0.068436
      7          1           0        0.837865   -0.454900    0.075229
 ---------------------------------------------------------------------
                    Distance matrix (angstroms):
                    1          2          3          4          5
     1  N    0.000000
     2  C    1.463556   0.000000
     3  H    2.088931   1.088190   0.000000
     4  H    2.088790   1.088181   1.753948   0.000000
     5  H    2.164729   1.093903   1.767067   1.767002   0.000000
     6  H    1.011937   2.048164   2.404899   2.935604   2.464927
     7  H    1.011937   2.048045   2.935623   2.402085   2.466965
                    6          7
     6  H    0.000000
     7  H    1.619812   0.000000
 Stoichiometry    CH5N
 Framework group  C1[X(CH5N)]
 Deg. of freedom    15
 Full point group                 C1      NOp   1
 Largest Abelian subgroup         C1      NOp   1
 Largest concise Abelian subgroup C1      NOp   1
                         Standard orientation:                         
 ---------------------------------------------------------------------
 Center     Atomic      Atomic             Coordinates (Angstroms)
 Number     Number       Type             X           Y           Z
 ---------------------------------------------------------------------
      1          7           0        0.749314   -0.000027   -0.122994
      2          6           0       -0.707446   -0.000032    0.017891
      3          1           0       -1.112320   -0.875117   -0.486551
      4          1           0       -1.111550    0.878821   -0.480563
      5          1           0       -1.070112   -0.003336    1.049921
      6          1           0        1.146816   -0.809898    0.335393
      7          1           0        1.146646    0.809914    0.335413
 ---------------------------------------------------------------------
[...]
 0.00033649,-0.00039436,0.00039511,0.00025000,0.00006063,-0.00008033,-0
 .00059844,0.00107440,0.00046613,-0.00008041,-0.00120602,-0.00029420,-0
 .00008417,0.00013808,0.00029224,-0.00030577,-0.00043020,-0.00054062,-0
 .00041587,0.00050413,0.00037072,0.00026690,-0.00004473,-0.00007670,0.0
 0121776,-0.00003566,-0.00021755,-0.01300648,0.00180816,-0.01484525,-0.
 00269023,-0.00153355,-0.00845051,0.00773331,-0.00115380,-0.00062674,-0
 .10745574,-0.00116035,0.00888178,-0.00026849,0.05639040,-0.16984859,0.
 00194742,0.00126206,0.02084453,0.03757253,0.02037503,-0.35245122,-0.00
 232945,-0.00249988,0.00130790,0.10676586,-0.05968281,-0.05357152,-0.09
 937367,0.00392458,-0.00037611,0.00046760,-0.06361939,0.03839467,0.0229
 0680,0.06087385,-0.03884385,0.00678103,-0.00117209,0.00059261,-0.02539
 885,0.00051085,0.00966400,0.03172901,-0.01805169,0.00339524,-0.0002193
 2,0.00267567,0.00106174,0.00217986,-0.00287047,-0.00722948,-0.00210985
 ,-0.00059525,0.00100051,-0.00130993,-0.00368206,-0.00234533,0.00086335
 ,0.00102943,0.14011042,-0.05668510,-0.00088573,-0.00129500,-0.00051195
 ,0.00398765,-0.13415001,0.00236500,0.00635417,0.00061925,-0.01241391,-
 0.02161975,0.00992366,0.00010978,0.00099347,-0.00440429,0.00032518,0.0
 3589643,0.00306016,0.00136168,0.00151337,0.00266581,-0.00801457,0.0079
 7217,0.02595051,-0.00268989,-0.00104547,-0.01462978,0.00127241,-0.0002
 4003,0.00835269,0.00842847,0.00148198,-0.00042262,0.00146100,0.0079468
 8,-0.01700516,0.01483137,0.00215471,0.00206196,0.01803503,-0.00338699,
 -0.00192994,-0.02146139,-0.00791491,0.01731185,-0.00477472,-0.00281069
 ,-0.01375308,-0.00054224,0.00018862,0.31085597,0.02047603,-0.00600421,
 -0.00842088,0.00513513,0.02032917,-0.00838211,-0.02154347,-0.01243076,
 -0.28149223,0.00072611,-0.00015856,-0.00032006,-0.00130586,0.00095215,
 -0.00221483,0.00006457,-0.00019774,-0.00009828,0.00025927,0.00003589,0
 .00101800,-0.00011335,-0.00042860,0.00041439,0.00050423,0.00070563,0.0
 0700140,-0.00143218,-0.00075624,0.00042905,-0.00154461,-0.00032040,0.0
 0017885,0.00033961,0.00031658,-0.00070193,0.00009530,0.00006705,-0.000
 06980,0.00073645,0.00002219,-0.00685583,-0.00096389,-0.00252019,0.0000
 9166,0.00046738,0.00079591,0.00057215,-0.00047394,-0.00038653,-0.00007
 181,0.00027779,0.00032367,-0.00075321,-0.00035283,-0.00029232,0.000600
 52,0.00092805,0.00183833,-0.00051863,0.00573414,-0.00218498,-0.0013984
 2,0.00009712,-0.00160108,-0.00245459,-0.00032755,0.00065943,0.00061633
 ,-0.00007248,-0.00024513,0.00024327,-0.00024475,0.00014693,0.00083487,
 -0.00013498,-0.00003481,0.00011744,-0.00505151,-0.00307794,0.00210613,
 0.00044226,0.00016274,-0.00096218,-0.00114555,0.00036025,-0.00012051,0
 .00085023,-0.00012718,0.00031177,-0.00025823,-0.00035218,0.00005372,-0
 .00000859,-0.00022532,0.00001825,0.00024112,0.00325963,-0.00140717,-0.
 00266460,0.00042029,0.00005549,0.00094182,0.00001778,0.00059094,0.0004
 2274,0.00007454,-0.00075481,-0.00057089,-0.00021553,-0.00006349,-0.000
 44292,-0.00014293,0.00059180,0.00027274,-0.00003291,0.00007934,0.00204
 111,-0.00012124,-0.00049926,-0.36318632,0.12867425,-0.51049467,0.18921
 447,0.11096717,-0.09322962,0.01901404,-0.01606562,-0.01216980,-0.01432
 093,-0.01596128,0.03755154,-0.00724758,0.00053659,-0.01485052,0.004194
 94,0.00220267,-0.00243961,0.00833852,0.00480691,-0.00878676,0.00082766
 ,-0.00903962,-0.00114811,0.00599467,0.00044821,0.00020135,-0.00364043,
 0.00150959,-0.00222574,-0.00050182,-0.00151566,-0.00156559,0.00036713,
 0.00252734,0.00148223,0.00019473,-0.00330696,0.00032917,-0.00093017,0.
 00132511,0.00040917,0.00081085,-0.00023514,-0.00127914,-0.00473595,0.0
 0472357,-0.00106724,-0.00012449,0.00207680,0.00040255,-0.00027370,-0.0
 0072927,0.00041716,0.00242216,-0.00584706,0.00334092,-0.00078351,0.004
 03183,0.00452778,-0.00003370,0.00069452,-0.00026256,0.00038992,-0.0009
 6887,-0.00451346,-0.00275508,0.00181210,0.00031614,0.00066405,-0.00148
 700,0.00042001,0.00054245,0.00016930,0.00053447,0.00023250,0.00085835,
 -0.00128606,-0.00009573,-0.00004936,0.00013799,0.00155881,0.00074841,-
 0.00016702,0.00009214,0.00059105,-0.00029370,0.00016307,0.00004498,-0.
 00025355,-0.00052993,-0.00001710,-0.00006234,0.00008098,0.00074097,0.0
 0070452,-0.00006388,0.00008808,-0.00020369,-0.00012246,0.00054680,-0.0
 0027491,-0.00019746,-0.00044753,-0.00001338,-0.00029606,-0.00017897,-0
 .00122893,-0.00040771,-0.00019597,0.00098177,-0.00007370,-0.00028938,0
 .00022013,-0.00028597,0.00007254,0.00020825,0.00033538,0.00017323,-0.0
 0076606,-0.03468118,0.10154442,-0.03090127,-0.00215395,0.01255424,-0.0
 0625067,-0.00216196,-0.00177014,-0.00027271,0.00261242,0.00180941,0.00
 129056,-0.00110986,-0.00019606,0.00048628,0.05469961,0.03408421,0.4433
 7594,-0.15194694,-0.00488718,-0.01709553,-0.00410084,0.00147777,0.0008
 5344,0.00049798,-0.00262961,-0.00153277,-0.00066739,-0.00011528,0.0004
 3703,-0.00000866,-0.06646327,-0.41414358,-0.01207972,-0.20219207,0.049
 30685,0.00144535,0.00290718,0.00469913,-0.00053854,0.00044486,-0.00008
 280,0.00016781,0.00017608,-0.00012227,0.00024208,-0.00015942,0.0002923
 9,0.01562515,0.17312354,-0.05493431,0.38285746,-0.20978766,-0.14406606
 ,-0.00996815,-0.00040298,-0.00671961,-0.00083836,-0.00061293,0.0000738
 3,-0.00006355,0.00023522,0.00027909,-0.00007846,-0.00071514,0.00024172
 ,-0.01720507,0.03853337,-0.00486211,-0.35470384,-0.14244262,0.02851436
 ,0.04943171,0.01715909,-0.00927219,-0.00317829,0.00380371,0.00192190,0
 .00145156,-0.00301943,-0.00128501,-0.00048788,-0.00077227,-0.00058723,
 0.00042717,-0.04747858,-0.01189455,0.02569983,0.17275012,-0.00739727,-
 0.17847328,0.09069607,0.04694601,0.00305976,-0.00010869,0.00471624,0.0
 0020570,0.00004505,-0.00013097,0.00013318,-0.00067963,-0.00007057,-0.0
 0000116,0.00028900,0.00029251,0.02002266,-0.01689768,0.00084101,0.1550
 5314,-0.07334411,-0.05259424,-0.01031024,-0.00852846,-0.00051925,-0.01
 503785,-0.00871180,-0.00822353,0.00939734,0.00738266,0.02232601,-0.344
 02433,0.00737373,0.00092334,0.01288283,-0.13163166,-0.19185038,0.00854
 077,0.00496182,0.00392707,0.09238745,0.05661220,2.38636781,0.00182062,
 0.00054482,0.00052617,-0.16344766,0.13484919,0.11999501,0.15649312,-0.
 00159017,0.00035554,0.00004102,0.12880750,-0.02494670,-0.06704145,-0.1
 3151593,0.02041768,-0.00236671,-0.00029461,-0.00136079,0.09215040,-0.0
 5624382,-0.01267600,-0.11029714,0.06603964,-0.00175080,0.00026792,-0.0
 0069229,0.00029865,0.05452130,0.00250672,0.00214810,0.00250368,0.00416
 538,-0.00389683,-0.05939339,0.00143422,0.00190191,0.00043054,0.0084947
 3,-0.24218069,0.13764350,-0.00415061,0.00248156,0.00326750,-0.00638285
 ,0.23554552,-0.00144353,-0.00190982,-0.00134700,-0.00245485,0.10814341
 ,-0.01310283,0.00087943,-0.00499826,0.00154855,0.00186046,-0.12876723,
 -0.00128809,-0.00100459,0.00031507,-0.00860709,0.44642949,-0.01103433,
 -0.22065014,0.00196164,0.00017880,0.02410512,0.00180915,-0.00007212,0.
 00127673,-0.45150690,0.00031448,-0.00134384,-0.00496270,-0.01099512,0.
 45857567,-0.13075729,-0.00017763,0.00176766,-0.01245803,0.00022878,0.0
 0194143,0.02710797,0.00876541,-0.46109952,0.00793206,0.00456226,0.0059
 5827,-0.20253004,-0.12030788,-2.36266593,-0.01111209,0.00613144,0.0142
 5547,-0.00026783,-0.01266731,0.01421411,0.20354832,0.12086895,2.327082
 85,0.00003883,-0.00068605,-0.00006540,-0.00111139,-0.00025759,-0.00040
 834,0.00034976,0.00008859,0.00016406,0.00011974,0.00047271,-0.00020813
 ,0.00136583,0.00078915,0.00073363,-0.00101845,0.00151127,-0.00081285,0
 .00072260,-0.00219262,-0.00060331,-0.00211542,0.00009605,0.00000648,0.
 00001030,-0.00001985,0.00012314,0.00028685,0.00083851,-0.00012089,0.00
 154398,-0.00039842,0.00124778,0.00173549,-0.00024883,0.00053284,-0.001
 14326,-0.00019607,-0.00092409,0.00001369,0.00017477,-0.00017644,-0.000
 30104,0.00016906,0.00015395,0.00034006,-0.00018985,0.00057096,-0.00055
 406,-0.00014217,-0.00030344,-0.00020987,0.00166424,0.00055951,-0.00176
 476,-0.00180608,-0.00201281,0.00031885,-0.00013419,0.00014108,0.000171
 60,0.00020395,0.00008991,0.00094539,0.00107495,0.00169591,0.00025567,0
 .00016506,-0.00009088,0.00028312,-0.00051508,-0.00050483,-0.00040249,0
 .00013450,0.00008210,0.00069665,0.00035416,-0.00008223,-0.00032097,0.0
 0019409,0.00018709,0.00013708,0.00100865,0.00027950,-0.00013146,-0.000
 00838,0.00015963,0.00043307,-0.00116793,-0.00012124,0.00063976,0.00164
 098,0.00051313,-0.00073568,-0.00089069,-0.00092605,-0.00000508,-0.0003
 4717,0.00016004,0.00015848,-0.00007601,-0.00017872,-0.00001301,0.00039
 093,0.00058429,0.00033825,-0.00030615,0.00014622,-0.00038272,-0.000411
 89,-0.00029891,-0.01955395,-0.01433154,-0.00298090,-0.01168507,-0.0068
 1265,-0.00590733,0.02337423,0.02233880,0.01446156,0.33861630,0.0223799
 2,-0.00253130,0.00830200,-0.60870949,1.02789889,0.01238759,0.00713086,
 -0.00486062,-0.32061688,-0.18060910,0.53488878,-0.00014156,0.00057474,
 -0.00235328,-0.74328160,0.59318805,0.40266303,0.73615518,-0.00844727,0
 .00289789,0.00086336,0.56843106,-0.10733474,-0.22871356,-0.58135177,0.
 10130688,-0.00506590,0.00014959,0.00045625,0.41029464,-0.23916110,0.09
 221155,-0.39499524,0.23252838,-0.10442828,-0.00125890,-0.00772661,-0.0
 0041417,0.23389560,0.00085562,0.00390403,0.00949350,0.02071712,-0.0083
 8439,-0.24081747,0.00122328,0.00398167,-0.00245258,0.02570350,-1.07403
 021,0.45982629,-0.01296334,0.00488987,0.00553539,-0.01401166,1.0678248
 1,-0.00237551,-0.00441386,0.00048705,-0.00142355,0.47165666,0.08963185
 ,0.00057913,-0.00993931,0.00999278,0.00330808,-0.45525285,-0.10193649,
 -0.00169096,-0.00204126,-0.00186997,0.14683002,-0.00797916,-0.09852453
 ,-0.00348856,0.00110260,-0.00146235,-0.00101735,-0.00169197,0.00086748
 ,-0.14055964,-0.00200094,0.00071242,-0.00103083,-0.00800380,0.15575425
 ,-0.05772901,-0.00028772,-0.00069186,0.00183275,-0.00031352,-0.0031825
 3,-0.00217086,0.01086730,-0.15282898,0.00411591,0.00237467,0.00510067,
 -0.09819805,-0.05761592,-0.70953605,-0.00718437,0.00577702,0.00159714,
 0.00139421,-0.00901677,0.00166895,0.09996775,0.05853491,0.70133943,0.0
 0052220,-0.00110266,0.00034393,0.00149371,-0.00005778,0.00078471,0.000
 92829,0.00054467,-0.00022792,-0.00078557,0.00117406,-0.00068673,-0.000
 35516,0.00004010,-0.00026949,-0.00197503,0.00123287,-0.00195324,0.0016
 0681,-0.00109844,-0.00110968,-0.00116697,0.00030847,-0.00015452,-0.000
 17997,-0.00033564,0.00023169,0.00022375,0.00007199,0.00044026,0.000363
 78,-0.00036590,0.00234997,0.00163486,0.00020784,0.00233744,-0.00082189
 ,-0.00375985,-0.00115476,0.00014244,0.00067895,-0.00040314,-0.00045734
 ,0.00158480,0.00056703,-0.00015169,0.00143697,-0.00009167,-0.00035080,
 -0.00061056,-0.00137332,-0.00125106,0.00228851,0.00151700,-0.00092823,
 0.00032283,-0.00059788,0.00033476,-0.00099642,-0.00015886,0.00049014,0
 .00056614,-0.00026888,0.00028165,-0.00030141,0.00017399,0.00017156,0.0
 0018665,0.00000441,0.00090118,-0.00005631,-0.00012654,-0.00047612,0.00
 133838,0.00135284,0.00126150,0.00053156,-0.00091349,-0.00070502,0.0008
 1470,0.00028468,-0.00010352,-0.00032952,-0.00020359,-0.00041772,-0.000
 23248,0.00019551,0.00046185,-0.00206632,-0.00058940,0.00098812,0.00136
 355,0.00238654,-0.00369579,0.00118728,-0.00118080,0.00114833,-0.001194
 86,0.00057376,0.00064954,-0.00022421,-0.00041118,0.00117330,-0.0008739
 5,-0.00007844,0.00040630,-0.00023684,0.00011843,-0.00066978,-0.0000209
 7,-0.00140829,-0.01657573,-0.00822500,-0.00711175,-0.00518757,-0.00302
 369,-0.00344632,0.01319465,0.01759678,0.00040755,0.65841409,0.01752280
 ,-0.00712016,0.00027130,-0.67984095,1.45904352,0.02012833,0.01170765,-
 0.00415055,-0.61984182,-0.36534518,-0.16282623,0.00285746,-0.00200701,
 0.00061959,-1.00145704,0.71996032,0.58452394,0.99215274,-0.00844616,0.
 00420889,0.00160643,0.71652436,-0.04462531,-0.32058372,-0.70576110,0.0
 3175456,-0.01045152,0.00114916,0.00125605,0.58621624,-0.32164139,0.079
 85273,-0.57839367,0.32010521,-0.07473579,-0.00069564,-0.00646753,0.001
 72304,0.34095317,-0.05966111,0.01575622,-0.00233599,-0.00272701,0.0009
 3060,-0.34200171,0.00005546,0.00774851,-0.00030819,-0.05635111,-1.3938
 5650,0.67466072,-0.00866659,0.00434645,0.00336270,0.06574137,1.3727073
 3,-0.00426696,-0.00973669,0.00128034,0.01574346,0.67663399,0.07840902,
 0.00342360,-0.00094514,-0.00379337,-0.01316923,-0.66890940,-0.07326113
 ,-0.00000437,-0.00102155,0.00066232,-0.01031560,0.00306072,-0.00291082
 ,0.00778208,-0.00009091,0.00302543,0.00393944,-0.00251610,0.00011581,-
 0.00127283,-0.00101550,0.00117576,0.00039365,0.00307817,-0.01386476,-0
 .00176240,-0.00473797,0.00548370,-0.00162798,0.00211158,0.00932912,0.0
 0340648,0.00106076,-0.00257037,0.00049589,0.00027853,0.00071033,0.0156
 0150,0.00901108,0.00996074,-0.01068850,0.00150448,-0.00288105,-0.00403
 523,-0.01011249,-0.00291977,-0.00129212,-0.00063199,-0.00459661,0.0023
 5355,-0.00205617,0.00032053,0.00006866,-0.00119426,0.00147075,0.000509
 71,0.00120928,-0.00015726,-0.00034816,0.00151923,-0.00160976,-0.000207
 52,0.00001684,-0.00005373,-0.00241997,0.00013705,-0.00120701,0.0015465
 8,-0.00033927,-0.00025248,0.00015821,0.00017741,-0.00034983,-0.0001823
 6,-0.00023937,0.00002797,-0.00042835,-0.00035160,0.00037172,-0.0000057
 9,0.00043950,0.00151146,-0.00045461,-0.00001668,0.00216278,0.00209909,
 -0.00146079,-0.00062083,-0.00046051,-0.00020257,0.00098823,-0.00081205
 ,0.00160506,-0.00069383,-0.00044815,0.00124181,-0.00014222,-0.00020454
 ,-0.00127527,-0.00215897,-0.00112994,0.00218049,0.00145452,-0.00085792
 ,0.00015244,0.00087344,0.00049104,-0.00070845,-0.00116983,0.00048887,0
 .00021774,-0.00023691,0.00007880,-0.00051387,-0.00002783,0.00004374,0.
 00017629,0.00028076,0.00088541,-0.00002865,0.00230576,-0.00048609,-0.0
 0066799,0.00067576,0.00116469,0.00103497,-0.00081849,-0.00116531,0.001
 24206,-0.00030289,-0.00002089,-0.00014132,0.00007485,-0.00004382,0.000
 06559,-0.00010183,0.00010845,-0.00150465,-0.00183315,-0.00026356,-0.00
 035827,0.00218736,-0.00022600,0.00253094,-0.00062489,0.00097554,-0.001
 48469,-0.00068675,-0.00039338,-0.00029833,0.00097872,0.00084752,-0.001
 01960,-0.00013145,0.00023403,0.00018698,0.00046484,-0.00117415,0.00044
 298,-0.00218784,0.98395493,-1.07146532,2.22265194,-0.86076037,-0.50979
 322,-0.27322858,0.01865440,0.01628772,0.01047710,-0.01224913,0.0162488
 8,-0.00024054,0.00603403,-0.00216438,-0.00977084,-0.00030395,-0.000177
 58,-0.01495072,0.00171402,0.00101524,0.00108169,0.00016294,0.00066823,
 0.00065885,-0.00154391,0.00169989,0.00109443,-0.00051931,0.00067829,0.
 00079916,0.00103130,-0.00035709,0.00137179,-0.00039145,-0.00168059,-0.
 00061807,0.00042281,0.00055486,0.00036239,-0.00052619,-0.00026581,0.00
 141262,-0.00092334,0.00014395,-0.00113713,0.00121009,0.00005140,0.0012
 2496,0.00122423,-0.00192711,0.00021017,-0.00009698,-0.00025762,0.00028
 752,-0.00206634,0.00003941,-0.00026453,0.00005189,0.00012234,-0.001396
 25,0.00112648,0.00008465,-0.00000346,0.00001183,-0.00081544,0.00091671
 ,0.00068194,0.00008206,0.00036987,-0.00049646,-0.00035411,0.00144701,0
 .00015229,0.00024776,0.00003594,-0.00032711,-0.00084264,-0.00116132,-0
 .00148987,-0.00004330,-0.00289090,0.00032637,-0.00060484,-0.00115545,0
 .00023009,0.00034045,-0.00016351,-0.00004155,-0.00001151,0.00000898,-0
 .00138800,-0.00003134,-0.00144112,-0.00167456,-0.00060442,0.00103205,-
 0.00063306,-0.00017025,-0.00023103,0.00010686,0.00049376,0.00004401,-0
 .00020063,-0.00062039,-0.00068288,0.00114807,0.00065336,-0.00040462,-0
 .00197373,-0.00110077,-0.00176529,-0.00020561,-0.00012441,0.00031888,-
 0.00020862,-0.00012375,0.00031188,0.00069988,0.00037824,0.00182933,0.4
 6916535,-0.06130099,0.03275329,-0.00596718,-0.01251831,-0.00148307,0.0
 0122822,0.00123735,0.00067554,-0.00064144,0.00003891,-0.00025301,0.001
 16203,0.00060240,0.00040363,-0.47940948,-0.01879262,-2.07431625,0.9453
 5152,0.00247910,0.00724557,0.00077718,0.00005261,-0.00062610,-0.000123
 79,0.00072203,0.00049352,0.00041606,0.00036901,0.00066219,-0.00006692,
 0.03037688,2.06747815,0.01193670,0.98991242,0.13704163,-0.00215122,-0.
 00701741,0.00640722,-0.00010337,-0.00023610,-0.00024622,-0.00092657,-0
 .00025539,-0.00075374,0.00181885,0.00091462,-0.00014301,-0.01779891,-0
 .96294221,-0.16397863,-1.47165785,1.11580225,0.81853707,-0.00044476,-0
 .00073418,-0.00007608,0.00053894,0.00003921,0.00022714,0.00041197,0.00
 054166,0.00023340,0.00120094,0.00033025,0.00013634,0.01446250,-0.01520
 701,0.00722451,1.45548827,1.07332271,-0.14718866,-0.44100096,-0.015763
 35,0.00175828,-0.00171679,-0.00065451,-0.00069229,-0.00042788,0.001732
 98,0.00021002,0.00065150,0.00057061,0.00061676,0.00038423,0.04156376,-
 0.00093707,-0.02037593,-1.10077219,0.14623297,0.84687479,-0.48123190,0
 .15081002,-0.00704349,0.00168885,0.00636739,-0.00067324,-0.00067108,-0
 .00074640,-0.00026037,0.00003163,-0.00024965,0.00168214,0.00110851,-0.
 00014718,-0.01429747,0.01658817,0.02167275,-0.82628237,0.46248583,-0.1
 7770691,1.05273033,-0.99275421,2.19818677,-0.99163007,-0.58486774,-0.3
 1591084,0.02161866,0.02277205,0.02573038,-0.01591751,0.02273302,-0.004
 59331,0.01483787,-0.00641206,-0.00859797,0.00694376,0.00401908,-0.0097
 0703,-0.00559920,-0.00322643,0.00005131,-0.00111286,0.00037117,0.00026
 531,-0.00125065,0.00167735,0.00133836,0.00027789,-0.00092846,0.0010057
 7,0.00133714,-0.00035442,0.00281374,-0.00048982,-0.00111835,-0.0018135
 7,0.00141168,0.00222459,0.00002090,-0.00104135,-0.00095892,0.00108418,
 -0.00100956,0.00015055,-0.00070998,0.00023735,-0.00169183,0.00129502,0
 .00236328,-0.00242759,0.00024540,0.00006239,0.00024603,0.00020907,-0.0
 0227866,-0.00041427,-0.00034111,-0.00043920,-0.00039633,-0.00082910,0.
 00139357,-0.00000639,-0.00008300,-0.00007609,0.00032272,0.00074691,0.0
 0262989,0.00010772,0.00002269,-0.00135441,-0.00045037,0.00113286,0.000
 03701,0.00022672,-0.00033711,-0.00036628,-0.00092714,-0.00074013,0.000
 31669,0.00037814,-0.00282188,-0.00034947,-0.00038600,-0.00087488,-0.00
 001515,-0.00010395,0.00000147,-0.00008742,0.00005629,0.00028596,-0.000
 94036,0.00038003,-0.00014003,-0.00163153,-0.00037714,0.00010641,-0.000
 47124,0.00001274,-0.00005725,0.00033164,-0.00006658,0.00001591,-0.0001
 7231,-0.00045923,-0.00042703,0.00009254,0.00004856,0.00014149,-0.00062
 573,-0.00032796,-0.00078821,-0.00007618,-0.00000466,0.00005229,-0.0000
 3990,-0.00007372,0.00004642,-0.00007628,-0.00006581,0.00114219,0.53699
 081,-0.13978001,0.05523216,-0.00600996,-0.00971739,-0.00103083,0.00079
 728,0.00112529,-0.00017789,-0.00002918,-0.00000604,-0.00059715,0.00030
 078,0.00053533,0.00036745,-0.52853051,-0.14472226,-2.16364113,1.041063
 84,-0.00223874,0.00830898,-0.00060067,-0.00018574,-0.00117615,-0.00062
 362,0.00185994,0.00058649,0.00104650,0.00026709,0.00049034,0.00021136,
 0.15278908,2.15155426,0.05498646,1.05703895,0.15536998,-0.00538980,-0.
 01051232,0.00414826,0.00019824,0.00005910,0.00062805,-0.00149357,-0.00
 002033,-0.00075388,0.00188689,0.00077867,-0.00029813,-0.05160837,-1.04
 394188,-0.15511491,-1.61078099,1.11070468,0.91192908,-0.00045436,-0.00
 546735,-0.00102259,0.00124111,0.00113390,0.00060657,-0.00026779,0.0004
 4400,-0.00063500,0.00077494,-0.00002512,0.00035811,-0.00351921,-0.0077
 6937,0.00142015,1.61300631,1.11570616,-0.03047696,-0.47030039,-0.01299
 338,0.00279128,-0.00062451,-0.00075072,-0.00068958,-0.00104816,0.00175
 730,-0.00009608,0.00016887,0.00024765,0.00001166,0.00021223,-0.0049462
 6,0.00387720,-0.00340220,-1.09902075,0.02458249,0.92556574,-0.47857116
 ,0.17006279,-0.01171987,0.00063809,0.00407856,-0.00075314,-0.00127905,
 -0.00073832,0.00015025,0.00014298,0.00062916,0.00159872,0.00123054,-0.
 00029604,-0.00218537,0.00284446,-0.00397936,-0.91265633,0.47499415,-0.
 16975681\\@


 I WANT TO KNOW HOW GOD CREATED THE WORLD.  I AM NOT INTERESTED IN
 THIS OR THAT PHENOMENON, IN THE SPECTRUM OF THIS OR THAT ELEMENT.
 I WANT TO KNOW HIS THOUGHTS, THE REST ARE DETAILS.
     -- ALBERT EINSTEIN
 Job cpu time:       2 days 12 hours  6 minutes 54.4 seconds.
 Elapsed time:       0 days  2 hours 11 minutes 26.9 seconds.
 File lengths (MBytes):  RWF=   4168 Int=      0 D2E=      0 Chk=     52 Scr=      8
 Normal termination of Gaussian 16 at Mon Dec 20 14:44:44 2021.
