 Entering Gaussian System, Link 0=g16
 Input=meome_mp2_avtz_opt_anharm.gjf
 Output=meome_mp2_avtz_opt_anharm.log
 Initial command:
 /sw/contrib/gaussian/g16/A03/g16/l1.exe "/gscratch/scrubbed/gds001/Gau-27907.inp" -scrdir="/gscratch/scrubbed/gds001/"
 Entering Link 1 = /sw/contrib/gaussian/g16/A03/g16/l1.exe PID=     27908.
  
 Copyright (c) 1988,1990,1992,1993,1995,1998,2003,2009,2016,
            Gaussian, Inc.  All Rights Reserved.
  
 This is part of the Gaussian(R) 16 program.  It is based on
 the Gaussian(R) 09 system (copyright 2009, Gaussian, Inc.),
 the Gaussian(R) 03 system (copyright 2003, Gaussian, Inc.),
 the Gaussian(R) 98 system (copyright 1998, Gaussian, Inc.),
 the Gaussian(R) 94 system (copyright 1995, Gaussian, Inc.),
 the Gaussian 92(TM) system (copyright 1992, Gaussian, Inc.),
 the Gaussian 90(TM) system (copyright 1990, Gaussian, Inc.),
 the Gaussian 88(TM) system (copyright 1988, Gaussian, Inc.),
 the Gaussian 86(TM) system (copyright 1986, Carnegie Mellon
 University), and the Gaussian 82(TM) system (copyright 1983,
 Carnegie Mellon University). Gaussian is a federally registered
 trademark of Gaussian, Inc.
  
 This software contains proprietary and confidential information,
 including trade secrets, belonging to Gaussian, Inc.
  
 This software is provided under written license and may be
 used, copied, transmitted, or stored only in accord with that
 written license.
  
 The following legend is applicable only to US Government
 contracts under FAR:
  
                    RESTRICTED RIGHTS LEGEND
  
 Use, reproduction and disclosure by the US Government is
 subject to restrictions as set forth in subparagraphs (a)
 and (c) of the Commercial Computer Software - Restricted
 Rights clause in FAR 52.227-19.
  
 Gaussian, Inc.
 340 Quinnipiac St., Bldg. 40, Wallingford CT 06492
  
  
 ---------------------------------------------------------------
 Warning -- This program may not be used in any manner that
 competes with the business of Gaussian, Inc. or will provide
 assistance to any competitor of Gaussian, Inc.  The licensee
 of this program is prohibited from giving any competitor of
 Gaussian, Inc. access to this program.  By using this program,
 the user acknowledges that Gaussian, Inc. is engaged in the
 business of creating and licensing software in the field of
 computational chemistry and represents and warrants to the
 licensee that it is not a competitor of Gaussian, Inc. and that
 it will not use this program in any manner prohibited above.
 ---------------------------------------------------------------
  

 Cite this work as:
 Gaussian 16, Revision A.03,
 M. J. Frisch, G. W. Trucks, H. B. Schlegel, G. E. Scuseria, 
 M. A. Robb, J. R. Cheeseman, G. Scalmani, V. Barone, 
 G. A. Petersson, H. Nakatsuji, X. Li, M. Caricato, A. V. Marenich, 
 J. Bloino, B. G. Janesko, R. Gomperts, B. Mennucci, H. P. Hratchian, 
 J. V. Ortiz, A. F. Izmaylov, J. L. Sonnenberg, D. Williams-Young, 
 F. Ding, F. Lipparini, F. Egidi, J. Goings, B. Peng, A. Petrone, 
 T. Henderson, D. Ranasinghe, V. G. Zakrzewski, J. Gao, N. Rega, 
 G. Zheng, W. Liang, M. Hada, M. Ehara, K. Toyota, R. Fukuda, 
 J. Hasegawa, M. Ishida, T. Nakajima, Y. Honda, O. Kitao, H. Nakai, 
 T. Vreven, K. Throssell, J. A. Montgomery, Jr., J. E. Peralta, 
 F. Ogliaro, M. J. Bearpark, J. J. Heyd, E. N. Brothers, K. N. Kudin, 
 V. N. Staroverov, T. A. Keith, R. Kobayashi, J. Normand, 
 K. Raghavachari, A. P. Rendell, J. C. Burant, S. S. Iyengar, 
 J. Tomasi, M. Cossi, J. M. Millam, M. Klene, C. Adamo, R. Cammi, 
 J. W. Ochterski, R. L. Martin, K. Morokuma, O. Farkas, 
 J. B. Foresman, and D. J. Fox, Gaussian, Inc., Wallingford CT, 2016.
 
 ******************************************
 Gaussian 16:  ES64L-G16RevA.03 25-Dec-2016
                25-Jun-2021 
 ******************************************
 %nprocshared=28
 Will use up to   28 processors via shared memory.
 %mem=41GB
 %chk=meome_mp2_avtz_opt_anharm.chk
 ----------------------------------------------
 # mp2/aug-cc-pVTZ opt freq=(vibrot,anharmonic)
 ----------------------------------------------
 1/18=20,19=15,38=1,80=1/1,3;
 2/9=110,12=2,17=6,18=5,40=1/2;
 3/5=16,6=1,7=10,11=9,25=1,30=1,71=1/1,2,3;
 4//1;
 5/5=2,38=5/2;
 8/6=4,10=1/1;
 9/15=2,16=-3/6;
 10/5=1/2;
 6/7=2,8=2,9=2,10=2/1;
 7/12=2/1,2,3,16;
 1/18=20,19=15,80=1/3(2);
 2/9=110/2;
 99//99;
 2/9=110/2;
 3/5=16,6=1,7=10,11=9,25=1,30=1,71=1/1,2,3;
 4/5=5,16=3,69=1/1;
 5/5=2,38=5/2;
 8/6=4,10=1/1;
 9/15=2,16=-3/6;
 10/5=1/2;
 7/12=2/1,2,3,16;
 1/18=20,19=15,80=1/3(-8);
 2/9=110/2;
 6/7=2,8=2,9=2,10=2/1;
 99//99;
 -----
 MeOMe
 -----
 Symbolic Z-matrix:
 Charge =  0 Multiplicity = 1
 O                     0.        0.        0.60794 
 C                     0.        1.17059  -0.20247 
 C                     0.       -1.17059  -0.20247 
 H                     0.       -2.03438   0.47518 
 H                     0.89929  -1.20918  -0.84607 
 H                    -0.89929  -1.20918  -0.84607 
 H                     0.        2.03438   0.47518 
 H                    -0.89929   1.20918  -0.84607 
 H                     0.89929   1.20918  -0.84607 
 

 GradGradGradGradGradGradGradGradGradGradGradGradGradGradGradGradGradGrad
 Berny optimization.
 Initialization pass.
                           ----------------------------
                           !    Initial Parameters    !
                           ! (Angstroms and Degrees)  !
 --------------------------                            --------------------------
 ! Name  Definition              Value          Derivative Info.                !
 --------------------------------------------------------------------------------
 ! R1    R(1,2)                  1.4237         estimate D2E/DX2                !
 ! R2    R(1,3)                  1.4237         estimate D2E/DX2                !
 ! R3    R(2,7)                  1.0979         estimate D2E/DX2                !
 ! R4    R(2,8)                  1.1065         estimate D2E/DX2                !
 ! R5    R(2,9)                  1.1065         estimate D2E/DX2                !
 ! R6    R(3,4)                  1.0979         estimate D2E/DX2                !
 ! R7    R(3,5)                  1.1065         estimate D2E/DX2                !
 ! R8    R(3,6)                  1.1065         estimate D2E/DX2                !
 ! A1    A(2,1,3)              110.6097         estimate D2E/DX2                !
 ! A2    A(1,2,7)              107.1904         estimate D2E/DX2                !
 ! A3    A(1,2,8)              111.0841         estimate D2E/DX2                !
 ! A4    A(1,2,9)              111.0841         estimate D2E/DX2                !
 ! A5    A(7,2,8)              109.364          estimate D2E/DX2                !
 ! A6    A(7,2,9)              109.364          estimate D2E/DX2                !
 ! A7    A(8,2,9)              108.7222         estimate D2E/DX2                !
 ! A8    A(1,3,4)              107.1904         estimate D2E/DX2                !
 ! A9    A(1,3,5)              111.0841         estimate D2E/DX2                !
 ! A10   A(1,3,6)              111.0841         estimate D2E/DX2                !
 ! A11   A(4,3,5)              109.364          estimate D2E/DX2                !
 ! A12   A(4,3,6)              109.364          estimate D2E/DX2                !
 ! A13   A(5,3,6)              108.7222         estimate D2E/DX2                !
 ! D1    D(3,1,2,7)            180.0            estimate D2E/DX2                !
 ! D2    D(3,1,2,8)             60.577          estimate D2E/DX2                !
 ! D3    D(3,1,2,9)            -60.577          estimate D2E/DX2                !
 ! D4    D(2,1,3,4)            180.0            estimate D2E/DX2                !
 ! D5    D(2,1,3,5)             60.577          estimate D2E/DX2                !
 ! D6    D(2,1,3,6)            -60.577          estimate D2E/DX2                !
 --------------------------------------------------------------------------------
 Trust Radius=3.00D-01 FncErr=1.00D-07 GrdErr=1.00D-07 EigMax=2.50D+02 EigMin=1.00D-04
 Number of steps in this run=     37 maximum allowed number of steps=    100.
 GradGradGradGradGradGradGradGradGradGradGradGradGradGradGradGradGradGrad

                          Input orientation:                          
 ---------------------------------------------------------------------
 Center     Atomic      Atomic             Coordinates (Angstroms)
 Number     Number       Type             X           Y           Z
 ---------------------------------------------------------------------
      1          8           0        0.000000    0.000000    0.607942
      2          6           0        0.000000    1.170592   -0.202468
      3          6           0        0.000000   -1.170592   -0.202468
      4          1           0        0.000000   -2.034379    0.475179
      5          1           0        0.899294   -1.209175   -0.846068
      6          1           0       -0.899294   -1.209175   -0.846068
      7          1           0        0.000000    2.034379    0.475179
      8          1           0       -0.899294    1.209175   -0.846068
      9          1           0        0.899294    1.209175   -0.846068
 ---------------------------------------------------------------------
                    Distance matrix (angstroms):
                    1          2          3          4          5
     1  O    0.000000
     2  C    1.423745   0.000000
     3  C    1.423745   2.341184   0.000000
     4  H    2.038706   3.275827   1.097877   0.000000
     5  H    2.094034   2.624165   1.106544   1.798718   0.000000
     6  H    2.094034   2.624165   1.106544   1.798718   1.798588
     7  H    2.038706   1.097877   3.275827   4.068758   3.615946
     8  H    2.094034   1.106544   2.624165   3.615946   3.013857
     9  H    2.094034   1.106544   2.624165   3.615946   2.418350
                    6          7          8          9
     6  H    0.000000
     7  H    3.615946   0.000000
     8  H    2.418350   1.798718   0.000000
     9  H    3.013857   1.798718   1.798588   0.000000
 Stoichiometry    C2H6O
 Framework group  C2V[C2(O),SGV(C2H2),X(H4)]
 Deg. of freedom     7
 Full point group                 C2V     NOp   4
 Largest Abelian subgroup         C2V     NOp   4
 Largest concise Abelian subgroup C2V     NOp   4
                         Standard orientation:                         
 ---------------------------------------------------------------------
 Center     Atomic      Atomic             Coordinates (Angstroms)
 Number     Number       Type             X           Y           Z
 ---------------------------------------------------------------------
      1          8           0        0.000000   -0.000000    0.607942
      2          6           0        0.000000    1.170592   -0.202468
      3          6           0       -0.000000   -1.170592   -0.202468
      4          1           0        0.000000   -2.034379    0.475179
      5          1           0        0.899294   -1.209175   -0.846068
      6          1           0       -0.899294   -1.209175   -0.846068
      7          1           0        0.000000    2.034379    0.475179
      8          1           0       -0.899294    1.209175   -0.846068
      9          1           0        0.899294    1.209175   -0.846068
 ---------------------------------------------------------------------
 Rotational constants (GHZ):          37.7988965          10.0306581           8.8301759
 Standard basis: Aug-CC-pVTZ (5D, 7F)
 There are   104 symmetry adapted cartesian basis functions of A1  symmetry.
 There are    55 symmetry adapted cartesian basis functions of A2  symmetry.
 There are    63 symmetry adapted cartesian basis functions of B1  symmetry.
 There are    93 symmetry adapted cartesian basis functions of B2  symmetry.
 There are    88 symmetry adapted basis functions of A1  symmetry.
 There are    51 symmetry adapted basis functions of A2  symmetry.
 There are    57 symmetry adapted basis functions of B1  symmetry.
 There are    80 symmetry adapted basis functions of B2  symmetry.
   276 basis functions,   378 primitive gaussians,   315 cartesian basis functions
    13 alpha electrons       13 beta electrons
       nuclear repulsion energy        83.3670818458 Hartrees.
 NAtoms=    9 NActive=    9 NUniq=    4 SFac= 4.00D+00 NAtFMM=   60 NAOKFM=F Big=F
 Integral buffers will be    131072 words long.
 Raffenetti 1 integral format.
 Two-electron integral symmetry is turned on.
 One-electron integrals computed using PRISM.
 NBasis=   276 RedAO= T EigKep=  2.83D-05  NBF=    88    51    57    80
 NBsUse=   276 1.00D-06 EigRej= -1.00D+00 NBFU=    88    51    57    80
 ExpMin= 2.53D-02 ExpMax= 1.53D+04 ExpMxC= 5.22D+02 IAcc=3 IRadAn=         5 AccDes= 0.00D+00
 Harris functional with IExCor=  205 and IRadAn=       5 diagonalized for initial guess.
 HarFok:  IExCor=  205 AccDes= 0.00D+00 IRadAn=         5 IDoV= 1 UseB2=F ITyADJ=14
 ICtDFT=  3500011 ScaDFX=  1.000000  1.000000  1.000000  1.000000
 FoFCou: FMM=F IPFlag=           0 FMFlag=      100000 FMFlg1=           0
         NFxFlg=           0 DoJE=T BraDBF=F KetDBF=T FulRan=T
         wScrn=  0.000000 ICntrl=       500 IOpCl=  0 I1Cent=   200000004 NGrid=           0
         NMat0=    1 NMatS0=      1 NMatT0=    0 NMatD0=    1 NMtDS0=    0 NMtDT0=    0
 Petite list used in FoFCou.
 Initial guess orbital symmetries:
       Occupied  (A1) (A1) (B2) (A1) (B2) (A1) (B2) (A1) (B1) (A2)
                 (B2) (A1) (B1)
       Virtual   (A1) (A1) (B2) (B1) (A1) (B2) (A1) (A2) (B1) (B2)
                 (A1) (A2) (B2) (A1) (B1) (A1) (B2) (A2) (B2) (A1)
                 (B2) (B1) (B2) (A1) (B1) (A1) (B2) (B1) (A1) (A2)
                 (A1) (B2) (B1) (A1) (A2) (B1) (A1) (B2) (A2) (B2)
                 (A2) (B2) (A1) (A1) (B1) (B2) (A1) (B1) (A2) (A1)
                 (B2) (B2) (B2) (A1) (B1) (A2) (B2) (A1) (A1) (A1)
                 (B2) (B1) (A2) (A1) (A2) (B2) (B1) (B1) (A1) (B2)
                 (A2) (A1) (B1) (B1) (B2) (A2) (A1) (B2) (B2) (A1)
                 (A2) (B1) (A1) (B1) (A1) (B2) (A1) (A2) (B1) (B2)
                 (A2) (A1) (B2) (B1) (B1) (B2) (A2) (A1) (A1) (B2)
                 (A2) (B2) (B2) (B1) (A1) (A2) (A1) (B2) (A2) (A1)
                 (B1) (A1) (A2) (B1) (B2) (A1) (B1) (B2) (A1) (A1)
                 (A2) (B1) (A2) (B2) (B2) (A1) (B2) (A1) (B1) (B2)
                 (A2) (B2) (A2) (B1) (A1) (B1) (B2) (A1) (B2) (B1)
                 (A2) (A1) (A2) (B2) (A2) (A1) (B2) (B1) (A1) (A2)
                 (B2) (A1) (A1) (B2) (B1) (A1) (B1) (B2) (A2) (A1)
                 (B2) (A1) (B2) (A1) (A2) (B1) (B2) (A1) (B1) (B2)
                 (A2) (B1) (A1) (A2) (B1) (B2) (A1) (B2) (B1) (A2)
                 (A1) (A2) (B2) (A1) (B1) (B2) (A1) (B1) (A2) (B1)
                 (B2) (A2) (B1) (B2) (A1) (A1) (A2) (A1) (B2) (A2)
                 (B2) (A1) (B1) (A1) (B2) (A2) (A1) (B1) (B2) (B1)
                 (A1) (B2) (A2) (B2) (B2) (A1) (A1) (B1) (A2) (B1)
                 (B2) (A2) (A1) (B2) (A1) (A2) (B2) (B1) (A1) (B2)
                 (B1) (A2) (B1) (A2) (A1) (B2) (A1) (A1) (B1) (B2)
                 (A2) (A1) (B2) (B2) (A1) (B1) (A2) (B2) (A1) (B1)
                 (B1) (A2) (A1) (B2) (B2) (B1) (A1) (A2) (A1) (B2)
                 (A1) (A1) (B2)
 The electronic state of the initial guess is 1-A1.
 Keep R1 ints in memory in symmetry-blocked form, NReq=913869436.
 Requested convergence on RMS density matrix=1.00D-08 within 128 cycles.
 Requested convergence on MAX density matrix=1.00D-06.
 Requested convergence on             energy=1.00D-06.
 No special actions if energy rises.
 SCF Done:  E(RHF) =  -154.126452673     A.U. after   10 cycles
            NFock= 10  Conv=0.40D-08     -V/T= 2.0024
 ExpMin= 2.53D-02 ExpMax= 1.53D+04 ExpMxC= 5.22D+02 IAcc=3 IRadAn=         5 AccDes= 0.00D+00
 HarFok:  IExCor=  205 AccDes= 0.00D+00 IRadAn=         5 IDoV=-2 UseB2=F ITyADJ=14
 ICtDFT= 12500011 ScaDFX=  1.000000  1.000000  1.000000  1.000000
 Range of M.O.s used for correlation:     4   276
 NBasis=   276 NAE=    13 NBE=    13 NFC=     3 NFV=     0
 NROrb=    273 NOA=    10 NOB=    10 NVA=   263 NVB=   263

 **** Warning!!: The largest alpha MO coefficient is  0.47194939D+02

 Fully direct method using O(ONN) memory.
 JobTyp=1 Pass  1:  I=   4 to  13 NPSUse= 28 ParTrn=T ParDer=T DoDerP=T.
 Spin components of T(2) and E(2):
     alpha-alpha T2 =       0.1996573049D-01 E2=     -0.6863107177D-01
     alpha-beta  T2 =       0.1292782821D+00 E2=     -0.4735038744D+00
     beta-beta   T2 =       0.1996573049D-01 E2=     -0.6863107177D-01
 ANorm=    0.1081300025D+01
 E2 =    -0.6107660179D+00 EUMP2 =    -0.15473721869113D+03
          IDoAtm=111111111
          Differentiating once with respect to electric field.
                with respect to dipole field.
          Differentiating once with respect to nuclear coordinates.
 Keep R1 ints in memory in symmetry-blocked form, NReq=913871176.
          There are     1 degrees of freedom in the 1st order CPHF.  IDoFFX=0 NUNeed=     1.
 LinEq1:  Iter=  0 NonCon=     1 RMS=2.73D-03 Max=3.89D-02 NDo=     1
 AX will form     1 AO Fock derivatives at one time.
 LinEq1:  Iter=  1 NonCon=     1 RMS=6.80D-04 Max=9.53D-03 NDo=     1
 LinEq1:  Iter=  2 NonCon=     1 RMS=1.76D-04 Max=1.97D-03 NDo=     1
 LinEq1:  Iter=  3 NonCon=     1 RMS=7.74D-05 Max=1.01D-03 NDo=     1
 LinEq1:  Iter=  4 NonCon=     1 RMS=2.39D-05 Max=3.81D-04 NDo=     1
 LinEq1:  Iter=  5 NonCon=     1 RMS=4.27D-06 Max=5.47D-05 NDo=     1
 LinEq1:  Iter=  6 NonCon=     1 RMS=7.01D-07 Max=8.82D-06 NDo=     1
 LinEq1:  Iter=  7 NonCon=     1 RMS=1.32D-07 Max=1.71D-06 NDo=     1
 LinEq1:  Iter=  8 NonCon=     1 RMS=2.64D-08 Max=3.38D-07 NDo=     1
 LinEq1:  Iter=  9 NonCon=     1 RMS=4.12D-09 Max=7.78D-08 NDo=     1
 LinEq1:  Iter= 10 NonCon=     1 RMS=4.93D-10 Max=5.00D-09 NDo=     1
 LinEq1:  Iter= 11 NonCon=     0 RMS=5.53D-11 Max=6.01D-10 NDo=     1
 Linear equations converged to 1.000D-10 1.000D-09 after    11 iterations.
 End of Minotr F.D. properties file   721 does not exist.
 End of Minotr F.D. properties file   722 does not exist.
 End of Minotr F.D. properties file   788 does not exist.

 **********************************************************************

            Population analysis using the SCF density.

 **********************************************************************

 Orbital symmetries:
       Occupied  (A1) (B2) (A1) (A1) (B2) (A1) (B1) (A1) (B2) (A2)
                 (B2) (A1) (B1)
       Virtual   (A1) (B2) (B1) (A1) (B2) (A2) (A1) (B1) (B2) (A1)
                 (A1) (B2) (A2) (B2) (A1) (B1) (A1) (B1) (B2) (A2)
                 (A1) (B1) (B2) (A1) (B2) (A1) (B1) (A1) (A2) (B2)
                 (B2) (B1) (A2) (A1) (A1) (A2) (B2) (B1) (A1) (A1)
                 (B2) (A2) (B1) (B2) (A1) (A2) (A1) (B2) (B2) (B1)
                 (A1) (B2) (B2) (A2) (A1) (B2) (B1) (A1) (A1) (B1)
                 (A1) (A2) (B2) (A2) (A1) (B2) (B1) (B1) (A1) (B2)
                 (A2) (B1) (A1) (A2) (B1) (B2) (A1) (B2) (B2) (A1)
                 (A2) (B1) (A1) (A2) (B1) (A1) (B2) (A1) (B2) (A2)
                 (B1) (A1) (B1) (B2) (B1) (A1) (A2) (B2) (A1) (B2)
                 (A2) (B2) (A2) (B2) (B1) (A1) (A2) (B2) (A1) (A1)
                 (B1) (A1) (B2) (B1) (A2) (A1) (B2) (B1) (A2) (A1)
                 (B2) (A1) (A2) (B1) (B2) (A1) (B2) (B2) (B1) (A1)
                 (A2) (A2) (B2) (B1) (A1) (B2) (B1) (A1) (A2) (B1)
                 (A1) (B2) (A2) (B2) (A2) (A1) (B2) (B1) (A1) (A2)
                 (B2) (A1) (B2) (A1) (B1) (A1) (B1) (B2) (A2) (A1)
                 (B2) (A1) (B2) (A1) (A2) (B1) (B2) (A1) (B1) (A2)
                 (B2) (B1) (A1) (A2) (B1) (B2) (A1) (B2) (A2) (B1)
                 (A1) (A2) (B1) (B2) (A1) (B2) (A1) (B1) (A2) (B1)
                 (B2) (A2) (B1) (B2) (A1) (A2) (A1) (B2) (A1) (A2)
                 (B2) (A1) (A1) (A2) (B2) (B1) (A1) (B2) (B1) (B1)
                 (A1) (B2) (A2) (B2) (B2) (A1) (A1) (A2) (B1) (B1)
                 (B2) (A2) (B2) (A1) (A1) (A2) (B2) (B1) (A1) (A2)
                 (B1) (B2) (B1) (A1) (A2) (B2) (A1) (B1) (A1) (B2)
                 (A2) (A1) (B2) (B2) (A1) (B1) (A2) (B2) (A1) (B1)
                 (B1) (A2) (A1) (B2) (B2) (B1) (A1) (A2) (A1) (B2)
                 (A1) (A1) (B2)
 The electronic state is 1-A1.
 Alpha  occ. eigenvalues --  -20.55836 -11.27360 -11.27358  -1.36572  -0.96188
 Alpha  occ. eigenvalues --   -0.87300  -0.65477  -0.64539  -0.63277  -0.54736
 Alpha  occ. eigenvalues --   -0.52289  -0.48300  -0.42584
 Alpha virt. eigenvalues --    0.03031   0.04048   0.04549   0.04746   0.06281
 Alpha virt. eigenvalues --    0.06474   0.08907   0.11903   0.12273   0.12909
 Alpha virt. eigenvalues --    0.14008   0.14359   0.14904   0.17433   0.17443
 Alpha virt. eigenvalues --    0.20021   0.22513   0.22871   0.23009   0.24357
 Alpha virt. eigenvalues --    0.24712   0.30042   0.30323   0.31309   0.31724
 Alpha virt. eigenvalues --    0.31725   0.32665   0.33917   0.34438   0.36151
 Alpha virt. eigenvalues --    0.36814   0.36847   0.37360   0.38218   0.40715
 Alpha virt. eigenvalues --    0.40765   0.42625   0.43305   0.43768   0.44677
 Alpha virt. eigenvalues --    0.45676   0.45679   0.47605   0.47630   0.47983
 Alpha virt. eigenvalues --    0.48935   0.49220   0.49960   0.53421   0.53889
 Alpha virt. eigenvalues --    0.56916   0.57318   0.60672   0.61447   0.67551
 Alpha virt. eigenvalues --    0.68914   0.69734   0.75971   0.77668   0.79063
 Alpha virt. eigenvalues --    0.79697   0.80406   0.80715   0.83605   0.83701
 Alpha virt. eigenvalues --    0.84422   0.85131   0.88662   0.88945   0.90958
 Alpha virt. eigenvalues --    0.92046   0.92683   0.93660   0.95939   0.95947
 Alpha virt. eigenvalues --    0.97542   0.99364   0.99434   1.01537   1.02558
 Alpha virt. eigenvalues --    1.04992   1.08014   1.08449   1.08758   1.08911
 Alpha virt. eigenvalues --    1.09953   1.12196   1.14020   1.15506   1.17475
 Alpha virt. eigenvalues --    1.18028   1.18454   1.19675   1.20856   1.22386
 Alpha virt. eigenvalues --    1.23495   1.23660   1.23787   1.28894   1.30330
 Alpha virt. eigenvalues --    1.31748   1.35906   1.40264   1.41020   1.43813
 Alpha virt. eigenvalues --    1.45259   1.49313   1.50444   1.51428   1.56923
 Alpha virt. eigenvalues --    1.58054   1.60139   1.60609   1.62291   1.62957
 Alpha virt. eigenvalues --    1.65399   1.67932   1.68712   1.69560   1.70030
 Alpha virt. eigenvalues --    1.72144   1.72479   1.73073   1.77234   1.79526
 Alpha virt. eigenvalues --    1.82743   1.85923   1.88708   1.89359   1.90451
 Alpha virt. eigenvalues --    1.93870   1.98843   1.99593   2.00210   2.02727
 Alpha virt. eigenvalues --    2.10361   2.10562   2.15134   2.16470   2.17679
 Alpha virt. eigenvalues --    2.18337   2.19154   2.24792   2.29504   2.29845
 Alpha virt. eigenvalues --    2.39643   2.40559   2.57999   2.58958   2.68248
 Alpha virt. eigenvalues --    2.70193   2.73532   2.74354   2.78068   2.86487
 Alpha virt. eigenvalues --    2.89993   3.00088   3.03944   3.05589   3.13936
 Alpha virt. eigenvalues --    3.16119   3.18377   3.27420   3.34983   3.37739
 Alpha virt. eigenvalues --    3.40365   3.43520   3.55738   3.56531   3.58767
 Alpha virt. eigenvalues --    3.60779   3.61220   3.69433   3.69957   3.71825
 Alpha virt. eigenvalues --    3.73315   3.76393   3.78036   3.81576   3.84587
 Alpha virt. eigenvalues --    3.88533   3.88820   3.94585   3.96105   3.98177
 Alpha virt. eigenvalues --    3.98904   4.01815   4.03568   4.05710   4.12833
 Alpha virt. eigenvalues --    4.15397   4.15489   4.15510   4.18382   4.22344
 Alpha virt. eigenvalues --    4.23462   4.24507   4.30237   4.32206   4.33856
 Alpha virt. eigenvalues --    4.43595   4.52370   4.56248   4.57583   4.58815
 Alpha virt. eigenvalues --    4.60512   4.61287   4.69663   4.71654   4.73462
 Alpha virt. eigenvalues --    4.77513   4.78430   4.85564   4.86530   4.91535
 Alpha virt. eigenvalues --    4.91805   4.99164   5.00101   5.00697   5.02595
 Alpha virt. eigenvalues --    5.14118   5.16835   5.21542   5.24000   5.32699
 Alpha virt. eigenvalues --    5.33647   5.34592   5.44395   5.48472   5.55700
 Alpha virt. eigenvalues --    5.58042   5.59159   5.64653   5.65862   5.66074
 Alpha virt. eigenvalues --    5.67795   5.93607   6.02898   6.04065   6.04270
 Alpha virt. eigenvalues --    6.05191   6.11879   6.22973   6.57295   6.60090
 Alpha virt. eigenvalues --    6.63954   6.68526   6.76933   6.96536   6.99412
 Alpha virt. eigenvalues --    7.15868   7.19506   7.37175   7.40929   7.59758
 Alpha virt. eigenvalues --    7.66064   7.69523   7.87656   8.27158   8.35203
 Alpha virt. eigenvalues --   14.82050  17.42892  17.59831
          Condensed to atoms (all electrons):
               1          2          3          4          5          6
     1  O    8.314594   0.090584   0.090584   0.021462  -0.003547  -0.003547
     2  C    0.090584   5.491442   0.009277  -0.006194   0.002581   0.002581
     3  C    0.090584   0.009277   5.491442   0.366445   0.381428   0.381428
     4  H    0.021462  -0.006194   0.366445   0.242447   0.014659   0.014659
     5  H   -0.003547   0.002581   0.381428   0.014659   0.281373   0.003564
     6  H   -0.003547   0.002581   0.381428   0.014659   0.003564   0.281373
     7  H    0.021462   0.366445  -0.006194  -0.002076   0.000414   0.000414
     8  H   -0.003547   0.381428   0.002581   0.000414  -0.004566   0.007068
     9  H   -0.003547   0.381428   0.002581   0.000414   0.007068  -0.004566
               7          8          9
     1  O    0.021462  -0.003547  -0.003547
     2  C    0.366445   0.381428   0.381428
     3  C   -0.006194   0.002581   0.002581
     4  H   -0.002076   0.000414   0.000414
     5  H    0.000414  -0.004566   0.007068
     6  H    0.000414   0.007068  -0.004566
     7  H    0.242447   0.014659   0.014659
     8  H    0.014659   0.281373   0.003564
     9  H    0.014659   0.003564   0.281373
 Mulliken charges:
               1
     1  O   -0.524498
     2  C   -0.719572
     3  C   -0.719572
     4  H    0.347770
     5  H    0.317026
     6  H    0.317026
     7  H    0.347770
     8  H    0.317026
     9  H    0.317026
 Sum of Mulliken charges =  -0.00000
 Mulliken charges with hydrogens summed into heavy atoms:
               1
     1  O   -0.524498
     2  C    0.262249
     3  C    0.262249
 Electronic spatial extent (au):  <R**2>=            188.6830
 Charge=             -0.0000 electrons
 Dipole moment (field-independent basis, Debye):
    X=              0.0000    Y=             -0.0000    Z=             -1.5121  Tot=              1.5121
 Quadrupole moment (field-independent basis, Debye-Ang):
   XX=            -20.0962   YY=            -17.4039   ZZ=            -21.4298
   XY=              0.0000   XZ=             -0.0000   YZ=              0.0000
 Traceless Quadrupole moment (field-independent basis, Debye-Ang):
   XX=             -0.4529   YY=              2.2394   ZZ=             -1.7865
   XY=              0.0000   XZ=             -0.0000   YZ=              0.0000
 Octapole moment (field-independent basis, Debye-Ang**2):
  XXX=              0.0000  YYY=              0.0000  ZZZ=              1.5237  XYY=              0.0000
  XXY=              0.0000  XXZ=             -0.5687  XZZ=              0.0000  YZZ=              0.0000
  YYZ=              2.7006  XYZ=             -0.0000
 Hexadecapole moment (field-independent basis, Debye-Ang**3):
 XXXX=            -33.9260 YYYY=           -162.1269 ZZZZ=            -52.8374 XXXY=             -0.0000
 XXXZ=             -0.0000 YYYX=             -0.0000 YYYZ=              0.0000 ZZZX=             -0.0000
 ZZZY=             -0.0000 XXYY=            -34.7121 XXZZ=            -13.5335 YYZZ=            -34.4674
 XXYZ=              0.0000 YYXZ=             -0.0000 ZZXY=             -0.0000
 N-N= 8.336708184577D+01 E-N=-5.283106128188D+02  KE= 1.537598732584D+02
 Symmetry A1   KE= 1.046240413028D+02
 Symmetry A2   KE= 2.047885362371D+00
 Symmetry B1   KE= 6.484977817259D+00
 Symmetry B2   KE= 4.060296877605D+01
 Calling FoFJK, ICntrl=  10002127 FMM=F ISym2X=1 I1Cent= 0 IOpClX= 0 NMat=1 NMatS=1 NMatT=0.
 ***** Axes restored to original set *****
 -------------------------------------------------------------------
 Center     Atomic                   Forces (Hartrees/Bohr)
 Number     Number              X              Y              Z
 -------------------------------------------------------------------
      1        8           0.000000000   -0.000000000   -0.008607075
      2        6           0.000000000    0.000017917    0.000290959
      3        6          -0.000000000   -0.000017917    0.000290959
      4        1          -0.000000000    0.006042874   -0.004719287
      5        1          -0.006086253    0.000446716    0.004365933
      6        1           0.006086253    0.000446716    0.004365933
      7        1          -0.000000000   -0.006042874   -0.004719287
      8        1           0.006086253   -0.000446716    0.004365933
      9        1          -0.006086253   -0.000446716    0.004365933
 -------------------------------------------------------------------
 Cartesian Forces:  Max     0.008607075 RMS     0.003930137

 GradGradGradGradGradGradGradGradGradGradGradGradGradGradGradGradGradGrad
 Berny optimization.
 FormGI is forming the generalized inverse of G from B-inverse, IUseBI=4.
 Internal  Forces:  Max     0.008137861 RMS     0.004206301
 Search for a local minimum.
 Step number   1 out of a maximum of   37
 All quantities printed in internal units (Hartrees-Bohrs-Radians)
 Mixed Optimization -- RFO/linear search
 Second derivative matrix not updated -- first step.
 ITU=  0
     Eigenvalues ---    0.01378   0.01378   0.10110   0.10110   0.10508
     Eigenvalues ---    0.10508   0.16000   0.16000   0.16000   0.16000
     Eigenvalues ---    0.16000   0.16000   0.25000   0.32969   0.32969
     Eigenvalues ---    0.32969   0.32969   0.33918   0.33918   0.41901
     Eigenvalues ---    0.41901
 RFO step:  Lambda=-1.35192575D-03 EMin= 1.37767875D-02
 Linear search not attempted -- first point.
 Iteration  1 RMS(Cart)=  0.01844840 RMS(Int)=  0.00001854
 Iteration  2 RMS(Cart)=  0.00004581 RMS(Int)=  0.00000099
 Iteration  3 RMS(Cart)=  0.00000000 RMS(Int)=  0.00000099
 ClnCor:  largest displacement from symmetrization is 6.34D-12 for atom     6.
 Variable       Old X    -DE/DX   Delta X   Delta X   Delta X     New X
                                 (Linear)    (Quad)   (Total)
    R1        2.69049  -0.00814   0.00000  -0.01936  -0.01936   2.67113
    R2        2.69049  -0.00814   0.00000  -0.01936  -0.01936   2.67113
    R3        2.07469  -0.00767   0.00000  -0.02252  -0.02252   2.05217
    R4        2.09106  -0.00750   0.00000  -0.02266  -0.02266   2.06841
    R5        2.09106  -0.00750   0.00000  -0.02266  -0.02266   2.06841
    R6        2.07469  -0.00767   0.00000  -0.02252  -0.02252   2.05217
    R7        2.09106  -0.00750   0.00000  -0.02266  -0.02266   2.06841
    R8        2.09106  -0.00750   0.00000  -0.02266  -0.02266   2.06841
    A1        1.93050  -0.00149   0.00000  -0.00593  -0.00593   1.92457
    A2        1.87083   0.00011   0.00000   0.00095   0.00095   1.87177
    A3        1.93878  -0.00023   0.00000  -0.00159  -0.00159   1.93720
    A4        1.93878  -0.00023   0.00000  -0.00159  -0.00159   1.93720
    A5        1.90876   0.00014   0.00000   0.00115   0.00115   1.90991
    A6        1.90876   0.00014   0.00000   0.00115   0.00115   1.90991
    A7        1.89756   0.00008   0.00000   0.00002   0.00002   1.89758
    A8        1.87083   0.00011   0.00000   0.00095   0.00095   1.87177
    A9        1.93878  -0.00023   0.00000  -0.00159  -0.00159   1.93720
   A10        1.93878  -0.00023   0.00000  -0.00159  -0.00159   1.93720
   A11        1.90876   0.00014   0.00000   0.00115   0.00115   1.90991
   A12        1.90876   0.00014   0.00000   0.00115   0.00115   1.90991
   A13        1.89756   0.00008   0.00000   0.00002   0.00002   1.89758
    D1        3.14159  -0.00000   0.00000  -0.00000   0.00000   3.14159
    D2        1.05727  -0.00011   0.00000  -0.00107  -0.00107   1.05620
    D3       -1.05727   0.00011   0.00000   0.00107   0.00107  -1.05620
    D4        3.14159   0.00000   0.00000   0.00000   0.00000   3.14159
    D5        1.05727  -0.00011   0.00000  -0.00107  -0.00107   1.05620
    D6       -1.05727   0.00011   0.00000   0.00107   0.00107  -1.05620
         Item               Value     Threshold  Converged?
 Maximum Force            0.008138     0.000450     NO 
 RMS     Force            0.004206     0.000300     NO 
 Maximum Displacement     0.033206     0.001800     NO 
 RMS     Displacement     0.018427     0.001200     NO 
 Predicted change in Energy=-6.785805D-04
 GradGradGradGradGradGradGradGradGradGradGradGradGradGradGradGradGradGrad

                          Input orientation:                          
 ---------------------------------------------------------------------
 Center     Atomic      Atomic             Coordinates (Angstroms)
 Number     Number       Type             X           Y           Z
 ---------------------------------------------------------------------
      1          8           0        0.000000    0.000000    0.605192
      2          6           0        0.000000    1.159779   -0.202829
      3          6           0       -0.000000   -1.159779   -0.202829
      4          1           0       -0.000000   -2.016807    0.464116
      5          1           0        0.889556   -1.194008   -0.839669
      6          1           0       -0.889556   -1.194008   -0.839669
      7          1           0        0.000000    2.016807    0.464116
      8          1           0       -0.889556    1.194008   -0.839669
      9          1           0        0.889556    1.194008   -0.839669
 ---------------------------------------------------------------------
                    Distance matrix (angstroms):
                    1          2          3          4          5
     1  O    0.000000
     2  C    1.413501   0.000000
     3  C    1.413501   2.319557   0.000000
     4  H    2.021735   3.245846   1.085962   0.000000
     5  H    2.074750   2.595609   1.094553   1.779933   0.000000
     6  H    2.074750   2.595609   1.094553   1.779933   1.779111
     7  H    2.021735   1.085962   3.245846   4.033614   3.577779
     8  H    2.074750   1.094553   2.595609   3.577779   2.977895
     9  H    2.074750   1.094553   2.595609   3.577779   2.388016
                    6          7          8          9
     6  H    0.000000
     7  H    3.577779   0.000000
     8  H    2.388016   1.779933   0.000000
     9  H    2.977895   1.779933   1.779111   0.000000
 Stoichiometry    C2H6O
 Framework group  C2V[C2(O),SGV(C2H2),X(H4)]
 Deg. of freedom     7
 Full point group                 C2V     NOp   4
 Largest Abelian subgroup         C2V     NOp   4
 Largest concise Abelian subgroup C2V     NOp   4
                         Standard orientation:                         
 ---------------------------------------------------------------------
 Center     Atomic      Atomic             Coordinates (Angstroms)
 Number     Number       Type             X           Y           Z
 ---------------------------------------------------------------------
      1          8           0       -0.000000    0.000000    0.606071
      2          6           0        0.000000    1.159779   -0.201950
      3          6           0       -0.000000   -1.159779   -0.201950
      4          1           0       -0.000000   -2.016807    0.464995
      5          1           0        0.889556   -1.194008   -0.838790
      6          1           0       -0.889556   -1.194008   -0.838790
      7          1           0        0.000000    2.016807    0.464995
      8          1           0       -0.889556    1.194008   -0.838790
      9          1           0        0.889556    1.194008   -0.838790
 ---------------------------------------------------------------------
 Rotational constants (GHZ):          38.3130203          10.2266163           8.9879050
 Standard basis: Aug-CC-pVTZ (5D, 7F)
 There are   104 symmetry adapted cartesian basis functions of A1  symmetry.
 There are    55 symmetry adapted cartesian basis functions of A2  symmetry.
 There are    63 symmetry adapted cartesian basis functions of B1  symmetry.
 There are    93 symmetry adapted cartesian basis functions of B2  symmetry.
 There are    88 symmetry adapted basis functions of A1  symmetry.
 There are    51 symmetry adapted basis functions of A2  symmetry.
 There are    57 symmetry adapted basis functions of B1  symmetry.
 There are    80 symmetry adapted basis functions of B2  symmetry.
   276 basis functions,   378 primitive gaussians,   315 cartesian basis functions
    13 alpha electrons       13 beta electrons
       nuclear repulsion energy        84.1079602485 Hartrees.
 NAtoms=    9 NActive=    9 NUniq=    4 SFac= 4.00D+00 NAtFMM=   60 NAOKFM=F Big=F
 Integral buffers will be    131072 words long.
 Raffenetti 1 integral format.
 Two-electron integral symmetry is turned on.
 One-electron integrals computed using PRISM.
 NBasis=   276 RedAO= T EigKep=  2.60D-05  NBF=    88    51    57    80
 NBsUse=   276 1.00D-06 EigRej= -1.00D+00 NBFU=    88    51    57    80
 Initial guess from the checkpoint file:  "meome_mp2_avtz_opt_anharm.chk"
 B after Tr=     0.000000   -0.000000   -0.000000
         Rot=    1.000000    0.000000    0.000000    0.000000 Ang=   0.00 deg.
 Initial guess orbital symmetries:
       Occupied  (A1) (B2) (A1) (A1) (B2) (A1) (B1) (A1) (B2) (A2)
                 (B2) (A1) (B1)
       Virtual   (A1) (B2) (B1) (A1) (B2) (A2) (A1) (B1) (B2) (A1)
                 (A1) (B2) (A2) (B2) (A1) (B1) (A1) (B1) (B2) (A2)
                 (A1) (B1) (B2) (A1) (B2) (A1) (B1) (A1) (A2) (B2)
                 (B2) (B1) (A2) (A1) (A1) (A2) (B2) (B1) (A1) (A1)
                 (B2) (A2) (B1) (B2) (A1) (A2) (A1) (B2) (B2) (B1)
                 (A1) (B2) (B2) (A2) (A1) (B2) (B1) (A1) (A1) (B1)
                 (A1) (A2) (B2) (A2) (A1) (B2) (B1) (B1) (A1) (B2)
                 (A2) (B1) (A1) (A2) (B1) (B2) (A1) (B2) (B2) (A1)
                 (A2) (B1) (A1) (A2) (B1) (A1) (B2) (A1) (B2) (A2)
                 (B1) (A1) (B1) (B2) (B1) (A1) (A2) (B2) (A1) (B2)
                 (A2) (B2) (A2) (B2) (B1) (A1) (A2) (B2) (A1) (A1)
                 (B1) (A1) (B2) (B1) (A2) (A1) (B2) (B1) (A2) (A1)
                 (B2) (A1) (A2) (B1) (B2) (A1) (B2) (B2) (B1) (A1)
                 (A2) (A2) (B2) (B1) (A1) (B2) (B1) (A1) (A2) (B1)
                 (A1) (B2) (A2) (B2) (A2) (A1) (B2) (B1) (A1) (A2)
                 (B2) (A1) (B2) (A1) (B1) (A1) (B1) (B2) (A2) (A1)
                 (B2) (A1) (B2) (A1) (A2) (B1) (B2) (A1) (B1) (A2)
                 (B2) (B1) (A1) (A2) (B1) (B2) (A1) (B2) (A2) (B1)
                 (A1) (A2) (B1) (B2) (A1) (B2) (A1) (B1) (A2) (B1)
                 (B2) (A2) (B1) (B2) (A1) (A2) (A1) (B2) (A1) (A2)
                 (B2) (A1) (A1) (A2) (B2) (B1) (A1) (B2) (B1) (B1)
                 (A1) (B2) (A2) (B2) (B2) (A1) (A1) (A2) (B1) (B1)
                 (B2) (A2) (B2) (A1) (A1) (A2) (B2) (B1) (A1) (A2)
                 (B1) (B2) (B1) (A1) (A2) (B2) (A1) (B1) (A1) (B2)
                 (A2) (A1) (B2) (B2) (A1) (B1) (A2) (B2) (A1) (B1)
                 (B1) (A2) (A1) (B2) (B2) (B1) (A1) (A2) (A1) (B2)
                 (A1) (A1) (B2)
 ExpMin= 2.53D-02 ExpMax= 1.53D+04 ExpMxC= 5.22D+02 IAcc=3 IRadAn=         5 AccDes= 0.00D+00
 Harris functional with IExCor=  205 and IRadAn=       5 diagonalized for initial guess.
 HarFok:  IExCor=  205 AccDes= 0.00D+00 IRadAn=         5 IDoV= 1 UseB2=F ITyADJ=14
 ICtDFT=  3500011 ScaDFX=  1.000000  1.000000  1.000000  1.000000
 FoFCou: FMM=F IPFlag=           0 FMFlag=      100000 FMFlg1=           0
         NFxFlg=           0 DoJE=T BraDBF=F KetDBF=T FulRan=T
         wScrn=  0.000000 ICntrl=       500 IOpCl=  0 I1Cent=   200000004 NGrid=           0
         NMat0=    1 NMatS0=      1 NMatT0=    0 NMatD0=    1 NMtDS0=    0 NMtDT0=    0
 Petite list used in FoFCou.
 Keep R1 ints in memory in symmetry-blocked form, NReq=913869436.
 Requested convergence on RMS density matrix=1.00D-08 within 128 cycles.
 Requested convergence on MAX density matrix=1.00D-06.
 Requested convergence on             energy=1.00D-06.
 No special actions if energy rises.
 SCF Done:  E(RHF) =  -154.128328568     A.U. after    9 cycles
            NFock=  9  Conv=0.27D-08     -V/T= 2.0014
 ExpMin= 2.53D-02 ExpMax= 1.53D+04 ExpMxC= 5.22D+02 IAcc=3 IRadAn=         5 AccDes= 0.00D+00
 HarFok:  IExCor=  205 AccDes= 0.00D+00 IRadAn=         5 IDoV=-2 UseB2=F ITyADJ=14
 ICtDFT= 12500011 ScaDFX=  1.000000  1.000000  1.000000  1.000000
 Range of M.O.s used for correlation:     4   276
 NBasis=   276 NAE=    13 NBE=    13 NFC=     3 NFV=     0
 NROrb=    273 NOA=    10 NOB=    10 NVA=   263 NVB=   263

 **** Warning!!: The largest alpha MO coefficient is  0.49135597D+02

 Fully direct method using O(ONN) memory.
 JobTyp=1 Pass  1:  I=   4 to  13 NPSUse= 28 ParTrn=T ParDer=T DoDerP=T.
 Spin components of T(2) and E(2):
     alpha-alpha T2 =       0.1977181159D-01 E2=     -0.6859172317D-01
     alpha-beta  T2 =       0.1275800022D+00 E2=     -0.4723709291D+00
     beta-beta   T2 =       0.1977181159D-01 E2=     -0.6859172317D-01
 ANorm=    0.1080334960D+01
 E2 =    -0.6095543754D+00 EUMP2 =    -0.15473788294352D+03
          IDoAtm=111111111
          Differentiating once with respect to electric field.
                with respect to dipole field.
          Differentiating once with respect to nuclear coordinates.
 Keep R1 ints in memory in symmetry-blocked form, NReq=913871176.
          There are     1 degrees of freedom in the 1st order CPHF.  IDoFFX=0 NUNeed=     1.
 LinEq1:  Iter=  0 NonCon=     1 RMS=2.69D-03 Max=3.92D-02 NDo=     1
 AX will form     1 AO Fock derivatives at one time.
 LinEq1:  Iter=  1 NonCon=     1 RMS=6.58D-04 Max=8.75D-03 NDo=     1
 LinEq1:  Iter=  2 NonCon=     1 RMS=1.69D-04 Max=1.94D-03 NDo=     1
 LinEq1:  Iter=  3 NonCon=     1 RMS=7.32D-05 Max=9.46D-04 NDo=     1
 LinEq1:  Iter=  4 NonCon=     1 RMS=2.27D-05 Max=3.63D-04 NDo=     1
 LinEq1:  Iter=  5 NonCon=     1 RMS=4.08D-06 Max=5.12D-05 NDo=     1
 LinEq1:  Iter=  6 NonCon=     1 RMS=6.72D-07 Max=8.32D-06 NDo=     1
 LinEq1:  Iter=  7 NonCon=     1 RMS=1.25D-07 Max=1.60D-06 NDo=     1
 LinEq1:  Iter=  8 NonCon=     1 RMS=2.48D-08 Max=3.12D-07 NDo=     1
 LinEq1:  Iter=  9 NonCon=     1 RMS=3.86D-09 Max=7.31D-08 NDo=     1
 LinEq1:  Iter= 10 NonCon=     1 RMS=4.62D-10 Max=4.85D-09 NDo=     1
 LinEq1:  Iter= 11 NonCon=     0 RMS=5.15D-11 Max=5.69D-10 NDo=     1
 Linear equations converged to 1.000D-10 1.000D-09 after    11 iterations.
 End of Minotr F.D. properties file   721 does not exist.
 End of Minotr F.D. properties file   722 does not exist.
 End of Minotr F.D. properties file   788 does not exist.
 Calling FoFJK, ICntrl=  10002127 FMM=F ISym2X=1 I1Cent= 0 IOpClX= 0 NMat=1 NMatS=1 NMatT=0.
 ***** Axes restored to original set *****
 -------------------------------------------------------------------
 Center     Atomic                   Forces (Hartrees/Bohr)
 Number     Number              X              Y              Z
 -------------------------------------------------------------------
      1        8          -0.000000000   -0.000000000   -0.001785885
      2        6           0.000000000   -0.000624148    0.001517824
      3        6          -0.000000000    0.000624148    0.001517824
      4        1          -0.000000000   -0.000529850   -0.000197670
      5        1           0.000122392   -0.000219381   -0.000213606
      6        1          -0.000122392   -0.000219381   -0.000213606
      7        1           0.000000000    0.000529850   -0.000197670
      8        1          -0.000122392    0.000219381   -0.000213606
      9        1           0.000122392    0.000219381   -0.000213606
 -------------------------------------------------------------------
 Cartesian Forces:  Max     0.001785885 RMS     0.000597856

 GradGradGradGradGradGradGradGradGradGradGradGradGradGradGradGradGradGrad
 Berny optimization.
 Using GEDIIS/GDIIS optimizer.
 FormGI is forming the generalized inverse of G from B-inverse, IUseBI=4.
 Internal  Forces:  Max     0.001995470 RMS     0.000473075
 Search for a local minimum.
 Step number   2 out of a maximum of   37
 All quantities printed in internal units (Hartrees-Bohrs-Radians)
 Mixed Optimization -- En-DIIS/RFO-DIIS
 Update second derivatives using D2CorX and points    1    2
 DE= -6.64D-04 DEPred=-6.79D-04 R= 9.79D-01
 TightC=F SS=  1.41D+00  RLast= 6.22D-02 DXNew= 5.0454D-01 1.8673D-01
 Trust test= 9.79D-01 RLast= 6.22D-02 DXMaxT set to 3.00D-01
 ITU=  1  0
 Use linear search instead of GDIIS.
     Eigenvalues ---    0.01378   0.01378   0.10119   0.10128   0.10507
     Eigenvalues ---    0.10507   0.15931   0.16000   0.16000   0.16000
     Eigenvalues ---    0.16000   0.16023   0.24758   0.32969   0.32969
     Eigenvalues ---    0.32969   0.33448   0.33918   0.35481   0.41323
     Eigenvalues ---    0.41901
 RFO step:  Lambda=-2.47217314D-05 EMin= 1.37767875D-02
 Quartic linear search produced a step of -0.02692.
 Iteration  1 RMS(Cart)=  0.00494767 RMS(Int)=  0.00000742
 Iteration  2 RMS(Cart)=  0.00000917 RMS(Int)=  0.00000160
 Iteration  3 RMS(Cart)=  0.00000000 RMS(Int)=  0.00000160
 ClnCor:  largest displacement from symmetrization is 4.20D-12 for atom     6.
 Variable       Old X    -DE/DX   Delta X   Delta X   Delta X     New X
                                 (Linear)    (Quad)   (Total)
    R1        2.67113  -0.00023   0.00052  -0.00142  -0.00090   2.67023
    R2        2.67113  -0.00023   0.00052  -0.00142  -0.00090   2.67023
    R3        2.05217   0.00030   0.00061  -0.00019   0.00042   2.05259
    R4        2.06841   0.00023   0.00061  -0.00037   0.00024   2.06865
    R5        2.06841   0.00023   0.00061  -0.00037   0.00024   2.06865
    R6        2.05217   0.00030   0.00061  -0.00019   0.00042   2.05259
    R7        2.06841   0.00023   0.00061  -0.00037   0.00024   2.06865
    R8        2.06841   0.00023   0.00061  -0.00037   0.00024   2.06865
    A1        1.92457   0.00200   0.00016   0.00749   0.00765   1.93222
    A2        1.87177   0.00063  -0.00003   0.00397   0.00394   1.87571
    A3        1.93720   0.00017   0.00004   0.00092   0.00096   1.93816
    A4        1.93720   0.00017   0.00004   0.00092   0.00096   1.93816
    A5        1.90991  -0.00036  -0.00003  -0.00200  -0.00204   1.90787
    A6        1.90991  -0.00036  -0.00003  -0.00200  -0.00204   1.90787
    A7        1.89758  -0.00027  -0.00000  -0.00184  -0.00184   1.89574
    A8        1.87177   0.00063  -0.00003   0.00397   0.00394   1.87571
    A9        1.93720   0.00017   0.00004   0.00092   0.00096   1.93816
   A10        1.93720   0.00017   0.00004   0.00092   0.00096   1.93816
   A11        1.90991  -0.00036  -0.00003  -0.00200  -0.00204   1.90787
   A12        1.90991  -0.00036  -0.00003  -0.00200  -0.00204   1.90787
   A13        1.89758  -0.00027  -0.00000  -0.00184  -0.00184   1.89574
    D1        3.14159   0.00000   0.00000   0.00000   0.00000   3.14159
    D2        1.05620  -0.00005   0.00003  -0.00054  -0.00051   1.05569
    D3       -1.05620   0.00005  -0.00003   0.00054   0.00051  -1.05569
    D4        3.14159   0.00000   0.00000   0.00000   0.00000   3.14159
    D5        1.05620  -0.00005   0.00003  -0.00054  -0.00051   1.05569
    D6       -1.05620   0.00005  -0.00003   0.00054   0.00051  -1.05569
         Item               Value     Threshold  Converged?
 Maximum Force            0.001995     0.000450     NO 
 RMS     Force            0.000473     0.000300     NO 
 Maximum Displacement     0.010937     0.001800     NO 
 RMS     Displacement     0.004942     0.001200     NO 
 Predicted change in Energy=-1.288285D-05
 GradGradGradGradGradGradGradGradGradGradGradGradGradGradGradGradGradGrad

                          Input orientation:                          
 ---------------------------------------------------------------------
 Center     Atomic      Atomic             Coordinates (Angstroms)
 Number     Number       Type             X           Y           Z
 ---------------------------------------------------------------------
      1          8           0        0.000000   -0.000000    0.601316
      2          6           0        0.000000    1.162469   -0.201993
      3          6           0       -0.000000   -1.162469   -0.201993
      4          1           0       -0.000000   -2.019747    0.464991
      5          1           0        0.889071   -1.199796   -0.839555
      6          1           0       -0.889071   -1.199796   -0.839555
      7          1           0        0.000000    2.019747    0.464991
      8          1           0       -0.889071    1.199796   -0.839555
      9          1           0        0.889071    1.199796   -0.839555
 ---------------------------------------------------------------------
                    Distance matrix (angstroms):
                    1          2          3          4          5
     1  O    0.000000
     2  C    1.413025   0.000000
     3  C    1.413025   2.324939   0.000000
     4  H    2.024342   3.251364   1.086182   0.000000
     5  H    2.075106   2.603311   1.094681   1.778934   0.000000
     6  H    2.075106   2.603311   1.094681   1.778934   1.778142
     7  H    2.024342   1.086182   3.251364   4.039494   3.585769
     8  H    2.075106   1.094681   2.603311   3.585769   2.986608
     9  H    2.075106   1.094681   2.603311   3.585769   2.399591
                    6          7          8          9
     6  H    0.000000
     7  H    3.585769   0.000000
     8  H    2.399591   1.778934   0.000000
     9  H    2.986608   1.778934   1.778142   0.000000
 Stoichiometry    C2H6O
 Framework group  C2V[C2(O),SGV(C2H2),X(H4)]
 Deg. of freedom     7
 Full point group                 C2V     NOp   4
 Largest Abelian subgroup         C2V     NOp   4
 Largest concise Abelian subgroup C2V     NOp   4
                         Standard orientation:                         
 ---------------------------------------------------------------------
 Center     Atomic      Atomic             Coordinates (Angstroms)
 Number     Number       Type             X           Y           Z
 ---------------------------------------------------------------------
      1          8           0        0.000000    0.000000    0.602917
      2          6           0       -0.000000    1.162469   -0.200392
      3          6           0       -0.000000   -1.162469   -0.200392
      4          1           0        0.000000   -2.019747    0.466592
      5          1           0        0.889071   -1.199796   -0.837954
      6          1           0       -0.889071   -1.199796   -0.837954
      7          1           0        0.000000    2.019747    0.466592
      8          1           0       -0.889071    1.199796   -0.837954
      9          1           0        0.889071    1.199796   -0.837954
 ---------------------------------------------------------------------
 Rotational constants (GHZ):          38.5511810          10.1800094           8.9637205
 Standard basis: Aug-CC-pVTZ (5D, 7F)
 There are   104 symmetry adapted cartesian basis functions of A1  symmetry.
 There are    55 symmetry adapted cartesian basis functions of A2  symmetry.
 There are    63 symmetry adapted cartesian basis functions of B1  symmetry.
 There are    93 symmetry adapted cartesian basis functions of B2  symmetry.
 There are    88 symmetry adapted basis functions of A1  symmetry.
 There are    51 symmetry adapted basis functions of A2  symmetry.
 There are    57 symmetry adapted basis functions of B1  symmetry.
 There are    80 symmetry adapted basis functions of B2  symmetry.
   276 basis functions,   378 primitive gaussians,   315 cartesian basis functions
    13 alpha electrons       13 beta electrons
       nuclear repulsion energy        84.0702254812 Hartrees.
 NAtoms=    9 NActive=    9 NUniq=    4 SFac= 4.00D+00 NAtFMM=   60 NAOKFM=F Big=F
 Integral buffers will be    131072 words long.
 Raffenetti 1 integral format.
 Two-electron integral symmetry is turned on.
 One-electron integrals computed using PRISM.
 NBasis=   276 RedAO= T EigKep=  2.63D-05  NBF=    88    51    57    80
 NBsUse=   276 1.00D-06 EigRej= -1.00D+00 NBFU=    88    51    57    80
 Initial guess from the checkpoint file:  "meome_mp2_avtz_opt_anharm.chk"
 B after Tr=     0.000000    0.000000    0.000000
         Rot=    1.000000    0.000000    0.000000    0.000000 Ang=   0.00 deg.
 Initial guess orbital symmetries:
       Occupied  (A1) (B2) (A1) (A1) (B2) (A1) (B1) (A1) (B2) (A2)
                 (B2) (A1) (B1)
       Virtual   (A1) (B2) (B1) (A1) (B2) (A2) (A1) (B1) (B2) (A1)
                 (A1) (B2) (A2) (A1) (B2) (B1) (A1) (B1) (B2) (A2)
                 (A1) (B1) (B2) (A1) (A1) (B2) (B1) (A1) (A2) (B2)
                 (B2) (B1) (A2) (A1) (A1) (A2) (B2) (B1) (A1) (A1)
                 (B2) (A2) (B1) (B2) (A1) (A2) (A1) (B2) (B2) (B1)
                 (A1) (B2) (B2) (A2) (A1) (B2) (B1) (A1) (A1) (B1)
                 (A1) (A2) (B2) (A2) (A1) (B2) (B1) (B1) (A1) (B2)
                 (A2) (B1) (A1) (A2) (B1) (B2) (A1) (B2) (B2) (A1)
                 (A2) (B1) (A1) (A2) (B1) (A1) (B2) (A1) (B2) (A2)
                 (B1) (A1) (B1) (B2) (B1) (A1) (B2) (A2) (A1) (B2)
                 (A2) (B2) (A2) (B2) (B1) (A1) (A2) (B2) (A1) (A1)
                 (B1) (A1) (B2) (B1) (A2) (A1) (B2) (B1) (A1) (A2)
                 (B2) (A1) (A2) (B1) (B2) (A1) (B2) (B2) (B1) (A1)
                 (A2) (A2) (B2) (B1) (A1) (B2) (B1) (A1) (A2) (A1)
                 (B1) (B2) (A2) (A2) (B2) (B2) (A1) (B1) (A1) (A2)
                 (B2) (A1) (B2) (A1) (B1) (A1) (B1) (B2) (A2) (A1)
                 (B2) (A1) (B2) (A1) (A2) (B1) (B2) (A1) (B1) (A2)
                 (B2) (B1) (A1) (A2) (B1) (B2) (A1) (B2) (A2) (B1)
                 (A1) (A2) (B1) (B2) (A1) (B2) (A1) (B1) (A2) (B1)
                 (A2) (B2) (B1) (B2) (A2) (A1) (A1) (B2) (A1) (A2)
                 (B2) (A1) (A1) (A2) (B2) (B1) (A1) (B2) (B1) (B1)
                 (A1) (B2) (A2) (B2) (A1) (B2) (A1) (A2) (B1) (B1)
                 (B2) (A2) (B2) (A1) (A1) (A2) (B2) (B1) (A1) (A2)
                 (B1) (B2) (B1) (A1) (A2) (B2) (A1) (B1) (A1) (B2)
                 (A2) (A1) (B2) (B2) (A1) (B1) (A2) (B2) (A1) (B1)
                 (B1) (A2) (A1) (B2) (B2) (B1) (A1) (A2) (A1) (B2)
                 (A1) (A1) (B2)
 Keep R1 ints in memory in symmetry-blocked form, NReq=913869436.
 Requested convergence on RMS density matrix=1.00D-08 within 128 cycles.
 Requested convergence on MAX density matrix=1.00D-06.
 Requested convergence on             energy=1.00D-06.
 No special actions if energy rises.
 SCF Done:  E(RHF) =  -154.128478979     A.U. after    8 cycles
            NFock=  8  Conv=0.31D-08     -V/T= 2.0014
 ExpMin= 2.53D-02 ExpMax= 1.53D+04 ExpMxC= 5.22D+02 IAcc=3 IRadAn=         5 AccDes= 0.00D+00
 HarFok:  IExCor=  205 AccDes= 0.00D+00 IRadAn=         5 IDoV=-2 UseB2=F ITyADJ=14
 ICtDFT= 12500011 ScaDFX=  1.000000  1.000000  1.000000  1.000000
 Range of M.O.s used for correlation:     4   276
 NBasis=   276 NAE=    13 NBE=    13 NFC=     3 NFV=     0
 NROrb=    273 NOA=    10 NOB=    10 NVA=   263 NVB=   263

 **** Warning!!: The largest alpha MO coefficient is  0.49217543D+02

 Fully direct method using O(ONN) memory.
 JobTyp=1 Pass  1:  I=   4 to  13 NPSUse= 28 ParTrn=T ParDer=T DoDerP=T.
 Spin components of T(2) and E(2):
     alpha-alpha T2 =       0.1976077668D-01 E2=     -0.6856769522D-01
     alpha-beta  T2 =       0.1275411829D+00 E2=     -0.4722808917D+00
     beta-beta   T2 =       0.1976077668D-01 E2=     -0.6856769522D-01
 ANorm=    0.1080306779D+01
 E2 =    -0.6094162822D+00 EUMP2 =    -0.15473789526133D+03
          IDoAtm=111111111
          Differentiating once with respect to electric field.
                with respect to dipole field.
          Differentiating once with respect to nuclear coordinates.
 Keep R1 ints in memory in symmetry-blocked form, NReq=913871176.
          There are     1 degrees of freedom in the 1st order CPHF.  IDoFFX=0 NUNeed=     1.
 LinEq1:  Iter=  0 NonCon=     1 RMS=2.69D-03 Max=3.88D-02 NDo=     1
 AX will form     1 AO Fock derivatives at one time.
 LinEq1:  Iter=  1 NonCon=     1 RMS=6.56D-04 Max=8.67D-03 NDo=     1
 LinEq1:  Iter=  2 NonCon=     1 RMS=1.69D-04 Max=1.93D-03 NDo=     1
 LinEq1:  Iter=  3 NonCon=     1 RMS=7.28D-05 Max=9.46D-04 NDo=     1
 LinEq1:  Iter=  4 NonCon=     1 RMS=2.25D-05 Max=3.63D-04 NDo=     1
 LinEq1:  Iter=  5 NonCon=     1 RMS=4.05D-06 Max=5.09D-05 NDo=     1
 LinEq1:  Iter=  6 NonCon=     1 RMS=6.69D-07 Max=8.31D-06 NDo=     1
 LinEq1:  Iter=  7 NonCon=     1 RMS=1.26D-07 Max=1.61D-06 NDo=     1
 LinEq1:  Iter=  8 NonCon=     1 RMS=2.48D-08 Max=3.14D-07 NDo=     1
 LinEq1:  Iter=  9 NonCon=     1 RMS=3.86D-09 Max=7.28D-08 NDo=     1
 LinEq1:  Iter= 10 NonCon=     1 RMS=4.60D-10 Max=4.84D-09 NDo=     1
 LinEq1:  Iter= 11 NonCon=     0 RMS=5.11D-11 Max=5.68D-10 NDo=     1
 Linear equations converged to 1.000D-10 1.000D-09 after    11 iterations.
 End of Minotr F.D. properties file   721 does not exist.
 End of Minotr F.D. properties file   722 does not exist.
 End of Minotr F.D. properties file   788 does not exist.
 Calling FoFJK, ICntrl=  10002127 FMM=F ISym2X=1 I1Cent= 0 IOpClX= 0 NMat=1 NMatS=1 NMatT=0.
 ***** Axes restored to original set *****
 -------------------------------------------------------------------
 Center     Atomic                   Forces (Hartrees/Bohr)
 Number     Number              X              Y              Z
 -------------------------------------------------------------------
      1        8           0.000000000    0.000000000   -0.000386675
      2        6           0.000000000   -0.000828808    0.000347302
      3        6          -0.000000000    0.000828808    0.000347302
      4        1           0.000000000   -0.000037002    0.000141338
      5        1           0.000162982   -0.000075101   -0.000147651
      6        1          -0.000162982   -0.000075101   -0.000147651
      7        1          -0.000000000    0.000037002    0.000141338
      8        1          -0.000162982    0.000075101   -0.000147651
      9        1           0.000162982    0.000075101   -0.000147651
 -------------------------------------------------------------------
 Cartesian Forces:  Max     0.000828808 RMS     0.000273747

 GradGradGradGradGradGradGradGradGradGradGradGradGradGradGradGradGradGrad
 Berny optimization.
 Using GEDIIS/GDIIS optimizer.
 FormGI is forming the generalized inverse of G from B-inverse, IUseBI=4.
 Internal  Forces:  Max     0.000637749 RMS     0.000212798
 Search for a local minimum.
 Step number   3 out of a maximum of   37
 All quantities printed in internal units (Hartrees-Bohrs-Radians)
 Mixed Optimization -- En-DIIS/RFO-DIIS
 Swapping is turned off.
 Update second derivatives using D2CorX and points    1    2    3
 DE= -1.23D-05 DEPred=-1.29D-05 R= 9.56D-01
 TightC=F SS=  1.41D+00  RLast= 1.09D-02 DXNew= 5.0454D-01 3.2848D-02
 Trust test= 9.56D-01 RLast= 1.09D-02 DXMaxT set to 3.00D-01
 ITU=  1  1  0
     Eigenvalues ---    0.01378   0.01378   0.10117   0.10229   0.10479
     Eigenvalues ---    0.10479   0.14216   0.16000   0.16000   0.16000
     Eigenvalues ---    0.16000   0.17180   0.24348   0.32969   0.32969
     Eigenvalues ---    0.32969   0.33582   0.33918   0.34481   0.41901
     Eigenvalues ---    0.46362
 En-DIIS/RFO-DIIS/Sim-DIIS IScMMF=       -3 using points:     3    2
 RFO step:  Lambda=-3.49199992D-06.
 DidBck=F Rises=F RFO-DIIS coefs:    1.06125   -0.06125
 Iteration  1 RMS(Cart)=  0.00091010 RMS(Int)=  0.00000068
 Iteration  2 RMS(Cart)=  0.00000058 RMS(Int)=  0.00000027
 ClnCor:  largest displacement from symmetrization is 6.47D-12 for atom     6.
 Variable       Old X    -DE/DX   Delta X   Delta X   Delta X     New X
                                 (Linear)    (Quad)   (Total)
    R1        2.67023  -0.00064  -0.00006  -0.00157  -0.00162   2.66861
    R2        2.67023  -0.00064  -0.00006  -0.00157  -0.00162   2.66861
    R3        2.05259   0.00012   0.00003   0.00032   0.00034   2.05293
    R4        2.06865   0.00022   0.00001   0.00062   0.00063   2.06928
    R5        2.06865   0.00022   0.00001   0.00062   0.00063   2.06928
    R6        2.05259   0.00012   0.00003   0.00032   0.00034   2.05293
    R7        2.06865   0.00022   0.00001   0.00062   0.00063   2.06928
    R8        2.06865   0.00022   0.00001   0.00062   0.00063   2.06928
    A1        1.93222  -0.00021   0.00047  -0.00022   0.00024   1.93247
    A2        1.87571  -0.00019   0.00024  -0.00095  -0.00071   1.87500
    A3        1.93816   0.00012   0.00006   0.00086   0.00092   1.93908
    A4        1.93816   0.00012   0.00006   0.00086   0.00092   1.93908
    A5        1.90787  -0.00001  -0.00012  -0.00031  -0.00043   1.90744
    A6        1.90787  -0.00001  -0.00012  -0.00031  -0.00043   1.90744
    A7        1.89574  -0.00004  -0.00011  -0.00018  -0.00030   1.89544
    A8        1.87571  -0.00019   0.00024  -0.00095  -0.00071   1.87500
    A9        1.93816   0.00012   0.00006   0.00086   0.00092   1.93908
   A10        1.93816   0.00012   0.00006   0.00086   0.00092   1.93908
   A11        1.90787  -0.00001  -0.00012  -0.00031  -0.00043   1.90744
   A12        1.90787  -0.00001  -0.00012  -0.00031  -0.00043   1.90744
   A13        1.89574  -0.00004  -0.00011  -0.00018  -0.00030   1.89544
    D1        3.14159  -0.00000   0.00000  -0.00000   0.00000   3.14159
    D2        1.05569   0.00005  -0.00003   0.00047   0.00043   1.05612
    D3       -1.05569  -0.00005   0.00003  -0.00047  -0.00043  -1.05612
    D4        3.14159  -0.00000   0.00000  -0.00000   0.00000   3.14159
    D5        1.05569   0.00005  -0.00003   0.00047   0.00043   1.05612
    D6       -1.05569  -0.00005   0.00003  -0.00047  -0.00043  -1.05612
         Item               Value     Threshold  Converged?
 Maximum Force            0.000638     0.000450     NO 
 RMS     Force            0.000213     0.000300     YES
 Maximum Displacement     0.001926     0.001800     NO 
 RMS     Displacement     0.000910     0.001200     YES
 Predicted change in Energy=-1.746161D-06
 GradGradGradGradGradGradGradGradGradGradGradGradGradGradGradGradGradGrad

                          Input orientation:                          
 ---------------------------------------------------------------------
 Center     Atomic      Atomic             Coordinates (Angstroms)
 Number     Number       Type             X           Y           Z
 ---------------------------------------------------------------------
      1          8           0        0.000000   -0.000000    0.600688
      2          6           0        0.000000    1.161862   -0.201991
      3          6           0       -0.000000   -1.161862   -0.201991
      4          1           0       -0.000000   -2.018728    0.465816
      5          1           0        0.889248   -1.200367   -0.839811
      6          1           0       -0.889248   -1.200367   -0.839811
      7          1           0        0.000000    2.018728    0.465816
      8          1           0       -0.889248    1.200367   -0.839811
      9          1           0        0.889248    1.200367   -0.839811
 ---------------------------------------------------------------------
                    Distance matrix (angstroms):
                    1          2          3          4          5
     1  O    0.000000
     2  C    1.412167   0.000000
     3  C    1.412167   2.323723   0.000000
     4  H    2.023228   3.249941   1.086363   0.000000
     5  H    2.075254   2.603402   1.095016   1.779083   0.000000
     6  H    2.075254   2.603402   1.095016   1.779083   1.778496
     7  H    2.023228   1.086363   3.249941   4.037455   3.585805
     8  H    2.075254   1.095016   2.603402   3.585805   2.987737
     9  H    2.075254   1.095016   2.603402   3.585805   2.400734
                    6          7          8          9
     6  H    0.000000
     7  H    3.585805   0.000000
     8  H    2.400734   1.779083   0.000000
     9  H    2.987737   1.779083   1.778496   0.000000
 Stoichiometry    C2H6O
 Framework group  C2V[C2(O),SGV(C2H2),X(H4)]
 Deg. of freedom     7
 Full point group                 C2V     NOp   4
 Largest Abelian subgroup         C2V     NOp   4
 Largest concise Abelian subgroup C2V     NOp   4
                         Standard orientation:                         
 ---------------------------------------------------------------------
 Center     Atomic      Atomic             Coordinates (Angstroms)
 Number     Number       Type             X           Y           Z
 ---------------------------------------------------------------------
      1          8           0        0.000000    0.000000    0.602457
      2          6           0       -0.000000    1.161862   -0.200222
      3          6           0       -0.000000   -1.161862   -0.200222
      4          1           0        0.000000   -2.018728    0.467585
      5          1           0        0.889248   -1.200367   -0.838042
      6          1           0       -0.889248   -1.200367   -0.838042
      7          1           0        0.000000    2.018728    0.467585
      8          1           0       -0.889248    1.200367   -0.838042
      9          1           0        0.889248    1.200367   -0.838042
 ---------------------------------------------------------------------
 Rotational constants (GHZ):          38.5705859          10.1872724           8.9708055
 Standard basis: Aug-CC-pVTZ (5D, 7F)
 There are   104 symmetry adapted cartesian basis functions of A1  symmetry.
 There are    55 symmetry adapted cartesian basis functions of A2  symmetry.
 There are    63 symmetry adapted cartesian basis functions of B1  symmetry.
 There are    93 symmetry adapted cartesian basis functions of B2  symmetry.
 There are    88 symmetry adapted basis functions of A1  symmetry.
 There are    51 symmetry adapted basis functions of A2  symmetry.
 There are    57 symmetry adapted basis functions of B1  symmetry.
 There are    80 symmetry adapted basis functions of B2  symmetry.
   276 basis functions,   378 primitive gaussians,   315 cartesian basis functions
    13 alpha electrons       13 beta electrons
       nuclear repulsion energy        84.0937334157 Hartrees.
 NAtoms=    9 NActive=    9 NUniq=    4 SFac= 4.00D+00 NAtFMM=   60 NAOKFM=F Big=F
 Integral buffers will be    131072 words long.
 Raffenetti 1 integral format.
 Two-electron integral symmetry is turned on.
 One-electron integrals computed using PRISM.
 NBasis=   276 RedAO= T EigKep=  2.63D-05  NBF=    88    51    57    80
 NBsUse=   276 1.00D-06 EigRej= -1.00D+00 NBFU=    88    51    57    80
 Initial guess from the checkpoint file:  "meome_mp2_avtz_opt_anharm.chk"
 B after Tr=     0.000000    0.000000    0.000000
         Rot=    1.000000    0.000000    0.000000    0.000000 Ang=   0.00 deg.
 Initial guess orbital symmetries:
       Occupied  (A1) (B2) (A1) (A1) (B2) (A1) (B1) (A1) (B2) (A2)
                 (B2) (A1) (B1)
       Virtual   (A1) (B2) (B1) (A1) (B2) (A2) (A1) (B1) (B2) (A1)
                 (A1) (B2) (A2) (A1) (B2) (B1) (A1) (B1) (B2) (A2)
                 (A1) (B1) (B2) (A1) (A1) (B2) (B1) (A1) (A2) (B2)
                 (B2) (B1) (A2) (A1) (A2) (A1) (B2) (B1) (A1) (A1)
                 (B2) (A2) (B1) (B2) (A1) (A2) (A1) (B2) (B2) (B1)
                 (A1) (B2) (B2) (A2) (A1) (B2) (B1) (A1) (A1) (B1)
                 (A1) (A2) (B2) (A2) (A1) (B2) (B1) (B1) (A1) (B2)
                 (A2) (B1) (A1) (A2) (B1) (B2) (A1) (B2) (B2) (A1)
                 (A2) (B1) (A1) (A2) (B1) (A1) (B2) (A1) (B2) (A2)
                 (B1) (A1) (B1) (B2) (B1) (A1) (A2) (B2) (A1) (B2)
                 (A2) (B2) (A2) (B2) (B1) (A1) (A2) (B2) (A1) (A1)
                 (B1) (A1) (B2) (B1) (A2) (A1) (B2) (B1) (A1) (A2)
                 (B2) (A1) (A2) (B1) (B2) (A1) (B2) (B2) (B1) (A1)
                 (A2) (A2) (B2) (B1) (A1) (B2) (B1) (A1) (A2) (A1)
                 (B1) (B2) (A2) (A2) (B2) (A1) (B2) (B1) (A1) (A2)
                 (B2) (A1) (B2) (A1) (B1) (A1) (B1) (B2) (A2) (A1)
                 (B2) (A1) (B2) (A1) (A2) (B1) (B2) (A1) (B1) (A2)
                 (B2) (B1) (A1) (A2) (B1) (B2) (A1) (B2) (A2) (B1)
                 (A1) (A2) (B1) (B2) (A1) (B2) (A1) (B1) (A2) (B1)
                 (A2) (B2) (B1) (B2) (A1) (A2) (A1) (B2) (A1) (A2)
                 (B2) (A1) (A1) (A2) (B2) (B1) (A1) (B2) (B1) (B1)
                 (A1) (B2) (A2) (B2) (A1) (B2) (A1) (A2) (B1) (B1)
                 (B2) (A2) (B2) (A1) (A2) (A1) (B2) (B1) (A1) (A2)
                 (B1) (B2) (B1) (A2) (A1) (B2) (A1) (B1) (A1) (B2)
                 (A2) (A1) (B2) (B2) (A1) (B1) (A2) (B2) (A1) (B1)
                 (B1) (A2) (A1) (B2) (B2) (B1) (A1) (A2) (A1) (B2)
                 (A1) (A1) (B2)
 Keep R1 ints in memory in symmetry-blocked form, NReq=913869436.
 Requested convergence on RMS density matrix=1.00D-08 within 128 cycles.
 Requested convergence on MAX density matrix=1.00D-06.
 Requested convergence on             energy=1.00D-06.
 No special actions if energy rises.
 SCF Done:  E(RHF) =  -154.128509459     A.U. after    7 cycles
            NFock=  7  Conv=0.43D-08     -V/T= 2.0014
 ExpMin= 2.53D-02 ExpMax= 1.53D+04 ExpMxC= 5.22D+02 IAcc=3 IRadAn=         5 AccDes= 0.00D+00
 HarFok:  IExCor=  205 AccDes= 0.00D+00 IRadAn=         5 IDoV=-2 UseB2=F ITyADJ=14
 ICtDFT= 12500011 ScaDFX=  1.000000  1.000000  1.000000  1.000000
 Range of M.O.s used for correlation:     4   276
 NBasis=   276 NAE=    13 NBE=    13 NFC=     3 NFV=     0
 NROrb=    273 NOA=    10 NOB=    10 NVA=   263 NVB=   263

 **** Warning!!: The largest alpha MO coefficient is  0.49235226D+02

 Fully direct method using O(ONN) memory.
 JobTyp=1 Pass  1:  I=   4 to  13 NPSUse= 28 ParTrn=T ParDer=T DoDerP=T.
 Spin components of T(2) and E(2):
     alpha-alpha T2 =       0.1975600627D-01 E2=     -0.6856684264D-01
     alpha-beta  T2 =       0.1275186597D+00 E2=     -0.4722540913D+00
     beta-beta   T2 =       0.1975600627D-01 E2=     -0.6856684264D-01
 ANorm=    0.1080291938D+01
 E2 =    -0.6093877766D+00 EUMP2 =    -0.15473789723597D+03
          IDoAtm=111111111
          Differentiating once with respect to electric field.
                with respect to dipole field.
          Differentiating once with respect to nuclear coordinates.
 Keep R1 ints in memory in symmetry-blocked form, NReq=913871176.
          There are     1 degrees of freedom in the 1st order CPHF.  IDoFFX=0 NUNeed=     1.
 LinEq1:  Iter=  0 NonCon=     1 RMS=2.69D-03 Max=3.88D-02 NDo=     1
 AX will form     1 AO Fock derivatives at one time.
 LinEq1:  Iter=  1 NonCon=     1 RMS=6.56D-04 Max=8.62D-03 NDo=     1
 LinEq1:  Iter=  2 NonCon=     1 RMS=1.68D-04 Max=1.93D-03 NDo=     1
 LinEq1:  Iter=  3 NonCon=     1 RMS=7.26D-05 Max=9.43D-04 NDo=     1
 LinEq1:  Iter=  4 NonCon=     1 RMS=2.25D-05 Max=3.63D-04 NDo=     1
 LinEq1:  Iter=  5 NonCon=     1 RMS=4.05D-06 Max=5.07D-05 NDo=     1
 LinEq1:  Iter=  6 NonCon=     1 RMS=6.69D-07 Max=8.28D-06 NDo=     1
 LinEq1:  Iter=  7 NonCon=     1 RMS=1.25D-07 Max=1.61D-06 NDo=     1
 LinEq1:  Iter=  8 NonCon=     1 RMS=2.48D-08 Max=3.12D-07 NDo=     1
 LinEq1:  Iter=  9 NonCon=     1 RMS=3.85D-09 Max=7.26D-08 NDo=     1
 LinEq1:  Iter= 10 NonCon=     1 RMS=4.59D-10 Max=4.83D-09 NDo=     1
 LinEq1:  Iter= 11 NonCon=     0 RMS=5.08D-11 Max=5.67D-10 NDo=     1
 Linear equations converged to 1.000D-10 1.000D-09 after    11 iterations.
 End of Minotr F.D. properties file   721 does not exist.
 End of Minotr F.D. properties file   722 does not exist.
 End of Minotr F.D. properties file   788 does not exist.
 Calling FoFJK, ICntrl=  10002127 FMM=F ISym2X=1 I1Cent= 0 IOpClX= 0 NMat=1 NMatS=1 NMatT=0.
 ***** Axes restored to original set *****
 -------------------------------------------------------------------
 Center     Atomic                   Forces (Hartrees/Bohr)
 Number     Number              X              Y              Z
 -------------------------------------------------------------------
      1        8          -0.000000000   -0.000000000   -0.000126774
      2        6           0.000000000   -0.000132384    0.000107737
      3        6           0.000000000    0.000132384    0.000107737
      4        1           0.000000000   -0.000025131    0.000011069
      5        1           0.000019457    0.000003526   -0.000027709
      6        1          -0.000019457    0.000003526   -0.000027709
      7        1          -0.000000000    0.000025131    0.000011069
      8        1          -0.000019457   -0.000003526   -0.000027709
      9        1           0.000019457   -0.000003526   -0.000027709
 -------------------------------------------------------------------
 Cartesian Forces:  Max     0.000132384 RMS     0.000054596

 GradGradGradGradGradGradGradGradGradGradGradGradGradGradGradGradGradGrad
 Berny optimization.
 Using GEDIIS/GDIIS optimizer.
 FormGI is forming the generalized inverse of G from B-inverse, IUseBI=4.
 Internal  Forces:  Max     0.000130075 RMS     0.000040538
 Search for a local minimum.
 Step number   4 out of a maximum of   37
 All quantities printed in internal units (Hartrees-Bohrs-Radians)
 Mixed Optimization -- En-DIIS/RFO-DIIS
 Swapping is turned off.
 Update second derivatives using D2CorX and points    1    2    3    4
 DE= -1.97D-06 DEPred=-1.75D-06 R= 1.13D+00
 TightC=F SS=  1.41D+00  RLast= 3.63D-03 DXNew= 5.0454D-01 1.0891D-02
 Trust test= 1.13D+00 RLast= 3.63D-03 DXMaxT set to 3.00D-01
 ITU=  1  1  1  0
     Eigenvalues ---    0.01378   0.01378   0.10107   0.10480   0.10480
     Eigenvalues ---    0.10579   0.13765   0.16000   0.16000   0.16000
     Eigenvalues ---    0.16000   0.17660   0.23968   0.32969   0.32969
     Eigenvalues ---    0.32969   0.33046   0.33741   0.33918   0.41351
     Eigenvalues ---    0.41901
 En-DIIS/RFO-DIIS/Sim-DIIS IScMMF=       -3 using points:     4    3    2
 RFO step:  Lambda=-1.56835490D-07.
 DidBck=F Rises=F RFO-DIIS coefs:    1.09445   -0.07055   -0.02390
 Iteration  1 RMS(Cart)=  0.00025493 RMS(Int)=  0.00000006
 Iteration  2 RMS(Cart)=  0.00000002 RMS(Int)=  0.00000006
 ClnCor:  largest displacement from symmetrization is 8.68D-12 for atom     8.
 Variable       Old X    -DE/DX   Delta X   Delta X   Delta X     New X
                                 (Linear)    (Quad)   (Total)
    R1        2.66861  -0.00013  -0.00017  -0.00026  -0.00043   2.66818
    R2        2.66861  -0.00013  -0.00017  -0.00026  -0.00043   2.66818
    R3        2.05293   0.00003   0.00004   0.00006   0.00010   2.05303
    R4        2.06928   0.00003   0.00007   0.00006   0.00012   2.06940
    R5        2.06928   0.00003   0.00007   0.00006   0.00012   2.06940
    R6        2.05293   0.00003   0.00004   0.00006   0.00010   2.05303
    R7        2.06928   0.00003   0.00007   0.00006   0.00012   2.06940
    R8        2.06928   0.00003   0.00007   0.00006   0.00012   2.06940
    A1        1.93247  -0.00006   0.00021  -0.00029  -0.00008   1.93239
    A2        1.87500   0.00002   0.00003   0.00020   0.00022   1.87522
    A3        1.93908  -0.00000   0.00011  -0.00010   0.00001   1.93909
    A4        1.93908  -0.00000   0.00011  -0.00010   0.00001   1.93909
    A5        1.90744   0.00000  -0.00009   0.00007  -0.00002   1.90742
    A6        1.90744   0.00000  -0.00009   0.00007  -0.00002   1.90742
    A7        1.89544  -0.00001  -0.00007  -0.00013  -0.00021   1.89523
    A8        1.87500   0.00002   0.00003   0.00020   0.00022   1.87522
    A9        1.93908  -0.00000   0.00011  -0.00010   0.00001   1.93909
   A10        1.93908  -0.00000   0.00011  -0.00010   0.00001   1.93909
   A11        1.90744   0.00000  -0.00009   0.00007  -0.00002   1.90742
   A12        1.90744   0.00000  -0.00009   0.00007  -0.00002   1.90742
   A13        1.89544  -0.00001  -0.00007  -0.00013  -0.00021   1.89523
    D1        3.14159  -0.00000   0.00000  -0.00000   0.00000   3.14159
    D2        1.05612  -0.00001   0.00003  -0.00015  -0.00012   1.05600
    D3       -1.05612   0.00001  -0.00003   0.00015   0.00012  -1.05600
    D4        3.14159   0.00000   0.00000   0.00000   0.00000   3.14159
    D5        1.05612  -0.00001   0.00003  -0.00015  -0.00012   1.05600
    D6       -1.05612   0.00001  -0.00003   0.00015   0.00012  -1.05600
         Item               Value     Threshold  Converged?
 Maximum Force            0.000130     0.000450     YES
 RMS     Force            0.000041     0.000300     YES
 Maximum Displacement     0.000561     0.001800     YES
 RMS     Displacement     0.000255     0.001200     YES
 Predicted change in Energy=-7.841134D-08
 Optimization completed.
    -- Stationary point found.
                           ----------------------------
                           !   Optimized Parameters   !
                           ! (Angstroms and Degrees)  !
 --------------------------                            --------------------------
 ! Name  Definition              Value          Derivative Info.                !
 --------------------------------------------------------------------------------
 ! R1    R(1,2)                  1.4122         -DE/DX =   -0.0001              !
 ! R2    R(1,3)                  1.4122         -DE/DX =   -0.0001              !
 ! R3    R(2,7)                  1.0864         -DE/DX =    0.0                 !
 ! R4    R(2,8)                  1.095          -DE/DX =    0.0                 !
 ! R5    R(2,9)                  1.095          -DE/DX =    0.0                 !
 ! R6    R(3,4)                  1.0864         -DE/DX =    0.0                 !
 ! R7    R(3,5)                  1.095          -DE/DX =    0.0                 !
 ! R8    R(3,6)                  1.095          -DE/DX =    0.0                 !
 ! A1    A(2,1,3)              110.7222         -DE/DX =   -0.0001              !
 ! A2    A(1,2,7)              107.4297         -DE/DX =    0.0                 !
 ! A3    A(1,2,8)              111.1009         -DE/DX =    0.0                 !
 ! A4    A(1,2,9)              111.1009         -DE/DX =    0.0                 !
 ! A5    A(7,2,8)              109.2883         -DE/DX =    0.0                 !
 ! A6    A(7,2,9)              109.2883         -DE/DX =    0.0                 !
 ! A7    A(8,2,9)              108.6007         -DE/DX =    0.0                 !
 ! A8    A(1,3,4)              107.4297         -DE/DX =    0.0                 !
 ! A9    A(1,3,5)              111.1009         -DE/DX =    0.0                 !
 ! A10   A(1,3,6)              111.1009         -DE/DX =    0.0                 !
 ! A11   A(4,3,5)              109.2883         -DE/DX =    0.0                 !
 ! A12   A(4,3,6)              109.2883         -DE/DX =    0.0                 !
 ! A13   A(5,3,6)              108.6007         -DE/DX =    0.0                 !
 ! D1    D(3,1,2,7)            180.0            -DE/DX =    0.0                 !
 ! D2    D(3,1,2,8)             60.5113         -DE/DX =    0.0                 !
 ! D3    D(3,1,2,9)            -60.5113         -DE/DX =    0.0                 !
 ! D4    D(2,1,3,4)            180.0            -DE/DX =    0.0                 !
 ! D5    D(2,1,3,5)             60.5113         -DE/DX =    0.0                 !
 ! D6    D(2,1,3,6)            -60.5113         -DE/DX =    0.0                 !
 --------------------------------------------------------------------------------
 GradGradGradGradGradGradGradGradGradGradGradGradGradGradGradGradGradGrad

                          Input orientation:                          
 ---------------------------------------------------------------------
 Center     Atomic      Atomic             Coordinates (Angstroms)
 Number     Number       Type             X           Y           Z
 ---------------------------------------------------------------------
      1          8           0        0.000000   -0.000000    0.600688
[...]
 06895505,0.03724107,0.00117020,-0.00305675,0.00490839,-0.40990800,0.01
 516205,-0.36605770,-0.00001778,-0.00044801,-0.00037408,-0.00001223,-0.
 00006198,-0.00004941,0.00009740,0.00003489,0.00009037,-0.00017563,0.00
 011982,-0.00010087,0.00411615,0.00296992,0.00522597,0.40360562,0.00196
 400,-0.00094657,0.00178859,0.01988362,0.12859186,0.01179788,0.00015373
 ,-0.00005570,-0.00085934,0.00008231,0.00016843,0.00014009,0.00003435,-
 0.00011662,0.00019838,-0.00011987,0.00039873,0.00014561,-0.00616662,0.
 00113875,-0.00284853,-0.01527576,-0.13087786,0.00027598,-0.00235291,0.
 00144238,-0.37776364,0.01123288,-0.13798171,0.00006315,-0.00050511,0.0
 0019555,-0.00006016,-0.00016600,-0.00013144,-0.00009051,-0.00019800,-0
 .00007409,-0.00010111,-0.00014613,-0.00038334,-0.00229902,0.00249781,0
 .00063280,0.36816603,-0.01062361,0.12765126,0.00117082,0.00305808,-0.0
 0490997,-0.40991176,-0.01516198,0.36605755,-0.00001786,0.00044678,0.00
 037435,-0.00001214,0.00006197,0.00004939,-0.00017594,-0.00011997,0.000
 10098,0.00009737,-0.00003451,-0.00009067,0.00411398,-0.00297099,-0.005
 22717,0.00112424,-0.00055574,0.01180928,0.40361132,-0.00196304,-0.0009
 4703,0.00178770,-0.01988398,0.12858857,0.01179799,-0.00015378,-0.00005
 612,-0.00085902,-0.00008232,0.00016853,0.00013989,0.00011973,0.0003984
 5,0.00014588,-0.00003477,-0.00011664,0.00019806,0.00616604,0.00113840,
 -0.00284776,0.00055583,0.00169903,0.00026104,0.01527633,-0.13087312,-0
 .00027798,-0.00235602,0.00144408,0.37776240,0.01123280,-0.13798656,-0.
 00006242,-0.00050495,0.00019629,0.00006013,-0.00016516,-0.00013150,0.0
 0010123,-0.00014582,-0.00038331,0.00009012,-0.00019863,-0.00007424,0.0
 0229899,0.00250055,0.00063465,-0.01180870,0.00026097,0.00864859,-0.368
 16374,-0.01062377,0.12765202,0.00888756,-0.00000070,-0.02575466,0.0000
 0044,0.00000032,-0.01219880,-0.00911828,0.00000025,-0.00000095,0.91601
 744,0.00000081,0.01473008,-0.01546196,-0.00000003,-0.32871591,-0.00000
 091,-0.01547312,0.00375579,0.00000177,-0.03727749,0.35584335,-0.009117
 42,-0.00000004,0.00000040,0.00212573,0.00000025,0.00000068,0.91601594,
 0.00000018,0.01473179,0.01546232,-0.00000010,-0.00709693,0.00418058,0.
 00000087,-0.32872196,0.00000105,0.01547320,0.00375422,0.,-0.00418109,0
 .00352743,-0.00000083,0.03727657,0.35583988,0.00004506,-0.00000005,-0.
 00000010,0.00054323,-0.00000005,-0.00000008,-0.00821103,-0.00000067,0.
 00000106,-0.00142487,0.00000032,-0.00013124,-0.00060153,-0.00000037,0.
 00038708,0.00013175,-0.00000162,0.00449248,0.00008198,0.00000035,-0.00
 293048,0.00000007,0.00007402,0.00067831,0.00000008,-0.00031080,-0.0001
 0989,-0.00000076,-0.00989553,-0.00478699,-0.00000069,0.00125379,0.0004
 3421,0.00231509,-0.00538865,-0.00505583,-0.00080500,0.00022254,-0.0000
 6575,-0.44987629,0.03205125,0.46552519,0.00443049,0.00229423,-0.002517
 94,0.43841998,0.00167061,-0.00086142,-0.00250329,-0.00026882,0.0002652
 6,-0.00043008,0.02948033,0.15783636,-0.02469115,-0.00180434,-0.0010396
 3,0.00413414,-0.02900078,-0.15533656,-0.00048750,-0.00080461,0.0008337
 8,0.00045703,0.00111715,-0.00059867,0.46493569,-0.02255010,-0.17851274
 ,-0.00133839,-0.00045329,0.00201324,-0.46066754,0.02330739,0.18239509,
 0.00231472,0.00538908,0.00505517,-0.00080455,-0.00022317,0.00006576,-0
 .44987049,-0.03205104,-0.46552683,0.00443078,-0.00229321,0.00251936,0.
 00477128,-0.00013070,-0.00252314,0.43841392,-0.00167139,-0.00086111,-0
 .00250348,0.00026969,0.00026574,-0.00043045,-0.02947976,0.15783875,-0.
 02469104,0.00180474,-0.00103935,0.00413482,0.00013059,-0.00167837,-0.0
 0005430,0.02899982,-0.15533983,0.00048617,-0.00080366,0.00083328,-0.00
 045717,0.00111654,-0.00059871,-0.46493467,-0.02255027,-0.17851464,0.00
 133826,-0.00045233,0.00201414,0.00252166,-0.00005411,-0.00611865,0.460
 66959,0.02330654,0.18239598,0.00004322,0.00000013,-0.00000014,-0.00821
 602,-0.00000035,-0.00000074,0.00054347,0.00000036,0.00000007,0.0000942
 5,-0.00000006,0.00000003,0.00004602,0.00008440,-0.00005488,0.00004598,
 -0.00008460,0.00005478,-0.00141727,0.00000075,-0.00012815,0.00059948,-
 0.00000101,0.00448798,-0.00008273,-0.00000010,0.00038779,-0.00013018,-
 0.00000006,0.00017964,0.00008962,-0.00010808,0.00004051,-0.00006473,0.
 00010783,0.00004043,-0.00006503,0.00000048,-0.00292926,-0.00000003,-0.
 00007551,0.00067702,-0.00000073,0.00989758,-0.00479308,-0.00000006,0.0
 0031090,-0.00010958,0.,-0.00008904,-0.00011850,0.00019486,-0.00026019,
 -0.00006225,-0.00019509,-0.00026015,-0.00006251,0.00000050,-0.00125472
 ,0.00043984,0.00231531,-0.00538943,0.00505569,-0.44987311,0.03205208,-
 0.46552659,-0.00080504,0.00022255,0.00006651,0.00004602,-0.00010759,-0
 .00019531,0.00082181,-0.00011596,-0.00019334,-0.00012350,-0.00008484,0
 .00012819,0.00443047,0.00229362,0.00251892,0.43841701,0.00167143,-0.00
 086261,0.00250369,0.02948033,0.15783741,0.02469118,-0.00026915,0.00026
 619,0.00043070,0.00008449,0.00004072,0.00026001,-0.00011594,0.00028013
 ,-0.00049776,0.00008526,0.00049355,0.00000024,-0.00180463,-0.00103964,
 -0.00413462,-0.02900133,-0.15533760,0.00048611,0.00080516,0.00083325,-
 0.46493332,0.02254949,-0.17851438,-0.00045738,-0.00111755,-0.00059862,
 0.00005494,0.00006447,-0.00006239,0.00019346,0.00049760,-0.00014308,0.
 00012807,0.00000004,0.00019366,0.00133833,0.00045422,0.00201472,0.4606
 6867,-0.02330786,0.18239510,0.00231472,0.00538941,-0.00505468,-0.44986
 948,-0.03205207,0.46552586,-0.00080486,-0.00022340,-0.00006622,0.00004
 612,0.00010794,0.00019512,-0.00012340,0.00008522,-0.00012784,0.0008218
 2,0.00011576,0.00019318,0.00442993,-0.00229343,-0.00251836,0.00477107,
 -0.00013054,0.00252112,0.43841403,-0.00167199,-0.00086268,0.00250442,-
 0.02947994,0.15783939,0.02469040,0.00026922,0.00026551,0.00043111,-0.0
 0008444,0.00004079,0.00025992,-0.00008518,0.00049375,0.00000024,0.0001
 1616,0.00028019,-0.00049796,0.00180429,-0.00103939,-0.00413429,0.00013
 085,-0.00167813,0.00005444,0.02900110,-0.15533945,-0.00048540,0.000804
 19,0.00083315,0.46493323,0.02255055,-0.17851186,0.00045688,-0.00111690
 ,-0.00059895,-0.00005502,0.00006424,-0.00006218,-0.00012806,-0.0000003
 5,0.00019331,-0.00019287,0.00049801,-0.00014254,-0.00133795,0.00045409
 ,0.00201429,-0.00252272,0.00005443,-0.00611818,-0.46066811,-0.02330826
 ,0.18239293,0.00519308,0.00000047,-0.02663266,-0.00000043,-0.00000039,
 -0.01088704,-0.00833990,0.00000067,0.00000056,0.91229166,-0.00000088,0
 .01537904,-0.01387201,0.00000043,-0.33044570,0.00000068,-0.01445272,0.
 00226631,0.00000017,-0.04368174,0.36075720,-0.00834125,0.00000038,0.00
 000022,-0.00239861,-0.00000016,-0.00000053,0.91228096,-0.00000056,0.01
 538093,0.01387450,0.00000075,-0.00547905,0.00448219,-0.00000032,-0.330
 45778,0.00000076,0.01445302,0.00226967,0.00000017,-0.00448087,0.004396
 90,-0.00000060,0.04367747,0.36074353,0.00059635,-0.00000048,0.,0.00152
 174,0.00000035,-0.00000008,-0.00898119,-0.00000071,0.00000072,-0.00121
 786,0.00000086,-0.00006075,-0.00060902,0.00000016,0.00012414,0.0001783
 5,-0.00000062,0.00483219,0.00005958,0.00000084,-0.00300474,-0.00000050
 ,0.00041557,0.00018691,-0.00000051,-0.00031398,0.00029939,0.00000172,-
 0.01023289,-0.00476438,-0.00000108,0.00125126,0.00039785,0.00257396,-0
 .00533586,-0.00438046,0.00064447,0.00056376,-0.00060755,-0.44768544,0.
 03457970,0.46494755,0.00454468,0.00234449,-0.00229246,0.43660794,0.002
 50256,-0.00100171,-0.00367130,-0.00065809,0.00041115,0.00078128,0.0325
 5497,0.15738930,-0.02598467,-0.00217948,-0.00109403,0.00432940,-0.0322
 8507,-0.15447463,-0.00066620,-0.00074096,0.00149424,-0.00074267,0.0008
 8809,-0.00098763,0.46506804,-0.02516932,-0.18048495,-0.00124977,-0.000
 42317,0.00208623,-0.46060638,0.02522431,0.18372698,0.00257408,0.005335
 96,0.00438034,0.00064450,-0.00056443,0.00060787,-0.44768493,-0.0345782
 1,-0.46494884,0.00454519,-0.00234565,0.00229262,0.00435630,-0.00033184
 ,-0.00248546,0.43660693,-0.00250287,-0.00100181,-0.00367122,0.00065781
 ,0.00041048,0.00078103,-0.03255397,0.15739016,-0.02598362,0.00217948,-
 0.00109345,0.00432914,0.00033176,-0.00150612,-0.00018190,0.03228476,-0
 .15447564,0.00066578,-0.00074135,0.00149397,0.00074299,0.00088810,-0.0
 0098693,-0.46506934,-0.02516852,-0.18048452,0.00125030,-0.00042399,0.0
 0208616,0.00248515,-0.00018173,-0.00588552,0.46060786,0.02522404,0.183
 72682,0.00059672,-0.00000035,0.00000005,-0.00899167,-0.00000029,-0.000
 00062,0.00152222,0.00000022,0.00000005,-0.00039770,0.00000009,-0.00000
 001,-0.00030569,-0.00020352,0.00018826,-0.00030571,0.00020319,-0.00018
 833,-0.00120697,0.00000069,-0.00005903,0.00060841,-0.00000053,0.004820
 67,-0.00005790,0.00000008,0.00012302,-0.00018035,0.00000005,0.00019645
 ,0.00009919,-0.00009627,0.00004983,-0.00003222,0.00009592,0.00004971,-
 0.00003260,0.00000066,-0.00299495,0.00000002,-0.00041386,0.00018555,0.
 00000020,0.01023223,-0.00477211,0.00000010,0.00031474,0.00029955,0.000
 00006,-0.00009835,-0.00011431,0.00016619,-0.00006150,-0.00008898,-0.00
 016643,-0.00006172,-0.00008931,0.00000042,-0.00125611,0.00040397,0.002
 57376,-0.00533578,0.00438042,-0.44768610,0.03458010,-0.46494958,0.0006
 4440,0.00056228,0.00060737,-0.00030565,-0.00009541,-0.00016635,-0.0001
 2268,0.00024869,0.00010333,-0.00061384,-0.00035170,-0.00039129,0.00454
 513,0.00234684,0.00229432,0.43660859,0.00250246,-0.00100187,0.00367085
 ,0.03255441,0.15738916,0.02598483,-0.00065800,0.00041085,-0.00078040,-
 0.00020342,0.00004984,0.00006119,0.00024900,-0.00004397,0.00019253,0.0
 0035187,0.00027055,0.00024314,-0.00217908,-0.00109297,-0.00432791,-0.0
 3228634,-0.15447535,0.00066646,0.00074081,0.00149505,-0.46507033,0.025
 17061,-0.18048691,0.00074289,-0.00088946,-0.00098823,-0.00018836,0.000
 03264,-0.00008892,-0.00010328,-0.00019276,0.00035087,-0.00039101,-0.00
 024278,-0.00021126,0.00125062,0.00042442,0.00208715,0.46060763,-0.0252
 2496,0.18372764,0.00257319,0.00533498,-0.00438070,-0.44768605,-0.03457
 891,0.46494966,0.00064393,-0.00056312,-0.00060717,-0.00030553,0.000095
 25,0.00016661,-0.00061357,0.00035175,0.00039084,-0.00012258,-0.0002484
 4,-0.00010319,0.00454367,-0.00234742,-0.00229489,0.00435635,-0.0003309
 2,0.00248535,0.43661060,-0.00250272,-0.00100212,0.00367019,-0.03255561
 ,0.15738997,0.02598465,0.00065767,0.00041042,-0.00078019,0.00020336,0.
 00005025,0.00006114,-0.00035148,0.00027024,0.00024264,-0.00024841,-0.0
 0004385,0.00019291,0.00217906,-0.00109267,-0.00432750,0.00033133,-0.00
 150621,0.00018145,0.03228684,-0.15447599,-0.00066657,0.00073989,0.0014
 9536,0.46506942,0.02516944,-0.18048627,-0.00074259,-0.00088858,-0.0009
 8759,0.00018821,0.00003260,-0.00008900,0.00039127,-0.00024305,-0.00021
 118,0.00010309,-0.00019300,0.00035063,-0.00125049,0.00042711,0.0020885
 2,-0.00248581,0.00018080,-0.00588540,-0.46060652,-0.02522520,0.1837249
 2,-0.00033490,-0.00000008,-0.02379168,0.00000047,-0.00000099,-0.012811
 39,-0.00139424,0.00000008,-0.00000181,-0.21321978,0.00000064,0.0130377
 9,0.00070691,0.00000046,0.79412240,-0.00000002,-0.02005881,-0.00037905
 ,0.00000112,0.87339824,0.38768118,-0.00139391,0.00000040,-0.00000045,-
 0.00256698,-0.00000106,0.00000038,-0.21322653,-0.00000124,0.01304098,-
 0.00070759,0.00000041,-0.00174719,0.00157115,0.00000185,0.79410523,-0.
 00000043,0.02005654,-0.00038078,0.00000060,-0.00157125,0.00128269,-0.0
 0000076,-0.87339191,0.38767442,0.00023912,0.00000040,0.00000001,0.0003
 4460,-0.00000027,-0.00000003,0.31446936,-0.00000030,0.00000071,-0.3093
 3531,0.00000072,0.00001331,-0.00048830,-0.00000004,0.00178640,0.000152
 21,-0.00000131,-0.83159034,0.87157050,0.00000062,0.82251761,-0.0000000
 4,-0.01403666,0.00331609,0.00000006,-0.00087486,-0.00111259,-0.0000003
 4,0.87512021,-0.36454227,-0.00000118,-0.85831233,0.35898729,0.00066098
 ,-0.00015798,-0.00060311,0.00021402,0.00010962,-0.00001693,-0.04902644
 ,0.00382241,0.03946578,-0.00281362,0.00416088,-0.00101182,0.04993186,0
 .00008109,-0.00057890,0.00002507,-0.00033047,0.00019866,-0.00004704,0.
 01259378,0.01200524,-0.00830238,-0.00183529,0.00372353,-0.00076803,-0.
 00915847,-0.01731387,-0.00012778,0.00015828,0.00173492,0.00058851,-0.0
 0019957,0.00010004,0.03477109,-0.00193231,-0.01155757,0.00414299,-0.00
 686307,0.00198570,-0.03870830,0.00954424,0.00702639,0.00066123,0.00015
 709,0.00060337,0.00021351,-0.00010832,0.00001731,-0.04902824,-0.003822
 92,-0.03946597,-0.00281323,-0.00416062,0.00101344,0.00112475,-0.001228
 82,-0.00060055,0.04993327,-0.00008045,-0.00057902,0.00002572,0.0003300
 6,0.00019883,-0.00004676,-0.01259379,0.01200105,-0.00830251,0.00183478
 ,0.00372326,-0.00076822,0.00122876,0.00222418,-0.00046862,0.00915823,-
 0.01730900,0.00012830,0.00015757,0.00173521,-0.00058916,-0.00019857,0.
 00010030,-0.03476964,-0.00193190,-0.01156431,-0.00414263,-0.00686326,0
 .00198682,0.00059974,-0.00046865,0.00113153,0.03870712,0.00954391,0.00
 703150,0.00023849,0.00000021,0.,0.31446500,-0.00000011,0.00000014,0.00
 034447,-0.00000046,-0.00000002,0.00000056,0.00000003,-0.00000006,-0.00
 004570,-0.00016060,-0.00013175,-0.00004561,0.00016064,0.00013190,-0.30
 933022,-0.00000065,0.00001484,0.00048860,0.00000043,-0.83160094,-0.871
 57478,-0.00000029,0.00178747,-0.00015269,0.00000005,0.00035879,-0.0003
 9039,0.00011129,-0.00026651,-0.00020689,-0.00011120,-0.00026686,-0.000
 20694,0.00000027,0.82252670,-0.00000040,0.01403875,0.00331483,0.000001
 02,-0.87512348,-0.36454799,-0.00000030,0.00087511,-0.00111340,0.,0.000
 39018,-0.00038536,0.00008579,-0.00001552,-0.00011771,-0.00008562,-0.00
 001577,-0.00011768,0.00000050,0.85831402,0.35899196,0.00066127,-0.0001
 5691,0.00060377,-0.04902714,0.00382247,-0.03946824,0.00021396,0.000108
 08,0.00001706,-0.00004565,0.00011109,-0.00008539,0.00005046,-0.0000388
 9,-0.00006185,-0.00009639,-0.00007746,-0.00012747,-0.00281382,0.004162
 41,0.00101432,0.04993308,0.00008087,-0.00057945,-0.00002499,0.01259327
 ,0.01200293,0.00830244,-0.00033016,0.00019896,0.00004726,-0.00016061,-
 0.00026621,0.00001514,-0.00003885,0.00002420,0.00001981,0.00007736,-0.
 00001679,-0.00005210,-0.00183489,0.00372369,0.00076855,-0.00915911,-0.
 01731151,0.00012825,-0.00015731,0.00173545,-0.03477130,0.00193117,-0.0
 1156147,-0.00058887,0.00019825,0.00010068,0.00013176,0.00020699,-0.000
 11785,0.00006160,-0.00001963,-0.00006712,-0.00012727,0.00005214,-0.000
 23619,-0.00414287,0.00686433,0.00198714,0.03870757,-0.00954457,0.00702
 866,0.00066193,0.00015678,-0.00060226,-0.04902905,-0.00382341,0.039466
 21,0.00021438,-0.00010782,-0.00001699,-0.00004583,-0.00011137,0.000085
 36,-0.00009631,0.00007766,0.00012763,0.00005068,0.00003925,0.00006184,
 -0.00281314,-0.00416232,-0.00101531,0.00112422,-0.00122793,0.00060116,
 0.04993309,-0.00008090,-0.00057788,-0.00002442,-0.01259422,0.01200105,
 0.00830333,0.00033060,0.00019869,0.00004642,0.00016061,-0.00026636,0.0
 0001516,-0.00007767,-0.00001655,-0.00005185,0.00003920,0.00002431,0.00
 001994,0.00183495,0.00372292,0.00076820,0.00122830,0.00222420,0.000468
 61,0.00915918,-0.01731041,-0.00012836,-0.00015738,0.00173472,0.0347709
 7,0.00193136,-0.01156318,0.00058888,0.00019890,0.00010050,-0.00013163,
 0.00020717,-0.00011788,0.00012722,0.00005194,-0.00023612,-0.00006180,-
 0.00001989,-0.00006715,0.00414218,0.00686481,0.00198818,-0.00059975,0.
 00046848,0.00113075,-0.03870767,-0.00954539,0.00703022,-0.00035486,0.0
 0000016,-0.02436788,-0.00000083,0.00000056,-0.01165739,-0.00113320,-0.
 00000159,0.00000035,-0.21384699,-0.00000009,0.01290240,0.00149547,0.00
 000048,0.79523586,0.00000108,-0.01872622,-0.00098554,-0.00000165,0.872
 72744,0.38986211,-0.00113542,0.00000026,0.00000092,-0.00210127,0.00000
 097,0.,-0.21383914,0.00000032,0.01290225,-0.00149402,0.00000172,-0.001
 66787,0.00071261,-0.00000088,0.79525035,-0.00000075,0.01872848,-0.0009
 8804,0.00000042,-0.00071292,0.00304408,-0.00000035,-0.87273163,0.38987
 275,-0.00001551,0.00000008,-0.00000021,-0.00006389,-0.00000029,0.00000
 011,0.31418784,-0.00000014,0.00000054,-0.30895380,-0.00000041,0.000528
 34,-0.00038218,-0.00000042,0.00106037,0.00024400,0.00000079,-0.8318643
 0,0.87102555,0.00000035,0.82273025,0.00000011,-0.01327961,0.00324684,0
 .00000010,-0.00148735,-0.00279076,-0.00000085,0.87510653,-0.36538657,-
 0.00000014,-0.85811961,0.35955340,0.00066344,-0.00013079,-0.00060693,0
 .00009241,0.00002014,0.00013468,-0.04861646,0.00359447,0.03919590,-0.0
 0285552,0.00413121,-0.00093074,0.04955789,-0.00005460,-0.00062322,0.00
 034549,-0.00027217,0.00023412,-0.00011786,0.01213173,0.01192729,-0.008
 14998,-0.00167580,0.00383808,-0.00087190,-0.00878392,-0.01727898,-0.00
 024104,0.00036772,0.00178433,0.00050760,-0.00037988,-0.00002977,0.0347
 2731,-0.00192030,-0.01184676,0.00409906,-0.00683811,0.00203629,-0.0385
 0694,0.00933516,0.00711610,0.00066432,0.00013112,0.00060662,0.00009242
 ,-0.00002055,-0.00013485,-0.04861732,-0.00359439,-0.03919559,-0.002855
 91,-0.00413174,0.00093126,0.00110983,-0.00122143,-0.00061098,0.0495584
 2,0.00005497,-0.00062301,0.00034524,0.00027206,0.00023358,-0.00011821,
 -0.01213267,0.01192684,-0.00815026,0.00167593,0.00383835,-0.00087226,0
 .00122169,0.00220764,-0.00044391,0.00878393,-0.01727861,0.00024233,0.0
 0036931,0.00178428,-0.00050815,-0.00038020,-0.00002933,-0.03472723,-0.
 00192144,-0.01184608,-0.00409938,-0.00683857,0.00203623,0.00061107,-0.
 00044440,0.00115121,0.03850650,0.00933570,0.00711531,-0.00001597,0.000
 00046,-0.00000033,0.31419185,-0.00000008,0.00000097,-0.00006344,-0.000
 00043,-0.00000006,0.00048780,-0.00000006,0.00000005,0.00003437,-0.0000
 9356,-0.00003223,0.00003448,0.00009368,0.00003240,-0.30895840,-0.00000
 092,0.00052554,0.00038054,-0.00000014,-0.83185432,-0.87102184,0.000000
 30,0.00105857,-0.00024418,-0.00000010,0.00042900,-0.00068572,0.0000738
 6,-0.00027988,-0.00011190,-0.00007379,-0.00027981,-0.00011164,-0.00000
 070,0.82272472,-0.00000025,0.01327748,0.00324710,0.00000060,-0.8751012
 5,-0.36537935,0.00000006,0.00148573,-0.00279029,-0.00000007,0.00068540
 ,0.00124600,0.00001672,-0.00010450,0.00002929,-0.00001675,-0.00010449,
 0.00002929,-0.00000109,0.85811912,0.35954734,0.00066359,-0.00013119,0.
 00060640,-0.04861632,0.00359314,-0.03919463,0.00009230,0.00002142,-0.0
 0013499,0.00003456,0.00007362,-0.00001639,0.00000569,-0.00007910,-0.00
 001457,0.00000824,-0.00004855,-0.00007195,-0.00285616,0.00413162,0.000
 92949,0.04955932,-0.00005464,-0.00062304,-0.00034554,0.01213155,0.0119
 2628,0.00814935,-0.00027240,0.00023440,0.00011804,-0.00009370,-0.00027
 999,0.00010477,-0.00007854,0.00001542,0.00004715,0.00004800,-0.0000406
 1,-0.00005607,-0.00167550,0.00383823,0.00087200,-0.00878269,-0.0172786
 1,0.00024130,-0.00036792,0.00178447,-0.03472698,0.00191862,-0.01184797
 ,-0.00050753,0.00038050,-0.00002976,0.00003238,0.00011198,0.00002930,0
 .00001449,-0.00004755,0.00003017,-0.00007199,0.00005552,-0.00027132,-0
 .00409910,0.00683899,0.00203554,0.03850717,-0.00933432,0.00711748,0.00
 066360,0.00013150,-0.00060600,-0.04861502,-0.00359368,0.03919431,0.000
 09292,-0.00002207,0.00013493,0.00003445,-0.00007333,0.00001662,0.00000
 839,0.00004882,0.00007175,0.00000550,0.00007897,0.00001438,-0.00285452
 ,-0.00413013,-0.00092872,0.00110877,-0.00122212,0.00061021,0.04955591,
 0.00005522,-0.00062134,-0.00034554,-0.01213146,0.01192962,0.00815066,0
 .00027191,0.00023243,0.00011696,0.00009365,-0.00028002,0.00010505,-0.0
 0004812,-0.00004048,-0.00005591,0.00007886,0.00001565,0.00004734,0.001
 67620,0.00383787,0.00087052,0.00122169,0.00220793,0.00044418,0.0087820
 6,-0.01728164,-0.00024195,-0.00036981,0.00178396,0.03472773,0.00191999
 ,-0.01184349,0.00050772,0.00038213,-0.00002925,-0.00003229,0.00011157,
 0.00002919,0.00007171,0.00005550,-0.00027086,-0.00001423,-0.00004741,0
 .00003039,0.00409940,0.00683673,0.00203504,-0.00061054,0.00044461,0.00
 115213,-0.03850752,-0.00933327,0.00711288\\@


 The most important thing in communication is to hear what isn't being said.
 -- Peter F. Drucker
 Job cpu time:      12 days 19 hours 27 minutes 40.4 seconds.
 Elapsed time:       0 days 11 hours 10 minutes 43.8 seconds.
 File lengths (MBytes):  RWF=  12868 Int=      0 D2E=      0 Chk=     56 Scr=      8
 Normal termination of Gaussian 16 at Sat Jun 26 00:20:06 2021.
