 Entering Gaussian System, Link 0=g16
 Input=meome_mp2_opt_anharm.gjf
 Output=meome_mp2_opt_anharm.log
 Initial command:
 /sw/contrib/gaussian/g16/A03/g16/l1.exe "/gscratch/scrubbed/gds001/Gau-18551.inp" -scrdir="/gscratch/scrubbed/gds001/"
 Entering Link 1 = /sw/contrib/gaussian/g16/A03/g16/l1.exe PID=     18552.
  
 Copyright (c) 1988,1990,1992,1993,1995,1998,2003,2009,2016,
            Gaussian, Inc.  All Rights Reserved.
  
 This is part of the Gaussian(R) 16 program.  It is based on
 the Gaussian(R) 09 system (copyright 2009, Gaussian, Inc.),
 the Gaussian(R) 03 system (copyright 2003, Gaussian, Inc.),
 the Gaussian(R) 98 system (copyright 1998, Gaussian, Inc.),
 the Gaussian(R) 94 system (copyright 1995, Gaussian, Inc.),
 the Gaussian 92(TM) system (copyright 1992, Gaussian, Inc.),
 the Gaussian 90(TM) system (copyright 1990, Gaussian, Inc.),
 the Gaussian 88(TM) system (copyright 1988, Gaussian, Inc.),
 the Gaussian 86(TM) system (copyright 1986, Carnegie Mellon
 University), and the Gaussian 82(TM) system (copyright 1983,
 Carnegie Mellon University). Gaussian is a federally registered
 trademark of Gaussian, Inc.
  
 This software contains proprietary and confidential information,
 including trade secrets, belonging to Gaussian, Inc.
  
 This software is provided under written license and may be
 used, copied, transmitted, or stored only in accord with that
 written license.
  
 The following legend is applicable only to US Government
 contracts under FAR:
  
                    RESTRICTED RIGHTS LEGEND
  
 Use, reproduction and disclosure by the US Government is
 subject to restrictions as set forth in subparagraphs (a)
 and (c) of the Commercial Computer Software - Restricted
 Rights clause in FAR 52.227-19.
  
 Gaussian, Inc.
 340 Quinnipiac St., Bldg. 40, Wallingford CT 06492
  
  
 ---------------------------------------------------------------
 Warning -- This program may not be used in any manner that
 competes with the business of Gaussian, Inc. or will provide
 assistance to any competitor of Gaussian, Inc.  The licensee
 of this program is prohibited from giving any competitor of
 Gaussian, Inc. access to this program.  By using this program,
 the user acknowledges that Gaussian, Inc. is engaged in the
 business of creating and licensing software in the field of
 computational chemistry and represents and warrants to the
 licensee that it is not a competitor of Gaussian, Inc. and that
 it will not use this program in any manner prohibited above.
 ---------------------------------------------------------------
  

 Cite this work as:
 Gaussian 16, Revision A.03,
 M. J. Frisch, G. W. Trucks, H. B. Schlegel, G. E. Scuseria, 
 M. A. Robb, J. R. Cheeseman, G. Scalmani, V. Barone, 
 G. A. Petersson, H. Nakatsuji, X. Li, M. Caricato, A. V. Marenich, 
 J. Bloino, B. G. Janesko, R. Gomperts, B. Mennucci, H. P. Hratchian, 
 J. V. Ortiz, A. F. Izmaylov, J. L. Sonnenberg, D. Williams-Young, 
 F. Ding, F. Lipparini, F. Egidi, J. Goings, B. Peng, A. Petrone, 
 T. Henderson, D. Ranasinghe, V. G. Zakrzewski, J. Gao, N. Rega, 
 G. Zheng, W. Liang, M. Hada, M. Ehara, K. Toyota, R. Fukuda, 
 J. Hasegawa, M. Ishida, T. Nakajima, Y. Honda, O. Kitao, H. Nakai, 
 T. Vreven, K. Throssell, J. A. Montgomery, Jr., J. E. Peralta, 
 F. Ogliaro, M. J. Bearpark, J. J. Heyd, E. N. Brothers, K. N. Kudin, 
 V. N. Staroverov, T. A. Keith, R. Kobayashi, J. Normand, 
 K. Raghavachari, A. P. Rendell, J. C. Burant, S. S. Iyengar, 
 J. Tomasi, M. Cossi, J. M. Millam, M. Klene, C. Adamo, R. Cammi, 
 J. W. Ochterski, R. L. Martin, K. Morokuma, O. Farkas, 
 J. B. Foresman, and D. J. Fox, Gaussian, Inc., Wallingford CT, 2016.
 
 ******************************************
 Gaussian 16:  ES64L-G16RevA.03 25-Dec-2016
                 6-Aug-2020 
 ******************************************
 %nprocshared=28
 Will use up to   28 processors via shared memory.
 %mem=41GB
 %chk=meome.chk
 ---------------------------------------------
 # MP2/aug-cc-pVDZ Opt Freq(vibrot,anharmonic)
 ---------------------------------------------
 1/18=20,19=15,38=1,80=1/1,3;
 2/9=110,12=2,17=6,18=5,40=1/2;
 3/5=16,7=10,11=9,25=1,30=1,71=1/1,2,3;
 4//1;
 5/5=2,38=5/2;
 8/6=4,10=1/1;
 9/15=2,16=-3/6;
 10/5=1/2;
 6/7=2,8=2,9=2,10=2/1;
 7/12=2/1,2,3,16;
 1/18=20,19=15,80=1/3(2);
 2/9=110/2;
 99//99;
 2/9=110/2;
 3/5=16,7=10,11=9,25=1,30=1,71=1/1,2,3;
 4/5=5,16=3,69=1/1;
 5/5=2,38=5/2;
 8/6=4,10=1/1;
 9/15=2,16=-3/6;
 10/5=1/2;
 7/12=2/1,2,3,16;
 1/18=20,19=15,80=1/3(-8);
 2/9=110/2;
 6/7=2,8=2,9=2,10=2/1;
 99//99;
 -----
 meome
 -----
 Symbolic Z-matrix:
 Charge =  0 Multiplicity = 1
 O                    -0.69665   1.72002   0.16419 
 C                     0.72428   1.72551   0.18934 
 C                    -1.19456   1.43612  -1.13626 
 H                    -2.28709   1.44479  -1.09655 
 H                    -0.86448   0.44595  -1.46512 
 H                    -0.86448   2.19914  -1.84786 
 H                     1.05013   1.9481    1.20893 
 H                     1.11628   2.49788  -0.47947 
 H                     1.11628   0.74469  -0.09673 
 

 GradGradGradGradGradGradGradGradGradGradGradGradGradGradGradGradGradGrad
 Berny optimization.
 Initialization pass.
                           ----------------------------
                           !    Initial Parameters    !
                           ! (Angstroms and Degrees)  !
 --------------------------                            --------------------------
 ! Name  Definition              Value          Derivative Info.                !
 --------------------------------------------------------------------------------
 ! R1    R(1,2)                  1.4212         estimate D2E/DX2                !
 ! R2    R(1,3)                  1.4212         estimate D2E/DX2                !
 ! R3    R(2,7)                  1.0933         estimate D2E/DX2                !
 ! R4    R(2,8)                  1.0943         estimate D2E/DX2                !
 ! R5    R(2,9)                  1.0943         estimate D2E/DX2                !
 ! R6    R(3,4)                  1.0933         estimate D2E/DX2                !
 ! R7    R(3,5)                  1.0943         estimate D2E/DX2                !
 ! R8    R(3,6)                  1.0943         estimate D2E/DX2                !
 ! A1    A(2,1,3)              111.5469         estimate D2E/DX2                !
 ! A2    A(1,2,7)              108.3782         estimate D2E/DX2                !
 ! A3    A(1,2,8)              110.4914         estimate D2E/DX2                !
 ! A4    A(1,2,9)              110.4914         estimate D2E/DX2                !
 ! A5    A(7,2,8)              108.6336         estimate D2E/DX2                !
 ! A6    A(7,2,9)              108.6336         estimate D2E/DX2                !
 ! A7    A(8,2,9)              110.1516         estimate D2E/DX2                !
 ! A8    A(1,3,4)              108.3782         estimate D2E/DX2                !
 ! A9    A(1,3,5)              110.4914         estimate D2E/DX2                !
 ! A10   A(1,3,6)              110.4914         estimate D2E/DX2                !
 ! A11   A(4,3,5)              108.6336         estimate D2E/DX2                !
 ! A12   A(4,3,6)              108.6336         estimate D2E/DX2                !
 ! A13   A(5,3,6)              110.1516         estimate D2E/DX2                !
 ! D1    D(3,1,2,7)           -180.0            estimate D2E/DX2                !
 ! D2    D(3,1,2,8)             61.0799         estimate D2E/DX2                !
 ! D3    D(3,1,2,9)            -61.0798         estimate D2E/DX2                !
 ! D4    D(2,1,3,4)           -180.0            estimate D2E/DX2                !
 ! D5    D(2,1,3,5)             61.0799         estimate D2E/DX2                !
 ! D6    D(2,1,3,6)            -61.0798         estimate D2E/DX2                !
 --------------------------------------------------------------------------------
 Trust Radius=3.00D-01 FncErr=1.00D-07 GrdErr=1.00D-07 EigMax=2.50D+02 EigMin=1.00D-04
 Number of steps in this run=     37 maximum allowed number of steps=    100.
 GradGradGradGradGradGradGradGradGradGradGradGradGradGradGradGradGradGrad

                          Input orientation:                          
 ---------------------------------------------------------------------
 Center     Atomic      Atomic             Coordinates (Angstroms)
 Number     Number       Type             X           Y           Z
 ---------------------------------------------------------------------
      1          8           0       -0.696648    1.720022    0.164194
      2          6           0        0.724280    1.725513    0.189345
      3          6           0       -1.194557    1.436119   -1.136263
      4          1           0       -2.287094    1.444789   -1.096549
      5          1           0       -0.864477    0.445954   -1.465118
      6          1           0       -0.864477    2.199142   -1.847857
      7          1           0        1.050131    1.948100    1.208935
      8          1           0        1.116280    2.497876   -0.479473
      9          1           0        1.116280    0.744688   -0.096735
 ---------------------------------------------------------------------
                    Distance matrix (angstroms):
                    1          2          3          4          5
     1  O    0.000000
     2  C    1.421162   0.000000
     3  C    1.421162   2.350090   0.000000
     4  H    2.048107   3.286442   1.093292   0.000000
     5  H    2.075107   2.626532   1.094315   1.776893   0.000000
     6  H    2.075108   2.626531   1.094315   1.776893   1.794480
     7  H    2.048107   1.093292   3.286442   4.087254   3.615622
     8  H    2.075107   1.094315   2.626532   3.615622   3.017495
     9  H    2.075108   1.094315   2.626531   3.615622   2.425925
                    6          7          8          9
     6  H    0.000000
     7  H    3.615622   0.000000
     8  H    2.425925   1.776893   0.000000
     9  H    3.017493   1.776893   1.794480   0.000000
 Stoichiometry    C2H6O
 Framework group  C2V[C2(O),SGV(C2H2),X(H4)]
 Deg. of freedom     7
 Full point group                 C2V     NOp   4
 Largest Abelian subgroup         C2V     NOp   4
 Largest concise Abelian subgroup C2V     NOp   4
                         Standard orientation:                         
 ---------------------------------------------------------------------
 Center     Atomic      Atomic             Coordinates (Angstroms)
 Number     Number       Type             X           Y           Z
 ---------------------------------------------------------------------
      1          8           0        0.000000    0.000000    0.598532
      2          6           0        0.000000    1.175045   -0.200824
      3          6           0       -0.000000   -1.175045   -0.200824
      4          1           0       -0.000000   -2.043627    0.463143
      5          1           0        0.897240   -1.212963   -0.826162
      6          1           0       -0.897240   -1.212963   -0.826162
      7          1           0        0.000000    2.043627    0.463143
      8          1           0       -0.897240    1.212963   -0.826162
      9          1           0        0.897240    1.212963   -0.826162
 ---------------------------------------------------------------------
 Rotational constants (GHZ):          38.8556407           9.9616922           8.8278721
 Standard basis: Aug-CC-pVDZ (5D, 7F)
 There are    47 symmetry adapted cartesian basis functions of A1  symmetry.
 There are    20 symmetry adapted cartesian basis functions of A2  symmetry.
 There are    23 symmetry adapted cartesian basis functions of B1  symmetry.
 There are    39 symmetry adapted cartesian basis functions of B2  symmetry.
 There are    43 symmetry adapted basis functions of A1  symmetry.
 There are    20 symmetry adapted basis functions of A2  symmetry.
 There are    23 symmetry adapted basis functions of B1  symmetry.
 There are    37 symmetry adapted basis functions of B2  symmetry.
   123 basis functions,   195 primitive gaussians,   129 cartesian basis functions
    13 alpha electrons       13 beta electrons
       nuclear repulsion energy        83.6111654038 Hartrees.
 NAtoms=    9 NActive=    9 NUniq=    4 SFac= 4.00D+00 NAtFMM=   60 NAOKFM=F Big=F
 Integral buffers will be    131072 words long.
 Raffenetti 1 integral format.
 Two-electron integral symmetry is turned on.
 One-electron integrals computed using PRISM.
 NBasis=   123 RedAO= T EigKep=  2.50D-04  NBF=    43    20    23    37
 NBsUse=   123 1.00D-06 EigRej= -1.00D+00 NBFU=    43    20    23    37
 ExpMin= 2.97D-02 ExpMax= 1.17D+04 ExpMxC= 4.01D+02 IAcc=3 IRadAn=         5 AccDes= 0.00D+00
 Harris functional with IExCor=  205 and IRadAn=       5 diagonalized for initial guess.
 HarFok:  IExCor=  205 AccDes= 0.00D+00 IRadAn=         5 IDoV= 1 UseB2=F ITyADJ=14
 ICtDFT=  3500011 ScaDFX=  1.000000  1.000000  1.000000  1.000000
 FoFCou: FMM=F IPFlag=           0 FMFlag=      100000 FMFlg1=           0
         NFxFlg=           0 DoJE=T BraDBF=F KetDBF=T FulRan=T
         wScrn=  0.000000 ICntrl=       500 IOpCl=  0 I1Cent=   200000004 NGrid=           0
         NMat0=    1 NMatS0=      1 NMatT0=    0 NMatD0=    1 NMtDS0=    0 NMtDT0=    0
 Petite list used in FoFCou.
 Initial guess orbital symmetries:
       Occupied  (A1) (B2) (A1) (A1) (B2) (A1) (B2) (A1) (B1) (A2)
                 (B2) (A1) (B1)
       Virtual   (A1) (A1) (B2) (B1) (A1) (B2) (A2) (A1) (B1) (B2)
                 (A1) (A2) (B2) (A1) (B1) (A1) (B2) (A2) (B2) (A1)
                 (B2) (B1) (B2) (A1) (A1) (B1) (B2) (A1) (B1) (A1)
                 (A2) (B2) (B1) (A2) (A1) (A1) (B2) (B1) (A2) (B2)
                 (A2) (A1) (B2) (B1) (B2) (A1) (A1) (B2) (A1) (A2)
                 (B1) (B2) (A2) (B2) (A1) (B1) (A1) (B2) (A2) (B2)
                 (A1) (B1) (A1) (B2) (A2) (A1) (B1) (B2) (A1) (A2)
                 (B2) (A1) (B1) (B2) (A2) (B1) (A1) (B1) (A1) (A2)
                 (B2) (B1) (A1) (B2) (B1) (A1) (A2) (A1) (B2) (A2)
                 (B2) (A1) (B2) (A2) (B2) (B2) (B1) (A1) (A1) (B1)
                 (B2) (A2) (A1) (B2) (A1) (A1) (B1) (A2) (A1) (B2)
 The electronic state of the initial guess is 1-A1.
 Keep R1 ints in memory in symmetry-blocked form, NReq=36445975.
 Requested convergence on RMS density matrix=1.00D-08 within 128 cycles.
 Requested convergence on MAX density matrix=1.00D-06.
 Requested convergence on             energy=1.00D-06.
 No special actions if energy rises.
 SCF Done:  E(RHF) =  -154.085979626     A.U. after   11 cycles
            NFock= 11  Conv=0.26D-08     -V/T= 2.0018
 ExpMin= 2.97D-02 ExpMax= 1.17D+04 ExpMxC= 4.01D+02 IAcc=3 IRadAn=         5 AccDes= 0.00D+00
 HarFok:  IExCor=  205 AccDes= 0.00D+00 IRadAn=         5 IDoV=-2 UseB2=F ITyADJ=14
 ICtDFT= 12500011 ScaDFX=  1.000000  1.000000  1.000000  1.000000
 Range of M.O.s used for correlation:     4   123
 NBasis=   123 NAE=    13 NBE=    13 NFC=     3 NFV=     0
 NROrb=    120 NOA=    10 NOB=    10 NVA=   110 NVB=   110

 **** Warning!!: The largest alpha MO coefficient is  0.17270292D+02

 Fully direct method using O(ONN) memory.
 JobTyp=1 Pass  1:  I=   4 to  13 NPSUse= 28 ParTrn=T ParDer=T DoDerP=T.
 Spin components of T(2) and E(2):
     alpha-alpha T2 =       0.1864316794D-01 E2=     -0.5909831678D-01
     alpha-beta  T2 =       0.1182877044D+00 E2=     -0.3867365300D+00
     beta-beta   T2 =       0.1864316794D-01 E2=     -0.5909831678D-01
 ANorm=    0.1074976298D+01
 E2 =    -0.5049331635D+00 EUMP2 =    -0.15459091278909D+03
          IDoAtm=111111111
          Differentiating once with respect to electric field.
                with respect to dipole field.
          Differentiating once with respect to nuclear coordinates.
 Keep R1 ints in memory in symmetry-blocked form, NReq=36447256.
          There are     1 degrees of freedom in the 1st order CPHF.  IDoFFX=0 NUNeed=     1.
 LinEq1:  Iter=  0 NonCon=     1 RMS=4.30D-03 Max=5.14D-02 NDo=     1
 AX will form     1 AO Fock derivatives at one time.
 LinEq1:  Iter=  1 NonCon=     1 RMS=1.08D-03 Max=1.19D-02 NDo=     1
 LinEq1:  Iter=  2 NonCon=     1 RMS=3.04D-04 Max=2.59D-03 NDo=     1
 LinEq1:  Iter=  3 NonCon=     1 RMS=8.17D-05 Max=5.73D-04 NDo=     1
 LinEq1:  Iter=  4 NonCon=     1 RMS=2.59D-05 Max=2.82D-04 NDo=     1
 LinEq1:  Iter=  5 NonCon=     1 RMS=4.04D-06 Max=3.61D-05 NDo=     1
 LinEq1:  Iter=  6 NonCon=     1 RMS=6.67D-07 Max=5.51D-06 NDo=     1
 LinEq1:  Iter=  7 NonCon=     1 RMS=1.22D-07 Max=1.48D-06 NDo=     1
 LinEq1:  Iter=  8 NonCon=     1 RMS=2.38D-08 Max=2.48D-07 NDo=     1
 LinEq1:  Iter=  9 NonCon=     1 RMS=3.90D-09 Max=4.98D-08 NDo=     1
 LinEq1:  Iter= 10 NonCon=     1 RMS=4.06D-10 Max=2.53D-09 NDo=     1
 LinEq1:  Iter= 11 NonCon=     0 RMS=4.47D-11 Max=3.61D-10 NDo=     1
 Linear equations converged to 1.000D-10 1.000D-09 after    11 iterations.
 End of Minotr F.D. properties file   721 does not exist.
 End of Minotr F.D. properties file   722 does not exist.
 End of Minotr F.D. properties file   788 does not exist.

 **********************************************************************

            Population analysis using the SCF density.

 **********************************************************************

 Orbital symmetries:
       Occupied  (A1) (B2) (A1) (A1) (B2) (A1) (B1) (A1) (B2) (A2)
                 (B2) (A1) (B1)
       Virtual   (A1) (B2) (B1) (A1) (B2) (A2) (A1) (B1) (B2) (A1)
                 (A1) (B2) (A2) (B2) (A1) (B1) (A1) (B1) (A1) (B2)
                 (A2) (B2) (B2) (A1) (B1) (A1) (A2) (B2) (B1) (A1)
                 (B2) (A1) (B1) (A2) (A1) (A1) (A2) (B2) (B2) (B1)
                 (A1) (A2) (A1) (B2) (B1) (B2) (A1) (B2) (A2) (B1)
                 (A1) (B2) (B2) (A2) (B1) (A1) (A1) (A2) (B2) (B2)
                 (A1) (B1) (B2) (A1) (A2) (A1) (B1) (B2) (A1) (A2)
                 (B2) (A1) (B1) (A2) (B2) (B1) (A1) (B1) (A2) (A1)
                 (B2) (B2) (B1) (A1) (A2) (B1) (A1) (A1) (B2) (B2)
                 (A2) (A1) (B2) (A2) (B2) (B2) (B1) (A1) (A1) (B2)
                 (B1) (A2) (A1) (B2) (A1) (A1) (B1) (A2) (A1) (B2)
 The electronic state is 1-A1.
 Alpha  occ. eigenvalues --  -20.56450 -11.27744 -11.27742  -1.36926  -0.96762
 Alpha  occ. eigenvalues --   -0.87602  -0.65830  -0.64626  -0.63298  -0.55370
 Alpha  occ. eigenvalues --   -0.52569  -0.47851  -0.42438
 Alpha virt. eigenvalues --    0.03647   0.04848   0.05623   0.05918   0.07481
 Alpha virt. eigenvalues --    0.07957   0.10314   0.14221   0.14459   0.15608
 Alpha virt. eigenvalues --    0.17131   0.17640   0.17841   0.20567   0.22322
 Alpha virt. eigenvalues --    0.26403   0.27725   0.29887   0.30051   0.31150
 Alpha virt. eigenvalues --    0.31896   0.35931   0.38835   0.38946   0.40413
 Alpha virt. eigenvalues --    0.41439   0.44051   0.44366   0.45549   0.45757
 Alpha virt. eigenvalues --    0.48651   0.50240   0.50650   0.52399   0.54486
 Alpha virt. eigenvalues --    0.59351   0.59377   0.61418   0.62190   0.62933
 Alpha virt. eigenvalues --    0.63361   0.63442   0.64585   0.64636   0.65728
 Alpha virt. eigenvalues --    0.68983   0.70740   0.71532   0.75478   0.77121
 Alpha virt. eigenvalues --    0.78268   0.81513   0.85945   0.88735   1.00458
 Alpha virt. eigenvalues --    1.00756   1.04110   1.07651   1.08627   1.10053
 Alpha virt. eigenvalues --    1.16089   1.23040   1.25545   1.26807   1.35833
 Alpha virt. eigenvalues --    1.39555   1.43036   1.55110   1.58708   1.62280
 Alpha virt. eigenvalues --    1.69685   1.77394   1.78418   1.78743   1.79062
 Alpha virt. eigenvalues --    1.84164   1.87072   1.91100   1.93526   1.96012
 Alpha virt. eigenvalues --    2.08857   2.13547   2.15342   2.17299   2.20124
 Alpha virt. eigenvalues --    2.21201   2.22572   2.25325   2.27332   2.35701
 Alpha virt. eigenvalues --    2.36381   2.43718   2.52373   2.58328   2.63985
 Alpha virt. eigenvalues --    2.71576   2.72804   2.77119   2.82777   2.90362
 Alpha virt. eigenvalues --    2.90525   2.97328   3.03509   3.12512   3.26610
 Alpha virt. eigenvalues --    3.79188   3.79978   3.93254   4.04314   4.05603
          Condensed to atoms (all electrons):
               1          2          3          4          5          6
     1  O    8.859211   0.083582   0.083582  -0.101340   0.004561   0.004561
     2  C    0.083582   3.964967  -0.018463  -0.018850   0.011971   0.011971
     3  C    0.083582  -0.018463   3.964967   0.494218   0.350122   0.350122
     4  H   -0.101340  -0.018850   0.494218   1.212910  -0.180231  -0.180231
     5  H    0.004561   0.011971   0.350122  -0.180231   0.954730  -0.065449
     6  H    0.004561   0.011971   0.350122  -0.180231  -0.065449   0.954730
     7  H   -0.101340   0.494218  -0.018850  -0.007225   0.006427   0.006427
     8  H    0.004561   0.350122   0.011971   0.006427  -0.002985  -0.020504
     9  H    0.004561   0.350122   0.011971   0.006427  -0.020504  -0.002985
               7          8          9
     1  O   -0.101340   0.004561   0.004561
     2  C    0.494218   0.350122   0.350122
     3  C   -0.018850   0.011971   0.011971
     4  H   -0.007225   0.006427   0.006427
     5  H    0.006427  -0.002985  -0.020504
     6  H    0.006427  -0.020504  -0.002985
     7  H    1.212910  -0.180231  -0.180231
     8  H   -0.180231   0.954730  -0.065449
     9  H   -0.180231  -0.065449   0.954730
 Mulliken charges:
               1
     1  O   -0.841943
     2  C    0.770361
     3  C    0.770361
     4  H   -0.232105
     5  H   -0.058642
     6  H   -0.058642
     7  H   -0.232105
     8  H   -0.058642
     9  H   -0.058642
 Sum of Mulliken charges =   0.00000
 Mulliken charges with hydrogens summed into heavy atoms:
               1
     1  O   -0.841943
     2  C    0.420971
     3  C    0.420971
 Electronic spatial extent (au):  <R**2>=            188.5180
 Charge=              0.0000 electrons
 Dipole moment (field-independent basis, Debye):
    X=             -0.0000    Y=              0.0000    Z=             -1.5065  Tot=              1.5065
 Quadrupole moment (field-independent basis, Debye-Ang):
   XX=            -20.0647   YY=            -17.2504   ZZ=            -21.5457
   XY=              0.0000   XZ=             -0.0000   YZ=              0.0000
 Traceless Quadrupole moment (field-independent basis, Debye-Ang):
   XX=             -0.4445   YY=              2.3698   ZZ=             -1.9254
   XY=              0.0000   XZ=             -0.0000   YZ=              0.0000
 Octapole moment (field-independent basis, Debye-Ang**2):
  XXX=             -0.0000  YYY=             -0.0000  ZZZ=              1.5115  XYY=             -0.0000
  XXY=             -0.0000  XXZ=             -0.6571  XZZ=             -0.0000  YZZ=             -0.0000
  YYZ=              2.6287  XYZ=              0.0000
 Hexadecapole moment (field-independent basis, Debye-Ang**3):
 XXXX=            -33.6109 YYYY=           -162.0831 ZZZZ=            -51.9215 XXXY=             -0.0000
 XXXZ=             -0.0000 YYYX=             -0.0000 YYYZ=             -0.0000 ZZZX=             -0.0000
 ZZZY=             -0.0000 XXYY=            -34.6960 XXZZ=            -13.4037 YYZZ=            -34.7186
 XXYZ=              0.0000 YYXZ=             -0.0000 ZZXY=             -0.0000
 N-N= 8.361116540381D+01 E-N=-5.287037942471D+02  KE= 1.538136562261D+02
 Symmetry A1   KE= 1.046920624675D+02
 Symmetry A2   KE= 2.044095258740D+00
 Symmetry B1   KE= 6.465406272939D+00
 Symmetry B2   KE= 4.061209222688D+01
 Calling FoFJK, ICntrl=  10002127 FMM=F ISym2X=1 I1Cent= 0 IOpClX= 0 NMat=1 NMatS=1 NMatT=0.
 ***** Axes restored to original set *****
 -------------------------------------------------------------------
 Center     Atomic                   Forces (Hartrees/Bohr)
 Number     Number              X              Y              Z
 -------------------------------------------------------------------
      1        8          -0.005185414    0.001564085    0.007164512
      2        6          -0.005166534    0.000289210    0.001324774
      3        6           0.000443732    0.001135337    0.005200563
      4        1          -0.003201290    0.000646108    0.002959588
      5        1           0.003221932   -0.006282205   -0.004383798
      6        1           0.003221929    0.003883652   -0.006603110
      7        1          -0.001788964    0.000859111    0.003935278
      8        1           0.004227302    0.004035280   -0.005908559
      9        1           0.004227305   -0.006130577   -0.003689247
 -------------------------------------------------------------------
 Cartesian Forces:  Max     0.007164512 RMS     0.004095331

 GradGradGradGradGradGradGradGradGradGradGradGradGradGradGradGradGradGrad
 Berny optimization.
 FormGI is forming the generalized inverse of G from B-inverse, IUseBI=4.
 Internal  Forces:  Max     0.007973527 RMS     0.003822780
 Search for a local minimum.
 Step number   1 out of a maximum of   37
 All quantities printed in internal units (Hartrees-Bohrs-Radians)
 Mixed Optimization -- RFO/linear search
 Second derivative matrix not updated -- first step.
 ITU=  0
     Eigenvalues ---    0.01412   0.01412   0.10173   0.10173   0.10479
     Eigenvalues ---    0.10479   0.16000   0.16000   0.16000   0.16000
     Eigenvalues ---    0.16000   0.16000   0.25000   0.34319   0.34319
     Eigenvalues ---    0.34319   0.34319   0.34435   0.34435   0.42286
     Eigenvalues ---    0.42286
 RFO step:  Lambda=-1.45481431D-03 EMin= 1.41184778D-02
 Linear search not attempted -- first point.
 Iteration  1 RMS(Cart)=  0.01743263 RMS(Int)=  0.00013027
 Iteration  2 RMS(Cart)=  0.00014642 RMS(Int)=  0.00004776
 Iteration  3 RMS(Cart)=  0.00000001 RMS(Int)=  0.00004776
 ClnCor:  largest displacement from symmetrization is 7.83D-09 for atom     9.
 Variable       Old X    -DE/DX   Delta X   Delta X   Delta X     New X
                                 (Linear)    (Quad)   (Total)
    R1        2.68561   0.00142   0.00000   0.00334   0.00334   2.68895
    R2        2.68561   0.00142   0.00000   0.00334   0.00334   2.68895
    R3        2.06602   0.00331   0.00000   0.00958   0.00958   2.07560
    R4        2.06795   0.00797   0.00000   0.02314   0.02314   2.09109
    R5        2.06795   0.00797   0.00000   0.02314   0.02314   2.09109
    R6        2.06602   0.00331   0.00000   0.00958   0.00958   2.07560
    R7        2.06795   0.00797   0.00000   0.02314   0.02314   2.09109
    R8        2.06795   0.00797   0.00000   0.02314   0.02314   2.09109
    A1        1.94686  -0.00546   0.00000  -0.02170  -0.02170   1.92516
    A2        1.89156  -0.00457   0.00000  -0.02776  -0.02768   1.86387
    A3        1.92844   0.00220   0.00000   0.01333   0.01335   1.94179
    A4        1.92844   0.00220   0.00000   0.01333   0.01335   1.94179
    A5        1.89601   0.00143   0.00000   0.00943   0.00950   1.90552
    A6        1.89601   0.00143   0.00000   0.00943   0.00950   1.90552
    A7        1.92251  -0.00274   0.00000  -0.01798  -0.01800   1.90451
    A8        1.89156  -0.00457   0.00000  -0.02776  -0.02768   1.86387
    A9        1.92844   0.00220   0.00000   0.01333   0.01335   1.94179
   A10        1.92844   0.00220   0.00000   0.01333   0.01335   1.94179
   A11        1.89601   0.00143   0.00000   0.00943   0.00950   1.90552
   A12        1.89601   0.00143   0.00000   0.00943   0.00950   1.90552
   A13        1.92251  -0.00274   0.00000  -0.01798  -0.01800   1.90451
    D1        3.14159   0.00000   0.00000   0.00000   0.00000   3.14159
    D2        1.06605  -0.00024   0.00000  -0.00235  -0.00227   1.06378
    D3       -1.06605   0.00024   0.00000   0.00235   0.00227  -1.06378
    D4        3.14159  -0.00000   0.00000  -0.00000   0.00000   3.14159
    D5        1.06605  -0.00024   0.00000  -0.00235  -0.00227   1.06378
    D6       -1.06605   0.00024   0.00000   0.00235   0.00227  -1.06378
         Item               Value     Threshold  Converged?
 Maximum Force            0.007974     0.000450     NO 
 RMS     Force            0.003823     0.000300     NO 
 Maximum Displacement     0.043954     0.001800     NO 
 RMS     Displacement     0.017472     0.001200     NO 
 Predicted change in Energy=-7.317261D-04
 GradGradGradGradGradGradGradGradGradGradGradGradGradGradGradGradGradGrad

                          Input orientation:                          
 ---------------------------------------------------------------------
 Center     Atomic      Atomic             Coordinates (Angstroms)
 Number     Number       Type             X           Y           Z
 ---------------------------------------------------------------------
      1          8           0       -0.705228    1.722610    0.176047
      2          6           0        0.717666    1.724816    0.186149
      3          6           0       -1.189269    1.437217   -1.131235
      4          1           0       -2.286026    1.449866   -1.073290
      5          1           0       -0.854840    0.439628   -1.473936
      6          1           0       -0.854840    2.201218   -1.858509
      7          1           0        1.027329    1.949578    1.215705
      8          1           0        1.122462    2.499430   -0.492512
      9          1           0        1.122462    0.737840   -0.107939
 ---------------------------------------------------------------------
                    Distance matrix (angstroms):
                    1          2          3          4          5
     1  O    0.000000
     2  C    1.422931   0.000000
     3  C    1.422931   2.335511   0.000000
     4  H    2.033263   3.268631   1.098360   0.000000
     5  H    2.095441   2.623045   1.106557   1.797051   0.000000
     6  H    2.095441   2.623045   1.106557   1.797051   1.803080
     7  H    2.033263   1.098360   3.268631   4.058021   3.613403
     8  H    2.095441   1.106557   2.623045   3.613403   3.019222
     9  H    2.095441   1.106557   2.623045   3.613403   2.421694
                    6          7          8          9
     6  H    0.000000
     7  H    3.613403   0.000000
     8  H    2.421694   1.797051   0.000000
     9  H    3.019222   1.797051   1.803080   0.000000
 Stoichiometry    C2H6O
 Framework group  C2V[C2(O),SGV(C2H2),X(H4)]
 Deg. of freedom     7
 Full point group                 C2V     NOp   4
 Largest Abelian subgroup         C2V     NOp   4
 Largest concise Abelian subgroup C2V     NOp   4
                         Standard orientation:                         
 ---------------------------------------------------------------------
 Center     Atomic      Atomic             Coordinates (Angstroms)
 Number     Number       Type             X           Y           Z
 ---------------------------------------------------------------------
      1          8           0       -0.000000   -0.000000    0.608949
      2          6           0       -0.000000    1.167756   -0.204118
      3          6           0       -0.000000   -1.167756   -0.204118
      4          1           0        0.000000   -2.029010    0.477523
      5          1           0        0.901540   -1.210847   -0.844305
      6          1           0       -0.901540   -1.210847   -0.844305
      7          1           0        0.000000    2.029010    0.477523
      8          1           0       -0.901540    1.210847   -0.844305
      9          1           0        0.901540    1.210847   -0.844305
 ---------------------------------------------------------------------
 Rotational constants (GHZ):          37.6700872          10.0647228           8.8545296
 Standard basis: Aug-CC-pVDZ (5D, 7F)
 There are    47 symmetry adapted cartesian basis functions of A1  symmetry.
 There are    20 symmetry adapted cartesian basis functions of A2  symmetry.
 There are    23 symmetry adapted cartesian basis functions of B1  symmetry.
 There are    39 symmetry adapted cartesian basis functions of B2  symmetry.
 There are    43 symmetry adapted basis functions of A1  symmetry.
 There are    20 symmetry adapted basis functions of A2  symmetry.
 There are    23 symmetry adapted basis functions of B1  symmetry.
 There are    37 symmetry adapted basis functions of B2  symmetry.
   123 basis functions,   195 primitive gaussians,   129 cartesian basis functions
    13 alpha electrons       13 beta electrons
       nuclear repulsion energy        83.4157543115 Hartrees.
 NAtoms=    9 NActive=    9 NUniq=    4 SFac= 4.00D+00 NAtFMM=   60 NAOKFM=F Big=F
 Integral buffers will be    131072 words long.
 Raffenetti 1 integral format.
 Two-electron integral symmetry is turned on.
 One-electron integrals computed using PRISM.
 NBasis=   123 RedAO= T EigKep=  2.58D-04  NBF=    43    20    23    37
 NBsUse=   123 1.00D-06 EigRej= -1.00D+00 NBFU=    43    20    23    37
 Initial guess from the checkpoint file:  "meome.chk"
 B after Tr=    -0.000000   -0.000000   -0.000000
         Rot=    1.000000   -0.000000    0.000000   -0.000000 Ang=   0.00 deg.
 Initial guess orbital symmetries:
       Occupied  (A1) (B2) (A1) (A1) (B2) (A1) (B1) (A1) (B2) (A2)
                 (B2) (A1) (B1)
       Virtual   (A1) (B2) (B1) (A1) (B2) (A2) (A1) (B1) (B2) (A1)
                 (A1) (B2) (A2) (B2) (A1) (B1) (A1) (B1) (A1) (B2)
                 (A2) (B2) (B2) (A1) (B1) (A1) (A2) (B2) (B1) (A1)
                 (B2) (A1) (B1) (A2) (A1) (A1) (A2) (B2) (B2) (B1)
                 (A1) (A2) (A1) (B2) (B1) (B2) (A1) (B2) (A2) (B1)
                 (A1) (B2) (B2) (A2) (B1) (A1) (A1) (A2) (B2) (B2)
                 (A1) (B1) (B2) (A1) (A2) (A1) (B1) (B2) (A1) (A2)
                 (B2) (A1) (B1) (A2) (B2) (B1) (A1) (B1) (A2) (A1)
                 (B2) (B2) (B1) (A1) (A2) (B1) (A1) (A1) (B2) (B2)
                 (A2) (A1) (B2) (A2) (B2) (B2) (B1) (A1) (A1) (B2)
                 (B1) (A2) (A1) (B2) (A1) (A1) (B1) (A2) (A1) (B2)
 ExpMin= 2.97D-02 ExpMax= 1.17D+04 ExpMxC= 4.01D+02 IAcc=3 IRadAn=         5 AccDes= 0.00D+00
 Harris functional with IExCor=  205 and IRadAn=       5 diagonalized for initial guess.
 HarFok:  IExCor=  205 AccDes= 0.00D+00 IRadAn=         5 IDoV= 1 UseB2=F ITyADJ=14
 ICtDFT=  3500011 ScaDFX=  1.000000  1.000000  1.000000  1.000000
 FoFCou: FMM=F IPFlag=           0 FMFlag=      100000 FMFlg1=           0
         NFxFlg=           0 DoJE=T BraDBF=F KetDBF=T FulRan=T
         wScrn=  0.000000 ICntrl=       500 IOpCl=  0 I1Cent=   200000004 NGrid=           0
         NMat0=    1 NMatS0=      1 NMatT0=    0 NMatD0=    1 NMtDS0=    0 NMtDT0=    0
 Petite list used in FoFCou.
 Keep R1 ints in memory in symmetry-blocked form, NReq=36445975.
 Requested convergence on RMS density matrix=1.00D-08 within 128 cycles.
 Requested convergence on MAX density matrix=1.00D-06.
 Requested convergence on             energy=1.00D-06.
 No special actions if energy rises.
 SCF Done:  E(RHF) =  -154.085151274     A.U. after    9 cycles
            NFock=  9  Conv=0.79D-08     -V/T= 2.0023
 ExpMin= 2.97D-02 ExpMax= 1.17D+04 ExpMxC= 4.01D+02 IAcc=3 IRadAn=         5 AccDes= 0.00D+00
 HarFok:  IExCor=  205 AccDes= 0.00D+00 IRadAn=         5 IDoV=-2 UseB2=F ITyADJ=14
 ICtDFT= 12500011 ScaDFX=  1.000000  1.000000  1.000000  1.000000
 Range of M.O.s used for correlation:     4   123
 NBasis=   123 NAE=    13 NBE=    13 NFC=     3 NFV=     0
 NROrb=    120 NOA=    10 NOB=    10 NVA=   110 NVB=   110

 **** Warning!!: The largest alpha MO coefficient is  0.16621037D+02

 Fully direct method using O(ONN) memory.
 JobTyp=1 Pass  1:  I=   4 to  13 NPSUse= 28 ParTrn=T ParDer=T DoDerP=T.
 Spin components of T(2) and E(2):
     alpha-alpha T2 =       0.1878271812D-01 E2=     -0.5923684328D-01
     alpha-beta  T2 =       0.1194296125D+00 E2=     -0.3879481368D+00
     beta-beta   T2 =       0.1878271812D-01 E2=     -0.5923684328D-01
 ANorm=    0.1075637043D+01
 E2 =    -0.5064218234D+00 EUMP2 =    -0.15459157309732D+03
          IDoAtm=111111111
          Differentiating once with respect to electric field.
                with respect to dipole field.
          Differentiating once with respect to nuclear coordinates.
 Keep R1 ints in memory in symmetry-blocked form, NReq=36447256.
          There are     1 degrees of freedom in the 1st order CPHF.  IDoFFX=0 NUNeed=     1.
 LinEq1:  Iter=  0 NonCon=     1 RMS=4.34D-03 Max=5.28D-02 NDo=     1
 AX will form     1 AO Fock derivatives at one time.
 LinEq1:  Iter=  1 NonCon=     1 RMS=1.10D-03 Max=1.14D-02 NDo=     1
 LinEq1:  Iter=  2 NonCon=     1 RMS=3.12D-04 Max=2.82D-03 NDo=     1
 LinEq1:  Iter=  3 NonCon=     1 RMS=8.57D-05 Max=6.00D-04 NDo=     1
 LinEq1:  Iter=  4 NonCon=     1 RMS=2.74D-05 Max=3.04D-04 NDo=     1
 LinEq1:  Iter=  5 NonCon=     1 RMS=4.28D-06 Max=3.83D-05 NDo=     1
 LinEq1:  Iter=  6 NonCon=     1 RMS=6.99D-07 Max=5.52D-06 NDo=     1
 LinEq1:  Iter=  7 NonCon=     1 RMS=1.26D-07 Max=1.50D-06 NDo=     1
 LinEq1:  Iter=  8 NonCon=     1 RMS=2.47D-08 Max=2.51D-07 NDo=     1
 LinEq1:  Iter=  9 NonCon=     1 RMS=4.08D-09 Max=5.27D-08 NDo=     1
 LinEq1:  Iter= 10 NonCon=     1 RMS=4.25D-10 Max=2.79D-09 NDo=     1
 LinEq1:  Iter= 11 NonCon=     0 RMS=4.70D-11 Max=3.58D-10 NDo=     1
 Linear equations converged to 1.000D-10 1.000D-09 after    11 iterations.
 End of Minotr F.D. properties file   721 does not exist.
 End of Minotr F.D. properties file   722 does not exist.
 End of Minotr F.D. properties file   788 does not exist.
 Calling FoFJK, ICntrl=  10002127 FMM=F ISym2X=1 I1Cent= 0 IOpClX= 0 NMat=1 NMatS=1 NMatT=0.
 ***** Axes restored to original set *****
 -------------------------------------------------------------------
 Center     Atomic                   Forces (Hartrees/Bohr)
 Number     Number              X              Y              Z
 -------------------------------------------------------------------
      1        8           0.000884085   -0.000266668   -0.001221511
      2        6           0.000774615    0.000616450    0.002823732
      3        6          -0.002983148    0.000049714    0.000227724
      4        1           0.000052579   -0.000128334   -0.000587853
      5        1           0.000528529    0.000362571   -0.000088597
      6        1           0.000528529   -0.000366507    0.000070568
      7        1           0.000549761   -0.000053351   -0.000244381
      8        1          -0.000167475   -0.000471476   -0.000410259
      9        1          -0.000167475    0.000257601   -0.000569424
 -------------------------------------------------------------------
 Cartesian Forces:  Max     0.002983148 RMS     0.000916030

 GradGradGradGradGradGradGradGradGradGradGradGradGradGradGradGradGradGrad
 Berny optimization.
 Using GEDIIS/GDIIS optimizer.
 FormGI is forming the generalized inverse of G from B-inverse, IUseBI=4.
 Internal  Forces:  Max     0.002059949 RMS     0.000709960
 Search for a local minimum.
 Step number   2 out of a maximum of   37
 All quantities printed in internal units (Hartrees-Bohrs-Radians)
 Mixed Optimization -- En-DIIS/RFO-DIIS
 Update second derivatives using D2CorX and points    1    2
 DE= -6.60D-04 DEPred=-7.32D-04 R= 9.02D-01
 TightC=F SS=  1.41D+00  RLast= 7.81D-02 DXNew= 5.0454D-01 2.3417D-01
 Trust test= 9.02D-01 RLast= 7.81D-02 DXMaxT set to 3.00D-01
 ITU=  1  0
 Use linear search instead of GDIIS.
     Eigenvalues ---    0.01412   0.01412   0.09697   0.10075   0.10565
     Eigenvalues ---    0.10565   0.15964   0.16000   0.16000   0.16000
     Eigenvalues ---    0.16000   0.17394   0.26310   0.34006   0.34319
     Eigenvalues ---    0.34319   0.34319   0.34435   0.34438   0.42286
     Eigenvalues ---    0.42442
 RFO step:  Lambda=-6.24806009D-05 EMin= 1.41184778D-02
 Quartic linear search produced a step of -0.08041.
 Iteration  1 RMS(Cart)=  0.00465770 RMS(Int)=  0.00001799
 Iteration  2 RMS(Cart)=  0.00001490 RMS(Int)=  0.00001190
 Iteration  3 RMS(Cart)=  0.00000000 RMS(Int)=  0.00001190
 ClnCor:  largest displacement from symmetrization is 1.15D-08 for atom     9.
 Variable       Old X    -DE/DX   Delta X   Delta X   Delta X     New X
                                 (Linear)    (Quad)   (Total)
    R1        2.68895   0.00100  -0.00027   0.00259   0.00232   2.69127
    R2        2.68895   0.00100  -0.00027   0.00259   0.00232   2.69127
    R3        2.07560  -0.00008  -0.00077   0.00095   0.00018   2.07578
    R4        2.09109  -0.00014  -0.00186   0.00247   0.00061   2.09170
    R5        2.09109  -0.00014  -0.00186   0.00247   0.00061   2.09170
    R6        2.07560  -0.00008  -0.00077   0.00095   0.00018   2.07578
    R7        2.09109  -0.00014  -0.00186   0.00247   0.00061   2.09170
    R8        2.09109  -0.00014  -0.00186   0.00247   0.00061   2.09170
    A1        1.92516   0.00206   0.00174   0.00491   0.00666   1.93182
    A2        1.86387   0.00136   0.00223   0.00598   0.00819   1.87207
    A3        1.94179  -0.00051  -0.00107  -0.00207  -0.00316   1.93862
    A4        1.94179  -0.00051  -0.00107  -0.00207  -0.00316   1.93862
    A5        1.90552   0.00012  -0.00076   0.00337   0.00259   1.90811
    A6        1.90552   0.00012  -0.00076   0.00337   0.00259   1.90811
    A7        1.90451  -0.00053   0.00145  -0.00801  -0.00658   1.89793
    A8        1.86387   0.00136   0.00223   0.00598   0.00819   1.87207
    A9        1.94179  -0.00051  -0.00107  -0.00207  -0.00316   1.93862
   A10        1.94179  -0.00051  -0.00107  -0.00207  -0.00316   1.93862
   A11        1.90552   0.00012  -0.00076   0.00337   0.00259   1.90811
   A12        1.90552   0.00012  -0.00076   0.00337   0.00259   1.90811
   A13        1.90451  -0.00053   0.00145  -0.00801  -0.00658   1.89793
    D1        3.14159  -0.00000  -0.00000   0.00000   0.00000   3.14159
    D2        1.06378  -0.00069   0.00018  -0.00658  -0.00639   1.05739
    D3       -1.06378   0.00069  -0.00018   0.00658   0.00639  -1.05739
    D4        3.14159   0.00000   0.00000   0.00000   0.00000   3.14159
    D5        1.06378  -0.00069   0.00018  -0.00658  -0.00639   1.05739
    D6       -1.06378   0.00069  -0.00018   0.00658   0.00639  -1.05739
         Item               Value     Threshold  Converged?
 Maximum Force            0.002060     0.000450     NO 
 RMS     Force            0.000710     0.000300     NO 
 Maximum Displacement     0.012406     0.001800     NO 
 RMS     Displacement     0.004653     0.001200     NO 
 Predicted change in Energy=-3.623163D-05
 GradGradGradGradGradGradGradGradGradGradGradGradGradGradGradGradGradGrad

                          Input orientation:                          
 ---------------------------------------------------------------------
 Center     Atomic      Atomic             Coordinates (Angstroms)
 Number     Number       Type             X           Y           Z
 ---------------------------------------------------------------------
      1          8           0       -0.704999    1.722541    0.175732
      2          6           0        0.719079    1.725760    0.190472
      3          6           0       -1.193912    1.437247   -1.131096
      4          1           0       -2.291041    1.448759   -1.078361
      5          1           0       -0.854102    0.441387   -1.474573
      6          1           0       -0.854102    2.199354   -1.858356
      7          1           0        1.033895    1.950218    1.218633
      8          1           0        1.122449    2.497453   -0.492877
      9          1           0        1.122450    0.739486   -0.109095
 ---------------------------------------------------------------------
                    Distance matrix (angstroms):
                    1          2          3          4          5
     1  O    0.000000
     2  C    1.424158   0.000000
     3  C    1.424158   2.342929   0.000000
     4  H    2.040400   3.278336   1.098456   0.000000
     5  H    2.094539   2.626192   1.106880   1.799049   0.000000
     6  H    2.094539   2.626192   1.106880   1.799049   1.799371
     7  H    2.040400   1.098456   3.278336   4.072203   3.618627
     8  H    2.094539   1.106880   2.626192   3.618627   3.016270
     9  H    2.094539   1.106880   2.626192   3.618627   2.420774
                    6          7          8          9
     6  H    0.000000
     7  H    3.618627   0.000000
     8  H    2.420774   1.799049   0.000000
     9  H    3.016270   1.799049   1.799371   0.000000
 Stoichiometry    C2H6O
 Framework group  C2V[C2(O),SGV(C2H2),X(H4)]
 Deg. of freedom     7
 Full point group                 C2V     NOp   4
 Largest Abelian subgroup         C2V     NOp   4
 Largest concise Abelian subgroup C2V     NOp   4
                         Standard orientation:                         
 ---------------------------------------------------------------------
 Center     Atomic      Atomic             Coordinates (Angstroms)
 Number     Number       Type             X           Y           Z
 ---------------------------------------------------------------------
      1          8           0       -0.000000   -0.000000    0.607585
      2          6           0       -0.000000    1.171465   -0.202291
      3          6           0       -0.000000   -1.171465   -0.202291
      4          1           0        0.000000   -2.036101    0.475210
      5          1           0        0.899685   -1.210387   -0.845902
      6          1           0       -0.899685   -1.210387   -0.845902
      7          1           0        0.000000    2.036101    0.475210
      8          1           0       -0.899685    1.210387   -0.845902
      9          1           0        0.899685    1.210387   -0.845902
 ---------------------------------------------------------------------
 Rotational constants (GHZ):          37.8182109          10.0151857           8.8201079
 Standard basis: Aug-CC-pVDZ (5D, 7F)
 There are    47 symmetry adapted cartesian basis functions of A1  symmetry.
 There are    20 symmetry adapted cartesian basis functions of A2  symmetry.
 There are    23 symmetry adapted cartesian basis functions of B1  symmetry.
 There are    39 symmetry adapted cartesian basis functions of B2  symmetry.
 There are    43 symmetry adapted basis functions of A1  symmetry.
 There are    20 symmetry adapted basis functions of A2  symmetry.
 There are    23 symmetry adapted basis functions of B1  symmetry.
 There are    37 symmetry adapted basis functions of B2  symmetry.
   123 basis functions,   195 primitive gaussians,   129 cartesian basis functions
    13 alpha electrons       13 beta electrons
       nuclear repulsion energy        83.3317762752 Hartrees.
 NAtoms=    9 NActive=    9 NUniq=    4 SFac= 4.00D+00 NAtFMM=   60 NAOKFM=F Big=F
 Integral buffers will be    131072 words long.
 Raffenetti 1 integral format.
 Two-electron integral symmetry is turned on.
 One-electron integrals computed using PRISM.
 NBasis=   123 RedAO= T EigKep=  2.60D-04  NBF=    43    20    23    37
 NBsUse=   123 1.00D-06 EigRej= -1.00D+00 NBFU=    43    20    23    37
 Initial guess from the checkpoint file:  "meome.chk"
 B after Tr=    -0.000000   -0.000000   -0.000000
         Rot=    1.000000   -0.000000   -0.000000    0.000000 Ang=   0.00 deg.
 Initial guess orbital symmetries:
       Occupied  (A1) (B2) (A1) (A1) (B2) (A1) (B1) (A1) (B2) (A2)
                 (B2) (A1) (B1)
       Virtual   (A1) (B2) (B1) (A1) (B2) (A2) (A1) (B1) (B2) (A1)
                 (A1) (B2) (A2) (B2) (A1) (B1) (A1) (B1) (A1) (B2)
                 (A2) (B2) (A1) (B2) (B1) (A1) (B2) (A2) (B1) (A1)
                 (B2) (A1) (B1) (A2) (A1) (A2) (A1) (B2) (B2) (B1)
                 (A2) (A1) (B2) (A1) (B1) (B2) (A1) (B2) (A2) (B1)
                 (A1) (B2) (B2) (A2) (B1) (A1) (A1) (B2) (A2) (B2)
                 (A1) (B1) (B2) (A1) (A2) (A1) (B1) (B2) (A1) (A2)
                 (B2) (B1) (A1) (A2) (B2) (B1) (A1) (B1) (A2) (A1)
                 (B2) (B2) (B1) (A1) (A2) (B1) (A1) (A1) (B2) (A2)
                 (B2) (A1) (B2) (A2) (B2) (B2) (B1) (A1) (A1) (B1)
                 (B2) (A2) (A1) (B2) (A1) (A1) (B1) (A2) (A1) (B2)
 Keep R1 ints in memory in symmetry-blocked form, NReq=36445975.
 Requested convergence on RMS density matrix=1.00D-08 within 128 cycles.
 Requested convergence on MAX density matrix=1.00D-06.
 Requested convergence on             energy=1.00D-06.
 No special actions if energy rises.
 SCF Done:  E(RHF) =  -154.085176431     A.U. after    8 cycles
            NFock=  8  Conv=0.88D-08     -V/T= 2.0024
 ExpMin= 2.97D-02 ExpMax= 1.17D+04 ExpMxC= 4.01D+02 IAcc=3 IRadAn=         5 AccDes= 0.00D+00
 HarFok:  IExCor=  205 AccDes= 0.00D+00 IRadAn=         5 IDoV=-2 UseB2=F ITyADJ=14
 ICtDFT= 12500011 ScaDFX=  1.000000  1.000000  1.000000  1.000000
 Range of M.O.s used for correlation:     4   123
 NBasis=   123 NAE=    13 NBE=    13 NFC=     3 NFV=     0
 NROrb=    120 NOA=    10 NOB=    10 NVA=   110 NVB=   110

 **** Warning!!: The largest alpha MO coefficient is  0.16526994D+02

 Fully direct method using O(ONN) memory.
 JobTyp=1 Pass  1:  I=   4 to  13 NPSUse= 28 ParTrn=T ParDer=T DoDerP=T.
 Spin components of T(2) and E(2):
     alpha-alpha T2 =       0.1878977763D-01 E2=     -0.5922711983D-01
     alpha-beta  T2 =       0.1194933141D+00 E2=     -0.3879735208D+00
     beta-beta   T2 =       0.1878977763D-01 E2=     -0.5922711983D-01
 ANorm=    0.1075673217D+01
 E2 =    -0.5064277604D+00 EUMP2 =    -0.15459160419117D+03
          IDoAtm=111111111
          Differentiating once with respect to electric field.
                with respect to dipole field.
          Differentiating once with respect to nuclear coordinates.
 Keep R1 ints in memory in symmetry-blocked form, NReq=36447256.
          There are     1 degrees of freedom in the 1st order CPHF.  IDoFFX=0 NUNeed=     1.
 LinEq1:  Iter=  0 NonCon=     1 RMS=4.34D-03 Max=5.24D-02 NDo=     1
 AX will form     1 AO Fock derivatives at one time.
 LinEq1:  Iter=  1 NonCon=     1 RMS=1.10D-03 Max=1.16D-02 NDo=     1
 LinEq1:  Iter=  2 NonCon=     1 RMS=3.13D-04 Max=2.78D-03 NDo=     1
 LinEq1:  Iter=  3 NonCon=     1 RMS=8.60D-05 Max=6.02D-04 NDo=     1
 LinEq1:  Iter=  4 NonCon=     1 RMS=2.73D-05 Max=3.03D-04 NDo=     1
 LinEq1:  Iter=  5 NonCon=     1 RMS=4.27D-06 Max=3.84D-05 NDo=     1
 LinEq1:  Iter=  6 NonCon=     1 RMS=7.02D-07 Max=5.62D-06 NDo=     1
 LinEq1:  Iter=  7 NonCon=     1 RMS=1.28D-07 Max=1.53D-06 NDo=     1
 LinEq1:  Iter=  8 NonCon=     1 RMS=2.51D-08 Max=2.58D-07 NDo=     1
 LinEq1:  Iter=  9 NonCon=     1 RMS=4.10D-09 Max=5.26D-08 NDo=     1
 LinEq1:  Iter= 10 NonCon=     1 RMS=4.26D-10 Max=2.78D-09 NDo=     1
 LinEq1:  Iter= 11 NonCon=     0 RMS=4.72D-11 Max=3.64D-10 NDo=     1
 Linear equations converged to 1.000D-10 1.000D-09 after    11 iterations.
 End of Minotr F.D. properties file   721 does not exist.
 End of Minotr F.D. properties file   722 does not exist.
 End of Minotr F.D. properties file   788 does not exist.
 Calling FoFJK, ICntrl=  10002127 FMM=F ISym2X=1 I1Cent= 0 IOpClX= 0 NMat=1 NMatS=1 NMatT=0.
 ***** Axes restored to original set *****
 -------------------------------------------------------------------
 Center     Atomic                   Forces (Hartrees/Bohr)
 Number     Number              X              Y              Z
 -------------------------------------------------------------------
      1        8          -0.000025685    0.000007747    0.000035488
      2        6           0.000036096   -0.000018810   -0.000086161
      3        6           0.000071115   -0.000013528   -0.000061969
      4        1           0.000431781    0.000038618    0.000176893
      5        1          -0.000029913    0.000228503    0.000036311
      6        1          -0.000029913   -0.000192580    0.000128238
      7        1          -0.000314630   -0.000073954   -0.000338756
      8        1          -0.000069425   -0.000198539    0.000100941
      9        1          -0.000069425    0.000222543    0.000009014
 -------------------------------------------------------------------
 Cartesian Forces:  Max     0.000431781 RMS     0.000158264

 GradGradGradGradGradGradGradGradGradGradGradGradGradGradGradGradGradGrad
 Berny optimization.
 Using GEDIIS/GDIIS optimizer.
 FormGI is forming the generalized inverse of G from B-inverse, IUseBI=4.
 Internal  Forces:  Max     0.000482436 RMS     0.000227955
 Search for a local minimum.
 Step number   3 out of a maximum of   37
 All quantities printed in internal units (Hartrees-Bohrs-Radians)
 Mixed Optimization -- En-DIIS/RFO-DIIS
 Swapping is turned off.
 Update second derivatives using D2CorX and points    1    2    3
 DE= -3.11D-05 DEPred=-3.62D-05 R= 8.58D-01
 TightC=F SS=  1.41D+00  RLast= 2.25D-02 DXNew= 5.0454D-01 6.7611D-02
 Trust test= 8.58D-01 RLast= 2.25D-02 DXMaxT set to 3.00D-01
 ITU=  1  1  0
     Eigenvalues ---    0.01412   0.01412   0.08908   0.10124   0.10515
     Eigenvalues ---    0.10515   0.16000   0.16000   0.16000   0.16000
     Eigenvalues ---    0.16015   0.18108   0.28693   0.34194   0.34319
     Eigenvalues ---    0.34319   0.34319   0.34435   0.35508   0.42286
     Eigenvalues ---    0.45419
 En-DIIS/RFO-DIIS/Sim-DIIS IScMMF=       -3 using points:     3    2
 RFO step:  Lambda=-3.90144449D-06.
 DidBck=F Rises=F RFO-DIIS coefs:    0.95658    0.04342
 Iteration  1 RMS(Cart)=  0.00136974 RMS(Int)=  0.00000058
 Iteration  2 RMS(Cart)=  0.00000030 RMS(Int)=  0.00000051
 ClnCor:  largest displacement from symmetrization is 8.01D-11 for atom     6.
 Variable       Old X    -DE/DX   Delta X   Delta X   Delta X     New X
                                 (Linear)    (Quad)   (Total)
    R1        2.69127  -0.00042  -0.00010  -0.00068  -0.00078   2.69049
    R2        2.69127  -0.00042  -0.00010  -0.00068  -0.00078   2.69049
    R3        2.07578  -0.00042  -0.00001  -0.00109  -0.00109   2.07469
    R4        2.09170  -0.00023  -0.00003  -0.00061  -0.00064   2.09106
    R5        2.09170  -0.00023  -0.00003  -0.00061  -0.00064   2.09106
    R6        2.07578  -0.00042  -0.00001  -0.00109  -0.00109   2.07469
    R7        2.09170  -0.00023  -0.00003  -0.00061  -0.00064   2.09106
    R8        2.09170  -0.00023  -0.00003  -0.00061  -0.00064   2.09106
    A1        1.93182  -0.00048  -0.00029  -0.00103  -0.00131   1.93050
    A2        1.87207  -0.00030  -0.00036  -0.00088  -0.00124   1.87083
    A3        1.93862   0.00006   0.00014   0.00002   0.00016   1.93878
    A4        1.93862   0.00006   0.00014   0.00002   0.00016   1.93878
    A5        1.90811   0.00011  -0.00011   0.00076   0.00065   1.90876
    A6        1.90811   0.00011  -0.00011   0.00076   0.00065   1.90876
    A7        1.89793  -0.00004   0.00029  -0.00065  -0.00037   1.89756
    A8        1.87207  -0.00030  -0.00036  -0.00088  -0.00124   1.87083
    A9        1.93862   0.00006   0.00014   0.00002   0.00016   1.93878
   A10        1.93862   0.00006   0.00014   0.00002   0.00016   1.93878
   A11        1.90811   0.00011  -0.00011   0.00076   0.00065   1.90876
   A12        1.90811   0.00011  -0.00011   0.00076   0.00065   1.90876
   A13        1.89793  -0.00004   0.00029  -0.00065  -0.00037   1.89756
    D1        3.14159  -0.00000   0.00000  -0.00000   0.00000   3.14159
    D2        1.05739   0.00002   0.00028  -0.00040  -0.00012   1.05727
    D3       -1.05739  -0.00002  -0.00028   0.00040   0.00012  -1.05727
    D4        3.14159   0.00000   0.00000   0.00000   0.00000   3.14159
    D5        1.05739   0.00002   0.00028  -0.00040  -0.00012   1.05727
    D6       -1.05739  -0.00002  -0.00028   0.00040   0.00012  -1.05727
         Item               Value     Threshold  Converged?
 Maximum Force            0.000482     0.000450     NO 
 RMS     Force            0.000228     0.000300     YES
 Maximum Displacement     0.002710     0.001800     NO 
 RMS     Displacement     0.001370     0.001200     NO 
 Predicted change in Energy=-1.950743D-06
 GradGradGradGradGradGradGradGradGradGradGradGradGradGradGradGradGradGrad

                          Input orientation:                          
 ---------------------------------------------------------------------
 Center     Atomic      Atomic             Coordinates (Angstroms)
 Number     Number       Type             X           Y           Z
 ---------------------------------------------------------------------
      1          8           0       -0.705252    1.722617    0.176081
      2          6           0        0.718423    1.725635    0.189903
      3          6           0       -1.193144    1.437337   -1.130681
      4          1           0       -2.289663    1.448980   -1.077351
      5          1           0       -0.853062    0.441904   -1.474041
      6          1           0       -0.853063    2.199106   -1.857656
      7          1           0        1.032460    1.950014    1.217701
      8          1           0        1.121509    2.496906   -0.493546
      9          1           0        1.121509    0.739704   -0.109931
 ---------------------------------------------------------------------
                    Distance matrix (angstroms):
                    1          2          3          4          5
     1  O    0.000000
     2  C    1.423745   0.000000
     3  C    1.423745   2.341185   0.000000
     4  H    2.038707   3.275828   1.097877   0.000000
     5  H    2.094034   2.624165   1.106544   1.798718   0.000000
     6  H    2.094034   2.624165   1.106544   1.798718   1.798588
     7  H    2.038707   1.097877   3.275828   4.068759   3.615946
     8  H    2.094034   1.106544   2.624165   3.615946   3.013857
     9  H    2.094034   1.106544   2.624165   3.615946   2.418350
                    6          7          8          9
     6  H    0.000000
     7  H    3.615946   0.000000
     8  H    2.418350   1.798718   0.000000
     9  H    3.013857   1.798718   1.798588   0.000000
 Stoichiometry    C2H6O
 Framework group  C2V[C2(O),SGV(C2H2),X(H4)]
 Deg. of freedom     7
 Full point group                 C2V     NOp   4
 Largest Abelian subgroup         C2V     NOp   4
 Largest concise Abelian subgroup C2V     NOp   4
                         Standard orientation:                         
 ---------------------------------------------------------------------
 Center     Atomic      Atomic             Coordinates (Angstroms)
 Number     Number       Type             X           Y           Z
 ---------------------------------------------------------------------
      1          8           0        0.000000    0.000000    0.607942
      2          6           0       -0.000000    1.170592   -0.202468
      3          6           0       -0.000000   -1.170592   -0.202468
      4          1           0        0.000000   -2.034379    0.475179
      5          1           0        0.899294   -1.209175   -0.846068
      6          1           0       -0.899294   -1.209175   -0.846068
      7          1           0        0.000000    2.034379    0.475179
      8          1           0       -0.899294    1.209175   -0.846068
      9          1           0        0.899294    1.209175   -0.846068
 ---------------------------------------------------------------------
 Rotational constants (GHZ):          37.7988982          10.0306528           8.8301716
 Standard basis: Aug-CC-pVDZ (5D, 7F)
 There are    47 symmetry adapted cartesian basis functions of A1  symmetry.
 There are    20 symmetry adapted cartesian basis functions of A2  symmetry.
 There are    23 symmetry adapted cartesian basis functions of B1  symmetry.
 There are    39 symmetry adapted cartesian basis functions of B2  symmetry.
 There are    43 symmetry adapted basis functions of A1  symmetry.
 There are    20 symmetry adapted basis functions of A2  symmetry.
 There are    23 symmetry adapted basis functions of B1  symmetry.
 There are    37 symmetry adapted basis functions of B2  symmetry.
   123 basis functions,   195 primitive gaussians,   129 cartesian basis functions
    13 alpha electrons       13 beta electrons
       nuclear repulsion energy        83.3670694059 Hartrees.
 NAtoms=    9 NActive=    9 NUniq=    4 SFac= 4.00D+00 NAtFMM=   60 NAOKFM=F Big=F
 Integral buffers will be    131072 words long.
 Raffenetti 1 integral format.
 Two-electron integral symmetry is turned on.
 One-electron integrals computed using PRISM.
 NBasis=   123 RedAO= T EigKep=  2.60D-04  NBF=    43    20    23    37
 NBsUse=   123 1.00D-06 EigRej= -1.00D+00 NBFU=    43    20    23    37
 Initial guess from the checkpoint file:  "meome.chk"
 B after Tr=     0.000000    0.000000    0.000000
         Rot=    1.000000   -0.000000   -0.000000    0.000000 Ang=   0.00 deg.
 Initial guess orbital symmetries:
       Occupied  (A1) (B2) (A1) (A1) (B2) (A1) (B1) (A1) (B2) (A2)
                 (B2) (A1) (B1)
       Virtual   (A1) (B2) (B1) (A1) (B2) (A2) (A1) (B1) (B2) (A1)
                 (A1) (B2) (A2) (B2) (A1) (B1) (A1) (B1) (A1) (B2)
                 (A2) (B2) (B2) (A1) (B1) (A1) (B2) (A2) (B1) (A1)
                 (B2) (A1) (B1) (A2) (A1) (A2) (A1) (B2) (B2) (B1)
                 (A2) (A1) (B2) (A1) (B1) (B2) (A1) (B2) (A2) (B1)
                 (A1) (B2) (B2) (A2) (B1) (A1) (A1) (B2) (A2) (B2)
                 (A1) (B1) (B2) (A1) (A2) (A1) (B1) (B2) (A1) (A2)
                 (B2) (B1) (A1) (A2) (B2) (B1) (A1) (B1) (A2) (A1)
                 (B2) (B2) (B1) (A1) (A2) (B1) (A1) (A1) (B2) (A2)
                 (B2) (A1) (B2) (A2) (B2) (B1) (B2) (A1) (A1) (B1)
                 (B2) (A2) (A1) (B2) (A1) (A1) (B1) (A2) (A1) (B2)
 Keep R1 ints in memory in symmetry-blocked form, NReq=36445975.
 Requested convergence on RMS density matrix=1.00D-08 within 128 cycles.
 Requested convergence on MAX density matrix=1.00D-06.
 Requested convergence on             energy=1.00D-06.
 No special actions if energy rises.
 SCF Done:  E(RHF) =  -154.085225357     A.U. after    7 cycles
            NFock=  7  Conv=0.64D-08     -V/T= 2.0024
 ExpMin= 2.97D-02 ExpMax= 1.17D+04 ExpMxC= 4.01D+02 IAcc=3 IRadAn=         5 AccDes= 0.00D+00
 HarFok:  IExCor=  205 AccDes= 0.00D+00 IRadAn=         5 IDoV=-2 UseB2=F ITyADJ=14
 ICtDFT= 12500011 ScaDFX=  1.000000  1.000000  1.000000  1.000000
 Range of M.O.s used for correlation:     4   123
 NBasis=   123 NAE=    13 NBE=    13 NFC=     3 NFV=     0
 NROrb=    120 NOA=    10 NOB=    10 NVA=   110 NVB=   110

 **** Warning!!: The largest alpha MO coefficient is  0.16526408D+02

 Fully direct method using O(ONN) memory.
 JobTyp=1 Pass  1:  I=   4 to  13 NPSUse= 28 ParTrn=T ParDer=T DoDerP=T.
 Spin components of T(2) and E(2):
     alpha-alpha T2 =       0.1878389508D-01 E2=     -0.5922693335D-01
     alpha-beta  T2 =       0.1194360784D+00 E2=     -0.3879269767D+00
     beta-beta   T2 =       0.1878389508D-01 E2=     -0.5922693335D-01
 ANorm=    0.1075641143D+01
 E2 =    -0.5063808434D+00 EUMP2 =    -0.15459160620043D+03
          IDoAtm=111111111
          Differentiating once with respect to electric field.
                with respect to dipole field.
          Differentiating once with respect to nuclear coordinates.
 Keep R1 ints in memory in symmetry-blocked form, NReq=36447256.
          There are     1 degrees of freedom in the 1st order CPHF.  IDoFFX=0 NUNeed=     1.
 LinEq1:  Iter=  0 NonCon=     1 RMS=4.34D-03 Max=5.25D-02 NDo=     1
 AX will form     1 AO Fock derivatives at one time.
 LinEq1:  Iter=  1 NonCon=     1 RMS=1.10D-03 Max=1.16D-02 NDo=     1
 LinEq1:  Iter=  2 NonCon=     1 RMS=3.13D-04 Max=2.79D-03 NDo=     1
 LinEq1:  Iter=  3 NonCon=     1 RMS=8.58D-05 Max=6.01D-04 NDo=     1
 LinEq1:  Iter=  4 NonCon=     1 RMS=2.73D-05 Max=3.03D-04 NDo=     1
 LinEq1:  Iter=  5 NonCon=     1 RMS=4.27D-06 Max=3.83D-05 NDo=     1
 LinEq1:  Iter=  6 NonCon=     1 RMS=7.01D-07 Max=5.59D-06 NDo=     1
 LinEq1:  Iter=  7 NonCon=     1 RMS=1.27D-07 Max=1.52D-06 NDo=     1
 LinEq1:  Iter=  8 NonCon=     1 RMS=2.50D-08 Max=2.56D-07 NDo=     1
 LinEq1:  Iter=  9 NonCon=     1 RMS=4.09D-09 Max=5.26D-08 NDo=     1
 LinEq1:  Iter= 10 NonCon=     1 RMS=4.25D-10 Max=2.78D-09 NDo=     1
 LinEq1:  Iter= 11 NonCon=     0 RMS=4.71D-11 Max=3.62D-10 NDo=     1
 Linear equations converged to 1.000D-10 1.000D-09 after    11 iterations.
 End of Minotr F.D. properties file   721 does not exist.
 End of Minotr F.D. properties file   722 does not exist.
 End of Minotr F.D. properties file   788 does not exist.
 Calling FoFJK, ICntrl=  10002127 FMM=F ISym2X=1 I1Cent= 0 IOpClX= 0 NMat=1 NMatS=1 NMatT=0.
 ***** Axes restored to original set *****
 -------------------------------------------------------------------
 Center     Atomic                   Forces (Hartrees/Bohr)
 Number     Number              X              Y              Z
 -------------------------------------------------------------------
      1        8           0.000000642   -0.000000194   -0.000000887
      2        6          -0.000001126    0.000005332    0.000024424
      3        6          -0.000023194    0.000002004    0.000009178
      4        1           0.000025177    0.000002079    0.000009521
      5        1          -0.000000063    0.000009831   -0.000010921
      6        1          -0.000000063   -0.000013488   -0.000005830
      7        1          -0.000017580   -0.000004370   -0.000020017
      8        1           0.000008103   -0.000012257   -0.000000189
      9        1           0.000008103    0.000011063   -0.000005279
 -------------------------------------------------------------------
 Cartesian Forces:  Max     0.000025177 RMS     0.000011507

 GradGradGradGradGradGradGradGradGradGradGradGradGradGradGradGradGradGrad
 Berny optimization.
 Using GEDIIS/GDIIS optimizer.
 FormGI is forming the generalized inverse of G from B-inverse, IUseBI=4.
 Internal  Forces:  Max     0.000031082 RMS     0.000013029
 Search for a local minimum.
 Step number   4 out of a maximum of   37
 All quantities printed in internal units (Hartrees-Bohrs-Radians)
 Mixed Optimization -- En-DIIS/RFO-DIIS
 Swapping is turned off.
 Update second derivatives using D2CorX and points    1    2    3    4
 DE= -2.01D-06 DEPred=-1.95D-06 R= 1.03D+00
 TightC=F SS=  1.41D+00  RLast= 3.49D-03 DXNew= 5.0454D-01 1.0463D-02
 Trust test= 1.03D+00 RLast= 3.49D-03 DXMaxT set to 3.00D-01
 ITU=  1  1  1  0
     Eigenvalues ---    0.01412   0.01412   0.08732   0.10124   0.10521
     Eigenvalues ---    0.10521   0.16000   0.16000   0.16000   0.16000
     Eigenvalues ---    0.16113   0.17583   0.29205   0.34161   0.34319
     Eigenvalues ---    0.34319   0.34319   0.34435   0.34811   0.42286
     Eigenvalues ---    0.45613
 En-DIIS/RFO-DIIS/Sim-DIIS IScMMF=       -3 using points:     4    3    2
 RFO step:  Lambda=-1.93559408D-08.
 DidBck=F Rises=F RFO-DIIS coefs:    1.05252   -0.04957   -0.00295
 Iteration  1 RMS(Cart)=  0.00016533 RMS(Int)=  0.00000004
 Iteration  2 RMS(Cart)=  0.00000001 RMS(Int)=  0.00000003
 ClnCor:  largest displacement from symmetrization is 1.18D-08 for atom     6.
 Variable       Old X    -DE/DX   Delta X   Delta X   Delta X     New X
                                 (Linear)    (Quad)   (Total)
    R1        2.69049  -0.00000  -0.00003   0.00003  -0.00000   2.69048
    R2        2.69049  -0.00000  -0.00003   0.00003  -0.00000   2.69048
    R3        2.07469  -0.00002  -0.00006  -0.00002  -0.00008   2.07461
    R4        2.09106  -0.00001  -0.00003   0.00001  -0.00002   2.09105
    R5        2.09106  -0.00001  -0.00003   0.00001  -0.00002   2.09105
    R6        2.07469  -0.00002  -0.00006  -0.00002  -0.00008   2.07461
    R7        2.09106  -0.00001  -0.00003   0.00001  -0.00002   2.09105
    R8        2.09106  -0.00001  -0.00003   0.00001  -0.00002   2.09105
    A1        1.93050   0.00003  -0.00005   0.00019   0.00014   1.93064
    A2        1.87083  -0.00002  -0.00004  -0.00007  -0.00011   1.87071
    A3        1.93878   0.00001  -0.00000   0.00009   0.00009   1.93887
    A4        1.93878   0.00001  -0.00000   0.00009   0.00009   1.93887
    A5        1.90876   0.00000   0.00004  -0.00001   0.00003   1.90880
    A6        1.90876   0.00000   0.00004  -0.00001   0.00003   1.90880
    A7        1.89756  -0.00002  -0.00004  -0.00009  -0.00013   1.89743
    A8        1.87083  -0.00002  -0.00004  -0.00007  -0.00011   1.87071
    A9        1.93878   0.00001  -0.00000   0.00009   0.00009   1.93887
   A10        1.93878   0.00001  -0.00000   0.00009   0.00009   1.93887
   A11        1.90876   0.00000   0.00004  -0.00001   0.00003   1.90880
   A12        1.90876   0.00000   0.00004  -0.00001   0.00003   1.90880
   A13        1.89756  -0.00002  -0.00004  -0.00009  -0.00013   1.89743
    D1       -3.14159  -0.00000   0.00000  -0.00000   0.00000  -3.14159
    D2        1.05727  -0.00000  -0.00003   0.00000  -0.00002   1.05725
    D3       -1.05727   0.00000   0.00003  -0.00000   0.00002  -1.05725
    D4        3.14159  -0.00000  -0.00000  -0.00000   0.00000   3.14159
    D5        1.05727  -0.00000  -0.00003   0.00000  -0.00002   1.05725
    D6       -1.05727   0.00000   0.00003  -0.00000   0.00002  -1.05725
         Item               Value     Threshold  Converged?
 Maximum Force            0.000031     0.000450     YES
 RMS     Force            0.000013     0.000300     YES
 Maximum Displacement     0.000318     0.001800     YES
 RMS     Displacement     0.000165     0.001200     YES
 Predicted change in Energy=-1.160316D-08
 Optimization completed.
    -- Stationary point found.
                           ----------------------------
                           !   Optimized Parameters   !
                           ! (Angstroms and Degrees)  !
 --------------------------                            --------------------------
 ! Name  Definition              Value          Derivative Info.                !
 --------------------------------------------------------------------------------
 ! R1    R(1,2)                  1.4237         -DE/DX =    0.0                 !
 ! R2    R(1,3)                  1.4237         -DE/DX =    0.0                 !
 ! R3    R(2,7)                  1.0979         -DE/DX =    0.0                 !
 ! R4    R(2,8)                  1.1065         -DE/DX =    0.0                 !
 ! R5    R(2,9)                  1.1065         -DE/DX =    0.0                 !
 ! R6    R(3,4)                  1.0979         -DE/DX =    0.0                 !
 ! R7    R(3,5)                  1.1065         -DE/DX =    0.0                 !
 ! R8    R(3,6)                  1.1065         -DE/DX =    0.0                 !
 ! A1    A(2,1,3)              110.6097         -DE/DX =    0.0                 !
 ! A2    A(1,2,7)              107.1904         -DE/DX =    0.0                 !
 ! A3    A(1,2,8)              111.0841         -DE/DX =    0.0                 !
 ! A4    A(1,2,9)              111.0841         -DE/DX =    0.0                 !
 ! A5    A(7,2,8)              109.3641         -DE/DX =    0.0                 !
 ! A6    A(7,2,9)              109.3641         -DE/DX =    0.0                 !
 ! A7    A(8,2,9)              108.7222         -DE/DX =    0.0                 !
 ! A8    A(1,3,4)              107.1904         -DE/DX =    0.0                 !
 ! A9    A(1,3,5)              111.0841         -DE/DX =    0.0                 !
 ! A10   A(1,3,6)              111.0841         -DE/DX =    0.0                 !
 ! A11   A(4,3,5)              109.3641         -DE/DX =    0.0                 !
 ! A12   A(4,3,6)              109.3641         -DE/DX =    0.0                 !
 ! A13   A(5,3,6)              108.7222         -DE/DX =    0.0                 !
 ! D1    D(3,1,2,7)           -180.0            -DE/DX =    0.0                 !
 ! D2    D(3,1,2,8)             60.577          -DE/DX =    0.0                 !
 ! D3    D(3,1,2,9)            -60.577          -DE/DX =    0.0                 !
 ! D4    D(2,1,3,4)            180.0            -DE/DX =    0.0                 !
 ! D5    D(2,1,3,5)             60.577          -DE/DX =    0.0                 !
 ! D6    D(2,1,3,6)            -60.577          -DE/DX =    0.0                 !
 --------------------------------------------------------------------------------
 GradGradGradGradGradGradGradGradGradGradGradGradGradGradGradGradGradGrad

                          Input orientation:                          
 ---------------------------------------------------------------------
 Center     Atomic      Atomic             Coordinates (Angstroms)
 Number     Number       Type             X           Y           Z
 ---------------------------------------------------------------------
      1          8           0       -0.705252    1.722617    0.176081
      2          6           0        0.718423    1.725635    0.189903
      3          6           0       -1.193144    1.437337   -1.130681
      4          1           0       -2.289663    1.448980   -1.077351
      5          1           0       -0.853062    0.441904   -1.474041
      6          1           0       -0.853063    2.199106   -1.857656
      7          1           0        1.032460    1.950014    1.217701
      8          1           0        1.121509    2.496906   -0.493546
      9          1           0        1.121509    0.739704   -0.109931
 ---------------------------------------------------------------------
                    Distance matrix (angstroms):
                    1          2          3          4          5
     1  O    0.000000
     2  C    1.423745   0.000000
     3  C    1.423745   2.341185   0.000000
     4  H    2.038707   3.275828   1.097877   0.000000
     5  H    2.094034   2.624165   1.106544   1.798718   0.000000
     6  H    2.094034   2.624165   1.106544   1.798718   1.798588
     7  H    2.038707   1.097877   3.275828   4.068759   3.615946
     8  H    2.094034   1.106544   2.624165   3.615946   3.013857
     9  H    2.094034   1.106544   2.624165   3.615946   2.418350
                    6          7          8          9
     6  H    0.000000
     7  H    3.615946   0.000000
     8  H    2.418350   1.798718   0.000000
     9  H    3.013857   1.798718   1.798588   0.000000
 Stoichiometry    C2H6O
 Framework group  C2V[C2(O),SGV(C2H2),X(H4)]
 Deg. of freedom     7
 Full point group                 C2V     NOp   4
 Largest Abelian subgroup         C2V     NOp   4
 Largest concise Abelian subgroup C2V     NOp   4
                         Standard orientation:                         
 ---------------------------------------------------------------------
 Center     Atomic      Atomic             Coordinates (Angstroms)
 Number     Number       Type             X           Y           Z
 ---------------------------------------------------------------------
      1          8           0        0.000000   -0.000000    0.607942
      2          6           0       -0.000000    1.170592   -0.202468
      3          6           0       -0.000000   -1.170592   -0.202468
      4          1           0        0.000000   -2.034379    0.475179
      5          1           0        0.899294   -1.209175   -0.846068
      6          1           0       -0.899294   -1.209175   -0.846068
      7          1           0        0.000000    2.034379    0.475179
      8          1           0       -0.899294    1.209175   -0.846068
      9          1           0        0.899294    1.209175   -0.846068
 ---------------------------------------------------------------------
 Rotational constants (GHZ):          37.7988982          10.0306528           8.8301716

 **********************************************************************

            Population analysis using the SCF density.

 **********************************************************************

 Orbital symmetries:
       Occupied  (A1) (B2) (A1) (A1) (B2) (A1) (B1) (A1) (B2) (A2)
                 (B2) (A1) (B1)
       Virtual   (A1) (B2) (B1) (A1) (B2) (A2) (A1) (B1) (B2) (A1)
                 (A1) (B2) (A2) (B2) (A1) (B1) (A1) (B1) (A1) (B2)
                 (A2) (B2) (B2) (A1) (B1) (A1) (B2) (A2) (B1) (A1)
                 (B2) (A1) (B1) (A2) (A1) (A2) (A1) (B2) (B2) (B1)
                 (A2) (A1) (B2) (A1) (B1) (B2) (A1) (B2) (A2) (B1)
                 (A1) (B2) (B2) (A2) (B1) (A1) (A1) (B2) (A2) (B2)
                 (A1) (B1) (B2) (A1) (A2) (A1) (B1) (B2) (A1) (A2)
                 (B2) (B1) (A1) (A2) (B2) (B1) (A1) (B1) (A2) (A1)
                 (B2) (B2) (B1) (A1) (A2) (B1) (A1) (A1) (B2) (A2)
                 (B2) (A1) (B2) (A2) (B2) (B1) (B2) (A1) (A1) (B1)
                 (B2) (A2) (A1) (B2) (A1) (A1) (B1) (A2) (A1) (B2)
 The electronic state is 1-A1.
 Alpha  occ. eigenvalues --  -20.56722 -11.28097 -11.28095  -1.36951  -0.96397
 Alpha  occ. eigenvalues --   -0.87378  -0.65425  -0.64571  -0.63331  -0.54680
 Alpha  occ. eigenvalues --   -0.52267  -0.48281  -0.42441
 Alpha virt. eigenvalues --    0.03640   0.04861   0.05658   0.05880   0.07448
 Alpha virt. eigenvalues --    0.07994   0.10349   0.14161   0.14500   0.15572
 Alpha virt. eigenvalues --    0.17115   0.17674   0.17783   0.20483   0.22275
 Alpha virt. eigenvalues --    0.26318   0.27460   0.29930   0.30189   0.30980
 Alpha virt. eigenvalues --    0.31563   0.36090   0.38714   0.38736   0.40241
 Alpha virt. eigenvalues --    0.41315   0.43939   0.44150   0.45418   0.45735
 Alpha virt. eigenvalues --    0.48588   0.50131   0.50480   0.52460   0.54481
 Alpha virt. eigenvalues --    0.59157   0.59247   0.61238   0.62099   0.62703
 Alpha virt. eigenvalues --    0.63210   0.63354   0.64361   0.64558   0.65571
 Alpha virt. eigenvalues --    0.68700   0.70818   0.71725   0.75200   0.76868
 Alpha virt. eigenvalues --    0.78059   0.81596   0.86123   0.88661   1.00202
 Alpha virt. eigenvalues --    1.00522   1.04050   1.07510   1.08166   1.10181
 Alpha virt. eigenvalues --    1.15242   1.23006   1.25156   1.26813   1.35979
 Alpha virt. eigenvalues --    1.39742   1.43048   1.55457   1.57879   1.61451
 Alpha virt. eigenvalues --    1.69881   1.77864   1.77980   1.78031   1.79215
 Alpha virt. eigenvalues --    1.83709   1.86677   1.90533   1.92669   1.96656
 Alpha virt. eigenvalues --    2.08392   2.12354   2.14774   2.16205   2.19559
 Alpha virt. eigenvalues --    2.19783   2.21702   2.24093   2.27110   2.34751
 Alpha virt. eigenvalues --    2.35323   2.43113   2.52519   2.56390   2.64179
 Alpha virt. eigenvalues --    2.70106   2.70146   2.76731   2.80798   2.88163
 Alpha virt. eigenvalues --    2.89039   2.95791   3.00923   3.10580   3.26286
 Alpha virt. eigenvalues --    3.79045   3.79635   3.92568   4.03846   4.05128
          Condensed to atoms (all electrons):
               1          2          3          4          5          6
     1  O    8.858764   0.083191   0.083191  -0.099984   0.003197   0.003197
     2  C    0.083191   4.023914  -0.019894  -0.016045   0.008988   0.008988
     3  C    0.083191  -0.019894   4.023914   0.492529   0.356090   0.356090
     4  H   -0.099984  -0.016045   0.492529   1.181234  -0.170478  -0.170478
     5  H    0.003197   0.008988   0.356090  -0.170478   0.901361  -0.051770
     6  H    0.003197   0.008988   0.356090  -0.170478  -0.051770   0.901361
     7  H   -0.099984   0.492529  -0.016045  -0.006883   0.005903   0.005903
     8  H    0.003197   0.356090   0.008988   0.005903  -0.004642  -0.015916
     9  H    0.003197   0.356090   0.008988   0.005903  -0.015916  -0.004642
               7          8          9
     1  O   -0.099984   0.003197   0.003197
     2  C    0.492529   0.356090   0.356090
     3  C   -0.016045   0.008988   0.008988
     4  H   -0.006883   0.005903   0.005903
     5  H    0.005903  -0.004642  -0.015916
     6  H    0.005903  -0.015916  -0.004642
     7  H    1.181234  -0.170478  -0.170478
     8  H   -0.170478   0.901361  -0.051770
     9  H   -0.170478  -0.051770   0.901361
 Mulliken charges:
               1
     1  O   -0.837966
     2  C    0.706149
     3  C    0.706149
     4  H   -0.221700
     5  H   -0.032733
     6  H   -0.032733
     7  H   -0.221700
     8  H   -0.032733
     9  H   -0.032733
 Sum of Mulliken charges =   0.00000
 Mulliken charges with hydrogens summed into heavy atoms:
               1
     1  O   -0.837966
     2  C    0.418983
     3  C    0.418983
 Electronic spatial extent (au):  <R**2>=            188.8026
 Charge=             -0.0000 electrons
 Dipole moment (field-independent basis, Debye):
[...]
 3120064,0.02868176,0.10766936,-0.00074303,-0.00166913,0.00163868,0.030
 28661,-0.19816186,0.17426765,0.00083168,-0.00023536,-0.00058141,0.0001
 3373,-0.00002506,0.00035201,-0.00001905,0.00003236,0.00022500,0.000250
 41,0.00012163,0.00066054,0.00115234,0.00305548,-0.00265823,-0.03560179
 ,0.00472446,0.00000877,-0.00180616,-0.19165715,-0.26553164,0.33845692,
 0.00033376,-0.00012314,0.00049351,0.00004711,0.00003781,0.00007791,0.0
 0003362,0.00019790,-0.00009439,0.00003125,-0.00011290,0.00003958,0.001
 42605,0.00338073,-0.00548740,0.19172405,0.26349848,-0.00453434,-0.0010
 4433,0.00059126,0.17362023,0.34426698,-0.17313927,-0.00024559,-0.00032
 135,-0.00067862,-0.00001674,-0.00003296,-0.00006384,-0.00021473,0.0000
 3998,-0.00002644,0.00019445,0.00003173,-0.00006931,0.00252030,0.004797
 68,-0.00032721,-0.16916636,-0.34133779,0.16796347,-0.00074308,0.002200
 22,0.00079397,0.03028635,0.25276037,0.07582687,0.00083168,-0.00002836,
 -0.00062660,0.00013375,0.00016949,0.00030954,0.00025041,0.00016472,0.0
 0065113,-0.00001905,0.00006435,0.00021801,0.00115236,-0.00388532,-0.00
 114299,0.00370910,-0.00666316,-0.00215721,-0.03560151,-0.00618430,0.00
 118983,0.00153174,0.24657764,-0.50812743,-0.18487442,-0.00040574,-0.00
 028484,-0.00067405,-0.00004981,0.00000312,-0.00010861,0.00005263,-0.00
 013235,-0.00001069,-0.00012005,0.00017954,-0.00000004,-0.00024595,0.00
 299801,0.00396287,0.00515789,-0.00135600,-0.00639993,-0.24478231,0.505
 53011,-0.00215281,0.00076990,-0.00058977,0.07794922,-0.19068446,0.0694
 5676,-0.00008414,0.00014082,-0.00051692,0.00000441,0.00000226,-0.00002
 916,0.00018978,-0.00000283,-0.00004987,-0.00018119,-0.00013442,-0.0000
 0808,0.00288531,-0.00632220,0.00005552,-0.00473787,0.00965781,0.005749
 97,-0.07387271,0.18657312,-0.07406845,-0.01813205,-0.00144323,0.008993
 96,-0.00661083,-0.00487732,-0.01228250,0.02434654,-0.00016033,-0.00073
 453,-0.06504380,0.00033037,-0.00793597,0.00027965,-0.07101633,0.870298
 95,0.00151321,0.00027967,-0.00671601,-0.32529858,-0.17058871,0.1261362
 2,-0.00295996,0.00238945,0.01094518,-0.00349607,-0.00005173,-0.0002369
 4,-0.13748572,0.00189875,-0.00669377,0.00596972,-0.00186923,0.00239236
 ,-0.00059036,-0.06555376,0.87359511,0.00869745,0.00596972,0.01934805,-
 0.00856222,-0.00059036,-0.00018295,-0.30027633,-0.15549336,0.19528292,
 0.00035629,-0.00019062,-0.00087318,0.00031794,0.00011349,0.00051984,0.
 00281380,0.00157041,0.00719344,0.00049534,-0.00003815,0.00006660,-0.00
 000987,-0.00002234,0.00033717,-0.00009394,-0.00053854,-0.00713611,0.00
 025052,-0.00028262,-0.00087423,-0.00017476,-0.00000987,0.00002353,-0.0
 0010232,-0.00009394,-0.00007264,-0.00246686,0.00025052,-0.00604327,-0.
 00129452,0.00032178,0.00052947,0.00071538,-0.00183933,-0.00222805,-0.0
 0041527,0.00032607,-0.00031090,0.06982070,0.26965640,0.09360135,-0.001
 90900,0.00141523,0.00142949,-0.06527182,0.00223362,0.00262587,0.006592
 37,0.00017207,-0.00118014,0.00040823,0.26544335,-0.59474685,-0.2845332
 3,-0.00370456,0.00415565,0.00024184,-0.26750342,0.58314774,-0.00043036
 ,-0.00218731,-0.00305655,0.00136244,-0.00006112,0.00043967,0.09535680,
 -0.28402483,0.06107346,-0.00209249,0.00144586,0.00219767,-0.09606411,0
 .28311948,-0.05614551,0.00071538,0.00074342,-0.00279187,-0.00041527,-0
 .00042598,-0.00014673,0.06982100,-0.20611295,0.19746646,-0.00190900,-0
 .00069071,0.00188923,-0.00368325,0.00277490,0.00185908,-0.06527211,-0.
 00220976,-0.00002991,-0.00798001,0.00041140,-0.00103030,0.00026571,-0.
 20155162,-0.26544654,0.43423323,0.00249545,0.00317619,-0.00069047,-0.0
 0174765,0.00479172,0.00155370,0.20312948,0.25759655,0.00053967,0.00079
 967,-0.00040074,0.00131019,0.00073506,0.00028983,0.19730638,0.43372484
 ,-0.26822710,-0.00344602,-0.00189450,0.00317711,0.00284641,-0.00585283
 ,-0.00458537,-0.19880788,-0.42696115,0.26940592,-0.00027852,0.00000972
 ,0.00004452,-0.00349014,-0.00006318,-0.00028941,0.00008685,-0.00000492
 ,-0.00002253,0.00007500,0.00005063,0.00023192,0.00014961,0.00024342,0.
 00010477,0.00014961,-0.00017761,0.00019668,-0.00024467,-0.00014275,0.0
 0009549,0.00012241,0.00204576,-0.00684935,0.00156412,0.00013091,0.0003
 4768,-0.00004579,0.00000868,0.00008364,-0.00002335,-0.00009081,0.00007
 897,0.00002744,0.00003989,0.00008757,-0.00013638,-0.00022680,-0.000840
 54,-0.00065392,0.00012240,0.00062945,0.00937090,0.00156414,-0.00002615
 ,0.00059967,-0.00004579,0.00014795,0.00003977,-0.00002335,-0.00001822,
 -0.00010235,-0.00015513,-0.00015007,-0.00013088,0.00004619,-0.00015865
 ,-0.00103888,0.00047599,0.00123588,-0.00238154,-0.00129366,0.00146039,
 0.02409821,-0.24898681,0.22420785,0.00069971,-0.00004876,0.00100717,-0
 .00012019,0.00010605,0.00023238,0.00012305,0.00016291,-0.00044276,0.00
 047060,-0.00001708,0.00038916,0.00177613,0.00110545,-0.00447613,-0.021
 27733,0.00740456,0.00118332,-0.00037405,-0.25109162,-0.27834401,0.4088
 0567,-0.00012336,-0.00107942,-0.00004586,-0.00002853,0.00012617,0.0002
 3208,0.00016754,0.00096870,0.00005444,0.00043537,-0.00003005,0.0000284
 3,-0.00042110,0.00292339,-0.00404931,0.24582311,0.26947361,-0.00312537
 ,-0.00083769,0.00148292,0.22383164,0.41286990,-0.20960651,-0.00061629,
 0.00058894,-0.00077606,-0.00001830,-0.00009499,0.00007255,0.00062117,-
 0.00026009,0.00003697,0.00002812,-0.00033860,0.00037812,0.00049682,-0.
 00044295,-0.00025522,-0.22404891,-0.40585702,0.21353376,-0.00238153,0.
 00178458,0.00078837,0.02409786,0.31977410,0.10004168,0.00069969,0.0004
 6407,0.00089521,-0.00012019,0.00000045,0.00025544,0.00047060,0.0001777
 1,0.00034663,0.00012305,-0.00033260,-0.00033459,0.00177613,-0.00287034
 ,-0.00360817,-0.00338863,-0.00216597,0.00283112,-0.02127698,-0.0080334
 1,0.00169440,0.00027709,0.32153062,-0.57768869,-0.24005039,-0.00014470
 ,-0.00123247,0.00025512,0.00001831,0.00006492,-0.00022858,-0.00038404,
 0.00015835,0.00007233,0.00010659,0.00088478,-0.00044313,0.00058985,0.0
 0407315,0.00206487,0.00314878,0.00477830,-0.00562751,-0.31683199,0.567
 26726,0.00024490,0.00074073,0.00097183,0.09882249,-0.24411462,0.089738
 55,-0.00061162,-0.00037968,-0.00062301,-0.00002853,0.00009849,0.000133
 79,0.00020700,0.00043936,0.00018972,0.00063447,-0.00012861,0.00012089,
 0.00027613,-0.00154149,-0.00140498,0.00167085,0.00120562,-0.00486654,-
 0.10121569,0.24368020,-0.08426026,-0.01866233,-0.00165118,0.00537399,-
 0.00756343,-0.00405234,-0.01230361,0.02304457,0.00022092,0.00101192,-0
 .05833947,0.00057436,-0.00708673,0.00018431,-0.07210619,0.86672620,0.0
 0263093,0.00018432,-0.00628266,-0.33029081,-0.17043007,0.12325518,-0.0
 0181662,0.00244907,0.01121827,-0.00186284,0.00013880,0.00063582,-0.142
 48233,0.00209562,-0.00595578,0.00536486,-0.00183156,-0.00261935,0.0007
 7771,-0.06576116,0.87055327,0.00959927,0.00536486,0.01744752,-0.008389
 63,0.00077772,0.00077329,-0.30122631,-0.15289626,0.20357030,0.00009408
 ,-0.00014609,-0.00066917,0.00024909,0.00004027,0.00018443,0.00282935,0
 .00160179,0.00733723,0.00080900,0.00007977,0.00056897,-0.00014172,-0.0
 0010364,0.00134474,-0.00027608,-0.00055513,-0.00780255,0.00035064,-0.0
 0029064,-0.00068160,0.00036542,-0.00014172,-0.00004926,-0.00047477,-0.
 00027608,0.00014039,-0.00254281,0.00035063,-0.00627299,-0.00133124,0.0
 0028371,0.00055601,0.00134188,-0.00287684,-0.00316560,-0.00094637,0.00
 006853,0.00065865,0.07081095,0.26739894,0.09472437,-0.00201871,0.00179
 920,0.00143994,-0.06613618,0.00250366,0.00270058,0.00606554,-0.0003443
 0,0.00088820,0.00014413,0.26286817,-0.59359179,-0.28655824,-0.00366115
 ,0.00424736,0.00008551,-0.26478302,0.58250439,-0.00050786,-0.00245679,
 -0.00278894,0.00114475,0.00084718,0.00023903,0.09536374,-0.28692514,0.
 05855225,-0.00217159,0.00159601,0.00237451,-0.09620300,0.28572788,-0.0
 5416445,0.00134189,0.00129580,-0.00407652,-0.00094638,0.00021220,0.000
 62728,0.07081121,-0.20359284,0.19754650,-0.00201871,-0.00103538,0.0020
 5875,-0.00343598,0.00258758,0.00182935,-0.06613645,-0.00248753,0.00038
 000,-0.00751840,0.00079007,0.00039990,-0.00021788,-0.19920784,-0.26306
 408,0.43401002,0.00242303,0.00328503,-0.00050297,-0.00158976,0.0044447
 6,0.00174151,0.20059870,0.25543267,0.00058178,0.00100394,-0.00046835,0
 .00089712,-0.00092095,0.00072734,0.19623945,0.43437693,-0.27197573,-0.
 00349986,-0.00201348,0.00333682,0.00274132,-0.00581981,-0.00445066,-0.
 19780038,-0.42766920,0.27290755,-0.00015858,0.00009882,0.00045267,-0.0
 0365139,-0.00006642,-0.00030427,0.00000551,-0.00008528,-0.00039065,0.0
 0008044,0.00004875,0.00022332,0.00004650,0.00018295,0.00007573,0.00004
 650,-0.00013475,0.00014508,-0.00021719,-0.00012705,0.00058047,-0.00008
 908,0.00209050,-0.00750778,0.00170108,0.00005864,0.00135581,-0.0002253
 1,0.00000724,-0.00038976,0.00008239,0.00028648,-0.00030524,0.00004707,
 -0.00026979,-0.00027228,0.00004696,-0.00021323,-0.00063488,-0.00058193
 ,-0.00008908,0.00019188,0.00957578,0.00170110,-0.00008711,0.00026858,-
 0.00022532,0.00037294,0.00003315,0.00008239,-0.00003036,-0.00002250,-0
 .00002493,-0.00006720,0.00009896,0.00011896,-0.00010016,-0.00097676,0.
 00049755,0.00153561,-0.00259245,-0.00175124,0.00184478,0.02122656,-0.2
 5136742,0.22557009,0.00085239,0.00092672,0.00021635,-0.00001227,0.0001
 1798,0.00011117,0.00018568,-0.00016205,0.00002195,0.00015223,-0.000548
 38,0.00074308,0.00192411,0.00131517,-0.00468481,-0.01847288,0.00682754
 ,0.00141479,0.00021977,-0.25244254,-0.27717036,0.40662664,0.00003147,0
 .00035235,-0.00099135,-0.00000386,-0.00019272,0.00021735,-0.00004633,-
 0.00004957,-0.00010374,0.00029857,-0.00059715,0.00074491,-0.00056166,0
 .00309971,-0.00399276,0.24819712,0.26870605,-0.00386043,-0.00136111,0.
 00243116,0.22615457,0.41105086,-0.20828512,0.00001579,-0.00074765,-0.0
 0102391,0.00006215,0.00030847,-0.00012093,-0.00032859,0.00016186,0.000
 31164,0.00003408,0.00005288,-0.00024771,0.00052853,-0.00019288,-0.0004
 2068,-0.22544007,-0.40392151,0.21197096,-0.00259246,0.00236073,0.00094
 709,0.02122623,0.32250587,0.10028787,0.00085239,-0.00075224,0.00058287
 ,-0.00001227,-0.00006091,0.00015023,0.00015223,0.00080817,0.00044694,0
 .00018568,0.00015646,-0.00004759,0.00192411,-0.00314795,-0.00371047,-0
 .00326338,-0.00230031,0.00283398,-0.01847255,-0.00781520,0.00202372,-0
 .00003295,0.32372674,-0.57497482,-0.23850985,-0.00002203,0.00077211,0.
 00016793,0.00002941,-0.00037946,-0.00009883,-0.00025719,-0.00083869,-0
 .00047397,-0.00009483,-0.00000885,0.00025069,0.00073082,0.00407395,0.0
 0193209,0.00327210,0.00443690,-0.00535091,-0.31956982,0.56489513,-0.00
 066374,0.00154792,0.00182227,0.10037108,-0.24293407,0.08951967,0.00002
 747,-0.00007576,-0.00144366,0.00005489,-0.00018994,0.00006580,0.000155
 42,0.00021807,-0.00000617,-0.00031801,-0.00001493,0.00027091,0.0002463
 6,-0.00186778,-0.00139492,0.00161747,0.00120069,-0.00461541,-0.1014909
 2,0.24211580,-0.08421848,-0.01726382,-0.00088848,0.00001223,-0.0040698
 3,-0.00312687,-0.01362946,0.01631062,0.00277272,0.01270105,-0.16697832
 ,-0.00168676,-0.00152288,-0.00038559,0.10065795,-0.13635186,-0.0077263
 7,-0.00038582,-0.00320481,0.46107738,0.31867210,1.25379859,0.00050014,
 -0.00049240,-0.00225586,-0.00052475,0.00014674,0.00067211,1.45439203,0
 .00396637,-0.00080310,0.00291091,-0.00056814,-0.00366753,0.00084030,-0
 .02160619,-0.21010856,0.01816879,0.00291084,0.01189573,-0.00260164,0.0
 0084038,-0.00000162,-0.09897301,-0.01918995,-0.29382174,0.00654140,0.0
 0079231,0.00362975,0.00086962,0.00037807,0.00173174,-1.47327048,0.0152
 6660,0.06993317,1.45473734,-0.00222480,-0.00035715,-0.00115795,0.00014
 479,0.00102585,-0.00028360,0.01597814,0.31278945,-0.00209249,-0.015181
 24,-0.30745046,-0.01019092,-0.00115787,-0.00540833,0.00066334,-0.00028
 363,-0.00021140,0.07319252,-0.00209251,0.30366112,-0.06954241,0.002679
 36,-0.29576210,-0.00005164,-0.00059572,-0.00126391,0.00015770,0.000781
 28,-0.00027545,0.00921842,0.01129146,0.00415811,0.00550710,0.00519402,
 0.00210241,-0.01692234,-0.00012917,0.00078866,0.00086279,-0.00008156,0
 .00027780,0.00006708,0.02415750,-0.06560591,-0.02510741,-0.00620374,-0
 .00343373,-0.00080976,-0.01733066,0.06737928,-0.00073113,0.00005575,0.
 00080018,-0.00002247,-0.00038634,-0.00000430,0.00813119,-0.02536882,0.
 00459685,-0.00252666,-0.00155814,-0.00036648,-0.00517469,0.02615030,-0
 .00571523,-0.00005178,0.00001458,-0.00139768,0.00015729,-0.00082495,0.
 00007536,0.00921870,-0.00853110,0.00848594,0.00550730,-0.00384528,0.00
 407573,0.00229167,-0.00054983,0.00050106,-0.01692236,-0.00018714,0.000
 44273,-0.00069882,0.00006531,0.00034979,-0.00022909,-0.01857120,-0.034
 29020,0.04293590,0.00458627,-0.00200394,0.00156046,0.00070881,0.000822
 47,0.00098169,0.01359717,0.03487029,-0.00071818,0.00010841,0.00114678,
 -0.00005355,0.00022400,-0.00007621,0.01745866,0.04319724,-0.02671937,-
 0.00488251,0.00230887,-0.00179621,0.00022642,-0.00088675,0.00103018,-0
 .01192661,-0.04475731,0.02679400,-0.00641050,-0.00124572,-0.00570776,0
 .15187138,-0.10656892,-0.48815295,0.00061792,0.00016158,0.00073956,0.0
 0052320,0.00001597,0.00007311,-0.00008143,-0.00003098,-0.00023432,-0.0
 0008149,-0.00007011,-0.00022628,-0.14549496,0.00176994,0.00023188,0.00
 154065,-0.10728298,0.23886277,-0.34073850,0.00039635,0.00103708,-0.000
 23227,0.00032008,-0.00044612,0.00009161,0.00001403,-0.00007161,0.00016
 950,0.00000956,-0.00006392,-0.00021073,0.10548777,-0.23465613,0.008107
 50,0.00154022,0.00695279,-0.49142398,-0.34073843,-1.24754857,0.0018155
 5,-0.00023217,0.00002385,0.00146619,0.00009164,-0.00004651,0.00005314,
 -0.00022728,-0.00015355,0.00005490,0.00018631,-0.00016196,0.48320068,0
 .33613825,1.23168756,0.00021275,-0.00026981,-0.00079805,-0.00093188,-0
 .02786562,0.02315922,-0.00007590,-0.00001090,0.00004909,-0.00020771,0.
 00013425,-0.00022510,-0.00002396,0.00004509,0.,-0.00009546,-0.00008831
 ,0.00010326,-0.00047197,-0.00077557,-0.00154564,0.00018118,0.00045348,
 0.00049053,-0.00019313,-0.02521740,-0.03797808,0.04161497,0.00009801,0
 .00048286,-0.00018610,-0.00016467,-0.00005566,0.00009579,-0.00003572,0
 .00005316,0.00004139,0.00008518,-0.00018030,0.00009554,-0.00191034,-0.
 00238432,-0.00315038,0.02761552,0.03870956,-0.00158657,-0.00024594,0.0
 0083698,0.01580376,0.03064804,-0.01288475,-0.00004302,0.00081227,0.000
 02405,0.00013581,-0.00005605,-0.00004132,0.00002960,-0.00007931,-0.000
 02995,0.00011949,-0.00002010,-0.00018743,0.00581666,0.00666513,0.00456
 037,-0.02117651,-0.03825198,0.00585255,0.00021281,-0.00008747,-0.00083
 771,-0.00093165,0.03498220,0.00943896,-0.00007607,0.00003032,0.0000400
 0,-0.00020777,-0.00021584,-0.00014867,-0.00009553,0.00012335,0.0000570
 3,-0.00002387,-0.00004080,0.00001879,-0.00047216,0.00006082,-0.0017283
 4,0.00141295,-0.00092407,0.00090077,0.00018128,-0.00107344,0.00071712,
 0.00024801,0.02950931,-0.06099585,-0.01955744,-0.00010695,0.00016592,0
 .00012110,0.00020632,-0.00006824,-0.00008345,-0.00002750,-0.00021012,-
 0.00008534,0.00004467,0.00005309,-0.00007928,0.00416076,-0.00250962,0.
 00639186,0.00121534,0.00086225,0.00052795,-0.03392850,0.06198545,-0.00
 125330,0.00030128,0.00061014,0.00385611,-0.00859053,0.01013307,0.00000
 187,-0.00087727,0.00034113,0.00005492,0.00006836,-0.00002878,0.0001443
 5,0.00003033,-0.00015770,0.00001181,0.00004098,-0.00002979,0.00449130,
 -0.00342363,0.00468603,0.00043374,-0.00006610,0.00186950,-0.00774082,0
 .01251658,-0.01742361,-0.01768336,-0.00103083,-0.00067397,-0.00472177,
 -0.00296731,-0.01361827,0.01565914,0.00286750,0.01313492,-0.16618948,-
 0.00157461,-0.00087559,-0.00033669,0.10050399,-0.13813540,-0.00721274,
 -0.00033668,-0.00234438,0.46037200,0.31878199,1.25249454,0.00149553,-0
 .00050658,-0.00232049,-0.00034146,-0.00043482,-0.00199172,1.45291691,0
 .00393557,-0.00023132,0.00261471,-0.00066680,-0.00209232,0.00078087,-0
 .02158721,-0.21179224,0.01802736,0.00261472,0.01117497,-0.00305435,0.0
 0078087,0.00131411,-0.09888546,-0.01860310,-0.29294502,0.00634048,0.00
 081902,0.00375161,0.00038541,0.00070045,0.00320848,-1.47201937,0.01517
 859,0.06953015,1.45386533,-0.00208519,-0.00060160,-0.00102474,0.000204
 54,-0.00003075,-0.00041141,0.01596523,0.31307875,-0.00228908,-0.015131
 42,-0.30740221,-0.00955152,-0.00102475,-0.00507187,0.00093690,-0.00041
 141,-0.00182544,0.07313346,-0.00228908,0.30309293,-0.06931404,0.002779
 53,-0.29527689,-0.00027345,-0.00050785,-0.00120105,0.00032327,0.000802
 05,0.00005766,0.00918112,0.01177073,0.00425659,0.00549220,0.00497159,0
 .00208924,-0.01682789,-0.00019885,0.00080666,0.00075542,0.00003769,0.0
 0009951,-0.00005572,0.02433737,-0.06518468,-0.02475509,-0.00608928,-0.
 00350778,-0.00083314,-0.01763938,0.06697120,-0.00079900,0.00027499,0.0
 0090761,-0.00005296,-0.00029571,-0.00009007,0.00826042,-0.02527896,0.0
 0458048,-0.00247971,-0.00161213,-0.00036364,-0.00526937,0.02587678,-0.
 00581590,-0.00027345,-0.00003890,-0.00130340,0.00032326,-0.00070504,0.
 00038663,0.00918117,-0.00892579,0.00877482,0.00549219,-0.00364855,0.00
 397111,0.00227407,-0.00053290,0.00048059,-0.01682795,-0.00015224,0.000
 43384,-0.00053820,-0.00005633,0.00019972,-0.00007713,-0.01868046,-0.03
 411243,0.04249466,0.00450183,-0.00203531,0.00159956,0.00068472,0.00082
 664,0.00101172,0.01383841,0.03472267,-0.00080917,-0.00005776,0.0012803
 8,-0.00003244,0.00016285,-0.00019023,0.01765163,0.04301854,-0.02649172
 ,-0.00479184,0.00237855,-0.00183611,0.00021478,-0.00089696,0.00107697,
 -0.01214129,-0.04446254,0.02643261,-0.00586825,-0.00116455,-0.00533435
 ,0.15130697,-0.10644408,-0.48758130,-0.00032627,0.00025819,0.00118269,
 0.00097177,-0.00022139,-0.00101414,-0.00006261,-0.00005666,-0.00019199
 ,-0.00006260,-0.00002851,-0.00019817,-0.14498328,0.00173964,-0.0000462
 0,0.00151931,-0.10723075,0.23922884,-0.34055333,0.00075410,0.00000162,
 -0.00026313,0.00007881,0.00044126,0.00016742,-0.00006547,0.00002243,0.
 00003506,-0.00002289,0.00001688,-0.00010711,0.10543212,-0.23466588,0.0
 0796866,0.00151930,0.00658153,-0.49118471,-0.34055333,-1.24637467,0.00
 345425,-0.00026312,-0.00114625,0.00036098,0.00016741,0.00117158,-0.000
 19771,-0.00009501,-0.00014027,-0.00020701,0.00002295,-0.00013471,0.482
 94584,0.33594315,1.23082655,0.00030169,-0.00010632,-0.00102731,-0.0007
 3353,-0.02755337,0.02317634,-0.00004380,0.00004827,0.00007758,-0.00026
 401,0.00003154,-0.00013837,0.00002289,0.00007065,0.00001450,-0.0001295
 9,-0.00004924,0.00006387,-0.00048786,-0.00089209,-0.00145023,-0.000110
 56,0.00030875,0.00048011,-0.00023800,-0.02475662,-0.03761237,0.0415014
 8,0.00009166,0.00034398,0.00001670,-0.00008746,0.00002079,0.00001358,0
 .00000545,0.00002965,0.00006421,0.00007276,-0.00005581,0.00001902,-0.0
 0192114,-0.00245224,-0.00303221,0.02723013,0.03838151,-0.00158747,-0.0
 0028166,0.00065897,0.01581871,0.03090602,-0.01307657,0.00034558,0.0007
 7854,0.00003258,-0.00012005,-0.00003675,0.00006275,-0.00007708,0.00000
 179,0.00002481,0.00010632,-0.00005886,-0.00018784,0.00575797,0.0064969
 1,0.00456088,-0.02111431,-0.03830557,0.00605590,0.00030165,-0.00033148
 ,-0.00097816,-0.00073357,0.03470544,0.00958464,-0.00004382,-0.00001155
 ,0.00009062,-0.00026400,-0.00008634,-0.00011263,-0.00012959,0.00007136
 ,0.00003753,0.00002289,-0.00005818,0.00004262,-0.00048787,0.00020653,-
 0.00169006,0.00144477,-0.00094354,0.00087033,-0.00011047,-0.00094224,0
 .00070804,0.00021551,0.02909679,-0.06078165,-0.01963007,0.00006071,-0.
 00001136,0.00000344,0.00002946,0.00003685,-0.00000171,-0.00002183,-0.0
 0006363,-0.00007595,-0.00003709,0.00000380,-0.00005458,0.00414603,-0.0
 0254672,0.00629084,0.00122042,0.00086436,0.00049959,-0.03355225,0.0617
 9031,-0.00131436,0.00025916,0.00043105,0.00406195,-0.00903460,0.010092
 71,0.00035234,-0.00075839,0.00038793,-0.00014558,0.00004863,0.00004669
 ,0.00012695,0.00000193,-0.00017999,-0.00006779,0.00000784,0.00005065,0
 .00443345,-0.00323829,0.00465535,0.00039793,-0.00003921,0.00186851,-0.
 00784489,0.01275294,-0.01735289\\@


 Spring appears, and we are once more children.
                                  -- Anonymous
 Job cpu time:       0 days 16 hours 56 minutes 33.6 seconds.
 Elapsed time:       0 days  0 hours 37 minutes 16.5 seconds.
 File lengths (MBytes):  RWF=   1136 Int=      0 D2E=      0 Chk=     48 Scr=      8
 Normal termination of Gaussian 16 at Thu Aug  6 22:53:23 2020.
