 Entering Gaussian System, Link 0=g16
 Input=pyrrole_mp2_avdz_opt_anharm.gjf
 Output=pyrrole_mp2_avdz_opt_anharm.log
 Initial command:
 /sw/contrib/chem-src/g16/c01/g16/l1.exe "/scr/Gau-78311.inp" -scrdir="/scr/"
 Entering Link 1 = /sw/contrib/chem-src/g16/c01/g16/l1.exe PID=     78312.
  
 Copyright (c) 1988-2019, Gaussian, Inc.  All Rights Reserved.
  
 This is part of the Gaussian(R) 16 program.  It is based on
 the Gaussian(R) 09 system (copyright 2009, Gaussian, Inc.),
 the Gaussian(R) 03 system (copyright 2003, Gaussian, Inc.),
 the Gaussian(R) 98 system (copyright 1998, Gaussian, Inc.),
 the Gaussian(R) 94 system (copyright 1995, Gaussian, Inc.),
 the Gaussian 92(TM) system (copyright 1992, Gaussian, Inc.),
 the Gaussian 90(TM) system (copyright 1990, Gaussian, Inc.),
 the Gaussian 88(TM) system (copyright 1988, Gaussian, Inc.),
 the Gaussian 86(TM) system (copyright 1986, Carnegie Mellon
 University), and the Gaussian 82(TM) system (copyright 1983,
 Carnegie Mellon University). Gaussian is a federally registered
 trademark of Gaussian, Inc.
  
 This software contains proprietary and confidential information,
 including trade secrets, belonging to Gaussian, Inc.
  
 This software is provided under written license and may be
 used, copied, transmitted, or stored only in accord with that
 written license.
  
 The following legend is applicable only to US Government
 contracts under FAR:
  
                    RESTRICTED RIGHTS LEGEND
  
 Use, reproduction and disclosure by the US Government is
 subject to restrictions as set forth in subparagraphs (a)
 and (c) of the Commercial Computer Software - Restricted
 Rights clause in FAR 52.227-19.
  
 Gaussian, Inc.
 340 Quinnipiac St., Bldg. 40, Wallingford CT 06492
  
  
 ---------------------------------------------------------------
 Warning -- This program may not be used in any manner that
 competes with the business of Gaussian, Inc. or will provide
 assistance to any competitor of Gaussian, Inc.  The licensee
 of this program is prohibited from giving any competitor of
 Gaussian, Inc. access to this program.  By using this program,
 the user acknowledges that Gaussian, Inc. is engaged in the
 business of creating and licensing software in the field of
 computational chemistry and represents and warrants to the
 licensee that it is not a competitor of Gaussian, Inc. and that
 it will not use this program in any manner prohibited above.
 ---------------------------------------------------------------
  

 Cite this work as:
 Gaussian 16, Revision C.01,
 M. J. Frisch, G. W. Trucks, H. B. Schlegel, G. E. Scuseria, 
 M. A. Robb, J. R. Cheeseman, G. Scalmani, V. Barone, 
 G. A. Petersson, H. Nakatsuji, X. Li, M. Caricato, A. V. Marenich, 
 J. Bloino, B. G. Janesko, R. Gomperts, B. Mennucci, H. P. Hratchian, 
 J. V. Ortiz, A. F. Izmaylov, J. L. Sonnenberg, D. Williams-Young, 
 F. Ding, F. Lipparini, F. Egidi, J. Goings, B. Peng, A. Petrone, 
 T. Henderson, D. Ranasinghe, V. G. Zakrzewski, J. Gao, N. Rega, 
 G. Zheng, W. Liang, M. Hada, M. Ehara, K. Toyota, R. Fukuda, 
 J. Hasegawa, M. Ishida, T. Nakajima, Y. Honda, O. Kitao, H. Nakai, 
 T. Vreven, K. Throssell, J. A. Montgomery, Jr., J. E. Peralta, 
 F. Ogliaro, M. J. Bearpark, J. J. Heyd, E. N. Brothers, K. N. Kudin, 
 V. N. Staroverov, T. A. Keith, R. Kobayashi, J. Normand, 
 K. Raghavachari, A. P. Rendell, J. C. Burant, S. S. Iyengar, 
 J. Tomasi, M. Cossi, J. M. Millam, M. Klene, C. Adamo, R. Cammi, 
 J. W. Ochterski, R. L. Martin, K. Morokuma, O. Farkas, 
 J. B. Foresman, and D. J. Fox, Gaussian, Inc., Wallingford CT, 2019.
 
 ******************************************
 Gaussian 16:  EM64L-G16RevC.01  3-Jul-2019
                 4-Apr-2025 
 ******************************************
 %nprocshared=40
 Will use up to   40 processors via shared memory.
 %mem=50gb
 ----------------------------------------------
 # MP2/aug-cc-pVDZ opt freq=(vibrot,anharmonic)
 ----------------------------------------------
 1/18=20,19=15,38=1,80=1/1,3;
 2/9=110,12=2,17=6,18=5,40=1/2;
 3/5=16,7=10,11=9,25=1,30=1,71=1/1,2,3;
 4//1;
 5/5=2,38=5/2;
 8/6=4,10=1/1;
 9/15=2,16=-3/6;
 10/5=1/2;
 6/7=2,8=2,9=2,10=2/1;
 7/12=2/1,2,3,16;
 1/18=20,19=15,80=1/3(2);
 2/9=110/2;
 99//99;
 2/9=110/2;
 3/5=16,7=10,11=9,25=1,30=1,71=1/1,2,3;
 4/5=5,16=3,69=1/1;
 5/5=2,38=5/2;
 8/6=4,10=1/1;
 9/15=2,16=-3/6;
 10/5=1/2;
 7/12=2/1,2,3,16;
 1/18=20,19=15,80=1/3(-8);
 2/9=110/2;
 6/7=2,8=2,9=2,10=2/1;
 99/9=10/99;
 ----
 blah
 ----
 Symbolic Z-matrix:
 Charge =  0 Multiplicity = 1
 C                    -0.2981    0.09307   0.17134 
 C                     0.01557  -1.1053   -0.43022 
 H                    -1.10083   0.75719  -0.12184 
 N                     1.08971  -1.64228   0.23032 
 H                    -0.43213  -1.6206   -1.26931 
 C                     1.46483  -0.80134   1.24548 
 H                     1.53592  -2.52186   0.00396 
 C                     0.61924   0.28547   1.23201 
 H                     2.29897  -1.0478    1.88853 
 H                     0.65857   1.12619   1.91246 
 

 GradGradGradGradGradGradGradGradGradGradGradGradGradGradGradGradGradGrad
 Berny optimization.
 Initialization pass.
                           ----------------------------
                           !    Initial Parameters    !
                           ! (Angstroms and Degrees)  !
 --------------------------                            --------------------------
 ! Name  Definition              Value          Derivative Info.                !
 --------------------------------------------------------------------------------
 ! R1    R(1,2)                  1.3771         estimate D2E/DX2                !
 ! R2    R(1,3)                  1.0823         estimate D2E/DX2                !
 ! R3    R(1,8)                  1.4155         estimate D2E/DX2                !
 ! R4    R(2,4)                  1.3706         estimate D2E/DX2                !
 ! R5    R(2,5)                  1.0817         estimate D2E/DX2                !
 ! R6    R(4,6)                  1.3706         estimate D2E/DX2                !
 ! R7    R(4,7)                  1.0119         estimate D2E/DX2                !
 ! R8    R(6,8)                  1.3771         estimate D2E/DX2                !
 ! R9    R(6,9)                  1.0817         estimate D2E/DX2                !
 ! R10   R(8,10)                 1.0823         estimate D2E/DX2                !
 ! A1    A(2,1,3)              125.7738         estimate D2E/DX2                !
 ! A2    A(2,1,8)              107.3381         estimate D2E/DX2                !
 ! A3    A(3,1,8)              126.8881         estimate D2E/DX2                !
 ! A4    A(1,2,4)              107.9948         estimate D2E/DX2                !
 ! A5    A(1,2,5)              131.2356         estimate D2E/DX2                !
 ! A6    A(4,2,5)              120.7696         estimate D2E/DX2                !
 ! A7    A(2,4,6)              109.3341         estimate D2E/DX2                !
 ! A8    A(2,4,7)              125.3329         estimate D2E/DX2                !
 ! A9    A(6,4,7)              125.3329         estimate D2E/DX2                !
 ! A10   A(4,6,8)              107.9948         estimate D2E/DX2                !
 ! A11   A(4,6,9)              120.7696         estimate D2E/DX2                !
 ! A12   A(8,6,9)              131.2356         estimate D2E/DX2                !
 ! A13   A(1,8,6)              107.3381         estimate D2E/DX2                !
 ! A14   A(1,8,10)             126.8881         estimate D2E/DX2                !
 ! A15   A(6,8,10)             125.7738         estimate D2E/DX2                !
 ! D1    D(3,1,2,4)            180.0            estimate D2E/DX2                !
 ! D2    D(3,1,2,5)             -0.0001         estimate D2E/DX2                !
 ! D3    D(8,1,2,4)              0.0            estimate D2E/DX2                !
 ! D4    D(8,1,2,5)            179.9999         estimate D2E/DX2                !
 ! D5    D(2,1,8,6)              0.0            estimate D2E/DX2                !
 ! D6    D(2,1,8,10)          -179.9999         estimate D2E/DX2                !
 ! D7    D(3,1,8,6)           -179.9999         estimate D2E/DX2                !
 ! D8    D(3,1,8,10)             0.0001         estimate D2E/DX2                !
 ! D9    D(1,2,4,6)              0.0            estimate D2E/DX2                !
 ! D10   D(1,2,4,7)           -180.0            estimate D2E/DX2                !
 ! D11   D(5,2,4,6)           -180.0            estimate D2E/DX2                !
 ! D12   D(5,2,4,7)              0.0            estimate D2E/DX2                !
 ! D13   D(2,4,6,8)              0.0            estimate D2E/DX2                !
 ! D14   D(2,4,6,9)           -180.0            estimate D2E/DX2                !
 ! D15   D(7,4,6,8)           -180.0            estimate D2E/DX2                !
 ! D16   D(7,4,6,9)              0.0            estimate D2E/DX2                !
 ! D17   D(4,6,8,1)              0.0            estimate D2E/DX2                !
 ! D18   D(4,6,8,10)           180.0            estimate D2E/DX2                !
 ! D19   D(9,6,8,1)            179.9999         estimate D2E/DX2                !
 ! D20   D(9,6,8,10)            -0.0001         estimate D2E/DX2                !
 --------------------------------------------------------------------------------
 Trust Radius=3.00D-01 FncErr=1.00D-07 GrdErr=1.00D-07 EigMax=2.50D+02 EigMin=1.00D-04
 Number of steps in this run=     55 maximum allowed number of steps=    100.
 GradGradGradGradGradGradGradGradGradGradGradGradGradGradGradGradGradGrad

                          Input orientation:                          
 ---------------------------------------------------------------------
 Center     Atomic      Atomic             Coordinates (Angstroms)
 Number     Number       Type             X           Y           Z
 ---------------------------------------------------------------------
      1          6           0       -0.298096    0.093070    0.171341
      2          6           0        0.015573   -1.105297   -0.430222
      3          1           0       -1.100826    0.757187   -0.121840
      4          7           0        1.089711   -1.642284    0.230324
      5          1           0       -0.432127   -1.620599   -1.269305
      6          6           0        1.464828   -0.801338    1.245484
      7          1           0        1.535917   -2.521860    0.003965
      8          6           0        0.619236    0.285465    1.232010
      9          1           0        2.298965   -1.047795    1.888527
     10          1           0        0.658565    1.126190    1.912464
 ---------------------------------------------------------------------
                    Distance matrix (angstroms):
                    1          2          3          4          5
     1  C    0.000000
     2  C    1.377080   0.000000
     3  H    1.082304   2.193237   0.000000
     4  N    2.222822   1.370566   3.268016   0.000000
     5  H    2.242785   1.081679   2.723545   2.136668   0.000000
     6  C    2.249811   2.236230   3.298659   1.370566   3.254810
     7  H    3.198355   2.122879   4.209559   1.011925   2.511311
     8  C    1.415462   2.249811   2.239207   2.222822   3.315875
     9  H    3.315875   3.254810   4.342593   2.136668   4.214127
    10  H    2.239207   3.298659   2.714777   3.268016   4.342593
                    6          7          8          9         10
     6  C    0.000000
     7  H    2.122879   0.000000
     8  C    1.377080   3.198355   0.000000
     9  H    1.081679   2.511311   2.242785   0.000000
    10  H    2.193237   4.209559   1.082304   2.723545   0.000000
 Stoichiometry    C4H5N
 Framework group  C2[C2(NH),X(C4H4)]
 Deg. of freedom    12
 Full point group                 C2      NOp   2
 Largest Abelian subgroup         C2      NOp   2
 Largest concise Abelian subgroup C2      NOp   2
                         Standard orientation:                         
 ---------------------------------------------------------------------
 Center     Atomic      Atomic             Coordinates (Angstroms)
 Number     Number       Type             X           Y           Z
 ---------------------------------------------------------------------
      1          6           0       -0.000000    0.707731   -0.983814
      2          6           0        0.000001    1.118115    0.330695
      3          1           0       -0.000000    1.357388   -1.849451
      4          7           0       -0.000000    0.000000    1.123330
      5          1           0        0.000001    2.107064    0.768885
      6          6           0       -0.000001   -1.118115    0.330695
      7          1           0       -0.000000    0.000000    2.135255
      8          6           0        0.000000   -0.707731   -0.983814
      9          1           0       -0.000001   -2.107064    0.768885
     10          1           0        0.000000   -1.357388   -1.849451
 ---------------------------------------------------------------------
 Rotational constants (GHZ):           9.2410814           8.9916901           4.5573401
 Standard basis: Aug-CC-pVDZ (5D, 7F)
 There are    88 symmetry adapted cartesian basis functions of A   symmetry.
 There are    82 symmetry adapted cartesian basis functions of B   symmetry.
 There are    82 symmetry adapted basis functions of A   symmetry.
 There are    78 symmetry adapted basis functions of B   symmetry.
   160 basis functions,   270 primitive gaussians,   170 cartesian basis functions
    18 alpha electrons       18 beta electrons
       nuclear repulsion energy       161.0994004632 Hartrees.
 NAtoms=   10 NActive=   10 NUniq=    6 SFac= 2.78D+00 NAtFMM=   60 NAOKFM=F Big=F
 Integral buffers will be    131072 words long.
 Raffenetti 1 integral format.
 Two-electron integral symmetry is turned on.
 One-electron integrals computed using PRISM.
 NBasis=   160 RedAO= T EigKep=  1.21D-05  NBF=    82    78
 NBsUse=   160 1.00D-06 EigRej= -1.00D+00 NBFU=    82    78
 ExpMin= 2.97D-02 ExpMax= 9.05D+03 ExpMxC= 3.09D+02 IAcc=3 IRadAn=         5 AccDes= 0.00D+00
 Harris functional with IExCor=  205 and IRadAn=       5 diagonalized for initial guess.
 HarFok:  IExCor=  205 AccDes= 0.00D+00 IRadAn=         5 IDoV= 1 UseB2=F ITyADJ=14
 ICtDFT=  3500011 ScaDFX=  1.000000  1.000000  1.000000  1.000000
 FoFCou: FMM=F IPFlag=           0 FMFlag=      100000 FMFlg1=           0
         NFxFlg=           0 DoJE=T BraDBF=F KetDBF=T FulRan=T
         wScrn=  0.000000 ICntrl=       500 IOpCl=  0 I1Cent=   200000004 NGrid=           0
         NMat0=    1 NMatS0=      1 NMatT0=    0 NMatD0=    1 NMtDS0=    0 NMtDT0=    0
 Petite list used in FoFCou.
 Initial guess orbital symmetries:
       Occupied  (A) (A) (B) (A) (B) (A) (A) (B) (A) (B) (A) (A)
                 (B) (B) (A) (B) (B) (A)
       Virtual   (B) (A) (A) (A) (B) (A) (B) (A) (B) (B) (A) (A)
                 (B) (A) (B) (A) (A) (B) (B) (A) (B) (A) (A) (B)
                 (A) (B) (A) (B) (B) (A) (B) (B) (A) (A) (B) (A)
                 (B) (A) (B) (B) (B) (A) (A) (B) (B) (A) (A) (A)
                 (A) (B) (A) (B) (B) (A) (B) (B) (A) (A) (B) (B)
                 (A) (B) (B) (A) (B) (A) (A) (A) (A) (B) (B) (A)
                 (B) (A) (B) (A) (B) (B) (B) (A) (A) (A) (B) (A)
                 (A) (B) (B) (B) (A) (B) (A) (B) (B) (A) (A) (A)
                 (B) (A) (B) (B) (A) (A) (B) (A) (A) (B) (B) (A)
                 (B) (A) (A) (B) (A) (B) (B) (A) (B) (B) (A) (A)
                 (B) (A) (B) (A) (A) (A) (B) (B) (A) (B) (B) (A)
                 (A) (A) (B) (B) (A) (A) (B) (B) (A) (B)
 The electronic state of the initial guess is 1-A.
 Keep R1 ints in memory in symmetry-blocked form, NReq=124464417.
 Requested convergence on RMS density matrix=1.00D-08 within 128 cycles.
 Requested convergence on MAX density matrix=1.00D-06.
 Requested convergence on             energy=1.00D-06.
 No special actions if energy rises.
 SCF Done:  E(RHF) =  -208.838013248     A.U. after   13 cycles
            NFock= 13  Conv=0.19D-08     -V/T= 2.0012
 ExpMin= 2.97D-02 ExpMax= 9.05D+03 ExpMxC= 3.09D+02 IAcc=3 IRadAn=         5 AccDes= 0.00D+00
 HarFok:  IExCor=  205 AccDes= 0.00D+00 IRadAn=         5 IDoV=-2 UseB2=F ITyADJ=14
 ICtDFT= 12500011 ScaDFX=  1.000000  1.000000  1.000000  1.000000
 Range of M.O.s used for correlation:     6   160
 NBasis=   160 NAE=    18 NBE=    18 NFC=     5 NFV=     0
 NROrb=    155 NOA=    13 NOB=    13 NVA=   142 NVB=   142

 **** Warning!!: The largest alpha MO coefficient is  0.10011774D+03

 Fully direct method using O(ONN) memory.
 JobTyp=1 Pass  1:  I=   6 to  18 NPSUse= 40 ParTrn=T ParDer=T DoDerP=T.
 Spin components of T(2) and E(2):
     alpha-alpha T2 =       0.3622246298D-01 E2=     -0.9551070985D-01
     alpha-beta  T2 =       0.1911109686D+00 E2=     -0.5326684268D+00
     beta-beta   T2 =       0.3622246298D-01 E2=     -0.9551070985D-01
 ANorm=    0.1124080021D+01
 E2 =    -0.7236898465D+00 EUMP2 =    -0.20956170309412D+03
          IDoAtm=1111111111
          Differentiating once with respect to electric field.
                with respect to dipole field.
          Differentiating once with respect to nuclear coordinates.
 Keep R1 ints in memory in symmetry-blocked form, NReq=124465946.
          There are     1 degrees of freedom in the 1st order CPHF.  IDoFFX=0 NUNeed=     1.
 LinEq1:  Iter=  0 NonCon=     1 RMS=3.69D-03 Max=4.37D-02 NDo=     1
 AX will form     1 AO Fock derivatives at one time.
 LinEq1:  Iter=  1 NonCon=     1 RMS=7.44D-04 Max=1.24D-02 NDo=     1
 LinEq1:  Iter=  2 NonCon=     1 RMS=4.11D-04 Max=1.05D-02 NDo=     1
 LinEq1:  Iter=  3 NonCon=     1 RMS=1.18D-04 Max=2.74D-03 NDo=     1
 LinEq1:  Iter=  4 NonCon=     1 RMS=5.07D-05 Max=8.13D-04 NDo=     1
 LinEq1:  Iter=  5 NonCon=     1 RMS=1.30D-05 Max=2.19D-04 NDo=     1
 LinEq1:  Iter=  6 NonCon=     1 RMS=1.98D-06 Max=2.71D-05 NDo=     1
 LinEq1:  Iter=  7 NonCon=     1 RMS=2.22D-07 Max=2.17D-06 NDo=     1
 LinEq1:  Iter=  8 NonCon=     1 RMS=3.82D-08 Max=3.07D-07 NDo=     1
 LinEq1:  Iter=  9 NonCon=     1 RMS=1.30D-08 Max=1.31D-07 NDo=     1
 LinEq1:  Iter= 10 NonCon=     1 RMS=3.69D-09 Max=3.47D-08 NDo=     1
 LinEq1:  Iter= 11 NonCon=     1 RMS=6.57D-10 Max=8.65D-09 NDo=     1
 LinEq1:  Iter= 12 NonCon=     1 RMS=1.01D-10 Max=8.24D-10 NDo=     1
 LinEq1:  Iter= 13 NonCon=     0 RMS=1.20D-11 Max=1.04D-10 NDo=     1
 Linear equations converged to 1.000D-10 1.000D-09 after    13 iterations.
 End of Minotr F.D. properties file   721 does not exist.
 End of Minotr F.D. properties file   722 does not exist.
 End of Minotr F.D. properties file   788 does not exist.

 **********************************************************************

            Population analysis using the SCF Density.

 **********************************************************************

 Orbital symmetries:
       Occupied  (A) (B) (A) (A) (B) (A) (A) (B) (A) (B) (A) (A)
                 (B) (B) (B) (A) (B) (A)
       Virtual   (A) (B) (A) (B) (A) (B) (B) (A) (B) (A) (A) (A)
                 (A) (B) (B) (A) (B) (A) (B) (A) (B) (B) (A) (A)
                 (B) (A) (B) (A) (B) (B) (A) (B) (A) (A) (B) (A)
                 (A) (B) (B) (B) (A) (B) (A) (A) (A) (B) (B) (A)
                 (A) (B) (A) (A) (B) (B) (B) (A) (B) (B) (A) (A)
                 (B) (B) (B) (A) (B) (A) (A) (B) (A) (A) (B) (A)
                 (B) (A) (B) (B) (A) (B) (A) (B) (A) (A) (B) (A)
                 (B) (A) (B) (A) (B) (B) (A) (B) (B) (A) (A) (A)
                 (B) (B) (A) (B) (A) (A) (A) (B) (A) (B) (B) (A)
                 (B) (A) (A) (A) (B) (B) (B) (B) (B) (A) (A) (A)
                 (B) (A) (B) (A) (A) (A) (B) (B) (A) (B) (B) (A)
                 (A) (A) (B) (B) (A) (A) (B) (B) (A) (B)
 The electronic state is 1-A.
 Alpha  occ. eigenvalues --  -15.61457 -11.25867 -11.25863 -11.21597 -11.21491
 Alpha  occ. eigenvalues --   -1.29481  -1.04549  -0.97793  -0.79400  -0.76786
 Alpha  occ. eigenvalues --   -0.73506  -0.59411  -0.57991  -0.56707  -0.54658
 Alpha  occ. eigenvalues --   -0.52870  -0.34762  -0.29677
 Alpha virt. eigenvalues --    0.03147   0.04368   0.04613   0.06071   0.06453
 Alpha virt. eigenvalues --    0.10079   0.12237   0.12570   0.13852   0.14431
 Alpha virt. eigenvalues --    0.14447   0.14632   0.15343   0.15533   0.16763
 Alpha virt. eigenvalues --    0.17059   0.18256   0.18278   0.18886   0.20604
 Alpha virt. eigenvalues --    0.24209   0.24496   0.26250   0.26877   0.29834
 Alpha virt. eigenvalues --    0.31182   0.32477   0.35766   0.36778   0.36838
 Alpha virt. eigenvalues --    0.38289   0.39414   0.39426   0.40764   0.41295
 Alpha virt. eigenvalues --    0.42584   0.45278   0.45908   0.47628   0.48606
 Alpha virt. eigenvalues --    0.50556   0.51384   0.55070   0.57512   0.57748
 Alpha virt. eigenvalues --    0.60738   0.61759   0.61817   0.62793   0.63036
 Alpha virt. eigenvalues --    0.64332   0.67096   0.67530   0.67969   0.68503
 Alpha virt. eigenvalues --    0.69678   0.72195   0.73305   0.73346   0.73581
 Alpha virt. eigenvalues --    0.74990   0.79321   0.79680   0.81837   0.82821
 Alpha virt. eigenvalues --    0.85336   0.89820   0.90370   0.91347   0.91862
 Alpha virt. eigenvalues --    0.93086   0.99273   1.01644   1.02297   1.03499
 Alpha virt. eigenvalues --    1.06694   1.09836   1.12734   1.15040   1.18209
 Alpha virt. eigenvalues --    1.19639   1.23379   1.26589   1.29069   1.40064
 Alpha virt. eigenvalues --    1.40555   1.44340   1.48214   1.50612   1.54552
 Alpha virt. eigenvalues --    1.56474   1.58197   1.61068   1.62854   1.65377
 Alpha virt. eigenvalues --    1.69374   1.71269   1.74010   1.75785   1.79327
 Alpha virt. eigenvalues --    1.80158   1.84613   1.93593   1.93906   1.97360
 Alpha virt. eigenvalues --    1.97384   2.02620   2.04174   2.05703   2.13271
 Alpha virt. eigenvalues --    2.13868   2.16073   2.16711   2.20525   2.24070
 Alpha virt. eigenvalues --    2.26349   2.28118   2.28158   2.33296   2.38619
 Alpha virt. eigenvalues --    2.39749   2.57783   2.58342   2.59627   2.63063
 Alpha virt. eigenvalues --    2.67986   2.69511   2.73245   2.85064   2.85390
 Alpha virt. eigenvalues --    2.86628   2.89104   2.96411   3.00854   3.05042
 Alpha virt. eigenvalues --    3.12978   3.30867   3.33540   3.35944   3.51843
 Alpha virt. eigenvalues --    4.01342   4.25249
          Condensed to atoms (all electrons):
               1          2          3          4          5          6
     1  C    5.547407   0.034104   0.041728  -0.210733  -0.125871   0.334476
     2  C    0.034104   5.280312   0.003608   0.265096   0.276960  -0.482861
     3  H    0.041728   0.003608   1.282219   0.007454  -0.006093  -0.065753
     4  N   -0.210733   0.265096   0.007454   6.961329  -0.056988   0.265096
     5  H   -0.125871   0.276960  -0.006093  -0.056988   1.174130   0.051618
     6  C    0.334476  -0.482861  -0.065753   0.265096   0.051618   5.280312
     7  H   -0.002727  -0.161357  -0.000030   0.532055  -0.013331  -0.161357
     8  C   -0.095362   0.334476   0.083591  -0.210733  -0.030397   0.034104
     9  H   -0.030397   0.051618  -0.005290  -0.056988   0.010531   0.276960
    10  H    0.083591  -0.065753  -0.025501   0.007454  -0.005290   0.003608
               7          8          9         10
     1  C   -0.002727  -0.095362  -0.030397   0.083591
     2  C   -0.161357   0.334476   0.051618  -0.065753
     3  H   -0.000030   0.083591  -0.005290  -0.025501
     4  N    0.532055  -0.210733  -0.056988   0.007454
     5  H   -0.013331  -0.030397   0.010531  -0.005290
     6  C   -0.161357   0.034104   0.276960   0.003608
     7  H    0.912557  -0.002727  -0.013331  -0.000030
     8  C   -0.002727   5.547407  -0.125871   0.041728
     9  H   -0.013331  -0.125871   1.174130  -0.006093
    10  H   -0.000030   0.041728  -0.006093   1.282219
 Mulliken charges:
               1
     1  C    0.423784
     2  C    0.463797
     3  H   -0.315932
     4  N   -0.503039
     5  H   -0.275269
     6  C    0.463797
     7  H   -0.089722
     8  C    0.423784
     9  H   -0.275269
    10  H   -0.315932
 Sum of Mulliken charges =  -0.00000
 Mulliken charges with hydrogens summed into heavy atoms:
               1
     1  C    0.107853
     2  C    0.188528
     4  N   -0.592761
     6  C    0.188528
     8  C    0.107853
 Electronic spatial extent (au):  <R**2>=            306.5943
 Charge=             -0.0000 electrons
 Dipole moment (field-independent basis, Debye):
    X=             -0.0000    Y=             -0.0000    Z=              1.8748  Tot=              1.8748
 Quadrupole moment (field-independent basis, Debye-Ang):
   XX=            -35.0798   YY=            -27.2297   ZZ=            -23.8371
   XY=              0.0000   XZ=              0.0000   YZ=             -0.0000
 Traceless Quadrupole moment (field-independent basis, Debye-Ang):
   XX=             -6.3643   YY=              1.4858   ZZ=              4.8784
   XY=              0.0000   XZ=              0.0000   YZ=             -0.0000
 Octapole moment (field-independent basis, Debye-Ang**2):
  XXX=             -0.0000  YYY=             -0.0000  ZZZ=             12.3016  XYY=             -0.0000
  XXY=             -0.0000  XXZ=              2.4472  XZZ=             -0.0000  YZZ=             -0.0000
  YYZ=              3.3170  XYZ=              0.0000
 Hexadecapole moment (field-independent basis, Debye-Ang**3):
 XXXX=            -44.2406 YYYY=           -178.8138 ZZZZ=           -150.7413 XXXY=             -0.0000
 XXXZ=              0.0000 YYYX=             -0.0000 YYYZ=              0.0000 ZZZX=              0.0000
 ZZZY=             -0.0000 XXYY=            -47.1057 XXZZ=            -43.4814 YYZZ=            -56.0327
 XXYZ=             -0.0000 YYXZ=              0.0000 ZZXY=             -0.0000
 N-N= 1.610994004632D+02 E-N=-8.091864632176D+02  KE= 2.085889470385D+02
 Symmetry A    KE= 1.280705107139D+02
 Symmetry B    KE= 8.051843632468D+01
 Calling FoFJK, ICntrl=  10002127 FMM=F ISym2X=1 I1Cent= 0 IOpClX= 0 NMat=1 NMatS=1 NMatT=0.
 ***** Axes restored to original set *****
 -------------------------------------------------------------------
 Center     Atomic                   Forces (Hartrees/Bohr)
 Number     Number              X              Y              Z
 -------------------------------------------------------------------
      1        6          -0.008972547    0.011457229   -0.000199947
      2        6          -0.002879798   -0.013755104   -0.013360959
      3        1          -0.003679552    0.002677026   -0.001623870
      4        7           0.002317182   -0.004567704   -0.001175503
      5        1          -0.002435082   -0.001779761   -0.003783581
      6        6           0.014939704   -0.010017771    0.007242987
      7        1          -0.000145953    0.000287707    0.000074042
      8        6          -0.003259734    0.012655438    0.006405365
      9        1           0.003598832   -0.000514260    0.003193213
     10        1           0.000516949    0.003557199    0.003228254
 -------------------------------------------------------------------
 Cartesian Forces:  Max     0.014939704 RMS     0.006574920

 GradGradGradGradGradGradGradGradGradGradGradGradGradGradGradGradGradGrad
 Berny optimization.
 FormGI is forming the generalized inverse of G from B-inverse, IUseBI=4.
 Internal  Forces:  Max     0.018700211 RMS     0.005370988
 Search for a local minimum.
 Step number   1 out of a maximum of   55
 All quantities printed in internal units (Hartrees-Bohrs-Radians)
 Mixed Optimization -- RFO/linear search
 Second derivative matrix not updated -- first step.
 ITU=  0
     Eigenvalues ---    0.02049   0.02081   0.02111   0.02165   0.02228
     Eigenvalues ---    0.02264   0.02293   0.16000   0.16000   0.16000
     Eigenvalues ---    0.16000   0.16000   0.22000   0.22000   0.35717
     Eigenvalues ---    0.35717   0.35792   0.35792   0.39947   0.43503
     Eigenvalues ---    0.45652   0.47797   0.49846   0.50571
 RFO step:  Lambda=-2.87318524D-03 EMin= 2.04910670D-02
 Linear search not attempted -- first point.
 Iteration  1 RMS(Cart)=  0.01624665 RMS(Int)=  0.00005143
 Iteration  2 RMS(Cart)=  0.00005432 RMS(Int)=  0.00000437
 Iteration  3 RMS(Cart)=  0.00000000 RMS(Int)=  0.00000437
 ClnCor:  largest displacement from symmetrization is 1.37D-09 for atom    10.
 Variable       Old X    -DE/DX   Delta X   Delta X   Delta X     New X
                                 (Linear)    (Quad)   (Total)
    R1        2.60230   0.01870   0.00000   0.03766   0.03766   2.63996
    R2        2.04526   0.00481   0.00000   0.01336   0.01336   2.05862
    R3        2.67484   0.01448   0.00000   0.03413   0.03412   2.70896
    R4        2.58999   0.01086   0.00000   0.02068   0.02069   2.61068
    R5        2.04408   0.00479   0.00000   0.01328   0.01328   2.05736
    R6        2.58999   0.01086   0.00000   0.02068   0.02069   2.61068
    R7        1.91226  -0.00033   0.00000  -0.00072  -0.00072   1.91154
    R8        2.60230   0.01870   0.00000   0.03766   0.03766   2.63996
    R9        2.04408   0.00479   0.00000   0.01328   0.01328   2.05736
   R10        2.04526   0.00481   0.00000   0.01336   0.01336   2.05862
    A1        2.19517  -0.00042   0.00000  -0.00356  -0.00356   2.19161
    A2        1.87340  -0.00005   0.00000   0.00164   0.00162   1.87503
    A3        2.21461   0.00047   0.00000   0.00193   0.00193   2.21655
    A4        1.88487  -0.00251   0.00000  -0.01197  -0.01197   1.87290
    A5        2.29049   0.00056   0.00000   0.00172   0.00172   2.29221
    A6        2.10783   0.00195   0.00000   0.01025   0.01025   2.11807
    A7        1.90824   0.00511   0.00000   0.02067   0.02068   1.92892
    A8        2.18747  -0.00256   0.00000  -0.01034  -0.01034   2.17713
    A9        2.18747  -0.00256   0.00000  -0.01034  -0.01034   2.17713
   A10        1.88487  -0.00251   0.00000  -0.01197  -0.01197   1.87290
   A11        2.10783   0.00195   0.00000   0.01025   0.01025   2.11807
   A12        2.29049   0.00056   0.00000   0.00172   0.00172   2.29221
   A13        1.87340  -0.00005   0.00000   0.00164   0.00162   1.87503
   A14        2.21461   0.00047   0.00000   0.00193   0.00193   2.21655
   A15        2.19517  -0.00042   0.00000  -0.00356  -0.00356   2.19161
    D1        3.14159   0.00000   0.00000   0.00000   0.00000  -3.14159
    D2       -0.00000   0.00000   0.00000   0.00000   0.00000  -0.00000
    D3       -0.00000   0.00000   0.00000   0.00000   0.00000   0.00000
    D4        3.14159   0.00000   0.00000   0.00000   0.00000  -3.14159
    D5        0.00000  -0.00000   0.00000  -0.00000  -0.00000  -0.00000
    D6       -3.14159  -0.00000   0.00000  -0.00000  -0.00000   3.14159
    D7       -3.14159  -0.00000   0.00000  -0.00000  -0.00000   3.14159
    D8        0.00000  -0.00000   0.00000  -0.00000  -0.00000   0.00000
    D9        0.00000  -0.00000   0.00000  -0.00000  -0.00000  -0.00000
   D10       -3.14159  -0.00000   0.00000  -0.00000  -0.00000   3.14159
   D11       -3.14159  -0.00000   0.00000  -0.00000  -0.00000  -3.14159
   D12        0.00000  -0.00000   0.00000  -0.00000  -0.00000   0.00000
   D13        0.00000  -0.00000   0.00000  -0.00000  -0.00000  -0.00000
   D14       -3.14159  -0.00000   0.00000  -0.00000  -0.00000  -3.14159
   D15       -3.14159  -0.00000   0.00000  -0.00000  -0.00000   3.14159
   D16        0.00000  -0.00000   0.00000  -0.00000  -0.00000   0.00000
   D17       -0.00000   0.00000   0.00000   0.00000   0.00000   0.00000
   D18        3.14159   0.00000   0.00000   0.00000   0.00000  -3.14159
   D19        3.14159   0.00000   0.00000   0.00000   0.00000  -3.14159
   D20       -0.00000   0.00000   0.00000   0.00000   0.00000  -0.00000
         Item               Value     Threshold  Converged?
 Maximum Force            0.018700     0.000450     NO 
 RMS     Force            0.005371     0.000300     NO 
 Maximum Displacement     0.038531     0.001800     NO 
 RMS     Displacement     0.016245     0.001200     NO 
 Predicted change in Energy=-1.446321D-03
 GradGradGradGradGradGradGradGradGradGradGradGradGradGradGradGradGradGrad

                          Input orientation:                          
 ---------------------------------------------------------------------
 Center     Atomic      Atomic             Coordinates (Angstroms)
 Number     Number       Type             X           Y           Z
 ---------------------------------------------------------------------
      1          6           0       -0.308183    0.100191    0.166725
      2          6           0        0.008323   -1.115222   -0.445016
      3          1           0       -1.116690    0.767320   -0.129914
      4          7           0        1.091198   -1.645215    0.229570
      5          1           0       -0.442215   -1.633948   -1.289540
      6          6           0        1.479785   -0.806606    1.256368
      7          1           0        1.537236   -2.524460    0.003296
      8          6           0        0.620853    0.295042    1.240924
      9          1           0        2.319355   -1.054753    1.903535
     10          1           0        0.662086    1.140390    1.926800
 ---------------------------------------------------------------------
                    Distance matrix (angstroms):
                    1          2          3          4          5
     1  C    0.000000
     2  C    1.397008   0.000000
     3  H    1.089376   2.215605   0.000000
     4  N    2.238003   1.381513   3.290034   0.000000
     5  H    2.268460   1.088706   2.750588   2.158512   0.000000
     6  C    2.281761   2.270496   3.337770   1.381513   3.295485
     7  H    3.212642   2.127089   4.230471   1.011544   2.526392
     8  C    1.433519   2.281761   2.263029   2.238003   3.354752
     9  H    3.354752   3.295485   4.388767   2.158512   4.261158
    10  H    2.263029   3.337770   2.744686   3.290034   4.388767
                    6          7          8          9         10
     6  C    0.000000
     7  H    2.127089   0.000000
     8  C    1.397008   3.212642   0.000000
     9  H    1.088706   2.526392   2.268460   0.000000
    10  H    2.215605   4.230471   1.089376   2.750588   0.000000
 Stoichiometry    C4H5N
 Framework group  C2[C2(NH),X(C4H4)]
 Deg. of freedom    12
 Full point group                 C2      NOp   2
 Largest Abelian subgroup         C2      NOp   2
 Largest concise Abelian subgroup C2      NOp   2
                         Standard orientation:                         
 ---------------------------------------------------------------------
 Center     Atomic      Atomic             Coordinates (Angstroms)
 Number     Number       Type             X           Y           Z
 ---------------------------------------------------------------------
      1          6           0        0.000001    0.716760   -0.993741
      2          6           0        0.000000    1.135248    0.339113
      3          1           0        0.000001    1.372343   -1.863770
      4          7           0       -0.000000   -0.000000    1.126380
      5          1           0        0.000000    2.130579    0.780245
      6          6           0       -0.000000   -1.135248    0.339113
      7          1           0       -0.000000   -0.000000    2.137924
      8          6           0       -0.000001   -0.716760   -0.993741
      9          1           0       -0.000000   -2.130579    0.780245
     10          1           0       -0.000001   -1.372343   -1.863770
 ---------------------------------------------------------------------
 Rotational constants (GHZ):           8.9914408           8.8566939           4.4617794
 Standard basis: Aug-CC-pVDZ (5D, 7F)
 There are    88 symmetry adapted cartesian basis functions of A   symmetry.
 There are    82 symmetry adapted cartesian basis functions of B   symmetry.
 There are    82 symmetry adapted basis functions of A   symmetry.
 There are    78 symmetry adapted basis functions of B   symmetry.
   160 basis functions,   270 primitive gaussians,   170 cartesian basis functions
    18 alpha electrons       18 beta electrons
       nuclear repulsion energy       159.4636235743 Hartrees.
 NAtoms=   10 NActive=   10 NUniq=    6 SFac= 2.78D+00 NAtFMM=   60 NAOKFM=F Big=F
 Integral buffers will be    131072 words long.
 Raffenetti 1 integral format.
 Two-electron integral symmetry is turned on.
 One-electron integrals computed using PRISM.
 NBasis=   160 RedAO= T EigKep=  1.30D-05  NBF=    82    78
 NBsUse=   160 1.00D-06 EigRej= -1.00D+00 NBFU=    82    78
 Initial guess from the checkpoint file:  "/scr/Gau-78312.chk"
 B after Tr=    -0.000000   -0.000000    0.000000
         Rot=    1.000000   -0.000000   -0.000000   -0.000000 Ang=  -0.00 deg.
 Initial guess orbital symmetries:
       Occupied  (A) (B) (A) (A) (B) (A) (A) (B) (A) (B) (A) (A)
                 (B) (B) (B) (A) (B) (A)
       Virtual   (A) (B) (A) (B) (A) (B) (B) (A) (B) (A) (A) (A)
                 (A) (B) (B) (A) (B) (A) (B) (A) (B) (B) (A) (A)
                 (B) (A) (B) (A) (B) (B) (A) (B) (A) (A) (B) (A)
                 (A) (B) (B) (B) (A) (B) (A) (A) (A) (B) (B) (A)
                 (A) (B) (A) (A) (B) (B) (B) (A) (B) (B) (A) (A)
                 (B) (B) (B) (A) (B) (A) (A) (B) (A) (A) (B) (A)
                 (B) (A) (B) (B) (A) (B) (A) (B) (A) (A) (B) (A)
                 (B) (A) (B) (A) (B) (B) (A) (B) (B) (A) (A) (A)
                 (B) (B) (A) (B) (A) (A) (A) (B) (A) (B) (B) (A)
                 (B) (A) (A) (A) (B) (B) (B) (B) (B) (A) (A) (A)
                 (B) (A) (B) (A) (A) (A) (B) (B) (A) (B) (B) (A)
                 (A) (A) (B) (B) (A) (A) (B) (B) (A) (B)
 ExpMin= 2.97D-02 ExpMax= 9.05D+03 ExpMxC= 3.09D+02 IAcc=3 IRadAn=         5 AccDes= 0.00D+00
 Harris functional with IExCor=  205 and IRadAn=       5 diagonalized for initial guess.
 HarFok:  IExCor=  205 AccDes= 0.00D+00 IRadAn=         5 IDoV= 1 UseB2=F ITyADJ=14
 ICtDFT=  3500011 ScaDFX=  1.000000  1.000000  1.000000  1.000000
 FoFCou: FMM=F IPFlag=           0 FMFlag=      100000 FMFlg1=           0
         NFxFlg=           0 DoJE=T BraDBF=F KetDBF=T FulRan=T
         wScrn=  0.000000 ICntrl=       500 IOpCl=  0 I1Cent=   200000004 NGrid=           0
         NMat0=    1 NMatS0=      1 NMatT0=    0 NMatD0=    1 NMtDS0=    0 NMtDT0=    0
 Petite list used in FoFCou.
 Keep R1 ints in memory in symmetry-blocked form, NReq=124464417.
 Requested convergence on RMS density matrix=1.00D-08 within 128 cycles.
 Requested convergence on MAX density matrix=1.00D-06.
 Requested convergence on             energy=1.00D-06.
 No special actions if energy rises.
 SCF Done:  E(RHF) =  -208.835296643     A.U. after   11 cycles
            NFock= 11  Conv=0.29D-08     -V/T= 2.0025
 ExpMin= 2.97D-02 ExpMax= 9.05D+03 ExpMxC= 3.09D+02 IAcc=3 IRadAn=         5 AccDes= 0.00D+00
 HarFok:  IExCor=  205 AccDes= 0.00D+00 IRadAn=         5 IDoV=-2 UseB2=F ITyADJ=14
 ICtDFT= 12500011 ScaDFX=  1.000000  1.000000  1.000000  1.000000
 Range of M.O.s used for correlation:     6   160
 NBasis=   160 NAE=    18 NBE=    18 NFC=     5 NFV=     0
 NROrb=    155 NOA=    13 NOB=    13 NVA=   142 NVB=   142

 **** Warning!!: The largest alpha MO coefficient is  0.96048983D+02

 Fully direct method using O(ONN) memory.
 JobTyp=1 Pass  1:  I=   6 to  18 NPSUse= 40 ParTrn=T ParDer=T DoDerP=T.
 Spin components of T(2) and E(2):
     alpha-alpha T2 =       0.3683527548D-01 E2=     -0.9588875348D-01
     alpha-beta  T2 =       0.1948207197D+00 E2=     -0.5359238567D+00
     beta-beta   T2 =       0.3683527548D-01 E2=     -0.9588875348D-01
 ANorm=    0.1126273178D+01
 E2 =    -0.7277013637D+00 EUMP2 =    -0.20956299800672D+03
          IDoAtm=1111111111
          Differentiating once with respect to electric field.
                with respect to dipole field.
          Differentiating once with respect to nuclear coordinates.
 Keep R1 ints in memory in symmetry-blocked form, NReq=124465946.
          There are     1 degrees of freedom in the 1st order CPHF.  IDoFFX=0 NUNeed=     1.
 LinEq1:  Iter=  0 NonCon=     1 RMS=3.76D-03 Max=4.61D-02 NDo=     1
 AX will form     1 AO Fock derivatives at one time.
 LinEq1:  Iter=  1 NonCon=     1 RMS=7.82D-04 Max=1.27D-02 NDo=     1
 LinEq1:  Iter=  2 NonCon=     1 RMS=4.30D-04 Max=1.10D-02 NDo=     1
 LinEq1:  Iter=  3 NonCon=     1 RMS=1.27D-04 Max=2.93D-03 NDo=     1
 LinEq1:  Iter=  4 NonCon=     1 RMS=5.49D-05 Max=9.16D-04 NDo=     1
 LinEq1:  Iter=  5 NonCon=     1 RMS=1.42D-05 Max=2.42D-04 NDo=     1
 LinEq1:  Iter=  6 NonCon=     1 RMS=2.16D-06 Max=2.74D-05 NDo=     1
 LinEq1:  Iter=  7 NonCon=     1 RMS=3.35D-07 Max=3.47D-06 NDo=     1
 LinEq1:  Iter=  8 NonCon=     1 RMS=1.22D-07 Max=1.29D-06 NDo=     1
 LinEq1:  Iter=  9 NonCon=     1 RMS=2.30D-08 Max=2.33D-07 NDo=     1
 LinEq1:  Iter= 10 NonCon=     1 RMS=4.36D-09 Max=4.47D-08 NDo=     1
 LinEq1:  Iter= 11 NonCon=     1 RMS=7.75D-10 Max=9.47D-09 NDo=     1
 LinEq1:  Iter= 12 NonCon=     1 RMS=1.18D-10 Max=1.01D-09 NDo=     1
 LinEq1:  Iter= 13 NonCon=     0 RMS=1.42D-11 Max=1.29D-10 NDo=     1
 Linear equations converged to 1.000D-10 1.000D-09 after    13 iterations.
 End of Minotr F.D. properties file   721 does not exist.
 End of Minotr F.D. properties file   722 does not exist.
 End of Minotr F.D. properties file   788 does not exist.
 Calling FoFJK, ICntrl=  10002127 FMM=F ISym2X=1 I1Cent= 0 IOpClX= 0 NMat=1 NMatS=1 NMatT=0.
 ***** Axes restored to original set *****
 -------------------------------------------------------------------
 Center     Atomic                   Forces (Hartrees/Bohr)
 Number     Number              X              Y              Z
 -------------------------------------------------------------------
      1        6           0.001585096    0.000735437    0.002139934
      2        6           0.001254230   -0.000466241    0.000894083
      3        1           0.000187838   -0.000167186    0.000059603
      4        7          -0.000616801    0.001215857    0.000312902
      5        1           0.000375322    0.000213320    0.000536638
      6        6          -0.000585478   -0.000852024   -0.001233339
      7        1           0.000251546   -0.000495855   -0.000127609
      8        6          -0.001954603   -0.000007053   -0.001952484
      9        1          -0.000498756    0.000029997   -0.000474020
     10        1           0.000001606   -0.000206251   -0.000155707
 -------------------------------------------------------------------
 Cartesian Forces:  Max     0.002139934 RMS     0.000890871

 GradGradGradGradGradGradGradGradGradGradGradGradGradGradGradGradGradGrad
 Berny optimization.
 Using GEDIIS/GDIIS optimizer.
 FormGI is forming the generalized inverse of G from B-inverse, IUseBI=4.
 Internal  Forces:  Max     0.003126214 RMS     0.000646209
 Search for a local minimum.
 Step number   2 out of a maximum of   55
 All quantities printed in internal units (Hartrees-Bohrs-Radians)
 Mixed Optimization -- En-DIIS/RFO-DIIS
 Update second derivatives using D2CorX and points    1    2
 DE= -1.29D-03 DEPred=-1.45D-03 R= 8.95D-01
 TightC=F SS=  1.41D+00  RLast= 8.22D-02 DXNew= 5.0454D-01 2.4646D-01
 Trust test= 8.95D-01 RLast= 8.22D-02 DXMaxT set to 3.00D-01
 ITU=  1  0
 Use linear search instead of GDIIS.
     Eigenvalues ---    0.02048   0.02081   0.02110   0.02164   0.02226
     Eigenvalues ---    0.02263   0.02292   0.15996   0.16000   0.16000
     Eigenvalues ---    0.16000   0.16021   0.22000   0.22387   0.35675
     Eigenvalues ---    0.35717   0.35792   0.36041   0.40902   0.43681
     Eigenvalues ---    0.45560   0.46409   0.50578   0.53472
 RFO step:  Lambda=-2.20678109D-05 EMin= 2.04824080D-02
 Quartic linear search produced a step of -0.07921.
 Iteration  1 RMS(Cart)=  0.00196546 RMS(Int)=  0.00000104
 Iteration  2 RMS(Cart)=  0.00000090 RMS(Int)=  0.00000042
 ClnCor:  largest displacement from symmetrization is 1.81D-09 for atom    10.
 Variable       Old X    -DE/DX   Delta X   Delta X   Delta X     New X
                                 (Linear)    (Quad)   (Total)
    R1        2.63996   0.00012  -0.00298   0.00340   0.00042   2.64039
    R2        2.05862  -0.00026  -0.00106   0.00045  -0.00061   2.05801
    R3        2.70896  -0.00313  -0.00270  -0.00378  -0.00648   2.70248
    R4        2.61068  -0.00175  -0.00164  -0.00144  -0.00308   2.60760
    R5        2.05736  -0.00067  -0.00105  -0.00063  -0.00168   2.05568
    R6        2.61068  -0.00175  -0.00164  -0.00144  -0.00308   2.60760
    R7        1.91154   0.00057   0.00006   0.00109   0.00115   1.91269
    R8        2.63996   0.00012  -0.00298   0.00340   0.00042   2.64039
    R9        2.05736  -0.00067  -0.00105  -0.00063  -0.00168   2.05568
   R10        2.05862  -0.00026  -0.00106   0.00045  -0.00061   2.05801
    A1        2.19161   0.00006   0.00028  -0.00007   0.00021   2.19182
    A2        1.87503  -0.00016  -0.00013  -0.00046  -0.00059   1.87444
    A3        2.21655   0.00009  -0.00015   0.00053   0.00038   2.21692
    A4        1.87290   0.00048   0.00095   0.00102   0.00197   1.87487
    A5        2.29221  -0.00009  -0.00014   0.00001  -0.00012   2.29209
    A6        2.11807  -0.00039  -0.00081  -0.00104  -0.00185   2.11623
    A7        1.92892  -0.00065  -0.00164  -0.00113  -0.00277   1.92615
    A8        2.17713   0.00033   0.00082   0.00057   0.00139   2.17852
    A9        2.17713   0.00033   0.00082   0.00057   0.00139   2.17852
   A10        1.87290   0.00048   0.00095   0.00102   0.00197   1.87487
   A11        2.11807  -0.00039  -0.00081  -0.00104  -0.00185   2.11623
   A12        2.29221  -0.00009  -0.00014   0.00001  -0.00012   2.29209
   A13        1.87503  -0.00016  -0.00013  -0.00046  -0.00059   1.87444
   A14        2.21655   0.00009  -0.00015   0.00053   0.00038   2.21692
   A15        2.19161   0.00006   0.00028  -0.00007   0.00021   2.19182
    D1       -3.14159  -0.00000  -0.00000  -0.00000  -0.00000   3.14159
    D2       -0.00000   0.00000  -0.00000   0.00000   0.00000  -0.00000
    D3        0.00000  -0.00000  -0.00000  -0.00000  -0.00000  -0.00000
    D4       -3.14159  -0.00000  -0.00000  -0.00000  -0.00000   3.14159
    D5       -0.00000   0.00000   0.00000   0.00000   0.00000   0.00000
    D6        3.14159   0.00000   0.00000   0.00000   0.00000  -3.14159
    D7        3.14159   0.00000   0.00000   0.00000   0.00000  -3.14159
    D8        0.00000  -0.00000   0.00000  -0.00000  -0.00000   0.00000
    D9       -0.00000   0.00000   0.00000   0.00000   0.00000   0.00000
   D10        3.14159   0.00000   0.00000   0.00000   0.00000  -3.14159
   D11       -3.14159  -0.00000   0.00000  -0.00000  -0.00000  -3.14159
   D12        0.00000  -0.00000   0.00000  -0.00000  -0.00000   0.00000
   D13       -0.00000   0.00000   0.00000   0.00000   0.00000   0.00000
   D14       -3.14159  -0.00000   0.00000  -0.00000  -0.00000  -3.14159
   D15        3.14159   0.00000   0.00000   0.00000   0.00000  -3.14159
   D16        0.00000  -0.00000   0.00000  -0.00000  -0.00000   0.00000
   D17        0.00000  -0.00000  -0.00000  -0.00000  -0.00000  -0.00000
   D18       -3.14159  -0.00000  -0.00000  -0.00000  -0.00000   3.14159
   D19       -3.14159  -0.00000  -0.00000  -0.00000  -0.00000   3.14159
   D20       -0.00000   0.00000  -0.00000   0.00000   0.00000  -0.00000
         Item               Value     Threshold  Converged?
 Maximum Force            0.003126     0.000450     NO 
 RMS     Force            0.000646     0.000300     NO 
 Maximum Displacement     0.004891     0.001800     NO 
 RMS     Displacement     0.001965     0.001200     NO 
 Predicted change in Energy=-1.994528D-05
 GradGradGradGradGradGradGradGradGradGradGradGradGradGradGradGradGradGrad

                          Input orientation:                          
 ---------------------------------------------------------------------
 Center     Atomic      Atomic             Coordinates (Angstroms)
 Number     Number       Type             X           Y           Z
 ---------------------------------------------------------------------
      1          6           0       -0.307329    0.100933    0.168140
      2          6           0        0.009841   -1.114782   -0.443167
      3          1           0       -1.115700    0.767604   -0.128713
      4          7           0        1.091425   -1.645663    0.229455
      5          1           0       -0.439994   -1.633457   -1.286951
      6          6           0        1.478155   -0.806826    1.254575
      7          1           0        1.537730   -2.525435    0.003045
      8          6           0        0.619483    0.295317    1.239771
      9          1           0        2.317111   -1.055198    1.900959
     10          1           0        0.661026    1.140243    1.925635
 ---------------------------------------------------------------------
                    Distance matrix (angstroms):
                    1          2          3          4          5
     1  C    0.000000
     2  C    1.397232   0.000000
     3  H    1.089053   2.215649   0.000000
     4  N    2.238497   1.379883   3.289915   0.000000
     5  H    2.267819   1.087818   2.750125   2.155199   0.000000
     6  C    2.278666   2.265636   3.334726   1.379883   3.289676
     7  H    3.213924   2.126850   4.231094   1.012151   2.524106
     8  C    1.430090   2.278666   2.259793   2.238497   3.350669
     9  H    3.350669   3.289676   4.384789   2.155199   4.254267
    10  H    2.259793   3.334726   2.741526   3.289915   4.384789
                    6          7          8          9         10
     6  C    0.000000
     7  H    2.126850   0.000000
     8  C    1.397232   3.213924   0.000000
     9  H    1.087818   2.524106   2.267819   0.000000
    10  H    2.215649   4.231094   1.089053   2.750125   0.000000
 Stoichiometry    C4H5N
 Framework group  C2[C2(NH),X(C4H4)]
 Deg. of freedom    12
 Full point group                 C2      NOp   2
 Largest Abelian subgroup         C2      NOp   2
 Largest concise Abelian subgroup C2      NOp   2
                         Standard orientation:                         
 ---------------------------------------------------------------------
 Center     Atomic      Atomic             Coordinates (Angstroms)
 Number     Number       Type             X           Y           Z
 ---------------------------------------------------------------------
      1          6           0       -0.000000    0.715045   -0.994214
      2          6           0        0.000001    1.132818    0.339098
      3          1           0       -0.000000    1.370763   -1.863737
      4          7           0       -0.000000    0.000000    1.127007
      5          1           0        0.000002    2.127133    0.780330
      6          6           0       -0.000001   -1.132818    0.339098
      7          1           0       -0.000000    0.000000    2.139158
      8          6           0        0.000000   -0.715045   -0.994214
      9          1           0       -0.000002   -2.127133    0.780330
     10          1           0        0.000000   -1.370763   -1.863737
 ---------------------------------------------------------------------
 Rotational constants (GHZ):           9.0283054           8.8493356           4.4689623
 Standard basis: Aug-CC-pVDZ (5D, 7F)
 There are    88 symmetry adapted cartesian basis functions of A   symmetry.
 There are    82 symmetry adapted cartesian basis functions of B   symmetry.
 There are    82 symmetry adapted basis functions of A   symmetry.
 There are    78 symmetry adapted basis functions of B   symmetry.
   160 basis functions,   270 primitive gaussians,   170 cartesian basis functions
    18 alpha electrons       18 beta electrons
       nuclear repulsion energy       159.5878851827 Hartrees.
 NAtoms=   10 NActive=   10 NUniq=    6 SFac= 2.78D+00 NAtFMM=   60 NAOKFM=F Big=F
 Integral buffers will be    131072 words long.
 Raffenetti 1 integral format.
 Two-electron integral symmetry is turned on.
 One-electron integrals computed using PRISM.
 NBasis=   160 RedAO= T EigKep=  1.30D-05  NBF=    82    78
 NBsUse=   160 1.00D-06 EigRej= -1.00D+00 NBFU=    82    78
 Initial guess from the checkpoint file:  "/scr/Gau-78312.chk"
 B after Tr=     0.000000    0.000000   -0.000000
         Rot=    1.000000    0.000000   -0.000000    0.000000 Ang=   0.00 deg.
 Initial guess orbital symmetries:
       Occupied  (A) (B) (A) (A) (B) (A) (A) (B) (A) (B) (A) (A)
                 (B) (B) (B) (A) (B) (A)
       Virtual   (A) (B) (A) (B) (A) (B) (B) (A) (B) (A) (A) (A)
                 (A) (B) (B) (A) (B) (A) (B) (A) (B) (B) (A) (A)
                 (B) (A) (B) (A) (B) (B) (A) (A) (B) (A) (B) (A)
                 (A) (B) (B) (B) (A) (B) (A) (A) (A) (B) (B) (A)
                 (A) (B) (A) (A) (B) (B) (B) (A) (B) (A) (B) (A)
                 (B) (B) (B) (A) (B) (A) (A) (B) (A) (A) (B) (A)
                 (B) (A) (B) (B) (A) (B) (A) (B) (A) (A) (B) (A)
                 (B) (A) (B) (A) (B) (B) (A) (B) (B) (A) (A) (A)
                 (B) (B) (A) (B) (A) (A) (A) (B) (A) (B) (B) (A)
                 (B) (A) (A) (B) (A) (B) (B) (B) (B) (A) (A) (A)
                 (B) (B) (A) (A) (A) (A) (B) (B) (A) (B) (B) (A)
                 (A) (A) (B) (B) (A) (A) (B) (B) (A) (B)
 Keep R1 ints in memory in symmetry-blocked form, NReq=124464417.
 Requested convergence on RMS density matrix=1.00D-08 within 128 cycles.
 Requested convergence on MAX density matrix=1.00D-06.
 Requested convergence on             energy=1.00D-06.
 No special actions if energy rises.
 SCF Done:  E(RHF) =  -208.835485737     A.U. after    9 cycles
            NFock=  9  Conv=0.94D-08     -V/T= 2.0024
 ExpMin= 2.97D-02 ExpMax= 9.05D+03 ExpMxC= 3.09D+02 IAcc=3 IRadAn=         5 AccDes= 0.00D+00
 HarFok:  IExCor=  205 AccDes= 0.00D+00 IRadAn=         5 IDoV=-2 UseB2=F ITyADJ=14
 ICtDFT= 12500011 ScaDFX=  1.000000  1.000000  1.000000  1.000000
 Range of M.O.s used for correlation:     6   160
 NBasis=   160 NAE=    18 NBE=    18 NFC=     5 NFV=     0
 NROrb=    155 NOA=    13 NOB=    13 NVA=   142 NVB=   142

 **** Warning!!: The largest alpha MO coefficient is  0.96392119D+02

 Fully direct method using O(ONN) memory.
 JobTyp=1 Pass  1:  I=   6 to  18 NPSUse= 40 ParTrn=T ParDer=T DoDerP=T.
 Spin components of T(2) and E(2):
     alpha-alpha T2 =       0.3681159143D-01 E2=     -0.9589151593D-01
     alpha-beta  T2 =       0.1946129557D+00 E2=     -0.5357497460D+00
     beta-beta   T2 =       0.3681159143D-01 E2=     -0.9589151593D-01
 ANorm=    0.1126159908D+01
 E2 =    -0.7275327778D+00 EUMP2 =    -0.20956301851433D+03
          IDoAtm=1111111111
          Differentiating once with respect to electric field.
                with respect to dipole field.
          Differentiating once with respect to nuclear coordinates.
 Keep R1 ints in memory in symmetry-blocked form, NReq=124465946.
          There are     1 degrees of freedom in the 1st order CPHF.  IDoFFX=0 NUNeed=     1.
 LinEq1:  Iter=  0 NonCon=     1 RMS=3.75D-03 Max=4.59D-02 NDo=     1
 AX will form     1 AO Fock derivatives at one time.
 LinEq1:  Iter=  1 NonCon=     1 RMS=7.76D-04 Max=1.26D-02 NDo=     1
 LinEq1:  Iter=  2 NonCon=     1 RMS=4.27D-04 Max=1.09D-02 NDo=     1
 LinEq1:  Iter=  3 NonCon=     1 RMS=1.26D-04 Max=2.92D-03 NDo=     1
 LinEq1:  Iter=  4 NonCon=     1 RMS=5.45D-05 Max=9.07D-04 NDo=     1
 LinEq1:  Iter=  5 NonCon=     1 RMS=1.41D-05 Max=2.43D-04 NDo=     1
 LinEq1:  Iter=  6 NonCon=     1 RMS=2.15D-06 Max=2.79D-05 NDo=     1
 LinEq1:  Iter=  7 NonCon=     1 RMS=3.19D-07 Max=3.21D-06 NDo=     1
 LinEq1:  Iter=  8 NonCon=     1 RMS=1.15D-07 Max=1.21D-06 NDo=     1
 LinEq1:  Iter=  9 NonCon=     1 RMS=2.27D-08 Max=2.31D-07 NDo=     1
 LinEq1:  Iter= 10 NonCon=     1 RMS=4.31D-09 Max=4.40D-08 NDo=     1
 LinEq1:  Iter= 11 NonCon=     1 RMS=7.67D-10 Max=9.36D-09 NDo=     1
 LinEq1:  Iter= 12 NonCon=     1 RMS=1.16D-10 Max=9.99D-10 NDo=     1
 LinEq1:  Iter= 13 NonCon=     0 RMS=1.40D-11 Max=1.32D-10 NDo=     1
 Linear equations converged to 1.000D-10 1.000D-09 after    13 iterations.
 End of Minotr F.D. properties file   721 does not exist.
 End of Minotr F.D. properties file   722 does not exist.
 End of Minotr F.D. properties file   788 does not exist.
 Calling FoFJK, ICntrl=  10002127 FMM=F ISym2X=1 I1Cent= 0 IOpClX= 0 NMat=1 NMatS=1 NMatT=0.
 ***** Axes restored to original set *****
 -------------------------------------------------------------------
 Center     Atomic                   Forces (Hartrees/Bohr)
 Number     Number              X              Y              Z
 -------------------------------------------------------------------
      1        6           0.000398615    0.000126791    0.000494073
      2        6           0.000037551   -0.000401133   -0.000268704
      3        1           0.000001119   -0.000097713   -0.000073363
      4        7          -0.000376034    0.000741250    0.000190762
      5        1          -0.000036152    0.000025832   -0.000016348
      6        6           0.000337549   -0.000338277    0.000078416
      7        1          -0.000018591    0.000036647    0.000009431
      8        6          -0.000438265   -0.000048632   -0.000473959
      9        1           0.000005517    0.000034557    0.000031889
     10        1           0.000088691   -0.000079323    0.000027803
 -------------------------------------------------------------------
 Cartesian Forces:  Max     0.000741250 RMS     0.000262714

 GradGradGradGradGradGradGradGradGradGradGradGradGradGradGradGradGradGrad
 Berny optimization.
 Using GEDIIS/GDIIS optimizer.
 FormGI is forming the generalized inverse of G from B-inverse, IUseBI=4.
 Internal  Forces:  Max     0.000359902 RMS     0.000129077
 Search for a local minimum.
 Step number   3 out of a maximum of   55
 All quantities printed in internal units (Hartrees-Bohrs-Radians)
 Mixed Optimization -- En-DIIS/RFO-DIIS
 Swapping is turned off.
 Update second derivatives using D2CorX and points    1    2    3
 DE= -2.05D-05 DEPred=-1.99D-05 R= 1.03D+00
 TightC=F SS=  1.41D+00  RLast= 9.81D-03 DXNew= 5.0454D-01 2.9430D-02
 Trust test= 1.03D+00 RLast= 9.81D-03 DXMaxT set to 3.00D-01
 ITU=  1  1  0
     Eigenvalues ---    0.02048   0.02081   0.02110   0.02164   0.02226
     Eigenvalues ---    0.02263   0.02292   0.15819   0.16000   0.16000
     Eigenvalues ---    0.16000   0.16130   0.22000   0.24953   0.35664
     Eigenvalues ---    0.35717   0.35792   0.36271   0.40114   0.43654
     Eigenvalues ---    0.44507   0.45928   0.49242   0.50577
 En-DIIS/RFO-DIIS/Sim-DIIS IScMMF=       -3 using points:     3    2
 RFO step:  Lambda=-3.00128651D-06.
 DidBck=F Rises=F RFO-DIIS coefs:    0.98921    0.01079
 Iteration  1 RMS(Cart)=  0.00049636 RMS(Int)=  0.00000018
 Iteration  2 RMS(Cart)=  0.00000022 RMS(Int)=  0.00000007
 ClnCor:  largest displacement from symmetrization is 1.60D-10 for atom     6.
 Variable       Old X    -DE/DX   Delta X   Delta X   Delta X     New X
                                 (Linear)    (Quad)   (Total)
    R1        2.64039   0.00002  -0.00000   0.00012   0.00011   2.64050
    R2        2.05801  -0.00004   0.00001  -0.00015  -0.00015   2.05786
    R3        2.70248  -0.00034   0.00007  -0.00133  -0.00126   2.70122
    R4        2.60760  -0.00023   0.00003  -0.00072  -0.00068   2.60692
    R5        2.05568   0.00002   0.00002  -0.00009  -0.00007   2.05561
    R6        2.60760  -0.00023   0.00003  -0.00072  -0.00068   2.60692
    R7        1.91269  -0.00004  -0.00001   0.00001  -0.00000   1.91268
    R8        2.64039   0.00002  -0.00000   0.00012   0.00011   2.64050
    R9        2.05568   0.00002   0.00002  -0.00009  -0.00007   2.05561
   R10        2.05801  -0.00004   0.00001  -0.00015  -0.00015   2.05786
    A1        2.19182  -0.00017  -0.00000  -0.00097  -0.00097   2.19085
    A2        1.87444   0.00010   0.00001   0.00043   0.00043   1.87487
    A3        2.21692   0.00007  -0.00000   0.00054   0.00054   2.21746
    A4        1.87487  -0.00028  -0.00002  -0.00112  -0.00114   1.87373
    A5        2.29209   0.00009   0.00000   0.00034   0.00034   2.29243
    A6        2.11623   0.00018   0.00002   0.00078   0.00080   2.11702
    A7        1.92615   0.00036   0.00003   0.00139   0.00142   1.92757
    A8        2.17852  -0.00018  -0.00001  -0.00069  -0.00071   2.17781
    A9        2.17852  -0.00018  -0.00001  -0.00069  -0.00071   2.17781
   A10        1.87487  -0.00028  -0.00002  -0.00112  -0.00114   1.87373
   A11        2.11623   0.00018   0.00002   0.00078   0.00080   2.11702
   A12        2.29209   0.00009   0.00000   0.00034   0.00034   2.29243
   A13        1.87444   0.00010   0.00001   0.00043   0.00043   1.87487
   A14        2.21692   0.00007  -0.00000   0.00054   0.00054   2.21746
   A15        2.19182  -0.00017  -0.00000  -0.00097  -0.00097   2.19085
    D1        3.14159   0.00000   0.00000   0.00000   0.00000  -3.14159
    D2       -0.00000  -0.00000  -0.00000  -0.00000  -0.00000  -0.00000
    D3       -0.00000   0.00000   0.00000   0.00000   0.00000   0.00000
    D4        3.14159   0.00000   0.00000   0.00000   0.00000  -3.14159
    D5        0.00000  -0.00000  -0.00000  -0.00000  -0.00000  -0.00000
    D6       -3.14159  -0.00000  -0.00000  -0.00000  -0.00000   3.14159
    D7       -3.14159  -0.00000  -0.00000  -0.00000  -0.00000   3.14159
    D8        0.00000   0.00000   0.00000   0.00000   0.00000   0.00000
    D9        0.00000  -0.00000  -0.00000  -0.00000  -0.00000  -0.00000
   D10       -3.14159  -0.00000  -0.00000  -0.00000  -0.00000   3.14159
   D11       -3.14159   0.00000   0.00000   0.00000   0.00000  -3.14159
   D12        0.00000   0.00000   0.00000   0.00000   0.00000   0.00000
   D13        0.00000  -0.00000  -0.00000  -0.00000  -0.00000  -0.00000
   D14       -3.14159   0.00000   0.00000   0.00000   0.00000  -3.14159
   D15       -3.14159  -0.00000  -0.00000  -0.00000  -0.00000   3.14159
   D16        0.00000   0.00000   0.00000   0.00000   0.00000   0.00000
   D17       -0.00000   0.00000   0.00000   0.00000   0.00000   0.00000
   D18        3.14159   0.00000   0.00000   0.00000   0.00000  -3.14159
   D19        3.14159   0.00000   0.00000   0.00000   0.00000  -3.14159
   D20       -0.00000  -0.00000  -0.00000  -0.00000  -0.00000  -0.00000
         Item               Value     Threshold  Converged?
 Maximum Force            0.000360     0.000450     YES
 RMS     Force            0.000129     0.000300     YES
 Maximum Displacement     0.001512     0.001800     YES
 RMS     Displacement     0.000496     0.001200     YES
 Predicted change in Energy=-1.500668D-06
 Optimization completed.
    -- Stationary point found.
                           ----------------------------
                           !   Optimized Parameters   !
                           ! (Angstroms and Degrees)  !
 --------------------------                            --------------------------
 ! Name  Definition              Value          Derivative Info.                !
 --------------------------------------------------------------------------------
 ! R1    R(1,2)                  1.3972         -DE/DX =    0.0                 !
 ! R2    R(1,3)                  1.0891         -DE/DX =    0.0                 !
 ! R3    R(1,8)                  1.4301         -DE/DX =   -0.0003              !
 ! R4    R(2,4)                  1.3799         -DE/DX =   -0.0002              !
 ! R5    R(2,5)                  1.0878         -DE/DX =    0.0                 !
 ! R6    R(4,6)                  1.3799         -DE/DX =   -0.0002              !
 ! R7    R(4,7)                  1.0122         -DE/DX =    0.0                 !
 ! R8    R(6,8)                  1.3972         -DE/DX =    0.0                 !
 ! R9    R(6,9)                  1.0878         -DE/DX =    0.0                 !
 ! R10   R(8,10)                 1.0891         -DE/DX =    0.0                 !
 ! A1    A(2,1,3)              125.582          -DE/DX =   -0.0002              !
 ! A2    A(2,1,8)              107.3976         -DE/DX =    0.0001              !
 ! A3    A(3,1,8)              127.0204         -DE/DX =    0.0001              !
 ! A4    A(1,2,4)              107.4222         -DE/DX =   -0.0003              !
 ! A5    A(1,2,5)              131.327          -DE/DX =    0.0001              !
 ! A6    A(4,2,5)              121.2508         -DE/DX =    0.0002              !
 ! A7    A(2,4,6)              110.3605         -DE/DX =    0.0004              !
 ! A8    A(2,4,7)              124.8198         -DE/DX =   -0.0002              !
 ! A9    A(6,4,7)              124.8198         -DE/DX =   -0.0002              !
 ! A10   A(4,6,8)              107.4222         -DE/DX =   -0.0003              !
 ! A11   A(4,6,9)              121.2508         -DE/DX =    0.0002              !
 ! A12   A(8,6,9)              131.327          -DE/DX =    0.0001              !
 ! A13   A(1,8,6)              107.3976         -DE/DX =    0.0001              !
 ! A14   A(1,8,10)             127.0204         -DE/DX =    0.0001              !
 ! A15   A(6,8,10)             125.582          -DE/DX =   -0.0002              !
 ! D1    D(3,1,2,4)           -180.0            -DE/DX =    0.0                 !
 ! D2    D(3,1,2,5)              0.0            -DE/DX =    0.0                 !
 ! D3    D(8,1,2,4)             -0.0001         -DE/DX =    0.0                 !
 ! D4    D(8,1,2,5)           -180.0001         -DE/DX =    0.0                 !
 ! D5    D(2,1,8,6)              0.0001         -DE/DX =    0.0                 !
 ! D6    D(2,1,8,10)           180.0001         -DE/DX =    0.0                 !
 ! D7    D(3,1,8,6)            180.0001         -DE/DX =    0.0                 !
 ! D8    D(3,1,8,10)             0.0            -DE/DX =    0.0                 !
 ! D9    D(1,2,4,6)              0.0            -DE/DX =    0.0                 !
 ! D10   D(1,2,4,7)            180.0            -DE/DX =    0.0                 !
 ! D11   D(5,2,4,6)           -180.0            -DE/DX =    0.0                 !
 ! D12   D(5,2,4,7)              0.0            -DE/DX =    0.0                 !
 ! D13   D(2,4,6,8)              0.0            -DE/DX =    0.0                 !
 ! D14   D(2,4,6,9)           -180.0            -DE/DX =    0.0                 !
 ! D15   D(7,4,6,8)            180.0            -DE/DX =    0.0                 !
 ! D16   D(7,4,6,9)              0.0            -DE/DX =    0.0                 !
 ! D17   D(4,6,8,1)             -0.0001         -DE/DX =    0.0                 !
 ! D18   D(4,6,8,10)          -180.0            -DE/DX =    0.0                 !
 ! D19   D(9,6,8,1)           -180.0001         -DE/DX =    0.0                 !
 ! D20   D(9,6,8,10)             0.0            -DE/DX =    0.0                 !
 --------------------------------------------------------------------------------
 GradGradGradGradGradGradGradGradGradGradGradGradGradGradGradGradGradGrad

                          Input orientation:                          
 ---------------------------------------------------------------------
 Center     Atomic      Atomic             Coordinates (Angstroms)
 Number     Number       Type             X           Y           Z
 ---------------------------------------------------------------------
      1          6           0       -0.307329    0.100933    0.168140
      2          6           0        0.009841   -1.114782   -0.443167
      3          1           0       -1.115700    0.767604   -0.128713
      4          7           0        1.091425   -1.645663    0.229455
      5          1           0       -0.439994   -1.633457   -1.286951
      6          6           0        1.478155   -0.806826    1.254575
      7          1           0        1.537730   -2.525435    0.003045
      8          6           0        0.619483    0.295317    1.239771
      9          1           0        2.317111   -1.055198    1.900959
     10          1           0        0.661026    1.140243    1.925635
 ---------------------------------------------------------------------
                    Distance matrix (angstroms):
                    1          2          3          4          5
     1  C    0.000000
     2  C    1.397232   0.000000
     3  H    1.089053   2.215649   0.000000
     4  N    2.238497   1.379883   3.289915   0.000000
     5  H    2.267819   1.087818   2.750125   2.155199   0.000000
     6  C    2.278666   2.265636   3.334726   1.379883   3.289676
     7  H    3.213924   2.126850   4.231094   1.012151   2.524106
     8  C    1.430090   2.278666   2.259793   2.238497   3.350669
     9  H    3.350669   3.289676   4.384789   2.155199   4.254267
    10  H    2.259793   3.334726   2.741526   3.289915   4.384789
                    6          7          8          9         10
     6  C    0.000000
     7  H    2.126850   0.000000
     8  C    1.397232   3.213924   0.000000
     9  H    1.087818   2.524106   2.267819   0.000000
    10  H    2.215649   4.231094   1.089053   2.750125   0.000000
 Stoichiometry    C4H5N
 Framework group  C2[C2(NH),X(C4H4)]
 Deg. of freedom    12
 Full point group                 C2      NOp   2
 Largest Abelian subgroup         C2      NOp   2
 Largest concise Abelian subgroup C2      NOp   2
                         Standard orientation:                         
 ---------------------------------------------------------------------
 Center     Atomic      Atomic             Coordinates (Angstroms)
 Number     Number       Type             X           Y           Z
 ---------------------------------------------------------------------
      1          6           0       -0.000000    0.715045   -0.994214
      2          6           0        0.000001    1.132818    0.339098
      3          1           0       -0.000000    1.370763   -1.863737
      4          7           0       -0.000000    0.000000    1.127007
      5          1           0        0.000002    2.127133    0.780330
      6          6           0       -0.000001   -1.132818    0.339098
      7          1           0       -0.000000    0.000000    2.139158
      8          6           0       -0.000000   -0.715045   -0.994214
      9          1           0       -0.000002   -2.127133    0.780330
     10          1           0        0.000000   -1.370763   -1.863737
 ---------------------------------------------------------------------
 Rotational constants (GHZ):           9.0283054           8.8493356           4.4689623

 **********************************************************************

            Population analysis using the SCF Density.

 **********************************************************************

 Orbital symmetries:
       Occupied  (A) (B) (A) (A) (B) (A) (A) (B) (A) (B) (A) (A)
                 (B) (B) (B) (A) (B) (A)
       Virtual   (A) (B) (A) (B) (A) (B) (B) (A) (B) (A) (A) (A)
                 (A) (B) (B) (A) (B) (A) (B) (A) (B) (B) (A) (A)
                 (B) (A) (B) (A) (B) (B) (A) (B) (A) (A) (B) (A)
                 (A) (B) (B) (B) (A) (B) (A) (A) (A) (B) (B) (A)
                 (A) (B) (A) (A) (B) (B) (B) (A) (B) (A) (B) (A)
                 (B) (B) (B) (A) (B) (A) (A) (B) (A) (A) (B) (A)
                 (B) (A) (B) (B) (A) (B) (A) (B) (A) (A) (B) (A)
                 (B) (A) (B) (A) (B) (B) (A) (B) (B) (A) (A) (A)
                 (B) (B) (A) (B) (A) (A) (A) (B) (A) (B) (B) (A)
                 (B) (A) (A) (B) (A) (B) (B) (B) (B) (A) (A) (A)
                 (B) (B) (A) (A) (A) (A) (B) (B) (A) (B) (B) (A)
                 (A) (A) (B) (B) (A) (A) (B) (B) (A) (B)
 The electronic state is 1-A.
 Alpha  occ. eigenvalues --  -15.61729 -11.26437 -11.26433 -11.22255 -11.22157
 Alpha  occ. eigenvalues --   -1.28759  -1.03891  -0.97405  -0.79185  -0.76498
 Alpha  occ. eigenvalues --   -0.73215  -0.58942  -0.58186  -0.56209  -0.54409
 Alpha  occ. eigenvalues --   -0.52712  -0.34522  -0.29478
 Alpha virt. eigenvalues --    0.03152   0.04357   0.04616   0.06056   0.06432
 Alpha virt. eigenvalues --    0.10055   0.12212   0.12587   0.13843   0.14445
 Alpha virt. eigenvalues --    0.14447   0.14629   0.15251   0.15529   0.16721
 Alpha virt. eigenvalues --    0.17084   0.18251   0.18264   0.18575   0.20586
 Alpha virt. eigenvalues --    0.24162   0.24442   0.25736   0.26752   0.29779
 Alpha virt. eigenvalues --    0.31116   0.32415   0.35418   0.36434   0.36751
 Alpha virt. eigenvalues --    0.38091   0.39087   0.39106   0.40811   0.41146
 Alpha virt. eigenvalues --    0.42474   0.45176   0.45835   0.47295   0.48504
 Alpha virt. eigenvalues --    0.50368   0.51298   0.54903   0.56905   0.57794
 Alpha virt. eigenvalues --    0.60409   0.61435   0.61467   0.62532   0.62798
 Alpha virt. eigenvalues --    0.63509   0.66807   0.66958   0.67614   0.67744
 Alpha virt. eigenvalues --    0.69334   0.72044   0.73163   0.73197   0.73535
 Alpha virt. eigenvalues --    0.73968   0.79024   0.79985   0.81400   0.82303
 Alpha virt. eigenvalues --    0.85106   0.89600   0.89997   0.91012   0.91512
 Alpha virt. eigenvalues --    0.92771   0.98843   1.01469   1.01911   1.03334
 Alpha virt. eigenvalues --    1.05078   1.08650   1.12336   1.14974   1.16969
 Alpha virt. eigenvalues --    1.18955   1.22863   1.26029   1.28817   1.40168
 Alpha virt. eigenvalues --    1.40568   1.43995   1.48777   1.50146   1.54285
 Alpha virt. eigenvalues --    1.56308   1.58372   1.60695   1.62595   1.65185
 Alpha virt. eigenvalues --    1.68708   1.70639   1.73946   1.75186   1.78753
 Alpha virt. eigenvalues --    1.79919   1.83684   1.92904   1.93362   1.96158
 Alpha virt. eigenvalues --    1.96742   2.02327   2.03304   2.04736   2.11960
 Alpha virt. eigenvalues --    2.12367   2.15541   2.15674   2.20017   2.22778
 Alpha virt. eigenvalues --    2.24633   2.26166   2.26545   2.32360   2.38039
 Alpha virt. eigenvalues --    2.39425   2.56947   2.57424   2.57433   2.61617
 Alpha virt. eigenvalues --    2.66684   2.67078   2.70685   2.82964   2.84520
 Alpha virt. eigenvalues --    2.84693   2.88335   2.94321   2.97710   3.01214
 Alpha virt. eigenvalues --    3.09991   3.30064   3.31043   3.34930   3.46465
 Alpha virt. eigenvalues --    3.97880   4.21813
          Condensed to atoms (all electrons):
               1          2          3          4          5          6
     1  C    5.401721   0.123907   0.098683  -0.200926  -0.136815   0.240495
     2  C    0.123907   5.195759  -0.013048   0.258478   0.303510  -0.400108
     3  H    0.098683  -0.013048   1.245095   0.008616  -0.008151  -0.055179
     4  N   -0.200926   0.258478   0.008616   6.967075  -0.060241   0.258478
     5  H   -0.136815   0.303510  -0.008151  -0.060241   1.146893   0.045719
     6  C    0.240495  -0.400108  -0.055179   0.258478   0.045719   5.195759
     7  H   -0.001919  -0.161374  -0.000026   0.530250  -0.010723  -0.161374
     8  C    0.049778   0.240495   0.053959  -0.200926  -0.026674   0.123907
     9  H   -0.026674   0.045719  -0.004220  -0.060241   0.009581   0.303510
    10  H    0.053959  -0.055179  -0.025506   0.008616  -0.004220  -0.013048
               7          8          9         10
     1  C   -0.001919   0.049778  -0.026674   0.053959
     2  C   -0.161374   0.240495   0.045719  -0.055179
     3  H   -0.000026   0.053959  -0.004220  -0.025506
     4  N    0.530250  -0.200926  -0.060241   0.008616
     5  H   -0.010723  -0.026674   0.009581  -0.004220
     6  C   -0.161374   0.123907   0.303510  -0.013048
     7  H    0.909720  -0.001919  -0.010723  -0.000026
     8  C   -0.001919   5.401721  -0.136815   0.098683
     9  H   -0.010723  -0.136815   1.146893  -0.008151
    10  H   -0.000026   0.098683  -0.008151   1.245095
 Mulliken charges:
               1
     1  C    0.397793
     2  C    0.461841
     3  H   -0.300223
     4  N   -0.509180
     5  H   -0.258879
     6  C    0.461841
     7  H   -0.091884
     8  C    0.397793
     9  H   -0.258879
    10  H   -0.300223
 Sum of Mulliken charges =  -0.00000
 Mulliken charges with hydrogens summed into heavy atoms:
               1
     1  C    0.097570
     2  C    0.202962
     4  N   -0.601064
     6  C    0.202962
     8  C    0.097570
 Electronic spatial extent (au):  <R**2>=            311.3577
 Charge=             -0.0000 electrons
 Dipole moment (field-independent basis, Debye):
    X=             -0.0000    Y=             -0.0000    Z=              1.8801  Tot=              1.8801
 Quadrupole moment (field-independent basis, Debye-Ang):
   XX=            -35.3501   YY=            -27.0911   ZZ=            -23.8897
   XY=              0.0000   XZ=              0.0000   YZ=              0.0000
 Traceless Quadrupole moment (field-independent basis, Debye-Ang):
   XX=             -6.5732   YY=              1.6859   ZZ=              4.8873
   XY=              0.0000   XZ=              0.0000   YZ=              0.0000
 Octapole moment (field-independent basis, Debye-Ang**2):
  XXX=             -0.0000  YYY=             -0.0000  ZZZ=             12.2656  XYY=             -0.0000
  XXY=              0.0000  XXZ=              2.5403  XZZ=             -0.0000  YZZ=             -0.0000
  YYZ=              3.4796  XYZ=              0.0000
 Hexadecapole moment (field-independent basis, Debye-Ang**3):
 XXXX=            -45.0201 YYYY=           -181.4866 ZZZZ=           -153.6095 XXXY=             -0.0001
 XXXZ=              0.0000 YYYX=             -0.0000 YYYZ=              0.0000 ZZZX=              0.0000
 ZZZY=              0.0000 XXYY=            -48.2451 XXZZ=            -44.3149 YYZZ=            -56.7302
 XXYZ=             -0.0000 YYXZ=             -0.0000 ZZXY=             -0.0000
 N-N= 1.595878851827D+02 E-N=-8.059395164989D+02  KE= 2.083412270498D+02
 Symmetry A    KE= 1.279428186150D+02
 Symmetry B    KE= 8.039840843479D+01
 Unable to Open any file for archive entry.
 1\1\GINC-N3029\FOpt\RMP2-FC\Aug-CC-pVDZ\C4H5N1\GDS001\04-Apr-2025\0\\#
  MP2/aug-cc-pVDZ opt freq=(vibrot,anharmonic)\\blah\\0,1\C,-0.30732903
 79,0.1009333698,0.1681401645\C,0.0098413966,-1.1147816355,-0.443166674
 9\H,-1.1157004979,0.7676040625,-0.1287132917\N,1.0914247088,-1.6456625
 229,0.2294549225\H,-0.4399944947,-1.6334569514,-1.2869512837\C,1.47815
 47056,-0.8068261609,1.2545745537\H,1.537730355,-2.5254345966,0.0030447
 445\C,0.6194828599,0.2953170324,1.239770721\H,2.3171110322,-1.05519758
 79,1.9009589554\H,0.6610258534,1.1402433268,1.9256350962\\Version=EM64
 L-G16RevC.01\State=1-A\HF=-208.8354857\MP2=-209.5630185\RMSD=9.448e-09
 \RMSF=2.627e-04\Dipole=0.3307351,-0.6519556,-0.1677814\PG=C02 [C2(N1H1
 ),X(C4H4)]\\@
 The archive entry for this job was punched.


 THE SOLUTION TO A PROBLEM CHANGES THE PROBLEM.

                                 -- JOHN PEERS
           PAUL DICKSON'S "THE OFFICIAL RULES"
 Job cpu time:       0 days  0 hours 16 minutes 15.5 seconds.
 Elapsed time:       0 days  0 hours  0 minutes 28.4 seconds.
 File lengths (MBytes):  RWF=     18 Int=      0 D2E=      0 Chk=      4 Scr=      1
 Normal termination of Gaussian 16 at Fri Apr  4 10:39:17 2025.
 Link1:  Proceeding to internal job step number  2.
 ----------------------------------------------------------------------
 #N Geom=AllCheck Guess=TCheck SCRF=Check GenChk RMP2(FC)/Aug-CC-pVDZ F
 req
 ----------------------------------------------------------------------
 1/10=4,29=7,30=1,38=21,40=1,80=1/1,6,3;
 2/12=2,40=1/2;
 3/5=16,7=10,11=1,14=-4,25=1,30=1,70=2,71=2,116=1,140=1/1,2,3;
 4/5=101,69=2/1;
 5/5=2,38=6,98=1/2;
 8/6=3,8=1,10=1,19=11,30=-1/1;
 9/15=3,16=-3/6;
 11/6=1,8=1,15=11,17=12,24=-1,27=1,28=-2,29=300,32=6,42=3/1,2,10;
 10/6=2,21=1,60=-2/2;
 8/6=4,8=1,10=1,19=11,30=-1/11,4;
 10/5=1,20=4,60=-2/2;
 11/12=2,14=11,16=1,17=2,28=-2,42=3,76=2/2,10,12;
 6/7=2,8=2,9=2,10=2,22=-1/1;
 7/10=1,12=2,25=1,44=2,70=1,71=2/1,2,3,16;
 1/38=20,80=1/6(3);
 7/8=1,25=202,44=-1,70=1,71=1,92=10/16,17;
 1/10=4,30=1,38=20,80=1/3;
 99//99;
 3/5=16,7=10,11=1,14=-2,25=1,30=1,70=5,71=2,116=1,140=1/1,2,3;
 4/5=5,16=3,69=2/1;
 5/5=2,38=5,98=1/2;
 8/6=3,8=1,10=1,19=11,30=-1/1;
 9/15=3,16=-3/6;
 11/6=1,8=1,15=11,17=12,24=-1,27=1,28=-2,29=300,32=6,42=3/1,2,10;
 10/6=2,21=1,60=-2/2;
[...]
 0.00066196,-0.00096031,-0.00025519,-0.00007305,-0.00022401,-0.00003594
 ,-0.00018253,0.00009863,-0.00049533,-0.00069831,0.00085090,0.00014398,
 0.00000040,-0.00025867,-0.00057389,0.00025476,0.00013149,0.00005564,-0
 .00012170,0.00025646,0.00042595,-0.00025508,0.00046867,0.00034086,-0.0
 0016869,-0.00006138,-0.00029930,-0.00058758,-0.00023681,-0.00025583,0.
 00033048,-0.00049725,-0.00244499,0.00556184,0.00101738,-0.00002058,-0.
 00048059,-0.00026106,0.00324141,-0.00545060,-0.00149714,-0.00010054,-0
 .00108792,-0.00070825,-0.00002359,0.00028555,0.00045681,-0.00025336,-0
 .01028065,-0.00426164,-0.00026075,-0.00013102,0.00004256,-0.23489946,-
 0.00577230,-0.00035521,-0.00662567,0.00005426,0.00133411,0.00116773,-0
 .00103415,0.00232162,0.00030485,0.00036649,0.00016760,0.00066309,-0.00
 007480,-0.00010593,0.00004550,-0.00019149,0.00205965,0.00431265,-0.000
 01933,-0.00015073,0.00017375,0.04246353,0.52848837,-0.00762756,0.00466
 576,-0.00324756,0.00014714,0.00063545,0.00050482,0.00187174,-0.0040952
 2,-0.00068779,0.00040118,-0.00078614,-0.00042278,0.00018190,0.00040452
 ,0.00022627,0.00343367,-0.00573912,-0.00480173,0.00012774,0.00006251,-
 0.00022882,0.03367746,0.62557569,0.27452117,0.00018125,0.00010443,0.00
 052418,0.00012576,0.00029012,0.00075254,0.00017521,-0.00010063,-0.0001
 7884,0.00194599,0.00119962,0.00227766,0.00046392,0.00004489,-0.0000660
 2,-0.30265092,0.13149270,-0.33800167,-0.00017876,0.00006185,0.00014006
 ,0.00305639,-0.00130151,0.00045463,0.29729930,-0.00025573,-0.00019149,
 -0.00019858,-0.00028363,-0.00047090,-0.00033096,0.00007355,0.00015791,
 -0.00001806,-0.00276329,-0.00051000,-0.00358310,0.00007086,0.00042092,
 -0.00003897,0.13285220,0.09354890,0.09899602,0.00019538,-0.00009809,0.
 00032729,0.00188141,0.00005732,0.00069492,-0.13111111,-0.09294384,0.00
 024950,0.00016025,0.00010572,0.00031486,0.00024058,0.00008967,-0.00004
 600,-0.00019158,0.00008571,-0.00074506,0.00036510,0.00011447,-0.000046
 21,-0.00006484,0.00046906,-0.33696503,0.09764184,-0.12394620,0.0002419
 1,0.00019426,0.00011720,0.00288274,-0.00247635,0.00258680,0.33416262,-
 0.09588008,0.12129210,-0.00101833,-0.00169997,-0.00288050,-0.00014552,
 0.00056068,0.00046008,-0.00050082,0.00040579,0.00054992,0.00016367,0.0
 0046442,-0.00004466,0.00009025,-0.00002561,-0.00020662,-0.00019192,0.0
 0420342,0.00199244,0.00021035,0.00008262,-0.00002002,0.23170544,-0.034
 49068,-0.03266796,-0.00041813,-0.00065962,-0.00004932,-0.22989499,0.00
 271678,0.00408172,0.00538430,0.00008037,0.00019024,0.00036093,-0.00040
 227,-0.00064530,-0.00032693,0.00012916,0.00085534,0.00035089,0.0001487
 3,0.00019319,0.00008344,-0.00053360,0.00206257,0.00025860,0.00014371,0
 .00016678,0.00004637,-0.03276146,-0.53381685,-0.62141834,-0.00068036,0
 .00002926,0.00001082,0.03115896,0.52688303,0.00048832,0.00098387,0.001
 80862,0.00009373,0.00083950,0.00055555,-0.00006644,0.00047813,-0.00044
 361,-0.00030039,0.00068485,0.00078720,-0.00007364,-0.00009023,0.000135
 82,-0.00162077,0.00497822,0.00320866,0.00002658,-0.00001450,0.00030911
 ,-0.03134886,-0.62314130,-0.26845036,-0.00006515,0.00003153,-0.0009145
 1,0.03286664,0.61524993,0.26300353,0.10417973,-0.13585125,0.05415301,0
 .05732288,-0.05028440,-0.03861375,-0.00017505,-0.00183378,-0.00327563,
 -0.02064924,0.00631924,-0.00622716,0.00024379,0.33220152,0.08058140,0.
 00294355,-0.00787893,-0.00136782,0.55576924,0.63968262,0.71746282,-0.1
 0866283,0.13313623,-0.06173598,0.00155437,-0.00061172,0.00001007,0.106
 60724,0.13299979,-0.05278810,0.05010963,0.00045283,0.00001474,-0.00035
 800,-0.13150293,0.05271828,-0.06184014,0.05024577,0.03194964,0.0008222
 9,-0.00141880,0.00081271,0.06119838,-0.04846927,-0.03149939,0.00087386
 ,-0.00204794,-0.00127926,0.00208877,-0.00767913,-0.00239941,0.00007166
 ,0.00007259,0.00033012,-0.00478166,0.00002787,0.00083443,0.00021432,0.
 00431315,-0.00080941,0.00473359,-0.00028356,0.00014965,-0.00001265,-0.
 00016520,-0.00137371,0.00030426,-0.00185398,-0.00052136,0.00674762,-0.
 00721378,-0.00016140,0.00005851,0.00034213,0.00011512,-0.00541313,-0.0
 0161288,-0.00609849,0.00181268,0.00554194,0.00544727,0.01830000,-0.330
 59103,-0.55650888,-0.00067791,-0.00078116,-0.00051329,-0.00168762,-0.0
 0136627,-0.00352918,-0.01969060,-0.00077005,0.00203011,0.00033281,-0.3
 3460816,-0.07456776,-0.63720918,-0.00023551,-0.00044706,0.00000464,0.0
 0825012,0.00089105,0.00828222,0.32639084,0.07243843,0.00063281,0.00662
 158,0.00626915,-0.55957301,-0.63320734,-0.71668757,-0.00009713,-0.0005
 3893,-0.00126860,0.00380588,-0.00129839,0.00361007,0.55312774,0.628323
 22,0.70532849,-0.00053337,-0.00110747,0.00063519,0.00012153,-0.0000278
 8,-0.00106101,-0.00011810,0.00011539,0.00044513,-0.00111710,-0.0048367
 0,-0.00345278,0.00050346,0.00038386,0.00161085,0.70625064,-0.00086613,
 -0.00041575,0.00035934,-0.00053455,0.00122868,-0.00048365,-0.00029161,
 -0.00014641,-0.00003866,0.00715601,0.00052675,0.00856396,0.00024340,-0
 .00054955,0.00044859,-0.30805699,-0.21997832,0.00081855,0.00011928,-0.
 00111131,-0.00144731,0.00002081,-0.00026183,0.00013463,0.00036687,-0.0
 0006265,0.00569468,-0.00338382,0.00173844,0.00150383,0.00058847,0.0011
 2733,0.79166455,-0.22739324,0.29104408,-0.00004119,-0.00007115,0.00058
 330,-0.00067541,0.00069132,-0.00136248,0.00012332,-0.00007152,-0.00012
 658,0.00061416,0.00018093,0.00089193,0.00033727,-0.00051414,0.00044541
 ,0.00047718,-0.00054282,-0.00092398,-0.00047496,-0.00025619,-0.0002153
 4,0.00010001,0.00061982,0.00075939,0.00026510,0.00005821,0.00006294,-0
 .00004319,0.00018103,-0.00014871,0.00017570,-0.00013135,-0.00044161,-0
 .00008371,-0.00047145,0.00019335,-0.00107661,-0.00020860,-0.00004665,0
 .00044214,0.00028439,-0.00002370,-0.00141700,0.00033633,0.00006623,-0.
 00002761,-0.00017245,0.00003655,0.00089199,0.00017559,0.00087999,0.000
 73738,-0.00046507,-0.00012352,-0.00086953,-0.00114770,-0.00075271,-0.0
 0026200,0.00004009,-0.00060210,0.00169760,0.00200552,0.00304821,-0.001
 14844,-0.00053515,0.00041460,0.00091896,-0.00124522,-0.00058090,-0.000
 52543,-0.00083554,-0.00171859,0.00069668,0.00069807,0.00016505,-0.0028
 4441,0.00055269,-0.00417287,-0.00001247,0.00007181,0.00045648,-0.05947
 472,-0.00239227,0.00115221,-0.00163663,-0.00029671,-0.00014799,0.00109
 701,-0.00035240,0.00061533,-0.00030032,0.00124020,0.00140436,0.0018800
 6,0.00036788,0.00048238,-0.00007838,0.00870726,-0.00509219,0.00344106,
 -0.00011319,-0.00012509,0.00010888,0.00823382,0.12177352,-0.00030596,0
 .00274425,0.00196255,0.00059670,0.00086005,-0.00072377,0.00010027,-0.0
 0118986,-0.00025901,-0.00013525,-0.00018818,0.00028135,-0.00008684,0.0
 0025058,0.00117005,0.00204685,-0.00468337,0.00023585,0.00031536,0.0002
 9323,0.00012217,0.00426135,0.14490866,0.05732510,0.00111044,0.00031110
 ,0.00031823,0.00074306,0.00018489,0.00167753,0.00027608,-0.00006315,-0
 .00003657,0.00434919,0.00293501,0.00576355,0.00026964,0.00036686,-0.00
 005314,-0.70317101,0.30081086,-0.79365825,-0.00039336,0.00010924,0.000
 22450,0.00614208,-0.00457168,0.00202824,0.69186078,-0.00001979,0.00029
 765,-0.00057755,0.00004567,-0.00064061,0.00016645,0.00009319,0.0000923
 6,-0.00003841,-0.00668166,-0.00160344,-0.00849857,0.00013126,0.0000270
 0,-0.00030924,0.30482757,0.22370213,0.22737366,0.00049197,-0.00015175,
 0.00078251,0.00174055,0.00024700,0.00146011,-0.30031028,-0.22174306,0.
 00006587,-0.00024787,0.00090561,0.00157130,0.00030507,0.00099891,0.000
 08265,-0.00019414,0.00019870,-0.00157162,0.00108234,0.00007098,-0.0002
 3285,-0.00007451,0.00031504,-0.79059481,0.22337218,-0.29351317,0.00051
 644,0.00040121,0.00028547,0.00684327,-0.00482882,0.00374073,0.78401012
 ,-0.22043108,0.28795372,-0.00026191,-0.00008320,-0.00106423,-0.0001596
 0,0.00004795,0.00051682,-0.00009276,0.00002337,0.00030159,0.00011418,0
 .00003029,0.00034780,0.00013641,0.00003810,-0.00006446,0.00043121,0.00
 152916,0.00038623,0.00004548,0.00002747,-0.00017634,0.05455014,-0.0108
 2296,-0.00882080,-0.00118691,-0.00031845,-0.00069036,-0.05357623,0.000
 80875,0.00117897,0.00113867,-0.00035975,-0.00019133,-0.00001500,-0.000
 00989,-0.00027172,0.00007089,-0.00032604,0.00012905,-0.00006485,0.0001
 9449,0.00013701,0.00012261,0.00046639,0.00053126,-0.00005650,0.0001571
 9,0.00011348,0.00005743,-0.01068653,-0.12030950,-0.14445545,0.00022715
 ,-0.00022726,0.00061565,0.00952826,0.11891006,-0.00038400,0.00024995,0
 .00055093,0.00020584,0.00039123,-0.00013824,0.00027622,0.00010402,-0.0
 0002305,0.00007600,0.00029009,0.00008529,0.00005484,-0.00003318,0.0002
 5957,-0.00042443,0.00100257,0.00155599,-0.00007740,-0.00007182,0.00011
 162,-0.00871662,-0.14459158,-0.06385507,-0.00027421,0.00007213,-0.0009
 5596,0.00926376,0.14258657,0.06240893,0.26577232,-0.33476962,0.1391874
 1,0.14941400,-0.12018871,-0.08332178,-0.00000197,-0.00128598,-0.002208
 63,-0.01584838,0.00588506,-0.00668911,-0.00017612,0.24690956,0.0607173
 0,0.00326155,-0.00732054,-0.00110361,0.41239679,0.47593594,0.53313406,
 -0.26740354,0.33233874,-0.14996817,0.00252726,-0.00200444,0.00020083,0
 .26307007,0.33190669,-0.13743238,0.12091328,0.00002651,0.00019528,-0.0
 0042775,-0.32852742,0.13608875,-0.15029780,0.12134392,0.08038430,0.001
 75018,-0.00245135,0.00066470,0.14885611,-0.11834335,-0.07983110,0.0007
 5456,-0.00164995,-0.00105857,0.00074451,-0.00515012,-0.00185614,0.0002
 5028,-0.00020708,0.00028177,-0.00290297,0.00016835,0.00024318,-0.00006
 918,0.00300273,-0.00014267,0.00390101,-0.00062409,0.00050157,-0.000093
 42,-0.00057165,0.00004050,0.00032853,-0.00188092,-0.00055383,0.0043623
 4,-0.00422122,-0.00020854,-0.00003626,0.00032200,0.00001838,-0.0037155
 2,-0.00083504,-0.00395035,0.00142366,0.00423711,0.00384777,0.01319312,
 -0.24600798,-0.41377634,-0.00063841,-0.00061698,-0.00051634,-0.0009142
 8,-0.00082962,-0.00217310,-0.01439226,-0.00004779,0.00130153,0.0003307
 8,-0.24913970,-0.05482534,-0.47322201,-0.00008017,-0.00039421,0.000071
 37,0.00579294,0.00037832,0.00557807,0.24291430,0.05336202,0.00057949,0
 .00460000,0.00489154,-0.41616513,-0.47010228,-0.53301937,-0.00010692,-
 0.00046340,-0.00105248,0.00287839,-0.00101986,0.00272154,0.41140949,0.
 46681289,0.52458054,-0.00014017,-0.00061376,0.00081373,0.00045252,-0.0
 0053451,-0.00088428,0.00016334,-0.00015207,-0.00001862,-0.00056059,-0.
 00399639,-0.00228327,-0.00002842,0.00062711,0.00098229,0.52521098,-0.0
 0128443,0.00014470,-0.00008146,0.00064723,0.00063514,0.00041971,0.0000
 8298,-0.00011243,-0.00005308,0.00415753,0.00040265,0.00546218,-0.00002
 602,-0.00066047,-0.00012203,-0.22964288,-0.16299530,0.00030143,0.00058
 710,-0.00067768,0.00001728,-0.00075795,0.00036900,0.00016061,-0.000287
 22,0.00000648,0.00393613,-0.00266110,0.00056367,0.00048421,0.00052862,
 0.00035113,0.58796937,-0.16946030,0.21574795,-0.00004019,-0.00003506,0
 .00033339,-0.00045661,0.00050958,-0.00092573,0.00018260,-0.00003601,-0
 .00005415,0.00015253,0.00101635,0.00064023,0.00018250,-0.00033267,0.00
 035831,0.00046228,-0.00027274,-0.00060740,-0.00018403,-0.00010823,-0.0
 0016866,0.00006985,0.00053646,0.00048847,0.00024903,0.00004773,0.00007
 284,-0.00005659,0.00101626,-0.00155822,-0.00039577,-0.00011980,-0.0003
 6345,-0.00006718,-0.00029948,0.00010905,-0.00087357,-0.00121833,0.0016
 2148,0.00027755,0.00014279,-0.00001621,-0.00090521,0.00022224,0.000130
 37,0.00000973,-0.00014003,0.00011226,0.00064014,-0.00039568,0.00062396
 ,0.00052068,-0.00027927,-0.00012611,-0.00062779,-0.00084691,-0.0004083
 2,-0.00035078,0.00060629,-0.00065170,-0.00039020,0.00247356,-0.0000099
 0,-0.00067376,-0.00014457,0.00064228,0.00181143,-0.00254846,-0.0004869
 9,-0.00067405,-0.00039293,-0.00152101,0.00015966,0.00014001,-0.0000456
 3,-0.00281831,0.00120224,-0.00312596,-0.00007617,-0.00000409,0.0003221
 2,-0.13618193,-0.00304501,0.00123139,-0.00324871,-0.00081709,0.0003630
 9,0.00055259,-0.00090469,0.00117656,-0.00027022,0.00142464,0.00083206,
 0.00163343,0.00048781,0.00020245,0.00040178,0.00837448,-0.00551110,0.0
 0319224,-0.00007708,-0.00015406,0.00011278,0.01924325,0.30535483,-0.00
 421895,0.00224880,-0.00097372,0.00012954,0.00122317,-0.00036704,0.0007
 6700,-0.00190794,-0.00034206,-0.00013459,-0.00017760,0.00028201,0.0002
 1961,0.00005528,0.00057360,0.00234445,-0.00395350,0.00056165,0.0002664
 2,0.00018555,0.00000435,0.01899041,0.35926229,0.15243737,0.00058496,-0
 .00023460,0.00009202,0.00013497,0.00048266,0.00103501,0.00039791,0.000
 02556,0.00017331,0.00308609,0.00226994,0.00417671,0.00067486,0.0000491
 0,-0.00004475,-0.52269976,0.22284644,-0.59005205,-0.00030874,0.0001001
 4,0.00019903,0.00472916,-0.00295805,0.00165235,0.51437252,0.00011275,0
 .00002655,-0.00010597,-0.00016958,-0.00072762,-0.00031635,-0.00011200,
 0.00031414,-0.00005771,-0.00435276,-0.00127572,-0.00579144,0.00002181,
 0.00066080,-0.00005193,0.22597839,0.16673104,0.16911921,0.00031297,-0.
 00016028,0.00051895,0.00132624,-0.00006462,0.00065725,-0.22279464,-0.1
 6524813,0.00035700,-0.00045201,0.00032372,0.00053747,0.00033338,0.0002
 5534,0.00006837,0.00007935,0.00037215,-0.00087478,0.00080664,0.0003754
 2,-0.00006556,-0.00002473,0.00067318,-0.58766345,0.16599918,-0.2186857
 4,0.00036138,0.00030690,0.00016228,0.00492053,-0.00361129,0.00295364,0
 .58298351,-0.16390665,0.21442684,-0.00055942,-0.00046039,-0.00125560,-
 0.00007169,0.00005477,-0.00009399,-0.00036093,0.00012925,0.00031253,0.
 00006394,-0.00004271,0.00022134,0.00033958,0.00007686,0.00015447,-0.00
 004185,0.00228970,0.00091642,0.00008583,0.00004933,-0.00008549,0.13411
 411,-0.02172834,-0.02001634,-0.00097197,-0.00032320,-0.00062446,-0.132
 59756,0.00118214,0.00215539,0.00255617,0.00028992,-0.00001459,0.000228
 39,-0.00021665,-0.00041011,-0.00008955,-0.00045982,0.00057834,0.000128
 71,-0.00006063,0.00033835,0.00001201,0.00025910,0.00125671,0.00061294,
 0.00013298,0.00011284,0.00005883,-0.02129521,-0.30343056,-0.35759324,0
 .00021344,-0.00025615,0.00046924,0.01995472,0.29966979,-0.00000283,0.0
 0091963,0.00104726,0.00008538,-0.00000583,0.00014508,0.00004870,0.0002
 5506,-0.00033262,-0.00009682,0.00054421,0.00012775,0.00004959,0.000149
 01,0.00040643,-0.00063245,0.00263623,0.00217188,-0.00002168,-0.0000245
 1,0.00016911,-0.01968587,-0.35802494,-0.15512986,-0.00021515,-0.000065
 36,-0.00085683,0.02047113,0.35361649,0.15225181,-0.00215782,0.00095863
 ,-0.00296298,0.00033222,0.00003430,-0.00140237,0.00081418,-0.00259678,
 -0.00064425,-0.01192463,0.00112246,0.00202406,0.00306569,0.01011128,-0
 .01404725,0.00219303,-0.00063975,0.00117007,-0.00142011,0.00146151,-0.
 00305866,0.00026191,-0.00013090,-0.00042915,0.00055061,0.00008126,-0.0
 0056180,0.00001377,0.00044035,0.00060547,0.00044842,0.00041974,-0.0004
 4082,-0.00081534,-0.00005230,-0.00070487,0.00000648,-0.00012050,0.0005
 0712,-0.00030339,-0.00115277,-0.00000507,0.00047162,-0.00020860,-0.000
 18894,0.00110550,0.00145987,0.00257217,0.01446304,-0.02001750,-0.00344
 587,-0.00133001,-0.00138149,0.00027183,0.13139938,0.00017135,-0.002122
 23,-0.00117440,0.00185109,0.00132528,0.00087449,-0.00030853,-0.0002125
 2,0.00155988,-2.47061040,3.72966967,0.00158952,0.00010909,0.00130790,0
 .01323441,-0.02091240,-0.00016925,0.00109030,0.00049087,-0.00119990,-0
 .60431132,1.26331151,-0.79201358,0.00017347,0.00049673,-0.00018360,0.0
 0109882,-0.00145386,-0.00021081,-0.00014069,-0.00013408,0.00007675,-0.
 00166851,0.00173922,-0.00288098,-0.00054712,0.00028773,-0.00016801,-0.
 00040442,-0.00104645,0.00126136,-0.00023085,-0.00010576,0.00002874,0.0
 0016092,0.00223685,0.00027579,0.00049020,0.00079344,-0.00055115,-0.000
 34295,-0.00019593,0.00024698,0.00009991,-0.00063708,-0.00018879,0.0000
 9832,0.00013276,-0.00012117,-0.00250135,-0.00000561,0.00005851,0.00053
 537,0.00073390,0.00061597,0.00009881,0.00049012,0.00039325,0.00027700,
 0.00111340,0.00150448,0.00004433,0.00011058,-0.00027708,-0.00418539,-0
 .00359372,-0.00949870,0.00016288,-0.00044883,0.00042374,-0.00324030,-0
 .00167057,0.00064329,-0.00123470,0.00023405,-0.00129364,-0.00046274,0.
 00002882,0.00020765,-0.00012338,0.01827610,0.00903306,0.02311661,-0.00
 069605,0.00020133,-0.00007743,0.00248587,-0.01761369,-0.00125557,0.000
 91835,-0.00047008,0.00083391,0.00041300,0.00076420,-0.00033949,-0.0000
 4189,0.00003687,0.00718265,0.00132848,0.01076706,0.00023528,0.00016881
 ,-0.00024314,0.00138581,-0.00887594,-0.00811880,0.00092385,-0.00079410
 ,-0.00089133,-0.00481150,0.00821056,0.00166402,0.00043951,0.00040538,-
 0.00025654,-0.13994706,2.47024565,0.59976613,0.00091363,-0.00166785,0.
 00160588,0.00585050,-0.01671420,-0.00672498,0.13628178,-0.00162876,0.0
 0310349,-0.00017889,-0.00732343,0.00979385,0.00032347,0.00011764,0.000
 40958,-0.00033876,2.47024558,-3.73505873,-1.26453241,-0.00087745,-0.00
 080736,0.00001658,-0.00117997,0.00538522,0.00308148,-2.45899534,3.7136
 7096,-0.00152799,0.00065270,0.00018612,-0.01018463,0.01579959,0.001708
 87,-0.00047601,-0.00005210,0.00049339,0.59976606,-1.26453233,0.7822887
 3,0.00220876,-0.00077089,-0.00036263,0.00512390,-0.01239488,-0.0045454
 5,-0.59474273,1.25949882,-0.78121758,-0.00148358,0.00024173,-0.0013802
 4,-0.00029981,0.00084086,0.00025176,0.00016757,0.00022716,-0.00002476,
 0.00032034,0.00215295,0.00231875,-0.00011792,-0.00016380,0.00018629,0.
 00138475,-0.00311338,-0.00045222,0.00082140,-0.00070361,-0.00092452,-0
 .00159839,0.00026388,-0.00100112,-0.00056682,-0.00131165,0.00081367,-0
 .00075613,0.00036461,0.00014868,0.00019718,0.00086172,-0.00179906,-0.0
 0023976,-0.00011990,-0.00018164,0.00007008,0.00060138,0.00176572,0.002
 35988,-0.00153808,0.00314619,-0.00005604,0.00047643,-0.00317574,-0.001
 36306,-0.00058943,-0.00171995,-0.00138985,0.00138895,-0.00023396,0.000
 08026,0.00006019,0.00049218,0.00133390,0.00104643,0.00176810,0.0002197
 2,0.00002633,-0.00019134,0.00238097,-0.00134123,0.00080581,-0.00156104
 ,0.00077537,0.00024689,0.00051513,-0.00060989,-0.00170550,-0.00022750,
 -0.00006728,0.00015049,-0.00027373,-0.00006458,0.00028202,0.00009988,0
 .00006310,-0.00005133,0.00082836,0.00003729,-0.00169149,0.00004670,0.0
 0003305,-0.00004710,-0.00016963,0.00007253,-0.00031125,-0.00099380,0.0
 0001221,0.00098705,0.00018694,0.00027359,-0.00033808,0.00059022,-0.000
 02357,-0.00013612,0.00020091,-0.00031195,0.00038163,0.00044272,0.00005
 341,0.00003070,-0.00007570,-0.00045963,-0.00075620,-0.00298338,0.00018
 003,-0.00009839,0.00001332,-0.00033502,0.00178748,0.00087813,0.0008026
 1,-0.00001879,0.00229188,0.00048216,-0.00017537,-0.00021466,-0.0002068
 3,-0.00102177,0.00018388,0.00015738,-0.00012700,0.00009330,0.00068909,
 0.00001227,-0.00005875,-0.00006603,0.00009082,-0.00207050,-0.00248826,
 -0.00140598,0.00006501,-0.00013311,0.00008252,-0.00062242,0.00128440,0
 .00055823,0.00158994,0.00150442,0.00075633,-0.00017871,-0.00042265,0.0
 0023539,0.00090416,-0.00062244,-0.00004987,0.00049117,-0.00005803,0.00
 008042,0.00010600,0.00005617,-0.00025673,-0.00010688,-0.00009845,0.000
 08643,-0.00098564,-0.00168490,0.00038338,0.00007873,0.00008162,-0.0000
 5810,-0.00022300,0.00109682,-0.00055418,0.00052169,0.00033313,-0.00022
 987,0.00061875,0.00012804,0.00012210,-0.00008743,-0.00018122,0.0000940
 9,-0.00041340,0.00007842,0.00001415,-0.00019014,-0.00002585,0.00018184
 ,-0.00019733,-0.00004825,-0.00007260,0.00010174,-0.00061111,-0.0003550
 3,0.00114968,0.00007193,0.00003933,-0.00005057,0.00075624,-0.00011646,
 -0.00023030,0.00004538,0.00037560,-0.00043675,-0.00044047,0.00045868,-
 0.00054204,-0.00015308,0.00000685,0.00009721,0.00032680,-0.00053235,0.
 00018441,-0.00032620,0.00030114,-0.00031928,-0.00011556,0.00000035,0.0
 0012472,0.00005173,-0.00010530,0.00120242,0.00007982,-0.00140157,-0.00
 006550,-0.00004089,0.00010308,-0.00081397,0.00010927,0.00044524,-0.000
 44935,-0.00015008,0.00044532,-0.00031143,0.00002416,0.00030244,0.00011
 554,0.00006923,-0.00015271,0.00033245,0.00029852,0.00006200\\@
 The archive entry for this job was punched.


 BLESSED ARE THOSE WHO NOUGHT EXPECT,
 FOR THEY SHALL NOT BE DISAPPOINTED..  WALCOT - ODE TO PITT
 Job cpu time:       2 days 14 hours 11 minutes 55.5 seconds.
 Elapsed time:       0 days  1 hours 34 minutes 56.8 seconds.
 File lengths (MBytes):  RWF=   2995 Int=      0 D2E=      0 Chk=     44 Scr=      1
 Normal termination of Gaussian 16 at Fri Apr  4 12:14:23 2025.
