 Entering Gaussian System, Link 0=g16
 Input=vinylamine_mp2_avdz_opt_anharm.gjf
 Output=vinylamine_mp2_avdz_opt_anharm.log
 Initial command:
 /sw/contrib/chem-src/g16/c01/g16/l1.exe "/scr/Gau-78142.inp" -scrdir="/scr/"
 Entering Link 1 = /sw/contrib/chem-src/g16/c01/g16/l1.exe PID=     78144.
  
 Copyright (c) 1988-2019, Gaussian, Inc.  All Rights Reserved.
  
 This is part of the Gaussian(R) 16 program.  It is based on
 the Gaussian(R) 09 system (copyright 2009, Gaussian, Inc.),
 the Gaussian(R) 03 system (copyright 2003, Gaussian, Inc.),
 the Gaussian(R) 98 system (copyright 1998, Gaussian, Inc.),
 the Gaussian(R) 94 system (copyright 1995, Gaussian, Inc.),
 the Gaussian 92(TM) system (copyright 1992, Gaussian, Inc.),
 the Gaussian 90(TM) system (copyright 1990, Gaussian, Inc.),
 the Gaussian 88(TM) system (copyright 1988, Gaussian, Inc.),
 the Gaussian 86(TM) system (copyright 1986, Carnegie Mellon
 University), and the Gaussian 82(TM) system (copyright 1983,
 Carnegie Mellon University). Gaussian is a federally registered
 trademark of Gaussian, Inc.
  
 This software contains proprietary and confidential information,
 including trade secrets, belonging to Gaussian, Inc.
  
 This software is provided under written license and may be
 used, copied, transmitted, or stored only in accord with that
 written license.
  
 The following legend is applicable only to US Government
 contracts under FAR:
  
                    RESTRICTED RIGHTS LEGEND
  
 Use, reproduction and disclosure by the US Government is
 subject to restrictions as set forth in subparagraphs (a)
 and (c) of the Commercial Computer Software - Restricted
 Rights clause in FAR 52.227-19.
  
 Gaussian, Inc.
 340 Quinnipiac St., Bldg. 40, Wallingford CT 06492
  
  
 ---------------------------------------------------------------
 Warning -- This program may not be used in any manner that
 competes with the business of Gaussian, Inc. or will provide
 assistance to any competitor of Gaussian, Inc.  The licensee
 of this program is prohibited from giving any competitor of
 Gaussian, Inc. access to this program.  By using this program,
 the user acknowledges that Gaussian, Inc. is engaged in the
 business of creating and licensing software in the field of
 computational chemistry and represents and warrants to the
 licensee that it is not a competitor of Gaussian, Inc. and that
 it will not use this program in any manner prohibited above.
 ---------------------------------------------------------------
  

 Cite this work as:
 Gaussian 16, Revision C.01,
 M. J. Frisch, G. W. Trucks, H. B. Schlegel, G. E. Scuseria, 
 M. A. Robb, J. R. Cheeseman, G. Scalmani, V. Barone, 
 G. A. Petersson, H. Nakatsuji, X. Li, M. Caricato, A. V. Marenich, 
 J. Bloino, B. G. Janesko, R. Gomperts, B. Mennucci, H. P. Hratchian, 
 J. V. Ortiz, A. F. Izmaylov, J. L. Sonnenberg, D. Williams-Young, 
 F. Ding, F. Lipparini, F. Egidi, J. Goings, B. Peng, A. Petrone, 
 T. Henderson, D. Ranasinghe, V. G. Zakrzewski, J. Gao, N. Rega, 
 G. Zheng, W. Liang, M. Hada, M. Ehara, K. Toyota, R. Fukuda, 
 J. Hasegawa, M. Ishida, T. Nakajima, Y. Honda, O. Kitao, H. Nakai, 
 T. Vreven, K. Throssell, J. A. Montgomery, Jr., J. E. Peralta, 
 F. Ogliaro, M. J. Bearpark, J. J. Heyd, E. N. Brothers, K. N. Kudin, 
 V. N. Staroverov, T. A. Keith, R. Kobayashi, J. Normand, 
 K. Raghavachari, A. P. Rendell, J. C. Burant, S. S. Iyengar, 
 J. Tomasi, M. Cossi, J. M. Millam, M. Klene, C. Adamo, R. Cammi, 
 J. W. Ochterski, R. L. Martin, K. Morokuma, O. Farkas, 
 J. B. Foresman, and D. J. Fox, Gaussian, Inc., Wallingford CT, 2019.
 
 ******************************************
 Gaussian 16:  EM64L-G16RevC.01  3-Jul-2019
                 4-Apr-2025 
 ******************************************
 %nprocshared=24
 Will use up to   24 processors via shared memory.
 %mem=50gb
 ----------------------------------------------
 # MP2/aug-cc-pVDZ opt freq=(vibrot,anharmonic)
 ----------------------------------------------
 1/18=20,19=15,38=1,80=1/1,3;
 2/9=110,12=2,17=6,18=5,40=1/2;
 3/5=16,7=10,11=9,25=1,30=1,71=1/1,2,3;
 4//1;
 5/5=2,38=5/2;
 8/6=4,10=1/1;
 9/15=2,16=-3/6;
 10/5=1/2;
 6/7=2,8=2,9=2,10=2/1;
 7/12=2/1,2,3,16;
 1/18=20,19=15,80=1/3(2);
 2/9=110/2;
 99//99;
 2/9=110/2;
 3/5=16,7=10,11=9,25=1,30=1,71=1/1,2,3;
 4/5=5,16=3,69=1/1;
 5/5=2,38=5/2;
 8/6=4,10=1/1;
 9/15=2,16=-3/6;
 10/5=1/2;
 7/12=2/1,2,3,16;
 1/18=20,19=15,80=1/3(-8);
 2/9=110/2;
 6/7=2,8=2,9=2,10=2/1;
 99/9=10/99;
 ----
 blah
 ----
 Symbolic Z-matrix:
 Charge =  0 Multiplicity = 1
 C                    -0.50998  -0.16456  -0.30604 
 C                     0.25435  -1.25118  -0.41653 
 H                    -0.47258   0.47042   0.5718 
 H                    -1.19459   0.11261  -1.10051 
 N                     1.14231  -1.6981    0.50172 
 H                     0.19552  -1.87052  -1.3103 
 H                     1.27612  -1.19585   1.37118 
 H                     1.68057  -2.53857   0.32733 
 

 GradGradGradGradGradGradGradGradGradGradGradGradGradGradGradGradGradGrad
 Berny optimization.
 Initialization pass.
                           ----------------------------
                           !    Initial Parameters    !
                           ! (Angstroms and Degrees)  !
 --------------------------                            --------------------------
 ! Name  Definition              Value          Derivative Info.                !
 --------------------------------------------------------------------------------
 ! R1    R(1,2)                  1.3331         estimate D2E/DX2                !
 ! R2    R(1,3)                  1.0841         estimate D2E/DX2                !
 ! R3    R(1,4)                  1.0848         estimate D2E/DX2                !
 ! R4    R(2,5)                  1.3533         estimate D2E/DX2                !
 ! R5    R(2,6)                  1.089          estimate D2E/DX2                !
 ! R6    R(5,7)                  1.013          estimate D2E/DX2                !
 ! R7    R(5,8)                  1.0132         estimate D2E/DX2                !
 ! A1    A(2,1,3)              121.6533         estimate D2E/DX2                !
 ! A2    A(2,1,4)              120.6252         estimate D2E/DX2                !
 ! A3    A(3,1,4)              117.7215         estimate D2E/DX2                !
 ! A4    A(1,2,5)              126.0963         estimate D2E/DX2                !
 ! A5    A(1,2,6)              120.0422         estimate D2E/DX2                !
 ! A6    A(5,2,6)              113.8614         estimate D2E/DX2                !
 ! A7    A(2,5,7)              120.3533         estimate D2E/DX2                !
 ! A8    A(2,5,8)              120.3808         estimate D2E/DX2                !
 ! A9    A(7,5,8)              119.2658         estimate D2E/DX2                !
 ! D1    D(3,1,2,5)              0.0            estimate D2E/DX2                !
 ! D2    D(3,1,2,6)           -180.0            estimate D2E/DX2                !
 ! D3    D(4,1,2,5)            180.0            estimate D2E/DX2                !
 ! D4    D(4,1,2,6)              0.0            estimate D2E/DX2                !
 ! D5    D(1,2,5,7)              0.0            estimate D2E/DX2                !
 ! D6    D(1,2,5,8)           -180.0            estimate D2E/DX2                !
 ! D7    D(6,2,5,7)            180.0            estimate D2E/DX2                !
 ! D8    D(6,2,5,8)              0.0            estimate D2E/DX2                !
 --------------------------------------------------------------------------------
 Trust Radius=3.00D-01 FncErr=1.00D-07 GrdErr=1.00D-07 EigMax=2.50D+02 EigMin=1.00D-04
 Number of steps in this run=     34 maximum allowed number of steps=    100.
 GradGradGradGradGradGradGradGradGradGradGradGradGradGradGradGradGradGrad

                          Input orientation:                          
 ---------------------------------------------------------------------
 Center     Atomic      Atomic             Coordinates (Angstroms)
 Number     Number       Type             X           Y           Z
 ---------------------------------------------------------------------
      1          6           0       -0.509979   -0.164565   -0.306036
      2          6           0        0.254350   -1.251178   -0.416535
      3          1           0       -0.472575    0.470415    0.571803
      4          1           0       -1.194589    0.112613   -1.100507
      5          7           0        1.142310   -1.698100    0.501723
      6          1           0        0.195518   -1.870521   -1.310304
      7          1           0        1.276120   -1.195847    1.371179
      8          1           0        1.680575   -2.538571    0.327329
 ---------------------------------------------------------------------
                    Distance matrix (angstroms):
                    1          2          3          4          5
     1  C    0.000000
     2  C    1.333094   0.000000
     3  H    1.084066   2.114029   0.000000
     4  H    1.084759   2.104084   1.856326   0.000000
     5  N    2.394632   1.353296   2.704667   3.362576   0.000000
     6  H    2.101564   1.088977   3.077119   2.430892   2.051728
     7  H    2.658334   2.059853   2.544281   3.731715   1.012974
     8  H    3.291745   2.060299   3.708076   4.163420   1.013181
                    6          7          8
     6  H    0.000000
     7  H    2.968710   0.000000
     8  H    2.309443   1.748175   0.000000
 Stoichiometry    C2H5N
 Framework group  CS[SG(C2H5N)]
 Deg. of freedom    13
 Full point group                 CS      NOp   2
 Largest Abelian subgroup         CS      NOp   2
 Largest concise Abelian subgroup C1      NOp   1
                         Standard orientation:                         
 ---------------------------------------------------------------------
 Center     Atomic      Atomic             Coordinates (Angstroms)
 Number     Number       Type             X           Y           Z
 ---------------------------------------------------------------------
      1          6           0        0.375099   -1.198553    0.000000
      2          6           0       -0.411913   -0.122565    0.000000
      3          1           0        1.455779   -1.112939    0.000000
      4          1           0       -0.052092   -2.195654    0.000000
      5          7           0        0.000000    1.166519   -0.000000
      6          1           0       -1.494642   -0.239053   -0.000000
      7          1           0        0.988452    1.388055   -0.000000
      8          1           0       -0.676614    1.920660   -0.000000
 ---------------------------------------------------------------------
 Rotational constants (GHZ):          58.1643019          10.2788385           8.7351554
 Standard basis: Aug-CC-pVDZ (5D, 7F)
 There are    89 symmetry adapted cartesian basis functions of A'  symmetry.
 There are    31 symmetry adapted cartesian basis functions of A"  symmetry.
 There are    83 symmetry adapted basis functions of A'  symmetry.
 There are    31 symmetry adapted basis functions of A"  symmetry.
   114 basis functions,   184 primitive gaussians,   120 cartesian basis functions
    12 alpha electrons       12 beta electrons
       nuclear repulsion energy        72.1233663934 Hartrees.
 NAtoms=    8 NActive=    8 NUniq=    8 SFac= 1.00D+00 NAtFMM=   60 NAOKFM=F Big=F
 Integral buffers will be    131072 words long.
 Raffenetti 1 integral format.
 Two-electron integral symmetry is turned on.
 One-electron integrals computed using PRISM.
 NBasis=   114 RedAO= T EigKep=  5.69D-05  NBF=    83    31
 NBsUse=   114 1.00D-06 EigRej= -1.00D+00 NBFU=    83    31
 ExpMin= 2.97D-02 ExpMax= 9.05D+03 ExpMxC= 3.09D+02 IAcc=3 IRadAn=         5 AccDes= 0.00D+00
 Harris functional with IExCor=  205 and IRadAn=       5 diagonalized for initial guess.
 HarFok:  IExCor=  205 AccDes= 0.00D+00 IRadAn=         5 IDoV= 1 UseB2=F ITyADJ=14
 ICtDFT=  3500011 ScaDFX=  1.000000  1.000000  1.000000  1.000000
 FoFCou: FMM=F IPFlag=           0 FMFlag=      100000 FMFlg1=           0
         NFxFlg=           0 DoJE=T BraDBF=F KetDBF=T FulRan=T
         wScrn=  0.000000 ICntrl=       500 IOpCl=  0 I1Cent=   200000004 NGrid=           0
         NMat0=    1 NMatS0=      1 NMatT0=    0 NMatD0=    1 NMtDS0=    0 NMtDT0=    0
 Petite list used in FoFCou.
 Initial guess orbital symmetries:
       Occupied  (A') (A') (A') (A') (A') (A') (A') (A') (A') (A')
                 (A") (A")
       Virtual   (A") (A') (A') (A') (A') (A') (A") (A') (A') (A')
                 (A") (A') (A') (A") (A') (A') (A') (A') (A') (A')
                 (A") (A') (A') (A") (A') (A') (A") (A') (A') (A")
                 (A') (A") (A') (A') (A') (A') (A") (A') (A') (A")
                 (A') (A') (A') (A') (A") (A') (A") (A') (A') (A")
                 (A') (A') (A") (A') (A') (A") (A") (A') (A') (A')
                 (A') (A") (A') (A') (A") (A') (A') (A") (A') (A')
                 (A") (A') (A") (A') (A') (A") (A") (A') (A') (A')
                 (A') (A") (A') (A") (A') (A') (A") (A') (A') (A')
                 (A') (A') (A') (A") (A") (A') (A') (A') (A') (A')
                 (A') (A')
 The electronic state of the initial guess is 1-A'.
 Keep R1 ints in memory in symmetry-blocked form, NReq=32744791.
 Requested convergence on RMS density matrix=1.00D-08 within 128 cycles.
 Requested convergence on MAX density matrix=1.00D-06.
 Requested convergence on             energy=1.00D-06.
 No special actions if energy rises.
 SCF Done:  E(RHF) =  -133.085992200     A.U. after   12 cycles
            NFock= 12  Conv=0.98D-08     -V/T= 2.0012
 ExpMin= 2.97D-02 ExpMax= 9.05D+03 ExpMxC= 3.09D+02 IAcc=3 IRadAn=         5 AccDes= 0.00D+00
 HarFok:  IExCor=  205 AccDes= 0.00D+00 IRadAn=         5 IDoV=-2 UseB2=F ITyADJ=14
 ICtDFT= 12500011 ScaDFX=  1.000000  1.000000  1.000000  1.000000
 Range of M.O.s used for correlation:     4   114
 NBasis=   114 NAE=    12 NBE=    12 NFC=     3 NFV=     0
 NROrb=    111 NOA=     9 NOB=     9 NVA=   102 NVB=   102

 **** Warning!!: The largest alpha MO coefficient is  0.36796156D+02

 Fully direct method using O(ONN) memory.
 JobTyp=1 Pass  1:  I=   4 to  12 NPSUse= 24 ParTrn=T ParDer=T DoDerP=T.
 Spin components of T(2) and E(2):
     alpha-alpha T2 =       0.1989050380D-01 E2=     -0.5620260234D-01
     alpha-beta  T2 =       0.1201225597D+00 E2=     -0.3507820489D+00
     beta-beta   T2 =       0.1989050380D-01 E2=     -0.5620260234D-01
 ANorm=    0.1076988193D+01
 E2 =    -0.4631872536D+00 EUMP2 =    -0.13354917945361D+03
          IDoAtm=11111111
          Differentiating once with respect to electric field.
                with respect to dipole field.
          Differentiating once with respect to nuclear coordinates.
 Keep R1 ints in memory in symmetry-blocked form, NReq=32746014.
          There are     1 degrees of freedom in the 1st order CPHF.  IDoFFX=0 NUNeed=     1.
 LinEq1:  Iter=  0 NonCon=     1 RMS=4.43D-03 Max=7.82D-02 NDo=     1
 AX will form     1 AO Fock derivatives at one time.
 LinEq1:  Iter=  1 NonCon=     1 RMS=8.20D-04 Max=5.13D-03 NDo=     1
 LinEq1:  Iter=  2 NonCon=     1 RMS=3.50D-04 Max=4.54D-03 NDo=     1
 LinEq1:  Iter=  3 NonCon=     1 RMS=5.90D-05 Max=3.56D-04 NDo=     1
 LinEq1:  Iter=  4 NonCon=     1 RMS=2.04D-05 Max=2.73D-04 NDo=     1
 LinEq1:  Iter=  5 NonCon=     1 RMS=5.85D-06 Max=1.06D-04 NDo=     1
 LinEq1:  Iter=  6 NonCon=     1 RMS=1.61D-06 Max=1.43D-05 NDo=     1
 LinEq1:  Iter=  7 NonCon=     1 RMS=7.33D-07 Max=1.23D-05 NDo=     1
 LinEq1:  Iter=  8 NonCon=     1 RMS=1.83D-07 Max=1.72D-06 NDo=     1
 LinEq1:  Iter=  9 NonCon=     1 RMS=4.05D-08 Max=3.19D-07 NDo=     1
 LinEq1:  Iter= 10 NonCon=     1 RMS=6.80D-09 Max=6.07D-08 NDo=     1
 LinEq1:  Iter= 11 NonCon=     1 RMS=9.31D-10 Max=9.88D-09 NDo=     1
 LinEq1:  Iter= 12 NonCon=     1 RMS=1.71D-10 Max=1.55D-09 NDo=     1
 LinEq1:  Iter= 13 NonCon=     0 RMS=2.32D-11 Max=2.06D-10 NDo=     1
 Linear equations converged to 1.000D-10 1.000D-09 after    13 iterations.
 End of Minotr F.D. properties file   721 does not exist.
 End of Minotr F.D. properties file   722 does not exist.
 End of Minotr F.D. properties file   788 does not exist.

 **********************************************************************

            Population analysis using the SCF Density.

 **********************************************************************

 Orbital symmetries:
       Occupied  (A') (A') (A') (A') (A') (A') (A') (A') (A') (A')
                 (A") (A")
       Virtual   (A') (A') (A') (A') (A') (A") (A") (A') (A') (A')
                 (A') (A") (A') (A') (A') (A') (A") (A') (A') (A')
                 (A") (A') (A') (A") (A') (A") (A') (A') (A') (A')
                 (A") (A") (A') (A') (A') (A') (A') (A') (A") (A')
                 (A") (A') (A') (A') (A") (A') (A') (A") (A') (A')
                 (A") (A') (A') (A") (A') (A") (A") (A') (A') (A')
                 (A') (A') (A") (A') (A') (A") (A') (A") (A') (A')
                 (A") (A') (A") (A') (A") (A') (A") (A') (A') (A')
                 (A") (A') (A') (A") (A') (A') (A") (A') (A') (A')
                 (A') (A') (A') (A") (A") (A') (A') (A') (A') (A')
                 (A') (A')
 The electronic state is 1-A'.
 Alpha  occ. eigenvalues --  -15.57400 -11.27474 -11.19597  -1.22118  -0.99096
 Alpha  occ. eigenvalues --   -0.79446  -0.71327  -0.64257  -0.56733  -0.51314
 Alpha  occ. eigenvalues --   -0.50079  -0.30222
 Alpha virt. eigenvalues --    0.03299   0.04657   0.05146   0.07051   0.07355
 Alpha virt. eigenvalues --    0.12266   0.12352   0.13335   0.14643   0.15271
 Alpha virt. eigenvalues --    0.17658   0.18338   0.18354   0.20119   0.22067
 Alpha virt. eigenvalues --    0.22714   0.24033   0.29796   0.31155   0.32713
 Alpha virt. eigenvalues --    0.34196   0.35206   0.39327   0.39928   0.40149
 Alpha virt. eigenvalues --    0.42154   0.43713   0.47006   0.47952   0.49576
 Alpha virt. eigenvalues --    0.50789   0.54372   0.55127   0.57097   0.59263
 Alpha virt. eigenvalues --    0.60639   0.63094   0.63889   0.64040   0.65007
 Alpha virt. eigenvalues --    0.67102   0.67579   0.70461   0.71028   0.72843
 Alpha virt. eigenvalues --    0.74196   0.80376   0.81844   0.83687   0.87203
 Alpha virt. eigenvalues --    0.88174   0.92390   0.96115   0.99117   0.99374
 Alpha virt. eigenvalues --    1.00190   1.14890   1.16818   1.22275   1.28033
 Alpha virt. eigenvalues --    1.36860   1.47112   1.49149   1.51124   1.54688
 Alpha virt. eigenvalues --    1.56575   1.59458   1.64951   1.69587   1.75556
 Alpha virt. eigenvalues --    1.80456   1.89543   1.93625   1.98122   2.01540
 Alpha virt. eigenvalues --    2.02930   2.08589   2.12152   2.14255   2.15637
 Alpha virt. eigenvalues --    2.18975   2.19363   2.26455   2.34205   2.35460
 Alpha virt. eigenvalues --    2.38261   2.42883   2.45686   2.53838   2.57403
 Alpha virt. eigenvalues --    2.63585   2.72769   2.76871   2.80080   2.87581
 Alpha virt. eigenvalues --    2.91871   3.02502   3.19700   3.29873   3.43035
 Alpha virt. eigenvalues --    3.66724   3.83879
          Condensed to atoms (all electrons):
               1          2          3          4          5          6
     1  C    4.726621   0.531012   0.263463   0.204195  -0.175857  -0.103671
     2  C    0.531012   4.381681  -0.016771   0.047481   0.291723   0.186662
     3  H    0.263463  -0.016771   1.367214  -0.280552  -0.078348   0.072626
     4  H    0.204195   0.047481  -0.280552   1.387037   0.023477  -0.100518
     5  N   -0.175857   0.291723  -0.078348   0.023477   6.455734  -0.090130
     6  H   -0.103671   0.186662   0.072626  -0.100518  -0.090130   1.381129
     7  H   -0.005631  -0.087238   0.017230   0.002163   0.423932   0.027965
     8  H    0.017049  -0.106733  -0.006491  -0.000765   0.451999  -0.038271
               7          8
     1  C   -0.005631   0.017049
     2  C   -0.087238  -0.106733
     3  H    0.017230  -0.006491
     4  H    0.002163  -0.000765
     5  N    0.423932   0.451999
     6  H    0.027965  -0.038271
     7  H    0.849780  -0.177495
     8  H   -0.177495   0.865795
 Mulliken charges:
               1
     1  C    0.542820
     2  C    0.772183
     3  H   -0.338371
     4  H   -0.282517
     5  N   -0.302530
     6  H   -0.335792
     7  H   -0.050707
     8  H   -0.005086
 Sum of Mulliken charges =  -0.00000
 Mulliken charges with hydrogens summed into heavy atoms:
               1
     1  C   -0.078068
     2  C    0.436391
     5  N   -0.358323
 Electronic spatial extent (au):  <R**2>=            176.7384
 Charge=             -0.0000 electrons
 Dipole moment (field-independent basis, Debye):
    X=             -0.3517    Y=              1.8089    Z=              0.0000  Tot=              1.8428
 Quadrupole moment (field-independent basis, Debye-Ang):
   XX=            -16.2452   YY=            -17.1816   ZZ=            -23.5958
   XY=              0.1424   XZ=              0.0000   YZ=              0.0000
 Traceless Quadrupole moment (field-independent basis, Debye-Ang):
   XX=              2.7623   YY=              1.8259   ZZ=             -4.5883
   XY=              0.1424   XZ=              0.0000   YZ=              0.0000
 Octapole moment (field-independent basis, Debye-Ang**2):
  XXX=             -0.0239  YYY=             11.0867  ZZZ=             -0.0000  XYY=             -1.7956
  XXY=              4.5945  XXZ=             -0.0000  XZZ=             -0.4572  YZZ=              2.5422
  YYZ=             -0.0000  XYZ=              0.0000
 Hexadecapole moment (field-independent basis, Debye-Ang**3):
 XXXX=            -45.9678 YYYY=           -140.9391 ZZZZ=            -30.0698 XXXY=              9.8196
 XXXZ=             -0.0000 YYYX=              7.0729 YYYZ=              0.0000 ZZZX=             -0.0000
 ZZZY=              0.0000 XXYY=            -30.4699 XXZZ=            -14.6523 YYZZ=            -38.3192
 XXYZ=              0.0000 YYXZ=              0.0000 ZZXY=              3.4582
 N-N= 7.212336639343D+01 E-N=-4.547674357672D+02  KE= 1.329300003982D+02
 Symmetry A'   KE= 1.278967654411D+02
 Symmetry A"   KE= 5.033234957142D+00
 Calling FoFJK, ICntrl=  10002127 FMM=F ISym2X=1 I1Cent= 0 IOpClX= 0 NMat=1 NMatS=1 NMatT=0.
 ***** Axes restored to original set *****
 -------------------------------------------------------------------
 Center     Atomic                   Forces (Hartrees/Bohr)
 Number     Number              X              Y              Z
 -------------------------------------------------------------------
      1        6          -0.016158241    0.020025642   -0.001444951
      2        6          -0.002625969   -0.010613270   -0.018034038
      3        1           0.000256618    0.004179559    0.005795598
      4        1          -0.001701043    0.000095142   -0.002735843
      5        7           0.021301313   -0.013604022    0.018328057
      6        1          -0.000616002   -0.002208646   -0.003869747
      7        1           0.001537161   -0.003654686   -0.002108161
      8        1          -0.001993836    0.005780280    0.004069085
 -------------------------------------------------------------------
 Cartesian Forces:  Max     0.021301313 RMS     0.009659951

 GradGradGradGradGradGradGradGradGradGradGradGradGradGradGradGradGradGrad
 Berny optimization.
 FormGI is forming the generalized inverse of G from B-inverse, IUseBI=4.
 Internal  Forces:  Max     0.031234620 RMS     0.009238931
 Search for a local minimum.
 Step number   1 out of a maximum of   34
 All quantities printed in internal units (Hartrees-Bohrs-Radians)
 Mixed Optimization -- RFO/linear search
 Second derivative matrix not updated -- first step.
 ITU=  0
     Eigenvalues ---    0.02310   0.02310   0.02660   0.02974   0.02974
     Eigenvalues ---    0.16000   0.16000   0.16000   0.16000   0.16000
     Eigenvalues ---    0.22000   0.34931   0.35425   0.35507   0.45444
     Eigenvalues ---    0.45478   0.54326   0.58781
 RFO step:  Lambda=-3.85555612D-03 EMin= 2.30958928D-02
 Linear search not attempted -- first point.
 Iteration  1 RMS(Cart)=  0.03259772 RMS(Int)=  0.00010106
 Iteration  2 RMS(Cart)=  0.00012879 RMS(Int)=  0.00000001
 Iteration  3 RMS(Cart)=  0.00000001 RMS(Int)=  0.00000000
 ClnCor:  largest displacement from symmetrization is 6.31D-09 for atom     3.
 Variable       Old X    -DE/DX   Delta X   Delta X   Delta X     New X
                                 (Linear)    (Quad)   (Total)
    R1        2.51918   0.03003   0.00000   0.05076   0.05076   2.56994
    R2        2.04859   0.00715   0.00000   0.01992   0.01992   2.06851
    R3        2.04990   0.00310   0.00000   0.00866   0.00866   2.05856
    R4        2.55736   0.03123   0.00000   0.05709   0.05709   2.61445
    R5        2.05787   0.00447   0.00000   0.01264   0.01264   2.07051
    R6        1.91424  -0.00342   0.00000  -0.00745  -0.00745   1.90679
    R7        1.91463  -0.00655   0.00000  -0.01430  -0.01430   1.90033
    A1        2.12325   0.00058   0.00000   0.00353   0.00353   2.12679
    A2        2.10531  -0.00119   0.00000  -0.00725  -0.00725   2.09806
    A3        2.05463   0.00061   0.00000   0.00371   0.00371   2.05834
    A4        2.20080   0.00244   0.00000   0.01090   0.01090   2.21169
    A5        2.09513  -0.00178   0.00000  -0.00884  -0.00884   2.08629
    A6        1.98726  -0.00066   0.00000  -0.00205  -0.00205   1.98520
    A7        2.10056   0.00160   0.00000   0.00977   0.00977   2.11033
    A8        2.10104   0.00237   0.00000   0.01448   0.01448   2.11552
    A9        2.08158  -0.00397   0.00000  -0.02425  -0.02425   2.05734
    D1       -0.00000   0.00000   0.00000   0.00000   0.00000   0.00000
    D2        3.14159   0.00000   0.00000   0.00000   0.00000   3.14159
    D3        3.14159  -0.00000   0.00000  -0.00000   0.00000   3.14159
    D4        0.00000  -0.00000   0.00000  -0.00000   0.00000   0.00000
    D5       -0.00000   0.00000   0.00000   0.00000   0.00000   0.00000
    D6        3.14159  -0.00000   0.00000  -0.00000   0.00000   3.14159
    D7        3.14159   0.00000   0.00000   0.00000   0.00000   3.14159
    D8       -0.00000  -0.00000   0.00000  -0.00000   0.00000   0.00000
         Item               Value     Threshold  Converged?
 Maximum Force            0.031235     0.000450     NO 
 RMS     Force            0.009239     0.000300     NO 
 Maximum Displacement     0.059277     0.001800     NO 
 RMS     Displacement     0.032633     0.001200     NO 
 Predicted change in Energy=-1.943008D-03
 GradGradGradGradGradGradGradGradGradGradGradGradGradGradGradGradGradGrad

                          Input orientation:                          
 ---------------------------------------------------------------------
 Center     Atomic      Atomic             Coordinates (Angstroms)
 Number     Number       Type             X           Y           Z
 ---------------------------------------------------------------------
      1          6           0       -0.529412   -0.144518   -0.312955
      2          6           0        0.252482   -1.251996   -0.420724
      3          1           0       -0.497413    0.501569    0.570058
      4          1           0       -1.213269    0.124018   -1.117252
      5          7           0        1.162433   -1.716158    0.512353
      6          1           0        0.189647   -1.871920   -1.321964
      7          1           0        1.307154   -1.227215    1.383060
      8          1           0        1.700107   -2.549534    0.346075
 ---------------------------------------------------------------------
                    Distance matrix (angstroms):
                    1          2          3          4          5
     1  C    0.000000
     2  C    1.359955   0.000000
     3  H    1.094608   2.149181   0.000000
     4  H    1.089342   2.127673   1.871367   0.000000
     5  N    2.452249   1.383506   2.770691   3.418453   0.000000
     6  H    2.125809   1.095668   3.112113   2.448234   2.082136
     7  H    2.724275   2.089637   2.627951   3.798675   1.009030
     8  H    3.345022   2.089785   3.766761   4.216274   1.005612
                    6          7          8
     6  H    0.000000
     7  H    2.996935   0.000000
     8  H    2.350107   1.725768   0.000000
 Stoichiometry    C2H5N
 Framework group  CS[SG(C2H5N)]
 Deg. of freedom    13
 Full point group                 CS      NOp   2
 Largest Abelian subgroup         CS      NOp   2
 Largest concise Abelian subgroup C1      NOp   1
                         Standard orientation:                         
 ---------------------------------------------------------------------
 Center     Atomic      Atomic             Coordinates (Angstroms)
 Number     Number       Type             X           Y           Z
 ---------------------------------------------------------------------
      1          6           0        1.285421    0.009724   -0.000000
      2          6           0        0.000000   -0.434315    0.000000
      3          1           0        1.527906    1.077135   -0.000000
      4          1           0        2.110880   -0.701110   -0.000000
      5          7           0       -1.143968    0.343776    0.000000
      6          1           0       -0.199267   -1.511710    0.000000
      7          1           0       -1.085723    1.351123    0.000000
      8          1           0       -2.058545   -0.074322    0.000000
 ---------------------------------------------------------------------
 Rotational constants (GHZ):          57.3847806           9.8286902           8.3914314
 Standard basis: Aug-CC-pVDZ (5D, 7F)
 There are    89 symmetry adapted cartesian basis functions of A'  symmetry.
 There are    31 symmetry adapted cartesian basis functions of A"  symmetry.
 There are    83 symmetry adapted basis functions of A'  symmetry.
 There are    31 symmetry adapted basis functions of A"  symmetry.
   114 basis functions,   184 primitive gaussians,   120 cartesian basis functions
    12 alpha electrons       12 beta electrons
       nuclear repulsion energy        71.0039581664 Hartrees.
 NAtoms=    8 NActive=    8 NUniq=    8 SFac= 1.00D+00 NAtFMM=   60 NAOKFM=F Big=F
 Integral buffers will be    131072 words long.
 Raffenetti 1 integral format.
 Two-electron integral symmetry is turned on.
 One-electron integrals computed using PRISM.
 NBasis=   114 RedAO= T EigKep=  6.38D-05  NBF=    83    31
 NBsUse=   114 1.00D-06 EigRej= -1.00D+00 NBFU=    83    31
 Initial guess from the checkpoint file:  "/scr/Gau-78144.chk"
 B after Tr=    -0.000000   -0.000000    0.000000
         Rot=    0.803131   -0.000000   -0.000000   -0.595802 Ang= -73.14 deg.
 Initial guess orbital symmetries:
       Occupied  (A') (A') (A') (A') (A') (A') (A') (A') (A') (A')
                 (A") (A")
       Virtual   (A') (A') (A') (A') (A') (A") (A") (A') (A') (A')
                 (A') (A") (A') (A') (A') (A') (A") (A') (A') (A')
                 (A") (A') (A') (A") (A') (A") (A') (A') (A') (A')
                 (A") (A") (A') (A') (A') (A') (A') (A') (A") (A')
                 (A") (A') (A') (A') (A") (A') (A') (A") (A') (A')
                 (A") (A') (A') (A") (A') (A") (A") (A') (A') (A')
                 (A') (A') (A") (A') (A') (A") (A') (A") (A') (A')
                 (A") (A') (A") (A') (A") (A') (A") (A') (A') (A')
                 (A") (A') (A') (A") (A') (A') (A") (A') (A') (A')
                 (A') (A') (A') (A") (A") (A') (A') (A') (A') (A')
                 (A') (A')
 ExpMin= 2.97D-02 ExpMax= 9.05D+03 ExpMxC= 3.09D+02 IAcc=3 IRadAn=         5 AccDes= 0.00D+00
 Harris functional with IExCor=  205 and IRadAn=       5 diagonalized for initial guess.
 HarFok:  IExCor=  205 AccDes= 0.00D+00 IRadAn=         5 IDoV= 1 UseB2=F ITyADJ=14
 ICtDFT=  3500011 ScaDFX=  1.000000  1.000000  1.000000  1.000000
 FoFCou: FMM=F IPFlag=           0 FMFlag=      100000 FMFlg1=           0
         NFxFlg=           0 DoJE=T BraDBF=F KetDBF=T FulRan=T
         wScrn=  0.000000 ICntrl=       500 IOpCl=  0 I1Cent=   200000004 NGrid=           0
         NMat0=    1 NMatS0=      1 NMatT0=    0 NMatD0=    1 NMtDS0=    0 NMtDT0=    0
 Petite list used in FoFCou.
 Keep R1 ints in memory in symmetry-blocked form, NReq=32744791.
 Requested convergence on RMS density matrix=1.00D-08 within 128 cycles.
 Requested convergence on MAX density matrix=1.00D-06.
 Requested convergence on             energy=1.00D-06.
 No special actions if energy rises.
 SCF Done:  E(RHF) =  -133.085489279     A.U. after   11 cycles
            NFock= 11  Conv=0.33D-08     -V/T= 2.0026
 ExpMin= 2.97D-02 ExpMax= 9.05D+03 ExpMxC= 3.09D+02 IAcc=3 IRadAn=         5 AccDes= 0.00D+00
 HarFok:  IExCor=  205 AccDes= 0.00D+00 IRadAn=         5 IDoV=-2 UseB2=F ITyADJ=14
 ICtDFT= 12500011 ScaDFX=  1.000000  1.000000  1.000000  1.000000
 Range of M.O.s used for correlation:     4   114
 NBasis=   114 NAE=    12 NBE=    12 NFC=     3 NFV=     0
 NROrb=    111 NOA=     9 NOB=     9 NVA=   102 NVB=   102

 **** Warning!!: The largest alpha MO coefficient is  0.35733258D+02

 Fully direct method using O(ONN) memory.
 JobTyp=1 Pass  1:  I=   4 to  12 NPSUse= 24 ParTrn=T ParDer=T DoDerP=T.
 Spin components of T(2) and E(2):
     alpha-alpha T2 =       0.2018280156D-01 E2=     -0.5631681742D-01
     alpha-beta  T2 =       0.1224714448D+00 E2=     -0.3528091496D+00
     beta-beta   T2 =       0.2018280156D-01 E2=     -0.5631681742D-01
 ANorm=    0.1078349224D+01
 E2 =    -0.4654427845D+00 EUMP2 =    -0.13355093206340D+03
          IDoAtm=11111111
          Differentiating once with respect to electric field.
                with respect to dipole field.
          Differentiating once with respect to nuclear coordinates.
 Keep R1 ints in memory in symmetry-blocked form, NReq=32746014.
          There are     1 degrees of freedom in the 1st order CPHF.  IDoFFX=0 NUNeed=     1.
 LinEq1:  Iter=  0 NonCon=     1 RMS=4.56D-03 Max=8.00D-02 NDo=     1
 AX will form     1 AO Fock derivatives at one time.
 LinEq1:  Iter=  1 NonCon=     1 RMS=8.91D-04 Max=5.44D-03 NDo=     1
 LinEq1:  Iter=  2 NonCon=     1 RMS=3.77D-04 Max=4.79D-03 NDo=     1
 LinEq1:  Iter=  3 NonCon=     1 RMS=6.65D-05 Max=4.09D-04 NDo=     1
 LinEq1:  Iter=  4 NonCon=     1 RMS=2.44D-05 Max=3.42D-04 NDo=     1
 LinEq1:  Iter=  5 NonCon=     1 RMS=6.34D-06 Max=1.09D-04 NDo=     1
 LinEq1:  Iter=  6 NonCon=     1 RMS=1.72D-06 Max=1.29D-05 NDo=     1
 LinEq1:  Iter=  7 NonCon=     1 RMS=8.54D-07 Max=1.46D-05 NDo=     1
 LinEq1:  Iter=  8 NonCon=     1 RMS=2.15D-07 Max=2.04D-06 NDo=     1
 LinEq1:  Iter=  9 NonCon=     1 RMS=4.66D-08 Max=3.68D-07 NDo=     1
 LinEq1:  Iter= 10 NonCon=     1 RMS=7.50D-09 Max=6.67D-08 NDo=     1
 LinEq1:  Iter= 11 NonCon=     1 RMS=9.91D-10 Max=7.30D-09 NDo=     1
 LinEq1:  Iter= 12 NonCon=     1 RMS=1.81D-10 Max=1.11D-09 NDo=     1
 LinEq1:  Iter= 13 NonCon=     0 RMS=2.32D-11 Max=2.05D-10 NDo=     1
 Linear equations converged to 1.000D-10 1.000D-09 after    13 iterations.
 End of Minotr F.D. properties file   721 does not exist.
 End of Minotr F.D. properties file   722 does not exist.
 End of Minotr F.D. properties file   788 does not exist.
 Calling FoFJK, ICntrl=  10002127 FMM=F ISym2X=1 I1Cent= 0 IOpClX= 0 NMat=1 NMatS=1 NMatT=0.
 ***** Axes restored to original set *****
 -------------------------------------------------------------------
 Center     Atomic                   Forces (Hartrees/Bohr)
 Number     Number              X              Y              Z
 -------------------------------------------------------------------
      1        6           0.001944491   -0.000845260    0.002182091
      2        6          -0.002683383    0.001590201   -0.002467389
      3        1           0.000326543   -0.000690673   -0.000337845
      4        1           0.000530324   -0.001140253   -0.000572502
      5        7          -0.000626459    0.001418431    0.000768025
      6        1           0.000259703    0.000186792    0.000676079
      7        1           0.000076845    0.000033191    0.000171709
      8        1           0.000171936   -0.000552430   -0.000420168
 -------------------------------------------------------------------
 Cartesian Forces:  Max     0.002683383 RMS     0.001150774

 GradGradGradGradGradGradGradGradGradGradGradGradGradGradGradGradGradGrad
 Berny optimization.
 Using GEDIIS/GDIIS optimizer.
 FormGI is forming the generalized inverse of G from B-inverse, IUseBI=4.
 Internal  Forces:  Max     0.003689184 RMS     0.000986343
 Search for a local minimum.
 Step number   2 out of a maximum of   34
 All quantities printed in internal units (Hartrees-Bohrs-Radians)
 Mixed Optimization -- En-DIIS/RFO-DIIS
 Update second derivatives using D2CorX and points    1    2
 DE= -1.75D-03 DEPred=-1.94D-03 R= 9.02D-01
 TightC=F SS=  1.41D+00  RLast= 8.89D-02 DXNew= 5.0454D-01 2.6665D-01
 Trust test= 9.02D-01 RLast= 8.89D-02 DXMaxT set to 3.00D-01
 ITU=  1  0
 Use linear search instead of GDIIS.
     Eigenvalues ---    0.02310   0.02310   0.02659   0.02974   0.02974
     Eigenvalues ---    0.15681   0.16000   0.16000   0.16000   0.16206
     Eigenvalues ---    0.22221   0.35008   0.35430   0.35712   0.45469
     Eigenvalues ---    0.45579   0.53075   0.63737
 RFO step:  Lambda=-4.89276621D-05 EMin= 2.30958928D-02
 Quartic linear search produced a step of -0.06569.
 Iteration  1 RMS(Cart)=  0.00464277 RMS(Int)=  0.00000784
 Iteration  2 RMS(Cart)=  0.00000998 RMS(Int)=  0.00000000
 Iteration  3 RMS(Cart)=  0.00000000 RMS(Int)=  0.00000000
 ClnCor:  largest displacement from symmetrization is 1.61D-08 for atom     4.
 Variable       Old X    -DE/DX   Delta X   Delta X   Delta X     New X
                                 (Linear)    (Quad)   (Total)
    R1        2.56994  -0.00369  -0.00333  -0.00206  -0.00539   2.56455
    R2        2.06851  -0.00067  -0.00131  -0.00032  -0.00162   2.06688
    R3        2.05856  -0.00019  -0.00057   0.00013  -0.00044   2.05811
    R4        2.61445  -0.00020  -0.00375   0.00392   0.00017   2.61462
    R5        2.07051  -0.00068  -0.00083  -0.00089  -0.00172   2.06879
    R6        1.90679   0.00018   0.00049  -0.00019   0.00030   1.90709
    R7        1.90033   0.00062   0.00094   0.00021   0.00115   1.90149
    A1        2.12679   0.00025  -0.00023   0.00171   0.00147   2.12826
    A2        2.09806  -0.00153   0.00048  -0.00944  -0.00896   2.08910
    A3        2.05834   0.00128  -0.00024   0.00773   0.00749   2.06583
    A4        2.21169  -0.00156  -0.00072  -0.00589  -0.00660   2.20509
    A5        2.08629   0.00111   0.00058   0.00465   0.00523   2.09152
    A6        1.98520   0.00045   0.00013   0.00124   0.00138   1.98658
    A7        2.11033   0.00032  -0.00064   0.00253   0.00189   2.11222
    A8        2.11552  -0.00050  -0.00095  -0.00197  -0.00292   2.11259
    A9        2.05734   0.00018   0.00159  -0.00056   0.00104   2.05837
    D1        0.00000  -0.00000  -0.00000  -0.00000   0.00000   0.00000
    D2       -3.14159  -0.00000  -0.00000  -0.00000  -0.00000   3.14159
    D3        3.14159   0.00000   0.00000   0.00000   0.00000   3.14159
    D4        0.00000   0.00000   0.00000   0.00000   0.00000   0.00000
    D5        0.00000  -0.00000   0.00000  -0.00000   0.00000   0.00000
    D6        3.14159  -0.00000   0.00000  -0.00000   0.00000   3.14159
    D7        3.14159  -0.00000   0.00000  -0.00000   0.00000   3.14159
    D8        0.00000  -0.00000   0.00000  -0.00000   0.00000   0.00000
         Item               Value     Threshold  Converged?
 Maximum Force            0.003689     0.000450     NO 
 RMS     Force            0.000986     0.000300     NO 
 Maximum Displacement     0.009509     0.001800     NO 
 RMS     Displacement     0.004648     0.001200     NO 
 Predicted change in Energy=-3.239375D-05
 GradGradGradGradGradGradGradGradGradGradGradGradGradGradGradGradGradGrad

                          Input orientation:                          
 ---------------------------------------------------------------------
 Center     Atomic      Atomic             Coordinates (Angstroms)
 Number     Number       Type             X           Y           Z
 ---------------------------------------------------------------------
      1          6           0       -0.527261   -0.145380   -0.310448
      2          6           0        0.250733   -1.251611   -0.423166
      3          1           0       -0.493187    0.498408    0.573102
      4          1           0       -1.209422    0.118986   -1.117246
      5          7           0        1.159999   -1.713293    0.511941
      6          1           0        0.188704   -1.871687   -1.323250
      7          1           0        1.304412   -1.223942    1.382654
      8          1           0        1.697750   -2.547236    0.345066
 ---------------------------------------------------------------------
                    Distance matrix (angstroms):
                    1          2          3          4          5
     1  C    0.000000
     2  C    1.357103   0.000000
     3  H    1.093748   2.146750   0.000000
     4  H    1.089108   2.119513   1.874628   0.000000
     5  N    2.445715   1.383597   2.761953   3.409641   0.000000
     6  H    2.125679   1.094757   3.111025   2.441306   2.082409
     7  H    2.717521   2.090931   2.617867   3.791084   1.009188
     8  H    3.339055   2.088704   3.758744   4.206988   1.006223
                    6          7          8
     6  H    0.000000
     7  H    2.997715   0.000000
     8  H    2.348801   1.726966   0.000000
 Stoichiometry    C2H5N
 Framework group  CS[SG(C2H5N)]
 Deg. of freedom    13
 Full point group                 CS      NOp   2
 Largest Abelian subgroup         CS      NOp   2
 Largest concise Abelian subgroup C1      NOp   1
                         Standard orientation:                         
 ---------------------------------------------------------------------
 Center     Atomic      Atomic             Coordinates (Angstroms)
 Number     Number       Type             X           Y           Z
 ---------------------------------------------------------------------
      1          6           0        1.282036    0.008389    0.000000
      2          6           0        0.000000   -0.436707   -0.000000
      3          1           0        1.524249    1.074981    0.000000
      4          1           0        2.102029   -0.708387   -0.000000
      5          7           0       -1.140096    0.347208    0.000000
      6          1           0       -0.203059   -1.512467   -0.000000
      7          1           0       -1.078650    1.354523    0.000000
      8          1           0       -2.056117   -0.069194   -0.000000
 ---------------------------------------------------------------------
 Rotational constants (GHZ):          57.0943785           9.8808069           8.4230977
 Standard basis: Aug-CC-pVDZ (5D, 7F)
 There are    89 symmetry adapted cartesian basis functions of A'  symmetry.
 There are    31 symmetry adapted cartesian basis functions of A"  symmetry.
 There are    83 symmetry adapted basis functions of A'  symmetry.
 There are    31 symmetry adapted basis functions of A"  symmetry.
   114 basis functions,   184 primitive gaussians,   120 cartesian basis functions
    12 alpha electrons       12 beta electrons
       nuclear repulsion energy        71.0794946997 Hartrees.
 NAtoms=    8 NActive=    8 NUniq=    8 SFac= 1.00D+00 NAtFMM=   60 NAOKFM=F Big=F
 Integral buffers will be    131072 words long.
 Raffenetti 1 integral format.
 Two-electron integral symmetry is turned on.
 One-electron integrals computed using PRISM.
 NBasis=   114 RedAO= T EigKep=  6.36D-05  NBF=    83    31
 NBsUse=   114 1.00D-06 EigRej= -1.00D+00 NBFU=    83    31
 Initial guess from the checkpoint file:  "/scr/Gau-78144.chk"
 B after Tr=     0.000000    0.000000   -0.000000
         Rot=    0.999999   -0.000000    0.000000    0.001245 Ang=   0.14 deg.
 Initial guess orbital symmetries:
       Occupied  (A') (A') (A') (A') (A') (A') (A') (A') (A') (A')
                 (A") (A")
       Virtual   (A') (A') (A') (A') (A') (A") (A") (A') (A') (A')
                 (A') (A") (A') (A') (A') (A') (A") (A') (A') (A')
                 (A") (A') (A') (A") (A') (A") (A') (A') (A') (A')
                 (A") (A") (A') (A') (A') (A') (A') (A') (A") (A')
                 (A") (A') (A') (A') (A") (A') (A') (A") (A') (A')
                 (A") (A') (A') (A') (A") (A") (A") (A') (A') (A')
                 (A') (A') (A") (A') (A') (A") (A') (A") (A') (A')
                 (A") (A') (A") (A') (A") (A') (A") (A') (A') (A')
                 (A') (A") (A') (A") (A') (A') (A") (A') (A') (A')
                 (A') (A') (A') (A") (A") (A') (A') (A') (A') (A')
                 (A') (A')
 Keep R1 ints in memory in symmetry-blocked form, NReq=32744791.
 Requested convergence on RMS density matrix=1.00D-08 within 128 cycles.
 Requested convergence on MAX density matrix=1.00D-06.
 Requested convergence on             energy=1.00D-06.
 No special actions if energy rises.
 SCF Done:  E(RHF) =  -133.085690010     A.U. after   10 cycles
            NFock= 10  Conv=0.15D-08     -V/T= 2.0025
 ExpMin= 2.97D-02 ExpMax= 9.05D+03 ExpMxC= 3.09D+02 IAcc=3 IRadAn=         5 AccDes= 0.00D+00
 HarFok:  IExCor=  205 AccDes= 0.00D+00 IRadAn=         5 IDoV=-2 UseB2=F ITyADJ=14
 ICtDFT= 12500011 ScaDFX=  1.000000  1.000000  1.000000  1.000000
 Range of M.O.s used for correlation:     4   114
 NBasis=   114 NAE=    12 NBE=    12 NFC=     3 NFV=     0
 NROrb=    111 NOA=     9 NOB=     9 NVA=   102 NVB=   102

 **** Warning!!: The largest alpha MO coefficient is  0.35654777D+02

 Fully direct method using O(ONN) memory.
 JobTyp=1 Pass  1:  I=   4 to  12 NPSUse= 24 ParTrn=T ParDer=T DoDerP=T.
 Spin components of T(2) and E(2):
     alpha-alpha T2 =       0.2016086158D-01 E2=     -0.5630427769D-01
     alpha-beta  T2 =       0.1223040749D+00 E2=     -0.3526709663D+00
     beta-beta   T2 =       0.2016086158D-01 E2=     -0.5630427769D-01
 ANorm=    0.1078251269D+01
 E2 =    -0.4652795217D+00 EUMP2 =    -0.13355096953179D+03
          IDoAtm=11111111
          Differentiating once with respect to electric field.
                with respect to dipole field.
          Differentiating once with respect to nuclear coordinates.
 Keep R1 ints in memory in symmetry-blocked form, NReq=32746014.
          There are     1 degrees of freedom in the 1st order CPHF.  IDoFFX=0 NUNeed=     1.
 LinEq1:  Iter=  0 NonCon=     1 RMS=4.55D-03 Max=7.98D-02 NDo=     1
 AX will form     1 AO Fock derivatives at one time.
 LinEq1:  Iter=  1 NonCon=     1 RMS=8.85D-04 Max=5.33D-03 NDo=     1
 LinEq1:  Iter=  2 NonCon=     1 RMS=3.75D-04 Max=4.76D-03 NDo=     1
 LinEq1:  Iter=  3 NonCon=     1 RMS=6.61D-05 Max=4.17D-04 NDo=     1
 LinEq1:  Iter=  4 NonCon=     1 RMS=2.43D-05 Max=3.37D-04 NDo=     1
 LinEq1:  Iter=  5 NonCon=     1 RMS=6.33D-06 Max=1.09D-04 NDo=     1
 LinEq1:  Iter=  6 NonCon=     1 RMS=1.72D-06 Max=1.36D-05 NDo=     1
 LinEq1:  Iter=  7 NonCon=     1 RMS=8.55D-07 Max=1.46D-05 NDo=     1
 LinEq1:  Iter=  8 NonCon=     1 RMS=2.12D-07 Max=2.02D-06 NDo=     1
 LinEq1:  Iter=  9 NonCon=     1 RMS=4.61D-08 Max=3.61D-07 NDo=     1
 LinEq1:  Iter= 10 NonCon=     1 RMS=7.45D-09 Max=6.64D-08 NDo=     1
 LinEq1:  Iter= 11 NonCon=     1 RMS=9.87D-10 Max=7.40D-09 NDo=     1
 LinEq1:  Iter= 12 NonCon=     1 RMS=1.81D-10 Max=1.13D-09 NDo=     1
 LinEq1:  Iter= 13 NonCon=     0 RMS=2.32D-11 Max=2.05D-10 NDo=     1
 Linear equations converged to 1.000D-10 1.000D-09 after    13 iterations.
 End of Minotr F.D. properties file   721 does not exist.
 End of Minotr F.D. properties file   722 does not exist.
 End of Minotr F.D. properties file   788 does not exist.
 Calling FoFJK, ICntrl=  10002127 FMM=F ISym2X=1 I1Cent= 0 IOpClX= 0 NMat=1 NMatS=1 NMatT=0.
 ***** Axes restored to original set *****
 -------------------------------------------------------------------
 Center     Atomic                   Forces (Hartrees/Bohr)
 Number     Number              X              Y              Z
 -------------------------------------------------------------------
      1        6           0.000002257    0.000425971    0.000550525
      2        6          -0.000604730    0.000298198   -0.000633283
      3        1           0.000136833   -0.000287256   -0.000138796
      4        1           0.000067140   -0.000258506   -0.000218989
      5        7           0.000207340   -0.000057671    0.000274335
      6        1           0.000149604   -0.000021168    0.000224184
      7        1          -0.000012966   -0.000025273   -0.000054221
      8        1           0.000054521   -0.000074295   -0.000003755
 -------------------------------------------------------------------
 Cartesian Forces:  Max     0.000633283 RMS     0.000272864

 GradGradGradGradGradGradGradGradGradGradGradGradGradGradGradGradGradGrad
 Berny optimization.
 Using GEDIIS/GDIIS optimizer.
 FormGI is forming the generalized inverse of G from B-inverse, IUseBI=4.
 Internal  Forces:  Max     0.000377849 RMS     0.000163660
 Search for a local minimum.
 Step number   3 out of a maximum of   34
 All quantities printed in internal units (Hartrees-Bohrs-Radians)
 Mixed Optimization -- En-DIIS/RFO-DIIS
 Swapping is turned off.
 Update second derivatives using D2CorX and points    1    2    3
 DE= -3.75D-05 DEPred=-3.24D-05 R= 1.16D+00
 TightC=F SS=  1.41D+00  RLast= 1.62D-02 DXNew= 5.0454D-01 4.8451D-02
 Trust test= 1.16D+00 RLast= 1.62D-02 DXMaxT set to 3.00D-01
 ITU=  1  1  0
     Eigenvalues ---    0.02310   0.02310   0.02659   0.02974   0.02974
     Eigenvalues ---    0.13226   0.15993   0.16000   0.16000   0.16346
     Eigenvalues ---    0.22495   0.34694   0.35343   0.35476   0.45400
     Eigenvalues ---    0.45547   0.52632   0.63726
 En-DIIS/RFO-DIIS/Sim-DIIS IScMMF=       -3 using points:     3    2
 RFO step:  Lambda=-3.56483881D-06.
 DidBck=F Rises=F RFO-DIIS coefs:    1.23884   -0.23884
 Iteration  1 RMS(Cart)=  0.00084678 RMS(Int)=  0.00000087
 Iteration  2 RMS(Cart)=  0.00000094 RMS(Int)=  0.00000001
 ClnCor:  largest displacement from symmetrization is 1.45D-08 for atom     8.
 Variable       Old X    -DE/DX   Delta X   Delta X   Delta X     New X
                                 (Linear)    (Quad)   (Total)
    R1        2.56455  -0.00020  -0.00129   0.00087  -0.00042   2.56413
    R2        2.06688  -0.00028  -0.00039  -0.00053  -0.00092   2.06597
    R3        2.05811   0.00006  -0.00011   0.00030   0.00020   2.05831
    R4        2.61462   0.00036   0.00004   0.00089   0.00093   2.61555
    R5        2.06879  -0.00018  -0.00041  -0.00022  -0.00063   2.06816
    R6        1.90709  -0.00006   0.00007  -0.00024  -0.00017   1.90692
    R7        1.90149   0.00009   0.00028  -0.00004   0.00023   1.90172
    A1        2.12826  -0.00005   0.00035  -0.00071  -0.00036   2.12790
    A2        2.08910  -0.00032  -0.00214  -0.00049  -0.00263   2.08647
    A3        2.06583   0.00038   0.00179   0.00120   0.00299   2.06882
    A4        2.20509  -0.00008  -0.00158   0.00098  -0.00060   2.20448
    A5        2.09152   0.00025   0.00125   0.00063   0.00188   2.09340
    A6        1.98658  -0.00017   0.00033  -0.00161  -0.00128   1.98530
    A7        2.11222  -0.00002   0.00045  -0.00051  -0.00005   2.11216
    A8        2.11259   0.00002  -0.00070   0.00077   0.00008   2.11267
    A9        2.05837  -0.00000   0.00025  -0.00027  -0.00002   2.05835
    D1        0.00000   0.00000  -0.00000   0.00000  -0.00000   0.00000
    D2        3.14159   0.00000  -0.00000   0.00000   0.00000   3.14159
    D3        3.14159  -0.00000  -0.00000  -0.00000   0.00000   3.14159
    D4       -0.00000  -0.00000   0.00000  -0.00000   0.00000   0.00000
    D5       -0.00000   0.00000   0.00000   0.00000   0.00000   0.00000
    D6        3.14159  -0.00000  -0.00000  -0.00000   0.00000   3.14159
    D7        3.14159   0.00000  -0.00000   0.00000  -0.00000   3.14159
    D8        0.00000  -0.00000   0.00000  -0.00000   0.00000   0.00000
         Item               Value     Threshold  Converged?
 Maximum Force            0.000378     0.000450     YES
 RMS     Force            0.000164     0.000300     YES
 Maximum Displacement     0.002039     0.001800     NO 
 RMS     Displacement     0.000847     0.001200     YES
 Predicted change in Energy=-1.782456D-06
 GradGradGradGradGradGradGradGradGradGradGradGradGradGradGradGradGradGrad

                          Input orientation:                          
 ---------------------------------------------------------------------
 Center     Atomic      Atomic             Coordinates (Angstroms)
 Number     Number       Type             X           Y           Z
 ---------------------------------------------------------------------
      1          6           0       -0.527365   -0.144834   -0.309921
      2          6           0        0.250105   -1.251069   -0.423526
      3          1           0       -0.492472    0.497956    0.573722
      4          1           0       -1.208965    0.117908   -1.117863
      5          7           0        1.159740   -1.713064    0.511800
      6          1           0        0.188958   -1.871721   -1.322867
      7          1           0        1.304198   -1.223813    1.382460
      8          1           0        1.697529   -2.547116    0.344848
 ---------------------------------------------------------------------
                    Distance matrix (angstroms):
                    1          2          3          4          5
     1  C    0.000000
     2  C    1.356880   0.000000
     3  H    1.093262   2.145930   0.000000
     4  H    1.089211   2.117802   1.875969   0.000000
     5  N    2.445586   1.384092   2.760842   3.408668   0.000000
     6  H    2.126339   1.094424   3.110751   2.440254   2.081729
     7  H    2.717163   2.091277   2.616595   3.790490   1.009099
     8  H    3.339137   2.089299   3.757786   4.205898   1.006347
                    6          7          8
     6  H    0.000000
     7  H    2.997055   0.000000
     8  H    2.348024   1.726985   0.000000
 Stoichiometry    C2H5N
 Framework group  CS[SG(C2H5N)]
 Deg. of freedom    13
 Full point group                 CS      NOp   2
 Largest Abelian subgroup         CS      NOp   2
 Largest concise Abelian subgroup C1      NOp   1
                         Standard orientation:                         
 ---------------------------------------------------------------------
 Center     Atomic      Atomic             Coordinates (Angstroms)
 Number     Number       Type             X           Y           Z
 ---------------------------------------------------------------------
      1          6           0        1.282042    0.007415    0.000000
      2          6           0       -0.000000   -0.436984   -0.000000
      3          1           0        1.524285    1.073502    0.000000
      4          1           0        2.099872   -0.711984   -0.000000
      5          7           0       -1.139649    0.348451    0.000000
      6          1           0       -0.205539   -1.511934   -0.000000
      7          1           0       -1.077058    1.355608    0.000000
      8          1           0       -2.056267   -0.066935   -0.000000
 ---------------------------------------------------------------------
 Rotational constants (GHZ):          57.0644689           9.8830688           8.4240898
 Standard basis: Aug-CC-pVDZ (5D, 7F)
 There are    89 symmetry adapted cartesian basis functions of A'  symmetry.
 There are    31 symmetry adapted cartesian basis functions of A"  symmetry.
 There are    83 symmetry adapted basis functions of A'  symmetry.
 There are    31 symmetry adapted basis functions of A"  symmetry.
   114 basis functions,   184 primitive gaussians,   120 cartesian basis functions
    12 alpha electrons       12 beta electrons
       nuclear repulsion energy        71.0806978925 Hartrees.
 NAtoms=    8 NActive=    8 NUniq=    8 SFac= 1.00D+00 NAtFMM=   60 NAOKFM=F Big=F
 Integral buffers will be    131072 words long.
 Raffenetti 1 integral format.
 Two-electron integral symmetry is turned on.
 One-electron integrals computed using PRISM.
 NBasis=   114 RedAO= T EigKep=  6.37D-05  NBF=    83    31
 NBsUse=   114 1.00D-06 EigRej= -1.00D+00 NBFU=    83    31
 Initial guess from the checkpoint file:  "/scr/Gau-78144.chk"
 B after Tr=    -0.000000   -0.000000   -0.000000
         Rot=    1.000000    0.000000   -0.000000    0.000536 Ang=   0.06 deg.
 Initial guess orbital symmetries:
       Occupied  (A') (A') (A') (A') (A') (A') (A') (A') (A') (A')
                 (A") (A")
       Virtual   (A') (A') (A') (A') (A') (A") (A") (A') (A') (A')
                 (A') (A') (A") (A') (A') (A') (A") (A') (A') (A')
                 (A") (A') (A') (A") (A') (A") (A') (A') (A') (A')
                 (A") (A") (A') (A') (A') (A') (A') (A') (A") (A')
                 (A") (A') (A') (A') (A") (A') (A') (A") (A') (A')
                 (A") (A') (A') (A') (A") (A") (A") (A') (A') (A')
                 (A') (A') (A") (A') (A') (A") (A') (A") (A') (A')
                 (A") (A') (A") (A') (A") (A') (A") (A') (A') (A')
                 (A') (A") (A') (A") (A') (A') (A") (A') (A') (A')
                 (A') (A') (A') (A") (A") (A') (A') (A') (A') (A')
                 (A') (A')
 Keep R1 ints in memory in symmetry-blocked form, NReq=32744791.
 Requested convergence on RMS density matrix=1.00D-08 within 128 cycles.
 Requested convergence on MAX density matrix=1.00D-06.
 Requested convergence on             energy=1.00D-06.
 No special actions if energy rises.
 SCF Done:  E(RHF) =  -133.085700888     A.U. after    8 cycles
            NFock=  8  Conv=0.97D-08     -V/T= 2.0025
 ExpMin= 2.97D-02 ExpMax= 9.05D+03 ExpMxC= 3.09D+02 IAcc=3 IRadAn=         5 AccDes= 0.00D+00
 HarFok:  IExCor=  205 AccDes= 0.00D+00 IRadAn=         5 IDoV=-2 UseB2=F ITyADJ=14
 ICtDFT= 12500011 ScaDFX=  1.000000  1.000000  1.000000  1.000000
 Range of M.O.s used for correlation:     4   114
 NBasis=   114 NAE=    12 NBE=    12 NFC=     3 NFV=     0
 NROrb=    111 NOA=     9 NOB=     9 NVA=   102 NVB=   102

 **** Warning!!: The largest alpha MO coefficient is  0.35626946D+02

 Fully direct method using O(ONN) memory.
 JobTyp=1 Pass  1:  I=   4 to  12 NPSUse= 24 ParTrn=T ParDer=T DoDerP=T.
 Spin components of T(2) and E(2):
     alpha-alpha T2 =       0.2015978180D-01 E2=     -0.5630308670D-01
     alpha-beta  T2 =       0.1222945966D+00 E2=     -0.3526644161D+00
     beta-beta   T2 =       0.2015978180D-01 E2=     -0.5630308670D-01
 ANorm=    0.1078245872D+01
 E2 =    -0.4652705895D+00 EUMP2 =    -0.13355097147754D+03
          IDoAtm=11111111
          Differentiating once with respect to electric field.
                with respect to dipole field.
          Differentiating once with respect to nuclear coordinates.
 Keep R1 ints in memory in symmetry-blocked form, NReq=32746014.
          There are     1 degrees of freedom in the 1st order CPHF.  IDoFFX=0 NUNeed=     1.
 LinEq1:  Iter=  0 NonCon=     1 RMS=4.55D-03 Max=7.98D-02 NDo=     1
 AX will form     1 AO Fock derivatives at one time.
 LinEq1:  Iter=  1 NonCon=     1 RMS=8.85D-04 Max=5.31D-03 NDo=     1
 LinEq1:  Iter=  2 NonCon=     1 RMS=3.75D-04 Max=4.76D-03 NDo=     1
 LinEq1:  Iter=  3 NonCon=     1 RMS=6.62D-05 Max=4.19D-04 NDo=     1
 LinEq1:  Iter=  4 NonCon=     1 RMS=2.43D-05 Max=3.37D-04 NDo=     1
 LinEq1:  Iter=  5 NonCon=     1 RMS=6.34D-06 Max=1.09D-04 NDo=     1
 LinEq1:  Iter=  6 NonCon=     1 RMS=1.72D-06 Max=1.37D-05 NDo=     1
 LinEq1:  Iter=  7 NonCon=     1 RMS=8.57D-07 Max=1.46D-05 NDo=     1
 LinEq1:  Iter=  8 NonCon=     1 RMS=2.12D-07 Max=2.02D-06 NDo=     1
 LinEq1:  Iter=  9 NonCon=     1 RMS=4.61D-08 Max=3.60D-07 NDo=     1
 LinEq1:  Iter= 10 NonCon=     1 RMS=7.45D-09 Max=6.64D-08 NDo=     1
 LinEq1:  Iter= 11 NonCon=     1 RMS=9.86D-10 Max=7.35D-09 NDo=     1
 LinEq1:  Iter= 12 NonCon=     1 RMS=1.81D-10 Max=1.12D-09 NDo=     1
 LinEq1:  Iter= 13 NonCon=     0 RMS=2.32D-11 Max=2.05D-10 NDo=     1
 Linear equations converged to 1.000D-10 1.000D-09 after    13 iterations.
 End of Minotr F.D. properties file   721 does not exist.
 End of Minotr F.D. properties file   722 does not exist.
 End of Minotr F.D. properties file   788 does not exist.
 Calling FoFJK, ICntrl=  10002127 FMM=F ISym2X=1 I1Cent= 0 IOpClX= 0 NMat=1 NMatS=1 NMatT=0.
 ***** Axes restored to original set *****
 -------------------------------------------------------------------
 Center     Atomic                   Forces (Hartrees/Bohr)
 Number     Number              X              Y              Z
 -------------------------------------------------------------------
      1        6          -0.000110042    0.000136598   -0.000009561
      2        6          -0.000015384    0.000009760   -0.000013320
      3        1           0.000035357   -0.000030317    0.000020492
      4        1           0.000021094   -0.000037382   -0.000012539
      5        7           0.000060634   -0.000073966    0.000006939
      6        1           0.000016220   -0.000035509   -0.000018324
      7        1           0.000004319    0.000008929    0.000018717
      8        1          -0.000012199    0.000021887    0.000007596
 -------------------------------------------------------------------
 Cartesian Forces:  Max     0.000136598 RMS     0.000044790

 GradGradGradGradGradGradGradGradGradGradGradGradGradGradGradGradGradGrad
 Berny optimization.
 Using GEDIIS/GDIIS optimizer.
 FormGI is forming the generalized inverse of G from B-inverse, IUseBI=4.
 Internal  Forces:  Max     0.000086744 RMS     0.000031484
 Search for a local minimum.
 Step number   4 out of a maximum of   34
 All quantities printed in internal units (Hartrees-Bohrs-Radians)
 Mixed Optimization -- En-DIIS/RFO-DIIS
 Swapping is turned off.
 Update second derivatives using D2CorX and points    1    2    3    4
 DE= -1.95D-06 DEPred=-1.78D-06 R= 1.09D+00
 TightC=F SS=  1.41D+00  RLast= 4.89D-03 DXNew= 5.0454D-01 1.4681D-02
 Trust test= 1.09D+00 RLast= 4.89D-03 DXMaxT set to 3.00D-01
 ITU=  1  1  1  0
     Eigenvalues ---    0.02310   0.02310   0.02660   0.02974   0.02974
     Eigenvalues ---    0.11498   0.16000   0.16038   0.16099   0.16456
     Eigenvalues ---    0.22914   0.35143   0.35421   0.35844   0.45517
     Eigenvalues ---    0.45700   0.52100   0.63720
 En-DIIS/RFO-DIIS/Sim-DIIS IScMMF=       -3 using points:     4    3    2
 RFO step:  Lambda=-9.80944474D-08.
 DidBck=F Rises=F RFO-DIIS coefs:    1.19943   -0.22327    0.02383
 Iteration  1 RMS(Cart)=  0.00014101 RMS(Int)=  0.00000003
 Iteration  2 RMS(Cart)=  0.00000003 RMS(Int)=  0.00000001
 ClnCor:  largest displacement from symmetrization is 1.31D-08 for atom     8.
 Variable       Old X    -DE/DX   Delta X   Delta X   Delta X     New X
                                 (Linear)    (Quad)   (Total)
    R1        2.56413   0.00009   0.00004   0.00009   0.00013   2.56427
    R2        2.06597  -0.00000  -0.00014   0.00012  -0.00002   2.06594
    R3        2.05831  -0.00001   0.00005  -0.00009  -0.00004   2.05827
    R4        2.61555   0.00007   0.00018  -0.00000   0.00018   2.61573
    R5        2.06816   0.00003  -0.00008   0.00018   0.00009   2.06825
    R6        1.90692   0.00002  -0.00004   0.00009   0.00005   1.90697
    R7        1.90172  -0.00003   0.00002  -0.00008  -0.00006   1.90166
    A1        2.12790  -0.00004  -0.00011  -0.00018  -0.00029   2.12761
    A2        2.08647  -0.00002  -0.00031   0.00003  -0.00028   2.08618
    A3        2.06882   0.00006   0.00042   0.00016   0.00057   2.06939
    A4        2.20448   0.00002   0.00004   0.00003   0.00007   2.20455
    A5        2.09340   0.00002   0.00025  -0.00005   0.00020   2.09360
    A6        1.98530  -0.00004  -0.00029   0.00002  -0.00027   1.98503
    A7        2.11216   0.00000  -0.00006   0.00007   0.00002   2.11218
    A8        2.11267   0.00000   0.00008  -0.00008   0.00001   2.11267
    A9        2.05835  -0.00000  -0.00003   0.00001  -0.00002   2.05833
    D1       -0.00000   0.00000   0.00000  -0.00000   0.00000   0.00000
    D2        3.14159   0.00000   0.00000   0.00000   0.00000   3.14159
    D3        3.14159  -0.00000   0.00000   0.00000   0.00000   3.14159
    D4       -0.00000  -0.00000  -0.00000   0.00000   0.00000   0.00000
    D5       -0.00000   0.00000   0.00000   0.00000   0.00000   0.00000
    D6       -3.14159  -0.00000   0.00000  -0.00000  -0.00000   3.14159
    D7        3.14159   0.00000   0.00000  -0.00000   0.00000   3.14159
    D8        0.00000  -0.00000   0.00000  -0.00000  -0.00000   0.00000
         Item               Value     Threshold  Converged?
 Maximum Force            0.000087     0.000450     YES
 RMS     Force            0.000031     0.000300     YES
 Maximum Displacement     0.000290     0.001800     YES
 RMS     Displacement     0.000141     0.001200     YES
 Predicted change in Energy=-4.893910D-08
 Optimization completed.
    -- Stationary point found.
                           ----------------------------
                           !   Optimized Parameters   !
                           ! (Angstroms and Degrees)  !
 --------------------------                            --------------------------
 ! Name  Definition              Value          Derivative Info.                !
 --------------------------------------------------------------------------------
 ! R1    R(1,2)                  1.3569         -DE/DX =    0.0001              !
 ! R2    R(1,3)                  1.0933         -DE/DX =    0.0                 !
 ! R3    R(1,4)                  1.0892         -DE/DX =    0.0                 !
 ! R4    R(2,5)                  1.3841         -DE/DX =    0.0001              !
 ! R5    R(2,6)                  1.0944         -DE/DX =    0.0                 !
 ! R6    R(5,7)                  1.0091         -DE/DX =    0.0                 !
 ! R7    R(5,8)                  1.0063         -DE/DX =    0.0                 !
 ! A1    A(2,1,3)              121.9198         -DE/DX =    0.0                 !
 ! A2    A(2,1,4)              119.5456         -DE/DX =    0.0                 !
 ! A3    A(3,1,4)              118.5345         -DE/DX =    0.0001              !
 ! A4    A(1,2,5)              126.3077         -DE/DX =    0.0                 !
 ! A5    A(1,2,6)              119.9428         -DE/DX =    0.0                 !
 ! A6    A(5,2,6)              113.7495         -DE/DX =    0.0                 !
 ! A7    A(2,5,7)              121.0181         -DE/DX =    0.0                 !
 ! A8    A(2,5,8)              121.047          -DE/DX =    0.0                 !
 ! A9    A(7,5,8)              117.9349         -DE/DX =    0.0                 !
 ! D1    D(3,1,2,5)              0.0            -DE/DX =    0.0                 !
 ! D2    D(3,1,2,6)            180.0            -DE/DX =    0.0                 !
 ! D3    D(4,1,2,5)            180.0            -DE/DX =    0.0                 !
 ! D4    D(4,1,2,6)              0.0            -DE/DX =    0.0                 !
 ! D5    D(1,2,5,7)              0.0            -DE/DX =    0.0                 !
 ! D6    D(1,2,5,8)            180.0            -DE/DX =    0.0                 !
 ! D7    D(6,2,5,7)            180.0            -DE/DX =    0.0                 !
 ! D8    D(6,2,5,8)              0.0            -DE/DX =    0.0                 !
 --------------------------------------------------------------------------------
 GradGradGradGradGradGradGradGradGradGradGradGradGradGradGradGradGradGrad

                          Input orientation:                          
 ---------------------------------------------------------------------
 Center     Atomic      Atomic             Coordinates (Angstroms)
 Number     Number       Type             X           Y           Z
 ---------------------------------------------------------------------
      1          6           0       -0.527365   -0.144834   -0.309921
      2          6           0        0.250105   -1.251069   -0.423526
      3          1           0       -0.492472    0.497956    0.573722
      4          1           0       -1.208965    0.117908   -1.117863
      5          7           0        1.159740   -1.713064    0.511800
      6          1           0        0.188958   -1.871721   -1.322867
      7          1           0        1.304198   -1.223813    1.382460
      8          1           0        1.697529   -2.547116    0.344848
 ---------------------------------------------------------------------
                    Distance matrix (angstroms):
                    1          2          3          4          5
     1  C    0.000000
     2  C    1.356880   0.000000
     3  H    1.093262   2.145930   0.000000
     4  H    1.089211   2.117802   1.875969   0.000000
     5  N    2.445586   1.384092   2.760842   3.408668   0.000000
     6  H    2.126339   1.094424   3.110751   2.440254   2.081729
     7  H    2.717163   2.091277   2.616595   3.790490   1.009099
     8  H    3.339137   2.089299   3.757786   4.205898   1.006347
                    6          7          8
     6  H    0.000000
     7  H    2.997055   0.000000
     8  H    2.348024   1.726985   0.000000
 Stoichiometry    C2H5N
 Framework group  CS[SG(C2H5N)]
 Deg. of freedom    13
 Full point group                 CS      NOp   2
 Largest Abelian subgroup         CS      NOp   2
 Largest concise Abelian subgroup C1      NOp   1
                         Standard orientation:                         
 ---------------------------------------------------------------------
 Center     Atomic      Atomic             Coordinates (Angstroms)
 Number     Number       Type             X           Y           Z
 ---------------------------------------------------------------------
      1          6           0        1.282042    0.007415    0.000000
      2          6           0       -0.000000   -0.436984    0.000000
      3          1           0        1.524285    1.073502    0.000000
      4          1           0        2.099872   -0.711984    0.000000
      5          7           0       -1.139649    0.348451   -0.000000
      6          1           0       -0.205539   -1.511934   -0.000000
      7          1           0       -1.077058    1.355608   -0.000000
      8          1           0       -2.056267   -0.066935   -0.000000
 ---------------------------------------------------------------------
 Rotational constants (GHZ):          57.0644689           9.8830688           8.4240898

 **********************************************************************

            Population analysis using the SCF Density.

 **********************************************************************

 Orbital symmetries:
       Occupied  (A') (A') (A') (A') (A') (A') (A') (A') (A') (A')
                 (A") (A")
       Virtual   (A') (A') (A') (A') (A') (A") (A") (A') (A') (A')
                 (A') (A') (A") (A') (A') (A') (A") (A') (A') (A')
                 (A") (A') (A') (A") (A') (A") (A') (A') (A') (A')
                 (A") (A") (A') (A') (A') (A') (A') (A') (A") (A')
                 (A") (A') (A') (A') (A") (A') (A') (A") (A') (A')
                 (A") (A') (A') (A') (A") (A") (A") (A') (A') (A')
                 (A') (A') (A") (A') (A') (A") (A') (A") (A') (A')
                 (A") (A') (A") (A') (A") (A') (A") (A') (A') (A')
                 (A') (A") (A') (A") (A') (A') (A") (A') (A') (A')
                 (A') (A') (A') (A") (A") (A') (A') (A') (A') (A')
                 (A') (A')
 The electronic state is 1-A'.
 Alpha  occ. eigenvalues --  -15.57413 -11.28349 -11.20530  -1.20995  -0.98793
 Alpha  occ. eigenvalues --   -0.79245  -0.70808  -0.63892  -0.56653  -0.51590
 Alpha  occ. eigenvalues --   -0.49238  -0.30310
 Alpha virt. eigenvalues --    0.03331   0.04665   0.05115   0.07025   0.07336
 Alpha virt. eigenvalues --    0.12086   0.12478   0.13357   0.14682   0.15287
 Alpha virt. eigenvalues --    0.17652   0.18355   0.18361   0.20037   0.22047
 Alpha virt. eigenvalues --    0.22741   0.23319   0.29800   0.30794   0.32567
 Alpha virt. eigenvalues --    0.34250   0.35285   0.38721   0.39655   0.39913
 Alpha virt. eigenvalues --    0.42121   0.43452   0.46722   0.47671   0.49471
 Alpha virt. eigenvalues --    0.50644   0.54108   0.55046   0.56809   0.59058
 Alpha virt. eigenvalues --    0.60329   0.62757   0.63567   0.63803   0.64659
 Alpha virt. eigenvalues --    0.66535   0.66903   0.69308   0.70852   0.72881
 Alpha virt. eigenvalues --    0.73322   0.79743   0.82264   0.83755   0.86623
 Alpha virt. eigenvalues --    0.87804   0.91618   0.95330   0.98745   0.98946
 Alpha virt. eigenvalues --    1.00348   1.14063   1.15898   1.21632   1.27881
 Alpha virt. eigenvalues --    1.36506   1.46159   1.48193   1.51797   1.54142
 Alpha virt. eigenvalues --    1.55996   1.58751   1.64309   1.69591   1.75367
 Alpha virt. eigenvalues --    1.79756   1.89076   1.93164   1.97853   2.01369
 Alpha virt. eigenvalues --    2.01806   2.08392   2.10564   2.12726   2.14667
 Alpha virt. eigenvalues --    2.17438   2.17617   2.26300   2.33027   2.35568
 Alpha virt. eigenvalues --    2.38293   2.41641   2.45890   2.51442   2.55511
 Alpha virt. eigenvalues --    2.63023   2.70499   2.73370   2.79622   2.86587
 Alpha virt. eigenvalues --    2.89656   2.99587   3.16085   3.26859   3.40969
 Alpha virt. eigenvalues --    3.63534   3.78721
          Condensed to atoms (all electrons):
               1          2          3          4          5          6
     1  C    4.652462   0.550195   0.301672   0.222179  -0.174600  -0.086232
     2  C    0.550195   4.404557  -0.035739   0.024501   0.267707   0.220851
     3  H    0.301672  -0.035739   1.294322  -0.259103  -0.072438   0.063509
     4  H    0.222179   0.024501  -0.259103   1.347297   0.024080  -0.097761
     5  N   -0.174600   0.267707  -0.072438   0.024080   6.478791  -0.096750
     6  H   -0.086232   0.220851   0.063509  -0.097761  -0.096750   1.318358
     7  H   -0.006214  -0.079180   0.015297   0.002093   0.428743   0.025092
     8  H    0.011141  -0.103112  -0.005543  -0.000784   0.458851  -0.031640
               7          8
     1  C   -0.006214   0.011141
     2  C   -0.079180  -0.103112
     3  H    0.015297  -0.005543
     4  H    0.002093  -0.000784
     5  N    0.428743   0.458851
     6  H    0.025092  -0.031640
     7  H    0.862287  -0.185701
     8  H   -0.185701   0.879700
 Mulliken charges:
               1
     1  C    0.529396
     2  C    0.750220
     3  H   -0.301976
     4  H   -0.262502
     5  N   -0.314384
     6  H   -0.315427
     7  H   -0.062416
     8  H   -0.022911
 Sum of Mulliken charges =  -0.00000
 Mulliken charges with hydrogens summed into heavy atoms:
               1
     1  C   -0.035082
     2  C    0.434793
     5  N   -0.399711
 Electronic spatial extent (au):  <R**2>=            181.3621
 Charge=             -0.0000 electrons
 Dipole moment (field-independent basis, Debye):
    X=             -1.7374    Y=              0.1751    Z=              0.0000  Tot=              1.7462
 Quadrupole moment (field-independent basis, Debye-Ang):
   XX=            -17.1024   YY=            -16.2148   ZZ=            -23.7753
   XY=              0.0855   XZ=              0.0000   YZ=             -0.0000
 Traceless Quadrupole moment (field-independent basis, Debye-Ang):
   XX=              1.9284   YY=              2.8161   ZZ=             -4.7444
   XY=              0.0855   XZ=              0.0000   YZ=             -0.0000
 Octapole moment (field-independent basis, Debye-Ang**2):
  XXX=            -12.3875  YYY=              3.4719  ZZZ=              0.0000  XYY=             -3.2427
  XXY=             -0.4323  XXZ=              0.0000  XZZ=             -2.5663  YZZ=              0.3208
  YYZ=             -0.0000  XYZ=              0.0000
 Hexadecapole moment (field-independent basis, Debye-Ang**3):
 XXXX=           -145.1815 YYYY=            -43.4517 ZZZZ=            -30.5542 XXXY=              7.2967
 XXXZ=              0.0000 YYYX=              5.7112 YYYZ=             -0.0000 ZZZX=              0.0000
 ZZZY=             -0.0000 XXYY=            -32.6698 XXZZ=            -39.4550 YYZZ=            -14.9966
 XXYZ=             -0.0000 YYXZ=              0.0000 ZZXY=              3.9747
 N-N= 7.108069789247D+01 E-N=-4.525334508920D+02  KE= 1.327569913735D+02
 Symmetry A'   KE= 1.277492559947D+02
 Symmetry A"   KE= 5.007735378798D+00
 Unable to Open any file for archive entry.
 1\1\GINC-N3432\FOpt\RMP2-FC\Aug-CC-pVDZ\C2H5N1\GDS001\04-Apr-2025\0\\#
  MP2/aug-cc-pVDZ opt freq=(vibrot,anharmonic)\\blah\\0,1\C,-0.52736489
 53,-0.1448338768,-0.3099212268\C,0.2501054413,-1.2510689252,-0.4235261
 527\H,-0.4924717331,0.4979562008,0.5737222018\H,-1.208964694,0.1179076
 959,-1.1178630572\N,1.1597397556,-1.7130636584,0.5118003996\H,0.188957
 5679,-1.8717214333,-1.3228671658\H,1.3041984794,-1.2238132806,1.382459
 512\H,1.6975290599,-2.5471163373,0.3448475759\\Version=EM64L-G16RevC.0
 1\State=1-A'\HF=-133.0857009\MP2=-133.5509715\RMSD=9.730e-09\RMSF=4.47
 9e-05\Dipole=0.4555883,-0.4146951,0.2331835\PG=CS [SG(C2H5N1)]\\@
 The archive entry for this job was punched.


 WE DON'T KNOW ONE MILLIONTH OF ONE PERCENT ABOUT
 ANYTHING.
                                     T. A. EDISON.
 Job cpu time:       0 days  0 hours  2 minutes 49.0 seconds.
 Elapsed time:       0 days  0 hours  0 minutes  8.1 seconds.
 File lengths (MBytes):  RWF=     10 Int=      0 D2E=      0 Chk=      3 Scr=      1
 Normal termination of Gaussian 16 at Fri Apr  4 13:11:22 2025.
 Link1:  Proceeding to internal job step number  2.
 ----------------------------------------------------------------------
 #N Geom=AllCheck Guess=TCheck SCRF=Check GenChk RMP2(FC)/Aug-CC-pVDZ F
 req
 ----------------------------------------------------------------------
 1/10=4,29=7,30=1,38=21,40=1,80=1/1,6,3;
 2/12=2,40=1/2;
 3/5=16,7=10,11=1,14=-4,25=1,30=1,70=2,71=2,116=1,140=1/1,2,3;
 4/5=101,69=2/1;
 5/5=2,38=6,98=1/2;
 8/6=3,8=1,10=1,19=11,30=-1/1;
 9/15=3,16=-3/6;
 11/6=1,8=1,15=11,17=12,24=-1,27=1,28=-2,29=300,32=6,42=3/1,2,10;
 10/6=2,21=1,60=-2/2;
 8/6=4,8=1,10=1,19=11,30=-1/11,4;
 10/5=1,20=4,60=-2/2;
 11/12=2,14=11,16=1,17=2,28=-2,42=3,76=2/2,10,12;
 6/7=2,8=2,9=2,10=2,22=-1/1;
 7/10=1,12=2,25=1,44=2,70=1,71=2/1,2,3,16;
 1/38=20,80=1/6(3);
 7/8=1,25=202,44=-1,70=1,71=1,92=10/16,17;
 1/10=4,30=1,38=20,80=1/3;
 99//99;
 3/5=16,7=10,11=1,14=-2,25=1,30=1,70=5,71=2,116=1,140=1/1,2,3;
 4/5=5,16=3,69=2/1;
 5/5=2,38=5,98=1/2;
 8/6=3,8=1,10=1,19=11,30=-1/1;
 9/15=3,16=-3/6;
 11/6=1,8=1,15=11,17=12,24=-1,27=1,28=-2,29=300,32=6,42=3/1,2,10;
 10/6=2,21=1,60=-2/2;
 8/6=4,8=1,10=1,19=11,30=-1/11,4;
 10/5=1,20=4,60=-2/2;
 11/12=2,14=11,16=1,17=2,28=-2,42=3,76=2/2,10,12;
 6/7=2,8=2,9=2,10=2,22=-1/1;
 7/7=1,10=1,12=2,25=1,44=2,70=1,71=1/1,2,3,16;
 1/38=20,80=1/6(-12);
 7/8=1,25=202,44=-1,70=1,71=1,92=10/16,17;
 1/10=4,30=1,38=20,80=1/3;
 99//99;
 Structure from the checkpoint file:  "/scr/Gau-78144.chk"
 ----
 blah
 ----
 Charge =  0 Multiplicity = 1
 Redundant internal coordinates found in file.  (old form).
 C,0,-0.5273648953,-0.1448338768,-0.3099212268
 C,0,0.2501054413,-1.2510689252,-0.4235261527
 H,0,-0.4924717331,0.4979562008,0.5737222018
 H,0,-1.208964694,0.1179076959,-1.1178630572
 N,0,1.1597397556,-1.7130636584,0.5118003996
 H,0,0.1889575679,-1.8717214333,-1.3228671658
 H,0,1.3041984794,-1.2238132806,1.382459512
 H,0,1.6975290599,-2.5471163373,0.3448475759
 Recover connectivity data from disk.
 Numerical evaluation of third derivatives.
 Nuclear step= 0.010000 Angstroms, electric field step= 0.000333 atomic units, NStep=1.

 GradGradGradGradGradGradGradGradGradGradGradGradGradGradGradGradGradGrad
 Berny optimization.
 Initialization pass.
                           ----------------------------
                           !    Initial Parameters    !
                           ! (Angstroms and Degrees)  !
 --------------------------                            --------------------------
 ! Name  Definition              Value          Derivative Info.                !
[...]
 0.05955940,-0.07940194,0.00094376,-0.00088006,-0.00041970,-0.00326980,
 0.00578382,-0.00036506,-0.00027379,-0.00016422,0.00033325,-0.00013893,
 0.00004658,0.00023735,-0.00394343,0.01127155,0.01741007,0.00057656,-0.
 00115681,0.00163159,0.00798778,-0.00062038,0.00162816,0.00037842,0.002
 21291,-0.00372797,-0.00282008,-0.00038065,-0.00015999,-0.00007787,-0.0
 0014661,-0.00018873,-0.00017459,0.01137211,0.02213674,0.05482861,-0.00
 168193,-0.00021598,-0.00146239,-0.01434664,-0.01657678,-0.00008640,-0.
 00005787,0.00030180,-0.00494831,0.00317949,-0.00286701,0.00005547,0.00
 028574,-0.00013764,-0.00001060,0.00015000,-0.00006992,0.01753913,0.054
 65966,0.09392818,0.00095760,-0.00058013,-0.00041398,-0.01428051,-0.052
 47500,-0.08581678,-0.00049655,-0.00013595,-0.00014792,-0.00059292,0.00
 173526,-0.00173268,0.00018256,0.00025874,-0.00003486,0.00002974,0.0002
 1536,-0.00017549,0.01510970,-0.02150296,-0.00126299,0.00013335,0.00010
 344,-0.00035935,-0.00188215,0.00359119,0.00077364,-0.01248372,0.000380
 19,-0.00046867,0.00069480,0.00218287,-0.00061517,0.00061392,0.00007486
 ,0.00015638,-0.00018818,0.00022603,-0.00003172,-0.00004434,-0.01820479
 ,0.02665066,0.00434543,0.00016015,0.00025862,0.00005392,-0.00055422,-0
 .00289544,-0.00516188,0.01573491,-0.02305466,0.00051451,-0.00017231,0.
 00013091,-0.00115814,-0.00013819,-0.00035920,-0.00027088,0.00012077,0.
 00010088,-0.00016180,-0.00006226,-0.00005305,0.00297020,-0.00119588,0.
 00289002,-0.00028656,-0.00004136,-0.00010830,-0.00454699,0.00180290,-0
 .00492466,0.00293966,-0.00031367,0.00232339,-0.21377942,-0.09336873,0.
 26313459,0.63471411,1.03167299,1.72765905,-0.00230685,0.00097659,0.001
 91754,-0.01237673,-0.00407504,-0.00318258,-0.00746313,-0.00514427,0.01
 655123,-0.00456618,0.00102419,-0.00905948,-0.00113122,0.03266570,0.024
 39263,0.44445020,-0.05576035,-0.10453019,-0.00090144,0.01140382,0.0071
 3139,-0.45149547,-0.05746568,-0.39782186,-1.20278306,0.00131692,0.0002
 0300,-0.00210349,0.05501658,0.38219821,-0.10671895,-1.19991792,-1.2553
 2190,-0.00581514,0.01484377,0.01284748,0.11330617,1.19509147,1.2473576
 0,-0.22670592,0.14636970,-0.53213314,0.00176470,-0.00108505,-0.0008978
 4,0.00695357,0.00325377,0.00068900,0.21724329,0.15332688,0.13996136,0.
 17819465,0.00434771,-0.00155738,0.00341886,-0.00914815,0.01324199,-0.0
 0996281,-0.14754319,-0.15252294,-0.52320366,0.16650583,-0.46350179,0.0
 0607507,-0.00570891,0.00434974,-0.01522880,0.01087393,-0.00260047,0.53
 221024,-0.17124540,0.46214573,-0.00036057,0.00180121,-0.00041438,-0.00
 023313,-0.00051863,-0.00011962,-0.00013371,-0.00210840,-0.00056950,0.0
 0068435,0.00024881,0.00098176,-0.00037644,0.00193154,-0.00095149,0.000
 40412,0.00027441,0.00080848,0.00221510,-0.00197406,0.00086047,-0.00040
 840,-0.00038760,-0.00022590,-0.00131349,0.00055773,-0.00093013,-0.0002
 4710,0.00018508,0.00108451,0.00089830,0.00088277,0.00208400,-0.0003970
 8,-0.00063411,-0.00288641,0.00016491,-0.00024424,0.00025369,-0.0001902
 6,-0.00046576,-0.00075458,-0.00136540,-0.00030054,0.00070678,0.0144685
 0,-0.00106575,-0.00034219,0.00122110,0.00083843,-0.00081501,-0.0001780
 3,-0.00128734,-0.00084937,0.00015259,0.00008276,-0.00067372,-0.0142113
 4,-0.00080835,-0.00117037,-0.00027329,-0.00195880,-0.01250259,-0.03712
 477,0.00115784,0.00101827,0.00024028,-0.00068733,0.00100736,0.00098002
 ,0.00050011,0.00038073,0.00053725,0.00174585,0.01138625,0.00005499,0.0
 0057995,-0.00117898,-0.00148839,-0.03562441,-0.03436645,-0.00040505,-0
 .00029635,0.00128580,-0.00007928,-0.00002804,-0.00082514,-0.00013804,-
 0.00016395,0.00017443,0.00192596,0.03554725,0.03483673,-0.00020810,-0.
 00001942,0.00019161,-0.00024572,0.00051749,0.00017661,0.00018074,-0.00
 040889,-0.00045993,0.00011253,-0.00007209,-0.00015129,0.00022931,-0.00
 030822,0.00026188,-0.00009587,0.00000439,0.00006322,-0.00003369,0.0000
 6534,-0.00027866,0.00018461,0.00025014,-0.00037290,-0.00011544,-0.0002
 8167,0.00065746,0.00018818,-0.00000329,0.00014470,-0.00000915,-0.00038
 236,0.00014452,-0.00024893,-0.00000109,-0.00011043,0.00002349,0.000266
 11,-0.00025952,0.00030038,0.00004221,0.00022190,-0.00016654,0.00033375
 ,0.00019304,-0.00029665,-0.00002555,-0.00038907,-0.00006300,-0.0001247
 3,-0.00011842,0.00016674,-0.00012438,-0.00004152,0.00005620,0.00003269
 ,0.00000622,-0.00003737,-0.00013224,-0.00004069,0.00027606,0.00030154,
 -0.00045232,-0.00016931,-0.00003258,-0.00025096,-0.00027499,-0.0004427
 3,0.00038335,0.00012553,0.00012737,0.00016604,0.00003760,-0.00017657,0
 .00018307,0.00000845,0.00004629,0.00006660,0.00006081,0.00008683,0.000
 04025,-0.00006415,0.00039405,0.00030900,0.00006311,-0.00006270,0.00005
 274,0.00001985,-0.00041401,-0.00035753,-0.00007459,0.00008299,-0.00004
 918,-0.00008284,-0.00009848,-0.00008669,-0.00001206,-0.00001233,-0.000
 00923,-0.00003793,0.00002063,0.00007483,-0.00000175,0.00008986,0.00006
 607,-0.00033359,-0.00009232,0.00009668,-0.00028963,0.00007047,-0.00044
 096,0.00042021,-0.00012284,-0.00029302,0.00010910,-0.00000829,0.000296
 65,0.00028330,-0.00014324,0.00008585,-0.00000864,0.00006056,0.00006739
 ,-0.00004472,0.00010946,0.00016855,-0.00013603,0.00012620,0.00001887,-
 0.02185179,0.00574223,0.00775335,0.00714393,0.04747286,0.05121677,-0.0
 0316610,-0.01356423,-0.01109688,-0.65341131,-0.00160367,0.00872979,0.0
 1739670,0.11927946,0.53890380,0.00425448,-0.00269851,-0.00323899,0.179
 38911,1.75082275,1.87950843,0.02555275,-0.00320790,-0.00295093,-0.0039
 7689,-0.00281219,0.00197659,-0.02426309,-0.00402147,-0.01718949,-0.060
 72501,-0.00293775,-0.00240047,0.00135487,0.00249210,0.01756753,-0.0039
 9516,-0.05935814,-0.05803972,0.00181543,0.00156587,-0.00224183,0.00481
 680,0.05911270,0.05873752,-0.00191071,-0.00069778,-0.00139095,0.002549
 41,0.00483247,-0.00133147,0.00039029,0.00083318,-0.00022345,0.00124849
 ,0.00012200,0.00049863,0.00291890,0.00429912,0.00003936,-0.00175403,0.
 00047990,0.00022851,-0.00038898,-0.00096368,-0.00098500,-0.00033877,0.
 00154164,-0.00020638,-0.00201612,-0.00085797,0.00254519,-0.00067683,0.
 00020456,0.00028512,0.00205899,-0.00196791,0.00022026,0.00014121,-0.00
 004521,-0.00078087,0.00608735,-0.01255967,0.00210717,0.00035765,0.0001
 3612,-0.00081550,-0.00063544,-0.00033012,0.00040792,-0.00421032,0.0012
 5031,-0.00150209,-0.00056064,0.00254985,-0.00310748,0.00640707,0.00021
 068,0.00058773,-0.00010721,-0.00069454,-0.00019800,0.00002979,0.001022
 30,-0.00268904,0.00088193,-0.00273734,-0.00146014,0.02150027,-0.018978
 71,0.00700223,-0.00071983,-0.00023247,-0.00056072,-0.00005986,0.000642
 08,-0.00040682,-0.00531116,-0.00138956,-0.01097504,0.00100734,0.011455
 96,0.00813839,0.65403864,-0.10737441,-0.18360391,0.00179108,0.00333778
 ,-0.00135206,-0.00154104,-0.00332689,0.00051977,-0.00444476,-0.0035307
 5,-0.01672639,-0.65155756,-0.00138391,0.00257019,-0.00533476,-0.110743
 46,-0.54318340,-1.75767221,0.00247852,0.00110487,-0.00102214,-0.003108
 23,0.00035910,0.00087571,0.01218194,0.00496566,0.02322948,0.09901555,0
 .53647079,-0.00834153,0.01623780,0.01174130,-0.18792804,-1.75201185,-1
 .88315030,-0.00245494,0.00042152,0.00156209,0.00080042,0.00050834,-0.0
 0239466,0.00344078,-0.00316973,0.00452604,0.19184197,1.74065715,1.8663
 4473,0.00052966,0.00007745,0.00037223,-0.00135428,-0.00089637,-0.00026
 320,0.00053416,0.00048583,-0.00054468,-0.00048733,-0.00040933,0.000203
 49,0.00268226,-0.00132155,-0.00039912,0.00018165,0.00233702,0.00095808
 ,-0.00282590,0.00018917,-0.00046109,-0.00074541,-0.00031884,-0.0001491
 6,0.00168893,0.00063118,0.00041873,0.00001984,-0.00039331,-0.00017927,
 0.00029138,-0.00051414,0.00195700,-0.00080378,0.00052579,-0.00082294,-
 0.00196554,-0.00071243,-0.00127178,0.00051559,-0.00093309,0.00003595,0
 .00047804,0.00071862,-0.00015688,-0.00035812,-0.00022437,0.00033983,0.
 00022405,0.00026445,-0.00020528,0.00063721,-0.00216035,0.00020802,-0.0
 0136663,0.00107754,0.00048364,0.00027401,0.00170559,-0.00088375,-0.000
 30236,0.00023948,0.00056508,-0.00076683,0.00113438,-0.00252876,-0.0003
 8594,-0.00032578,0.00029863,0.00038632,0.00012900,-0.00015844,0.000022
 05,0.00051371,0.00083415,0.00052466,-0.00077742,0.00168327,0.00073978,
 0.00059258,-0.00040416,-0.00021769,-0.00029466,-0.00039930,-0.00042265
 ,0.00143586,0.00116755,0.00185112,-0.00027229,-0.00031739,0.00017806,0
 .00019189,0.00023669,-0.00011719,0.00010879,-0.00001378,0.00027030,-0.
 00010302,-0.00146427,-0.00067770,0.00043937,0.00050852,-0.00044839,-0.
 00150594,0.00028198,-0.00012049,0.00047477,-0.00004879,-0.00214182,0.0
 0134460,-0.00026784,0.00036728,0.00008820,-0.00008229,-0.00007773,-0.0
 0022285,0.00016257,0.00031445,0.00095062,0.00166641,0.00254886,-0.0018
 1077,0.00088715,-0.00060079,-0.00019102,0.00017847,-0.00028977,-0.0006
 3355,-0.00249568,0.37473063,-0.44521485,-0.13246223,1.35489218,0.07258
 420,1.59773511,0.00029842,-0.01520463,-0.00891023,-0.01374255,-0.01172
 439,0.01140779,0.00266205,0.01213062,-0.00333708,-0.00444327,-0.003185
 22,-0.01756732,-0.00093296,0.02112922,0.02163197,0.23124947,-0.0022258
 2,-0.01009005,-0.00087203,0.00347670,0.00286816,-0.22816101,-0.0061839
 4,-0.22440221,-0.60074273,0.00021492,0.00153579,0.00223365,0.00059023,
 0.23089533,-0.01517033,-0.59409258,-0.55244895,-0.00131832,0.00771385,
 0.00776242,0.00569266,0.59395896,0.54081025,-0.60519343,0.46168855,-1.
 33692379,0.00415515,-0.00152283,0.00314341,-0.00279834,0.00659587,0.01
 217689,0.60305750,0.46167346,0.34782919,0.52486327,0.00551540,-0.00343
 248,0.00342229,-0.00138109,-0.00894647,-0.00737648,-0.46537193,-0.3365
 3164,-1.33694309,0.52488859,-1.02929690,0.01217680,-0.00840275,0.01079
 460,0.00193853,0.00602581,0.00598381,1.32269698,-0.52109201,1.01375253
 ,-0.00260674,0.00012488,0.00043949,0.00099270,-0.00119594,-0.00024198,
 0.00032474,-0.00042481,-0.00049426,0.00211466,0.00064500,0.00131988,-0
 .00081297,0.00059129,-0.00188864,0.00212841,0.00024928,0.00134796,0.00
 186265,-0.00034572,0.00008103,-0.00085475,-0.00103126,0.00073862,-0.00
 312294,0.00082234,0.00021007,0.00103814,0.00134472,0.00069728,0.001613
 04,-0.00056546,0.00220723,-0.00039279,-0.00098763,-0.00163309,-0.00083
 161,-0.00030661,0.00003110,-0.00165566,0.00062359,-0.00118062,0.001905
 01,0.00128228,0.00071936,0.00964349,-0.00147070,-0.00039471,0.00017203
 ,-0.00028393,-0.00071167,-0.00177144,-0.00181091,-0.00116451,0.0002975
 3,0.00007315,-0.00041670,-0.01030537,0.00107980,-0.00033654,-0.0017707
 2,-0.00284225,-0.00741353,-0.02552741,0.00021963,0.00050270,0.00052813
 ,-0.00101140,0.00034926,0.00190861,0.00029232,0.00028745,0.00008813,0.
 00220349,0.00664942,0.00045944,-0.00143046,0.00139229,-0.00215499,-0.0
 2322315,-0.02467253,-0.00006538,-0.00031792,-0.00013916,-0.00013835,0.
 00056536,-0.00196857,-0.00013540,-0.00028009,0.00001442,0.00192071,0.0
 2477043,0.02525456,0.00004922,-0.00019020,0.00018581,-0.00032770,0.000
 51767,0.00020416,0.00016663,-0.00045678,-0.00027301,-0.00022678,0.0002
 4903,-0.00029355,-0.00013215,-0.00021826,0.00039255,0.00008972,0.00006
 511,0.00000319,0.00026595,-0.00026419,0.00014982,0.00001363,0.00020277
 ,-0.00021841,0.00012939,-0.00020760,0.00038964,0.00017673,0.00035140,-
 0.00028123,0.00005208,-0.00026117,-0.00036321,-0.00022147,0.00006575,-
 0.00000867,-0.00007720,0.00007763,0.00020009,0.00009079,0.00013798,0.0
 0012303,-0.00019998,0.00065843,0.00045529,0.00004680,-0.00024191,-0.00
 025166,-0.00016216,-0.00011992,-0.00028817,0.00033748,-0.00014938,-0.0
 0015725,0.00000403,-0.00007828,0.00004383,-0.00016441,-0.00015580,-0.0
 0005309,-0.00043258,-0.00026021,-0.00031276,-0.00014750,-0.00021113,-0
 .00020280,-0.00008149,-0.00005156,0.00009805,0.00066268,0.00048104,0.0
 0026895,-0.00017777,-0.00014081,0.00025303,-0.00003097,-0.00000669,0.0
 0011079,0.00011512,0.00003541,0.00004745,0.00009252,0.00004282,-0.0002
 9718,0.00026189,-0.00026612,0.00010996,-0.00006457,-0.00012633,-0.0000
 5582,-0.00005386,0.00030160,0.00027475,-0.00025739,-0.00000261,-0.0004
 1327,0.00002473,-0.00005912,-0.00003009,-0.00000698,-0.00004420,0.0001
 3197,-0.00005111,0.00015396,0.00027968,0.00007615,-0.00024722,-0.00063
 454,-0.00027336,0.00002782,-0.00061167,0.00000207,0.00007177,-0.000083
 62,0.00003864,0.00004409,0.00099159,0.00043045,-0.00020749,0.00002091,
 0.00004351,0.00008111,0.00007515,-0.00005474,0.00008262,0.00012801,-0.
 00026271,0.00014730,0.00011417,-0.00235146,0.00055040,-0.00227217,-0.0
 0080552,-0.00012836,-0.00296961,0.00213580,-0.00216402,0.00077016,-0.0
 1006788,-0.00110422,0.00276161,0.00165808,0.00161361,-0.00949434,0.002
 13042,-0.00012244,0.00344625,-0.00270595,-0.00020222,-0.01203031,0.000
 71706,-0.00014354,0.00031774,-0.00098844,-0.00052744,-0.00036159,-0.00
 047103,-0.00031038,0.00041928,-0.00052018,0.00002770,-0.00033699,0.001
 12360,0.00009822,-0.00026462,0.00010362,-0.00023992,0.00028447,0.00035
 092,0.00019098,-0.00034145,-0.00013934,0.00022717,-0.00025563,0.000354
 12,-0.00006119,-0.00027309,0.00046335,0.00065717,-0.00013666,0.0001589
 2,0.00016289,-0.00013668,-0.00040199,0.00002085,0.00056896,0.00016218,
 0.00053937,-0.00012992,-0.00060405,0.00019773,0.00008234,-0.00003020,-
 0.00008213,-0.00045365,-0.00016771,0.00002426,0.00021924,-0.00028797,-
 0.00040605,0.00004180,-0.00009194,-0.00008873,0.00009632,0.00028696,0.
 00009549,-0.00003089,-0.00204664,0.00269771,-0.00185188,0.01072529,0.0
 0036060,0.01266094,0.00100974,0.00046920,-0.00073794,-0.00096727,-0.00
 055414,0.00054087,-0.38658154,0.00230391,-0.00149491,0.00051921,-0.003
 19070,-0.00401807,-0.01496523,0.00092736,0.00066415,0.00009073,-0.0005
 6566,-0.00053913,0.00055562,-0.78185100,1.51062389,-0.00235730,0.00118
 073,-0.00132852,0.00810289,-0.00899858,0.00552907,-0.00014989,-0.00067
 904,0.00068400,0.00052605,0.00057500,-0.00009064,0.26154263,2.08786023
 ,1.97965319,-0.00009373,0.00031179,-0.00018748,0.00302353,-0.00141858,
 -0.00055316,-0.00028612,-0.00021799,0.00014811,0.00006859,0.00007287,-
 0.00000798,-0.00035167,0.00011519,-0.00103664,-0.00254397,0.00027018,-
 0.00007296,0.00003158,-0.00034598,0.00243763,-0.00036488,-0.00024254,-
 0.00014186,0.00010453,-0.00000769,0.00005916,-0.00010257,0.00038419,0.
 00000607,0.00019981,0.00049835,-0.00122908,-0.00024100,0.00010163,-0.0
 0001840,0.00082362,-0.00216708,0.00087141,0.00011659,0.00014578,-0.000
 15780,-0.00011136,0.00003278,-0.00001602,-0.00069137,-0.00025219,-0.00
 113193,-0.00081589,0.00141303,-0.00123487,0.00105010,-0.00091993,0.001
 91661,-0.00273081,-0.00242395,-0.01209191,0.00002196,-0.00009628,0.000
 28676,-0.00006440,-0.00040475,0.00003398,0.61148565,-0.23196518,-0.481
 33165,-0.00030935,0.00018862,-0.00017888,-0.62353928,-0.00118612,-0.00
 016945,-0.00119201,0.00760179,0.00531403,0.01623679,-0.00015716,-0.000
 27154,-0.00032730,-0.00027818,0.00003325,0.00008077,-0.22046659,-0.311
 06891,-1.69476756,0.00082291,-0.00046821,0.00085710,0.22139492,0.31216
 435,0.00157493,-0.00074474,0.00089678,0.00077610,-0.00060768,0.0031384
 8,0.00020861,-0.00022500,-0.00016056,0.00019643,-0.00013189,-0.0002330
 7,-0.46657326,-1.71408657,-2.26315644,0.00063523,-0.00020860,0.0007407
 6,0.46552555,1.71149344,2.24734703,0.00023474,-0.00027123,0.00011348,-
 0.00256084,0.00284280,0.00105791,-0.00016209,-0.00013336,0.00012456,0.
 00038868,0.00021020,-0.00030619,-0.23327355,1.01422608,0.21470391,0.00
 049272,-0.00074514,0.00109829,0.01408612,-0.00773157,-0.00234358,0.220
 79423,-0.00054463,0.00025963,-0.00053052,-0.00408176,0.00346605,-0.001
 10157,-0.00015263,-0.00015077,-0.00001599,0.00017479,0.00037899,-0.000
 15879,0.99896002,-1.19417308,-0.38537060,-0.00018455,-0.00059075,-0.00
 013103,0.01422654,-0.00553352,0.00451105,-1.00839778,1.19634344,-0.000
 23744,-0.00007117,-0.00053024,-0.00782976,0.01053257,-0.00065524,0.000
 09982,0.00001640,-0.00014935,-0.00035165,-0.00009930,0.00001326,0.1951
 1001,-0.35972181,0.27984126,0.00181782,-0.00107291,0.00094686,0.025839
 56,-0.03238123,0.01142702,-0.21444837,0.38279744,-0.29089356,-0.001505
 99,0.00107971,-0.00190412,-0.00050790,-0.00014363,-0.00141638,0.001697
 33,-0.00263255,0.00071749,-0.01273558,-0.00093088,0.00219845,0.0022087
 2,0.01018459,-0.00451153,0.00290163,-0.00065026,0.00329935,-0.01676389
 ,0.00487402,-0.01688675,-0.00010792,-0.00039069,0.00000111,-0.00039187
 ,0.00010967,-0.00022083,0.00019849,-0.00035296,0.00006207,0.00000909,0
 .00033687,-0.00019177,0.00054659,0.00018171,-0.00000532,0.00004953,-0.
 00005432,-0.00039350,0.00007079,0.00016491,0.00015390,-0.00000697,-0.0
 0013979,0.00015030,0.00019587,-0.00010310,-0.00022165,0.00023648,0.000
 45495,0.00010027,0.00006020,0.00005799,-0.00007671,-0.00010217,-0.0000
 9270,0.00037547,0.00000651,0.00043449,-0.00043803,-0.00050525,0.000077
 71,0.00004872,0.00000038,0.00010455,-0.00011977,-0.00020825,-0.0000109
 8,-0.00011498,0.00007389,-0.00047083,0.00004428,-0.00005136,-0.0000327
 5,0.00002178,0.00011824,0.00014092,0.00028682,-0.00128777,0.00217846,-
 0.00124875,0.01320509,-0.00704192,0.02010039,0.00025444,-0.00050641,-0
 .00011731,-0.00057499,-0.00071385,0.00010081,0.07538645,0.00204176,-0.
 00040956,0.00146766,-0.00497593,-0.01109200,-0.01728540,-0.00023578,0.
 00046723,0.00028390,-0.00033739,-0.00038226,0.00045741,-1.77432141,2.2
 8539619,-0.00142420,0.00169722,0.00090533,0.02275212,-0.02075644,0.007
 44724,0.00023005,-0.00017081,0.00010469,0.00058397,-0.00017507,-0.0004
 2386,0.00474455,1.59881779,0.77715124,0.00015345,0.00044715,-0.0003046
 2,0.00188305,-0.00133366,-0.00073391,0.00002901,-0.00004522,-0.0000313
 7,-0.00020388,-0.00016773,0.00015449,-0.00035140,-0.00053900,-0.001634
 19,-0.00189345,0.00044342,-0.00004662,-0.00018303,-0.00003449,0.001571
 62,0.00028941,-0.00002019,0.00004503,0.00000699,-0.00023896,-0.0000586
 6,0.00006737,-0.00068810,0.00143878,0.00042168,0.00077777,-0.00112739,
 -0.00030947,-0.00017669,-0.00007040,0.00093366,-0.00189346,0.00043949,
 0.00000074,-0.00003506,-0.00003061,0.00006306,0.00018707,-0.00007792,-
 0.00182557,0.00067218,-0.00199495,-0.00022464,0.00135582,0.00019722,0.
 00006859,-0.00041225,0.00032090,-0.00171203,-0.00010007,-0.00352723,0.
 00022936,0.00004115,0.00002965,-0.00020364,-0.00009659,0.00007955,0.39
 518474,-0.17588963,-0.36091306,0.00012985,-0.00013983,0.00007926,-0.38
 655802,-0.00069783,-0.00022426,-0.00089900,0.00350706,0.00320526,0.009
 60723,0.00013591,-0.00012854,-0.00024872,-0.00012806,-0.00010615,0.000
 06544,-0.17540069,-0.09445116,-1.02639262,0.00057873,-0.00049715,0.000
 36525,0.17833236,0.09165681,-0.00004566,-0.00041917,-0.00105201,0.0011
 0253,0.00354678,0.00671552,0.00015127,-0.00040794,-0.00002627,0.000039
 14,0.00011833,-0.00010712,-0.36028551,-1.02721411,-1.44811758,0.001001
 53,-0.00084203,0.00057780,0.36406099,1.01666897,1.44954537,0.00078642,
 -0.00016672,0.00124341,-0.00218247,-0.00134266,-0.00185641,-0.00027172
 ,0.00028689,0.00008239,0.00059213,0.00045412,-0.00026736,-0.48181658,1
 .95425738,0.33566077,0.00025336,-0.00009961,0.00128295,-0.00713886,-0.
 00632747,-0.00602430,0.48977770,-0.00149052,-0.00005142,-0.00246633,-0
 .00682002,0.00925799,0.00312368,0.00014166,-0.00029741,-0.00001334,0.0
 0019004,0.00068069,-0.00021658,1.95649392,-2.18096722,-0.55344175,0.00
 028196,-0.00132562,-0.00047510,-0.00173513,0.00054518,0.00854916,-1.94
 706192,2.17215780,-0.00045569,-0.00024217,-0.00115742,-0.00888659,0.01
 232631,-0.00121303,-0.00010401,0.00023066,0.00001972,-0.00060632,0.000
 22711,0.00037100,0.33853139,-0.55719943,0.66492787,0.00177272,-0.00111
 621,0.00095938,-0.00013005,0.00083346,-0.00753572,-0.33012144,0.544940
 26,-0.65637179\\@
 The archive entry for this job was punched.


 IT IS A PROFOUNDLY ERRONEOUS TRUISM ... THAT WE SHOULD CULTIVATE
 THE HABIT OF THINKING OF WHAT WE ARE DOING.
 THE PRECISE OPPOSITE IS THE CASE.
 CIVILIZATION ADVANCES BY EXTENDING THE NUMBER OF IMPORTANT OPERATIONS
 WHICH WE CAN PERFORM WITHOUT THINKING ABOUT THEM.

                                    -- ALFRED NORTH WHITEHEAD
 Job cpu time:       0 days  4 hours 25 minutes 10.1 seconds.
 Elapsed time:       0 days  0 hours 11 minutes 16.7 seconds.
 File lengths (MBytes):  RWF=    822 Int=      0 D2E=      0 Chk=     41 Scr=      1
 Normal termination of Gaussian 16 at Fri Apr  4 13:22:44 2025.
