 Entering Gaussian System, Link 0=g16
 Input=vinylamine_mp2_avdz_opt_anharm.gjf
 Output=vinylamine_mp2_avdz_opt_anharm.log
 Initial command:
 /sw/contrib/chem-src/g16/c01/g16/l1.exe "/scr/Gau-50947.inp" -scrdir="/scr/"
 Entering Link 1 = /sw/contrib/chem-src/g16/c01/g16/l1.exe PID=     51020.
  
 Copyright (c) 1988-2019, Gaussian, Inc.  All Rights Reserved.
  
 This is part of the Gaussian(R) 16 program.  It is based on
 the Gaussian(R) 09 system (copyright 2009, Gaussian, Inc.),
 the Gaussian(R) 03 system (copyright 2003, Gaussian, Inc.),
 the Gaussian(R) 98 system (copyright 1998, Gaussian, Inc.),
 the Gaussian(R) 94 system (copyright 1995, Gaussian, Inc.),
 the Gaussian 92(TM) system (copyright 1992, Gaussian, Inc.),
 the Gaussian 90(TM) system (copyright 1990, Gaussian, Inc.),
 the Gaussian 88(TM) system (copyright 1988, Gaussian, Inc.),
 the Gaussian 86(TM) system (copyright 1986, Carnegie Mellon
 University), and the Gaussian 82(TM) system (copyright 1983,
 Carnegie Mellon University). Gaussian is a federally registered
 trademark of Gaussian, Inc.
  
 This software contains proprietary and confidential information,
 including trade secrets, belonging to Gaussian, Inc.
  
 This software is provided under written license and may be
 used, copied, transmitted, or stored only in accord with that
 written license.
  
 The following legend is applicable only to US Government
 contracts under FAR:
  
                    RESTRICTED RIGHTS LEGEND
  
 Use, reproduction and disclosure by the US Government is
 subject to restrictions as set forth in subparagraphs (a)
 and (c) of the Commercial Computer Software - Restricted
 Rights clause in FAR 52.227-19.
  
 Gaussian, Inc.
 340 Quinnipiac St., Bldg. 40, Wallingford CT 06492
  
  
 ---------------------------------------------------------------
 Warning -- This program may not be used in any manner that
 competes with the business of Gaussian, Inc. or will provide
 assistance to any competitor of Gaussian, Inc.  The licensee
 of this program is prohibited from giving any competitor of
 Gaussian, Inc. access to this program.  By using this program,
 the user acknowledges that Gaussian, Inc. is engaged in the
 business of creating and licensing software in the field of
 computational chemistry and represents and warrants to the
 licensee that it is not a competitor of Gaussian, Inc. and that
 it will not use this program in any manner prohibited above.
 ---------------------------------------------------------------
  

 Cite this work as:
 Gaussian 16, Revision C.01,
 M. J. Frisch, G. W. Trucks, H. B. Schlegel, G. E. Scuseria, 
 M. A. Robb, J. R. Cheeseman, G. Scalmani, V. Barone, 
 G. A. Petersson, H. Nakatsuji, X. Li, M. Caricato, A. V. Marenich, 
 J. Bloino, B. G. Janesko, R. Gomperts, B. Mennucci, H. P. Hratchian, 
 J. V. Ortiz, A. F. Izmaylov, J. L. Sonnenberg, D. Williams-Young, 
 F. Ding, F. Lipparini, F. Egidi, J. Goings, B. Peng, A. Petrone, 
 T. Henderson, D. Ranasinghe, V. G. Zakrzewski, J. Gao, N. Rega, 
 G. Zheng, W. Liang, M. Hada, M. Ehara, K. Toyota, R. Fukuda, 
 J. Hasegawa, M. Ishida, T. Nakajima, Y. Honda, O. Kitao, H. Nakai, 
 T. Vreven, K. Throssell, J. A. Montgomery, Jr., J. E. Peralta, 
 F. Ogliaro, M. J. Bearpark, J. J. Heyd, E. N. Brothers, K. N. Kudin, 
 V. N. Staroverov, T. A. Keith, R. Kobayashi, J. Normand, 
 K. Raghavachari, A. P. Rendell, J. C. Burant, S. S. Iyengar, 
 J. Tomasi, M. Cossi, J. M. Millam, M. Klene, C. Adamo, R. Cammi, 
 J. W. Ochterski, R. L. Martin, K. Morokuma, O. Farkas, 
 J. B. Foresman, and D. J. Fox, Gaussian, Inc., Wallingford CT, 2019.
 
 ******************************************
 Gaussian 16:  EM64L-G16RevC.01  3-Jul-2019
                 8-Apr-2025 
 ******************************************
 %nprocshared=24
 Will use up to   24 processors via shared memory.
 %mem=50gb
 ----------------------------------------------
 # MP2/aug-cc-pVDZ opt freq=(vibrot,anharmonic)
 ----------------------------------------------
 1/18=20,19=15,38=1,80=1/1,3;
 2/9=110,12=2,17=6,18=5,40=1/2;
 3/5=16,7=10,11=9,25=1,30=1,71=1/1,2,3;
 4//1;
 5/5=2,38=5/2;
 8/6=4,10=1/1;
 9/15=2,16=-3/6;
 10/5=1/2;
 6/7=2,8=2,9=2,10=2/1;
 7/12=2/1,2,3,16;
 1/18=20,19=15,80=1/3(2);
 2/9=110/2;
 99//99;
 2/9=110/2;
 3/5=16,7=10,11=9,25=1,30=1,71=1/1,2,3;
 4/5=5,16=3,69=1/1;
 5/5=2,38=5/2;
 8/6=4,10=1/1;
 9/15=2,16=-3/6;
 10/5=1/2;
 7/12=2/1,2,3,16;
 1/18=20,19=15,80=1/3(-8);
 2/9=110/2;
 6/7=2,8=2,9=2,10=2/1;
 99/9=10/99;
 ----
 blah
 ----
 Symbolic Z-matrix:
 Charge =  0 Multiplicity = 1
 C                     1.28204   0.00742   0. 
 C                     0.       -0.43698   0. 
 H                     1.52429   1.0735    0. 
 H                     2.09987  -0.71198   0. 
 N                    -1.13965   0.34845   0. 
 H                    -0.20554  -1.51193   0. 
 H                    -1.15543   1.31659   0.28414 
 H                    -1.95259  -0.21265   0.19242 
 

 GradGradGradGradGradGradGradGradGradGradGradGradGradGradGradGradGradGrad
 Berny optimization.
 Initialization pass.
                           ----------------------------
                           !    Initial Parameters    !
                           ! (Angstroms and Degrees)  !
 --------------------------                            --------------------------
 ! Name  Definition              Value          Derivative Info.                !
 --------------------------------------------------------------------------------
 ! R1    R(1,2)                  1.3569         estimate D2E/DX2                !
 ! R2    R(1,3)                  1.0933         estimate D2E/DX2                !
 ! R3    R(1,4)                  1.0892         estimate D2E/DX2                !
 ! R4    R(2,5)                  1.3841         estimate D2E/DX2                !
 ! R5    R(2,6)                  1.0944         estimate D2E/DX2                !
 ! R6    R(5,7)                  1.0091         estimate D2E/DX2                !
 ! R7    R(5,8)                  1.0063         estimate D2E/DX2                !
 ! A1    A(2,1,3)              121.9198         estimate D2E/DX2                !
 ! A2    A(2,1,4)              119.5457         estimate D2E/DX2                !
 ! A3    A(3,1,4)              118.5345         estimate D2E/DX2                !
 ! A4    A(1,2,5)              126.3077         estimate D2E/DX2                !
 ! A5    A(1,2,6)              119.9428         estimate D2E/DX2                !
 ! A6    A(5,2,6)              113.7495         estimate D2E/DX2                !
 ! A7    A(2,5,7)              123.8703         estimate D2E/DX2                !
 ! A8    A(2,5,8)              110.4103         estimate D2E/DX2                !
 ! A9    A(7,5,8)              117.9349         estimate D2E/DX2                !
 ! D1    D(3,1,2,5)              0.0            estimate D2E/DX2                !
 ! D2    D(3,1,2,6)            180.0            estimate D2E/DX2                !
 ! D3    D(4,1,2,5)            180.0            estimate D2E/DX2                !
 ! D4    D(4,1,2,6)              0.0            estimate D2E/DX2                !
 ! D5    D(1,2,5,7)            -19.8234         estimate D2E/DX2                !
 ! D6    D(1,2,5,8)           -168.2282         estimate D2E/DX2                !
 ! D7    D(6,2,5,7)            160.1766         estimate D2E/DX2                !
 ! D8    D(6,2,5,8)             11.7718         estimate D2E/DX2                !
 --------------------------------------------------------------------------------
 Trust Radius=3.00D-01 FncErr=1.00D-07 GrdErr=1.00D-07 EigMax=2.50D+02 EigMin=1.00D-04
 Number of steps in this run=     34 maximum allowed number of steps=    100.
 GradGradGradGradGradGradGradGradGradGradGradGradGradGradGradGradGradGrad

                          Input orientation:                          
 ---------------------------------------------------------------------
 Center     Atomic      Atomic             Coordinates (Angstroms)
 Number     Number       Type             X           Y           Z
 ---------------------------------------------------------------------
      1          6           0        1.282042    0.007415    0.000000
      2          6           0        0.000000   -0.436984    0.000000
      3          1           0        1.524285    1.073502    0.000000
      4          1           0        2.099872   -0.711984    0.000000
      5          7           0       -1.139649    0.348451    0.000000
      6          1           0       -0.205539   -1.511934    0.000000
      7          1           0       -1.155426    1.316594    0.284136
      8          1           0       -1.952588   -0.212654    0.192419
 ---------------------------------------------------------------------
                    Distance matrix (angstroms):
                    1          2          3          4          5
     1  C    0.000000
     2  C    1.356880   0.000000
     3  H    1.093263   2.145929   0.000000
     4  H    1.089211   2.117802   1.875969   0.000000
     5  N    2.445586   1.384091   2.760841   3.408668   0.000000
     6  H    2.126339   1.094424   3.110751   2.440254   2.081729
     7  H    2.781355   2.119146   2.705676   3.846145   1.009100
     8  H    3.247813   1.974829   3.712125   4.087638   1.006347
                    6          7          8
     6  H    0.000000
     7  H    2.997264   0.000000
     8  H    2.185711   1.726985   0.000000
 Stoichiometry    C2H5N
 Framework group  C1[X(C2H5N)]
 Deg. of freedom    18
 Full point group                 C1      NOp   1
 Largest Abelian subgroup         C1      NOp   1
 Largest concise Abelian subgroup C1      NOp   1
                         Standard orientation:                         
 ---------------------------------------------------------------------
 Center     Atomic      Atomic             Coordinates (Angstroms)
 Number     Number       Type             X           Y           Z
 ---------------------------------------------------------------------
      1          6           0       -1.266049   -0.196612    0.003889
      2          6           0       -0.060210    0.425484   -0.004534
      3          1           0       -1.354840   -1.285749   -0.029581
      4          1           0       -2.177262    0.398682    0.045067
      5          7           0        1.178838   -0.189338   -0.054166
      6          1           0       -0.008998    1.518165    0.029948
      7          1           0        1.338296   -1.154135    0.194875
      8          1           0        1.908494    0.475169    0.142726
 ---------------------------------------------------------------------
 Rotational constants (GHZ):          56.4499914           9.9209372           8.4651581
 Standard basis: Aug-CC-pVDZ (5D, 7F)
 There are   120 symmetry adapted cartesian basis functions of A   symmetry.
 There are   114 symmetry adapted basis functions of A   symmetry.
   114 basis functions,   184 primitive gaussians,   120 cartesian basis functions
    12 alpha electrons       12 beta electrons
       nuclear repulsion energy        71.1620094586 Hartrees.
 NAtoms=    8 NActive=    8 NUniq=    8 SFac= 1.00D+00 NAtFMM=   60 NAOKFM=F Big=F
 Integral buffers will be    131072 words long.
 Raffenetti 1 integral format.
 Two-electron integral symmetry is turned on.
 One-electron integrals computed using PRISM.
 NBasis=   114 RedAO= T EigKep=  6.49D-05  NBF=   114
 NBsUse=   114 1.00D-06 EigRej= -1.00D+00 NBFU=   114
 ExpMin= 2.97D-02 ExpMax= 9.05D+03 ExpMxC= 3.09D+02 IAcc=3 IRadAn=         5 AccDes= 0.00D+00
 Harris functional with IExCor=  205 and IRadAn=       5 diagonalized for initial guess.
 HarFok:  IExCor=  205 AccDes= 0.00D+00 IRadAn=         5 IDoV= 1 UseB2=F ITyADJ=14
 ICtDFT=  3500011 ScaDFX=  1.000000  1.000000  1.000000  1.000000
 FoFCou: FMM=F IPFlag=           0 FMFlag=      100000 FMFlg1=           0
         NFxFlg=           0 DoJE=T BraDBF=F KetDBF=T FulRan=T
         wScrn=  0.000000 ICntrl=       500 IOpCl=  0 I1Cent=   200000004 NGrid=           0
         NMat0=    1 NMatS0=      1 NMatT0=    0 NMatD0=    1 NMtDS0=    0 NMtDT0=    0
 Petite list used in FoFCou.
 Keep R1 ints in memory in canonical form, NReq=26620676.
 Requested convergence on RMS density matrix=1.00D-08 within 128 cycles.
 Requested convergence on MAX density matrix=1.00D-06.
 Requested convergence on             energy=1.00D-06.
 No special actions if energy rises.
 SCF Done:  E(RHF) =  -133.084474806     A.U. after   13 cycles
            NFock= 13  Conv=0.16D-08     -V/T= 2.0022
 ExpMin= 2.97D-02 ExpMax= 9.05D+03 ExpMxC= 3.09D+02 IAcc=3 IRadAn=         5 AccDes= 0.00D+00
 HarFok:  IExCor=  205 AccDes= 0.00D+00 IRadAn=         5 IDoV=-2 UseB2=F ITyADJ=14
 ICtDFT= 12500011 ScaDFX=  1.000000  1.000000  1.000000  1.000000
 Range of M.O.s used for correlation:     4   114
 NBasis=   114 NAE=    12 NBE=    12 NFC=     3 NFV=     0
 NROrb=    111 NOA=     9 NOB=     9 NVA=   102 NVB=   102

 **** Warning!!: The largest alpha MO coefficient is  0.34361777D+02

 Fully direct method using O(ONN) memory.
 JobTyp=1 Pass  1:  I=   4 to  12 NPSUse= 24 ParTrn=T ParDer=T DoDerP=T.
 Spin components of T(2) and E(2):
     alpha-alpha T2 =       0.2011571124D-01 E2=     -0.5622429635D-01
     alpha-beta  T2 =       0.1222639717D+00 E2=     -0.3526033286D+00
     beta-beta   T2 =       0.2011571124D-01 E2=     -0.5622429635D-01
 ANorm=    0.1078190797D+01
 E2 =    -0.4650519213D+00 EUMP2 =    -0.13354952672695D+03
          IDoAtm=11111111
          Differentiating once with respect to electric field.
                with respect to dipole field.
          Differentiating once with respect to nuclear coordinates.
 Keep R1 ints in memory in canonical form, NReq=26623841.
          There are     1 degrees of freedom in the 1st order CPHF.  IDoFFX=0 NUNeed=     1.
 LinEq1:  Iter=  0 NonCon=     1 RMS=4.54D-03 Max=5.18D-02 NDo=     1
 AX will form     1 AO Fock derivatives at one time.
 LinEq1:  Iter=  1 NonCon=     1 RMS=8.81D-04 Max=5.33D-03 NDo=     1
 LinEq1:  Iter=  2 NonCon=     1 RMS=3.72D-04 Max=4.57D-03 NDo=     1
 LinEq1:  Iter=  3 NonCon=     1 RMS=6.65D-05 Max=4.01D-04 NDo=     1
 LinEq1:  Iter=  4 NonCon=     1 RMS=2.45D-05 Max=2.31D-04 NDo=     1
 LinEq1:  Iter=  5 NonCon=     1 RMS=6.07D-06 Max=7.13D-05 NDo=     1
 LinEq1:  Iter=  6 NonCon=     1 RMS=1.60D-06 Max=9.24D-06 NDo=     1
 LinEq1:  Iter=  7 NonCon=     1 RMS=8.03D-07 Max=1.04D-05 NDo=     1
 LinEq1:  Iter=  8 NonCon=     1 RMS=2.02D-07 Max=1.48D-06 NDo=     1
 LinEq1:  Iter=  9 NonCon=     1 RMS=4.58D-08 Max=2.51D-07 NDo=     1
 LinEq1:  Iter= 10 NonCon=     1 RMS=7.71D-09 Max=5.49D-08 NDo=     1
 LinEq1:  Iter= 11 NonCon=     1 RMS=1.16D-09 Max=7.30D-09 NDo=     1
 LinEq1:  Iter= 12 NonCon=     1 RMS=2.43D-10 Max=1.62D-09 NDo=     1
 LinEq1:  Iter= 13 NonCon=     0 RMS=5.02D-11 Max=4.42D-10 NDo=     1
 Linear equations converged to 1.000D-10 1.000D-09 after    13 iterations.
 End of Minotr F.D. properties file   721 does not exist.
 End of Minotr F.D. properties file   722 does not exist.
 End of Minotr F.D. properties file   788 does not exist.

 **********************************************************************

            Population analysis using the SCF Density.

 **********************************************************************

 Orbital symmetries:
       Occupied  (A) (A) (A) (A) (A) (A) (A) (A) (A) (A) (A) (A)
       Virtual   (A) (A) (A) (A) (A) (A) (A) (A) (A) (A) (A) (A)
                 (A) (A) (A) (A) (A) (A) (A) (A) (A) (A) (A) (A)
                 (A) (A) (A) (A) (A) (A) (A) (A) (A) (A) (A) (A)
                 (A) (A) (A) (A) (A) (A) (A) (A) (A) (A) (A) (A)
                 (A) (A) (A) (A) (A) (A) (A) (A) (A) (A) (A) (A)
                 (A) (A) (A) (A) (A) (A) (A) (A) (A) (A) (A) (A)
                 (A) (A) (A) (A) (A) (A) (A) (A) (A) (A) (A) (A)
                 (A) (A) (A) (A) (A) (A) (A) (A) (A) (A) (A) (A)
                 (A) (A) (A) (A) (A) (A)
 The electronic state is 1-A.
 Alpha  occ. eigenvalues --  -15.57411 -11.28143 -11.20692  -1.21398  -0.98772
 Alpha  occ. eigenvalues --   -0.79277  -0.70074  -0.64389  -0.56139  -0.51938
 Alpha  occ. eigenvalues --   -0.49347  -0.30669
 Alpha virt. eigenvalues --    0.03344   0.04633   0.05105   0.07031   0.07370
 Alpha virt. eigenvalues --    0.11937   0.12173   0.13468   0.14686   0.15228
 Alpha virt. eigenvalues --    0.17807   0.18024   0.18463   0.20118   0.21769
 Alpha virt. eigenvalues --    0.22840   0.23308   0.29717   0.30620   0.32353
 Alpha virt. eigenvalues --    0.33640   0.35859   0.38055   0.38863   0.41156
 Alpha virt. eigenvalues --    0.42083   0.43341   0.46194   0.48786   0.49642
 Alpha virt. eigenvalues --    0.51074   0.54067   0.54666   0.56910   0.58823
 Alpha virt. eigenvalues --    0.60244   0.62122   0.63328   0.64057   0.64529
 Alpha virt. eigenvalues --    0.65962   0.67219   0.69198   0.69391   0.72409
 Alpha virt. eigenvalues --    0.74394   0.79650   0.81220   0.86253   0.86900
 Alpha virt. eigenvalues --    0.88350   0.91063   0.92205   0.95500   1.00857
 Alpha virt. eigenvalues --    1.05698   1.14179   1.17339   1.21964   1.26272
 Alpha virt. eigenvalues --    1.34138   1.42533   1.48016   1.49457   1.54098
 Alpha virt. eigenvalues --    1.57861   1.59416   1.65085   1.70149   1.75053
 Alpha virt. eigenvalues --    1.79735   1.88718   1.92463   1.97321   2.00093
 Alpha virt. eigenvalues --    2.02582   2.05911   2.10343   2.11570   2.16326
 Alpha virt. eigenvalues --    2.16658   2.18621   2.26792   2.33095   2.35041
 Alpha virt. eigenvalues --    2.39706   2.41779   2.48334   2.49650   2.56500
 Alpha virt. eigenvalues --    2.57944   2.68593   2.71937   2.74278   2.85245
 Alpha virt. eigenvalues --    2.92731   3.04740   3.13146   3.33774   3.41604
 Alpha virt. eigenvalues --    3.59116   3.72357
          Condensed to atoms (all electrons):
               1          2          3          4          5          6
     1  C    4.628042   0.555064   0.305528   0.212998  -0.140203  -0.089545
     2  C    0.555064   4.419666  -0.047639   0.031161   0.271166   0.185845
     3  H    0.305528  -0.047639   1.281641  -0.257695  -0.062628   0.067712
     4  H    0.212998   0.031161  -0.257695   1.348492   0.019881  -0.099128
     5  N   -0.140203   0.271166  -0.062628   0.019881   6.450095  -0.073100
     6  H   -0.089545   0.185845   0.067712  -0.099128  -0.073100   1.397067
     7  H   -0.005187  -0.082212   0.011743   0.001223   0.448713   0.020987
     8  H    0.014136  -0.073687  -0.006757   0.000254   0.427207  -0.069068
               7          8
     1  C   -0.005187   0.014136
     2  C   -0.082212  -0.073687
     3  H    0.011743  -0.006757
     4  H    0.001223   0.000254
     5  N    0.448713   0.427207
     6  H    0.020987  -0.069068
     7  H    0.811643  -0.148120
     8  H   -0.148120   0.826056
 Mulliken charges:
               1
     1  C    0.519165
     2  C    0.740636
     3  H   -0.291905
     4  H   -0.257186
     5  N   -0.341131
     6  H   -0.340769
     7  H   -0.058790
     8  H    0.029979
 Sum of Mulliken charges =  -0.00000
 Mulliken charges with hydrogens summed into heavy atoms:
               1
     1  C   -0.029925
     2  C    0.399867
     5  N   -0.369942
 Electronic spatial extent (au):  <R**2>=            180.8965
 Charge=             -0.0000 electrons
 Dipole moment (field-independent basis, Debye):
    X=              1.5553    Y=              0.1736    Z=              0.7122  Tot=              1.7194
 Quadrupole moment (field-independent basis, Debye-Ang):
   XX=            -17.7021   YY=            -16.1155   ZZ=            -23.5963
   XY=              0.0619   XZ=              1.2835   YZ=             -0.2775
 Traceless Quadrupole moment (field-independent basis, Debye-Ang):
   XX=              1.4359   YY=              3.0225   ZZ=             -4.4583
   XY=              0.0619   XZ=              1.2835   YZ=             -0.2775
 Octapole moment (field-independent basis, Debye-Ang**2):
  XXX=              9.5562  YYY=             -1.6555  ZZZ=              0.4985  XYY=              4.1629
  XXY=              1.0549  XXZ=              2.4664  XZZ=              2.6664  YZZ=             -0.0029
  YYZ=              0.7023  XYZ=             -0.6298
 Hexadecapole moment (field-independent basis, Debye-Ang**3):
 XXXX=           -153.2552 YYYY=            -42.5521 ZZZZ=            -30.6348 XXXY=             -0.5668
 XXXZ=              4.0840 YYYX=             -2.1464 YYYZ=             -0.5642 ZZZX=              1.2986
 ZZZY=             -0.2464 XXYY=            -31.0402 XXZZ=            -39.4780 YYZZ=            -14.2236
 XXYZ=             -0.3656 YYXZ=              1.2172 ZZXY=              0.1832
 N-N= 7.116200945859D+01 E-N=-4.527161875845D+02  KE= 1.327881789900D+02
 Calling FoFJK, ICntrl=  10002127 FMM=F ISym2X=0 I1Cent= 0 IOpClX= 0 NMat=1 NMatS=1 NMatT=0.
 ***** Axes restored to original set *****
 -------------------------------------------------------------------
 Center     Atomic                   Forces (Hartrees/Bohr)
 Number     Number              X              Y              Z
 -------------------------------------------------------------------
      1        6           0.000429003   -0.001657033   -0.000239272
      2        6           0.015557421    0.007182798    0.004435988
      3        1          -0.000210535   -0.000091181    0.000457048
      4        1           0.000457404    0.000012129   -0.000834593
      5        7          -0.009230047   -0.014682355   -0.007749137
      6        1          -0.000114982    0.000233156   -0.001635548
      7        1           0.003595746   -0.000369264    0.002592539
      8        1          -0.010484010    0.009371750    0.002972975
 -------------------------------------------------------------------
 Cartesian Forces:  Max     0.015557421 RMS     0.006148798

 GradGradGradGradGradGradGradGradGradGradGradGradGradGradGradGradGradGrad
 Berny optimization.
 FormGI is forming the generalized inverse of G from B-inverse, IUseBI=4.
 Internal  Forces:  Max     0.019750256 RMS     0.005580959
 Search for a local minimum.
 Step number   1 out of a maximum of   34
 All quantities printed in internal units (Hartrees-Bohrs-Radians)
 Mixed Optimization -- RFO/linear search
 Second derivative matrix not updated -- first step.
 ITU=  0
     Eigenvalues ---    0.01902   0.02301   0.02659   0.02659   0.03030
     Eigenvalues ---    0.16000   0.16000   0.16000   0.16000   0.16000
     Eigenvalues ---    0.22000   0.34306   0.34438   0.34904   0.46124
     Eigenvalues ---    0.46590   0.48362   0.53583
 RFO step:  Lambda=-4.33888364D-03 EMin= 1.90222555D-02
 Linear search not attempted -- first point.
 Iteration  1 RMS(Cart)=  0.04680331 RMS(Int)=  0.00253590
 Iteration  2 RMS(Cart)=  0.00250409 RMS(Int)=  0.00021268
 Iteration  3 RMS(Cart)=  0.00000865 RMS(Int)=  0.00021254
 Iteration  4 RMS(Cart)=  0.00000000 RMS(Int)=  0.00021254
 Variable       Old X    -DE/DX   Delta X   Delta X   Delta X     New X
                                 (Linear)    (Quad)   (Total)
    R1        2.56413   0.00007   0.00000   0.00013   0.00013   2.56426
    R2        2.06597  -0.00014   0.00000  -0.00039  -0.00039   2.06558
    R3        2.05831   0.00034   0.00000   0.00095   0.00095   2.05926
    R4        2.61555   0.01005   0.00000   0.02059   0.02059   2.63615
    R5        2.06816  -0.00021   0.00000  -0.00060  -0.00060   2.06756
    R6        1.90692   0.00032   0.00000   0.00069   0.00069   1.90761
    R7        1.90172   0.00381   0.00000   0.00811   0.00811   1.90983
    A1        2.12790  -0.00047   0.00000  -0.00285  -0.00287   2.12503
    A2        2.08647   0.00055   0.00000   0.00337   0.00336   2.08982
    A3        2.06882  -0.00009   0.00000  -0.00052  -0.00054   2.06828
    A4        2.20449   0.00261   0.00000   0.01163   0.01128   2.21577
    A5        2.09340  -0.00114   0.00000  -0.00483  -0.00517   2.08823
    A6        1.98530  -0.00147   0.00000  -0.00680  -0.00714   1.97816
    A7        2.16194  -0.01329   0.00000  -0.08539  -0.08495   2.07699
    A8        1.92702   0.01975   0.00000   0.11542   0.11587   2.04289
    A9        2.05835  -0.00673   0.00000  -0.04643  -0.04590   2.01245
    D1       -0.00000   0.00111   0.00000   0.03904   0.03904   0.03904
    D2        3.14159  -0.00031   0.00000  -0.01313  -0.01313   3.12846
    D3        3.14159   0.00146   0.00000   0.05024   0.05024  -3.09135
    D4        0.00000   0.00003   0.00000  -0.00193  -0.00193  -0.00193
    D5       -0.34598  -0.00059   0.00000  -0.01203  -0.01215  -0.35813
    D6       -2.93614   0.00069   0.00000   0.02472   0.02485  -2.91128
    D7        2.79561   0.00076   0.00000   0.03736   0.03723   2.83284
    D8        0.20546   0.00204   0.00000   0.07411   0.07423   0.27969
         Item               Value     Threshold  Converged?
 Maximum Force            0.019750     0.000450     NO 
 RMS     Force            0.005581     0.000300     NO 
 Maximum Displacement     0.132558     0.001800     NO 
 RMS     Displacement     0.047182     0.001200     NO 
 Predicted change in Energy=-2.247658D-03
 GradGradGradGradGradGradGradGradGradGradGradGradGradGradGradGradGradGrad

                          Input orientation:                          
 ---------------------------------------------------------------------
 Center     Atomic      Atomic             Coordinates (Angstroms)
 Number     Number       Type             X           Y           Z
 ---------------------------------------------------------------------
      1          6           0        1.286452    0.010765    0.006716
      2          6           0        0.009108   -0.447093    0.014915
      3          1           0        1.514439    1.079761    0.013345
      4          1           0        2.114351   -0.697383   -0.017435
      5          7           0       -1.156504    0.318836   -0.011413
      6          1           0       -0.179713   -1.524607   -0.004635
      7          1           0       -1.112401    1.287074    0.270695
      8          1           0       -2.022735   -0.154948    0.204367
 ---------------------------------------------------------------------
                    Distance matrix (angstroms):
                    1          2          3          4          5
     1  C    0.000000
     2  C    1.356948   0.000000
     3  H    1.093057   2.144133   0.000000
     4  H    1.089713   2.120316   1.875922   0.000000
     5  N    2.462371   1.394988   2.777329   3.425089   0.000000
     6  H    2.123002   1.094108   3.106961   2.438687   2.086252
     7  H    2.730044   2.080995   2.647545   3.799081   1.009463
     8  H    3.319223   2.061462   3.751345   4.178386   1.010637
                    6          7          8
     6  H    0.000000
     7  H    2.975107   0.000000
     8  H    2.305726   1.706615   0.000000
 Stoichiometry    C2H5N
 Framework group  C1[X(C2H5N)]
 Deg. of freedom    18
 Full point group                 C1      NOp   1
 Largest Abelian subgroup         C1      NOp   1
 Largest concise Abelian subgroup C1      NOp   1
                         Standard orientation:                         
 ---------------------------------------------------------------------
 Center     Atomic      Atomic             Coordinates (Angstroms)
 Number     Number       Type             X           Y           Z
 ---------------------------------------------------------------------
      1          6           0       -1.272162   -0.195937    0.004031
      2          6           0       -0.065930    0.425594    0.007643
      3          1           0       -1.357903   -1.285342   -0.020831
      4          1           0       -2.186045    0.397491    0.015745
      5          7           0        1.189277   -0.179100   -0.061580
      6          1           0       -0.020378    1.518678    0.020472
      7          1           0        1.277959   -1.152851    0.189338
      8          1           0        1.989977    0.397786    0.156295
 ---------------------------------------------------------------------
 Rotational constants (GHZ):          57.1870964           9.7750397           8.3775017
 Standard basis: Aug-CC-pVDZ (5D, 7F)
 There are   120 symmetry adapted cartesian basis functions of A   symmetry.
 There are   114 symmetry adapted basis functions of A   symmetry.
   114 basis functions,   184 primitive gaussians,   120 cartesian basis functions
    12 alpha electrons       12 beta electrons
       nuclear repulsion energy        70.8965292016 Hartrees.
 NAtoms=    8 NActive=    8 NUniq=    8 SFac= 1.00D+00 NAtFMM=   60 NAOKFM=F Big=F
 Integral buffers will be    131072 words long.
 Raffenetti 1 integral format.
 Two-electron integral symmetry is turned on.
 One-electron integrals computed using PRISM.
 NBasis=   114 RedAO= T EigKep=  6.65D-05  NBF=   114
 NBsUse=   114 1.00D-06 EigRej= -1.00D+00 NBFU=   114
 Initial guess from the checkpoint file:  "/scr/Gau-51020.chk"
 B after Tr=    -0.000000    0.000000   -0.000000
         Rot=    0.999996   -0.002129    0.000136    0.001739 Ang=  -0.32 deg.
 ExpMin= 2.97D-02 ExpMax= 9.05D+03 ExpMxC= 3.09D+02 IAcc=3 IRadAn=         5 AccDes= 0.00D+00
 Harris functional with IExCor=  205 and IRadAn=       5 diagonalized for initial guess.
 HarFok:  IExCor=  205 AccDes= 0.00D+00 IRadAn=         5 IDoV= 1 UseB2=F ITyADJ=14
 ICtDFT=  3500011 ScaDFX=  1.000000  1.000000  1.000000  1.000000
 FoFCou: FMM=F IPFlag=           0 FMFlag=      100000 FMFlg1=           0
         NFxFlg=           0 DoJE=T BraDBF=F KetDBF=T FulRan=T
         wScrn=  0.000000 ICntrl=       500 IOpCl=  0 I1Cent=   200000004 NGrid=           0
         NMat0=    1 NMatS0=      1 NMatT0=    0 NMatD0=    1 NMtDS0=    0 NMtDT0=    0
 Petite list used in FoFCou.
 Keep R1 ints in memory in canonical form, NReq=26620481.
 Requested convergence on RMS density matrix=1.00D-08 within 128 cycles.
 Requested convergence on MAX density matrix=1.00D-06.
 Requested convergence on             energy=1.00D-06.
 No special actions if energy rises.
 SCF Done:  E(RHF) =  -133.086710474     A.U. after   11 cycles
            NFock= 11  Conv=0.61D-08     -V/T= 2.0025
 ExpMin= 2.97D-02 ExpMax= 9.05D+03 ExpMxC= 3.09D+02 IAcc=3 IRadAn=         5 AccDes= 0.00D+00
 HarFok:  IExCor=  205 AccDes= 0.00D+00 IRadAn=         5 IDoV=-2 UseB2=F ITyADJ=14
 ICtDFT= 12500011 ScaDFX=  1.000000  1.000000  1.000000  1.000000
 Range of M.O.s used for correlation:     4   114
 NBasis=   114 NAE=    12 NBE=    12 NFC=     3 NFV=     0
 NROrb=    111 NOA=     9 NOB=     9 NVA=   102 NVB=   102

 **** Warning!!: The largest alpha MO coefficient is  0.34779986D+02

 Fully direct method using O(ONN) memory.
 JobTyp=1 Pass  1:  I=   4 to  12 NPSUse= 24 ParTrn=T ParDer=T DoDerP=T.
 Spin components of T(2) and E(2):
     alpha-alpha T2 =       0.2014673400D-01 E2=     -0.5618243210D-01
     alpha-beta  T2 =       0.1225575336D+00 E2=     -0.3528063988D+00
     beta-beta   T2 =       0.2014673400D-01 E2=     -0.5618243210D-01
 ANorm=    0.1078355693D+01
 E2 =    -0.4651712630D+00 EUMP2 =    -0.13355188173693D+03
          IDoAtm=11111111
          Differentiating once with respect to electric field.
                with respect to dipole field.
          Differentiating once with respect to nuclear coordinates.
 Keep R1 ints in memory in canonical form, NReq=26623763.
          There are     1 degrees of freedom in the 1st order CPHF.  IDoFFX=0 NUNeed=     1.
 LinEq1:  Iter=  0 NonCon=     1 RMS=4.56D-03 Max=5.19D-02 NDo=     1
 AX will form     1 AO Fock derivatives at one time.
 LinEq1:  Iter=  1 NonCon=     1 RMS=8.85D-04 Max=5.55D-03 NDo=     1
 LinEq1:  Iter=  2 NonCon=     1 RMS=3.73D-04 Max=4.24D-03 NDo=     1
 LinEq1:  Iter=  3 NonCon=     1 RMS=6.72D-05 Max=3.45D-04 NDo=     1
 LinEq1:  Iter=  4 NonCon=     1 RMS=2.48D-05 Max=2.46D-04 NDo=     1
 LinEq1:  Iter=  5 NonCon=     1 RMS=6.17D-06 Max=6.92D-05 NDo=     1
 LinEq1:  Iter=  6 NonCon=     1 RMS=1.66D-06 Max=9.16D-06 NDo=     1
 LinEq1:  Iter=  7 NonCon=     1 RMS=8.24D-07 Max=9.70D-06 NDo=     1
 LinEq1:  Iter=  8 NonCon=     1 RMS=2.09D-07 Max=1.34D-06 NDo=     1
 LinEq1:  Iter=  9 NonCon=     1 RMS=4.68D-08 Max=2.32D-07 NDo=     1
 LinEq1:  Iter= 10 NonCon=     1 RMS=7.93D-09 Max=5.10D-08 NDo=     1
 LinEq1:  Iter= 11 NonCon=     1 RMS=1.26D-09 Max=8.07D-09 NDo=     1
 LinEq1:  Iter= 12 NonCon=     1 RMS=2.70D-10 Max=2.02D-09 NDo=     1
 LinEq1:  Iter= 13 NonCon=     0 RMS=5.36D-11 Max=4.67D-10 NDo=     1
 Linear equations converged to 1.000D-10 1.000D-09 after    13 iterations.
 End of Minotr F.D. properties file   721 does not exist.
 End of Minotr F.D. properties file   722 does not exist.
 End of Minotr F.D. properties file   788 does not exist.
 Calling FoFJK, ICntrl=  10002127 FMM=F ISym2X=0 I1Cent= 0 IOpClX= 0 NMat=1 NMatS=1 NMatT=0.
 ***** Axes restored to original set *****
 -------------------------------------------------------------------
 Center     Atomic                   Forces (Hartrees/Bohr)
 Number     Number              X              Y              Z
 -------------------------------------------------------------------
      1        6          -0.002096283    0.001060898    0.000407165
      2        6           0.000268092    0.000050068    0.000776666
      3        1           0.000212793    0.000238454    0.000208901
      4        1          -0.000458660   -0.000051987    0.000144252
      5        7           0.000615523   -0.004315137   -0.004418158
      6        1           0.000168603   -0.000569974   -0.000746472
      7        1           0.000716551    0.001897497    0.001368567
      8        1           0.000573381    0.001690180    0.002259079
 -------------------------------------------------------------------
 Cartesian Forces:  Max     0.004418158 RMS     0.001587040

 GradGradGradGradGradGradGradGradGradGradGradGradGradGradGradGradGradGrad
 Berny optimization.
 Using GEDIIS/GDIIS optimizer.
 FormGI is forming the generalized inverse of G from B-inverse, IUseBI=4.
 Internal  Forces:  Max     0.002802005 RMS     0.001295992
 Search for a local minimum.
 Step number   2 out of a maximum of   34
 All quantities printed in internal units (Hartrees-Bohrs-Radians)
 Mixed Optimization -- RFO/linear search
 Update second derivatives using D2CorX and points    1    2
 DE= -2.36D-03 DEPred=-2.25D-03 R= 1.05D+00
 TightC=F SS=  1.41D+00  RLast= 1.88D-01 DXNew= 5.0454D-01 5.6406D-01
 Trust test= 1.05D+00 RLast= 1.88D-01 DXMaxT set to 5.05D-01
 ITU=  1  0
 Use linear search instead of GDIIS.
     Eigenvalues ---    0.01800   0.02339   0.02652   0.02671   0.02984
     Eigenvalues ---    0.14609   0.15992   0.16000   0.16000   0.16225
     Eigenvalues ---    0.23304   0.34322   0.34444   0.34914   0.46084
     Eigenvalues ---    0.46740   0.49957   0.53819
 RFO step:  Lambda=-5.41759204D-04 EMin= 1.80004186D-02
 Quartic linear search produced a step of  0.10963.
 Iteration  1 RMS(Cart)=  0.03126732 RMS(Int)=  0.00128868
 Iteration  2 RMS(Cart)=  0.00124920 RMS(Int)=  0.00042413
 Iteration  3 RMS(Cart)=  0.00000076 RMS(Int)=  0.00042413
 Variable       Old X    -DE/DX   Delta X   Delta X   Delta X     New X
                                 (Linear)    (Quad)   (Total)
    R1        2.56426  -0.00179   0.00001  -0.00370  -0.00368   2.56058
    R2        2.06558   0.00028  -0.00004   0.00089   0.00085   2.06643
    R3        2.05926  -0.00032   0.00010  -0.00100  -0.00090   2.05836
    R4        2.63615  -0.00198   0.00226  -0.00439  -0.00213   2.63402
    R5        2.06756   0.00055  -0.00007   0.00176   0.00169   2.06926
    R6        1.90761   0.00223   0.00008   0.00537   0.00544   1.91305
    R7        1.90983  -0.00080   0.00089  -0.00185  -0.00096   1.90887
    A1        2.12503   0.00045  -0.00031   0.00310   0.00277   2.12780
    A2        2.08982  -0.00057   0.00037  -0.00387  -0.00353   2.08630
    A3        2.06828   0.00012  -0.00006   0.00089   0.00081   2.06909
    A4        2.21577  -0.00280   0.00124  -0.01398  -0.01279   2.20298
    A5        2.08823   0.00115  -0.00057   0.00537   0.00477   2.09299
    A6        1.97816   0.00165  -0.00078   0.00876   0.00794   1.98610
    A7        2.07699  -0.00193  -0.00931  -0.02549  -0.03583   2.04116
    A8        2.04289   0.00117   0.01270  -0.00283   0.00885   2.05174
    A9        2.01245  -0.00057  -0.00503  -0.01809  -0.02443   1.98802
    D1        0.03904   0.00014   0.00428   0.00547   0.00975   0.04879
    D2        3.12846   0.00023  -0.00144   0.00963   0.00819   3.13665
    D3       -3.09135  -0.00017   0.00551  -0.00700  -0.00149  -3.09284
    D4       -0.00193  -0.00008  -0.00021  -0.00284  -0.00305  -0.00498
    D5       -0.35813  -0.00036  -0.00133   0.00641   0.00544  -0.35269
    D6       -2.91128   0.00214   0.00272   0.09385   0.09622  -2.81506
    D7        2.83284  -0.00044   0.00408   0.00251   0.00695   2.83979
    D8        0.27969   0.00206   0.00814   0.08995   0.09773   0.37742
         Item               Value     Threshold  Converged?
 Maximum Force            0.002802     0.000450     NO 
 RMS     Force            0.001296     0.000300     NO 
 Maximum Displacement     0.086998     0.001800     NO 
 RMS     Displacement     0.031576     0.001200     NO 
 Predicted change in Energy=-2.853113D-04
 GradGradGradGradGradGradGradGradGradGradGradGradGradGradGradGradGradGrad

                          Input orientation:                          
 ---------------------------------------------------------------------
 Center     Atomic      Atomic             Coordinates (Angstroms)
 Number     Number       Type             X           Y           Z
 ---------------------------------------------------------------------
      1          6           0        1.275751    0.014656    0.008710
      2          6           0        0.005627   -0.457326    0.002211
      3          1           0        1.494271    1.085923    0.028582
      4          1           0        2.109209   -0.686463   -0.006136
      5          7           0       -1.157786    0.309400   -0.035877
      6          1           0       -0.175735   -1.536921   -0.022580
      7          1           0       -1.079200    1.276990    0.251239
      8          1           0       -2.019139   -0.133853    0.250404
 ---------------------------------------------------------------------
                    Distance matrix (angstroms):
                    1          2          3          4          5
     1  C    0.000000
     2  C    1.355000   0.000000
     3  H    1.093507   2.144382   0.000000
     4  H    1.089238   2.116041   1.876354   0.000000
     5  N    2.451727   1.393862   2.764154   3.415536   0.000000
     6  H    2.124896   1.095003   3.109799   2.438138   2.091293
     7  H    2.682927   2.060756   2.590142   3.753310   1.012344
     8  H    3.307079   2.065409   3.725736   4.173062   1.010128
                    6          7          8
     6  H    0.000000
     7  H    2.968050   0.000000
     8  H    2.332651   1.695277   0.000000
 Stoichiometry    C2H5N
 Framework group  C1[X(C2H5N)]
 Deg. of freedom    18
 Full point group                 C1      NOp   1
 Largest Abelian subgroup         C1      NOp   1
 Largest concise Abelian subgroup C1      NOp   1
                         Standard orientation:                         
 ---------------------------------------------------------------------
 Center     Atomic      Atomic             Coordinates (Angstroms)
 Number     Number       Type             X           Y           Z
 ---------------------------------------------------------------------
      1          6           0       -1.264402   -0.198168    0.005928
      2          6           0       -0.065110    0.432481    0.003949
      3          1           0       -1.344117   -1.288670   -0.008532
      4          1           0       -2.180656    0.390601    0.022375
      5          7           0        1.186042   -0.177367   -0.070603
      6          1           0       -0.023374    1.526641    0.014111
      7          1           0        1.235423   -1.155858    0.184265
      8          1           0        1.987502    0.362978    0.222737
 ---------------------------------------------------------------------
 Rotational constants (GHZ):          56.4409479           9.8678504           8.4393182
 Standard basis: Aug-CC-pVDZ (5D, 7F)
 There are   120 symmetry adapted cartesian basis functions of A   symmetry.
 There are   114 symmetry adapted basis functions of A   symmetry.
   114 basis functions,   184 primitive gaussians,   120 cartesian basis functions
    12 alpha electrons       12 beta electrons
       nuclear repulsion energy        71.0074218880 Hartrees.
 NAtoms=    8 NActive=    8 NUniq=    8 SFac= 1.00D+00 NAtFMM=   60 NAOKFM=F Big=F
 Integral buffers will be    131072 words long.
 Raffenetti 1 integral format.
 Two-electron integral symmetry is turned on.
 One-electron integrals computed using PRISM.
 NBasis=   114 RedAO= T EigKep=  6.78D-05  NBF=   114
 NBsUse=   114 1.00D-06 EigRej= -1.00D+00 NBFU=   114
 Initial guess from the checkpoint file:  "/scr/Gau-51020.chk"
 B after Tr=     0.000000    0.000000    0.000000
         Rot=    0.999999   -0.001064    0.000214    0.000642 Ang=  -0.14 deg.
 ExpMin= 2.97D-02 ExpMax= 9.05D+03 ExpMxC= 3.09D+02 IAcc=3 IRadAn=         5 AccDes= 0.00D+00
 Harris functional with IExCor=  205 and IRadAn=       5 diagonalized for initial guess.
 HarFok:  IExCor=  205 AccDes= 0.00D+00 IRadAn=         5 IDoV= 1 UseB2=F ITyADJ=14
 ICtDFT=  3500011 ScaDFX=  1.000000  1.000000  1.000000  1.000000
 FoFCou: FMM=F IPFlag=           0 FMFlag=      100000 FMFlg1=           0
         NFxFlg=           0 DoJE=T BraDBF=F KetDBF=T FulRan=T
         wScrn=  0.000000 ICntrl=       500 IOpCl=  0 I1Cent=   200000004 NGrid=           0
         NMat0=    1 NMatS0=      1 NMatT0=    0 NMatD0=    1 NMtDS0=    0 NMtDT0=    0
 Petite list used in FoFCou.
 Keep R1 ints in memory in canonical form, NReq=26620598.
 Requested convergence on RMS density matrix=1.00D-08 within 128 cycles.
 Requested convergence on MAX density matrix=1.00D-06.
 Requested convergence on             energy=1.00D-06.
 No special actions if energy rises.
 SCF Done:  E(RHF) =  -133.087312857     A.U. after   11 cycles
            NFock= 11  Conv=0.40D-08     -V/T= 2.0025
 ExpMin= 2.97D-02 ExpMax= 9.05D+03 ExpMxC= 3.09D+02 IAcc=3 IRadAn=         5 AccDes= 0.00D+00
 HarFok:  IExCor=  205 AccDes= 0.00D+00 IRadAn=         5 IDoV=-2 UseB2=F ITyADJ=14
 ICtDFT= 12500011 ScaDFX=  1.000000  1.000000  1.000000  1.000000
 Range of M.O.s used for correlation:     4   114
 NBasis=   114 NAE=    12 NBE=    12 NFC=     3 NFV=     0
 NROrb=    111 NOA=     9 NOB=     9 NVA=   102 NVB=   102

 **** Warning!!: The largest alpha MO coefficient is  0.33731769D+02

 Fully direct method using O(ONN) memory.
 JobTyp=1 Pass  1:  I=   4 to  12 NPSUse= 24 ParTrn=T ParDer=T DoDerP=T.
 Spin components of T(2) and E(2):
     alpha-alpha T2 =       0.2012415274D-01 E2=     -0.5615303783D-01
     alpha-beta  T2 =       0.1224517779D+00 E2=     -0.3527002725D+00
     beta-beta   T2 =       0.2012415274D-01 E2=     -0.5615303783D-01
 ANorm=    0.1078285715D+01
 E2 =    -0.4650063482D+00 EUMP2 =    -0.13355231920530D+03
          IDoAtm=11111111
          Differentiating once with respect to electric field.
                with respect to dipole field.
          Differentiating once with respect to nuclear coordinates.
 Keep R1 ints in memory in canonical form, NReq=26623802.
          There are     1 degrees of freedom in the 1st order CPHF.  IDoFFX=0 NUNeed=     1.
 LinEq1:  Iter=  0 NonCon=     1 RMS=4.56D-03 Max=5.33D-02 NDo=     1
 AX will form     1 AO Fock derivatives at one time.
 LinEq1:  Iter=  1 NonCon=     1 RMS=8.78D-04 Max=5.49D-03 NDo=     1
 LinEq1:  Iter=  2 NonCon=     1 RMS=3.69D-04 Max=4.22D-03 NDo=     1
 LinEq1:  Iter=  3 NonCon=     1 RMS=6.66D-05 Max=3.59D-04 NDo=     1
 LinEq1:  Iter=  4 NonCon=     1 RMS=2.44D-05 Max=2.58D-04 NDo=     1
 LinEq1:  Iter=  5 NonCon=     1 RMS=6.12D-06 Max=6.79D-05 NDo=     1
 LinEq1:  Iter=  6 NonCon=     1 RMS=1.65D-06 Max=1.05D-05 NDo=     1
 LinEq1:  Iter=  7 NonCon=     1 RMS=8.03D-07 Max=9.73D-06 NDo=     1
 LinEq1:  Iter=  8 NonCon=     1 RMS=2.08D-07 Max=1.42D-06 NDo=     1
 LinEq1:  Iter=  9 NonCon=     1 RMS=4.69D-08 Max=2.66D-07 NDo=     1
 LinEq1:  Iter= 10 NonCon=     1 RMS=8.09D-09 Max=5.16D-08 NDo=     1
 LinEq1:  Iter= 11 NonCon=     1 RMS=1.34D-09 Max=9.03D-09 NDo=     1
 LinEq1:  Iter= 12 NonCon=     1 RMS=2.88D-10 Max=2.29D-09 NDo=     1
 LinEq1:  Iter= 13 NonCon=     0 RMS=5.61D-11 Max=4.77D-10 NDo=     1
 Linear equations converged to 1.000D-10 1.000D-09 after    13 iterations.
 End of Minotr F.D. properties file   721 does not exist.
 End of Minotr F.D. properties file   722 does not exist.
 End of Minotr F.D. properties file   788 does not exist.
 Calling FoFJK, ICntrl=  10002127 FMM=F ISym2X=0 I1Cent= 0 IOpClX= 0 NMat=1 NMatS=1 NMatT=0.
 ***** Axes restored to original set *****
 -------------------------------------------------------------------
 Center     Atomic                   Forces (Hartrees/Bohr)
 Number     Number              X              Y              Z
 -------------------------------------------------------------------
      1        6           0.000102059    0.000380224    0.000737345
      2        6          -0.000224890   -0.002051549    0.001480523
      3        1          -0.000024636   -0.000053995    0.000029630
      4        1           0.000214410    0.000019090   -0.000328765
      5        7          -0.000418745    0.001457522   -0.003926898
      6        1           0.000244823    0.000130019   -0.000719612
      7        1          -0.000116288    0.000811824    0.000605892
      8        1           0.000223267   -0.000693136    0.002121885
 -------------------------------------------------------------------
 Cartesian Forces:  Max     0.003926898 RMS     0.001149206

 GradGradGradGradGradGradGradGradGradGradGradGradGradGradGradGradGradGrad
 Berny optimization.
 Using GEDIIS/GDIIS optimizer.
 FormGI is forming the generalized inverse of G from B-inverse, IUseBI=4.
 Internal  Forces:  Max     0.001923995 RMS     0.000747116
 Search for a local minimum.
 Step number   3 out of a maximum of   34
 All quantities printed in internal units (Hartrees-Bohrs-Radians)
 Mixed Optimization -- En-DIIS/RFO-DIIS
 Update second derivatives using D2CorX and points    1    2    3
 DE= -4.37D-04 DEPred=-2.85D-04 R= 1.53D+00
 TightC=F SS=  1.41D+00  RLast= 1.46D-01 DXNew= 8.4853D-01 4.3828D-01
 Trust test= 1.53D+00 RLast= 1.46D-01 DXMaxT set to 5.05D-01
 ITU=  1  1  0
 Use linear search instead of GDIIS.
     Eigenvalues ---    0.00773   0.02353   0.02571   0.02696   0.02819
     Eigenvalues ---    0.15909   0.15993   0.16000   0.16128   0.22395
     Eigenvalues ---    0.22851   0.34376   0.34479   0.34972   0.45720
     Eigenvalues ---    0.46850   0.51061   0.56122
 RFO step:  Lambda=-3.10979610D-04 EMin= 7.72777516D-03
 Quartic linear search produced a step of  0.81970.
 Iteration  1 RMS(Cart)=  0.04391518 RMS(Int)=  0.00340519
 Iteration  2 RMS(Cart)=  0.00297766 RMS(Int)=  0.00177046
 Iteration  3 RMS(Cart)=  0.00000469 RMS(Int)=  0.00177045
 Iteration  4 RMS(Cart)=  0.00000001 RMS(Int)=  0.00177045
 Variable       Old X    -DE/DX   Delta X   Delta X   Delta X     New X
                                 (Linear)    (Quad)   (Total)
    R1        2.56058   0.00040  -0.00302   0.00209  -0.00093   2.55965
    R2        2.06643  -0.00006   0.00070  -0.00052   0.00017   2.06660
    R3        2.05836   0.00016  -0.00074   0.00109   0.00035   2.05871
    R4        2.63402   0.00116  -0.00174   0.00729   0.00555   2.63956
    R5        2.06926  -0.00015   0.00139  -0.00121   0.00017   2.06943
    R6        1.91305   0.00094   0.00446   0.00234   0.00681   1.91986
    R7        1.90887   0.00072  -0.00079   0.00390   0.00311   1.91198
    A1        2.12780  -0.00012   0.00227  -0.00230  -0.00007   2.12774
    A2        2.08630   0.00021  -0.00289   0.00353   0.00061   2.08690
    A3        2.06909  -0.00009   0.00067  -0.00123  -0.00061   2.06848
    A4        2.20298  -0.00072  -0.01048  -0.00137  -0.01194   2.19104
    A5        2.09299   0.00016   0.00391  -0.00143   0.00238   2.09538
    A6        1.98610   0.00055   0.00651   0.00175   0.00816   1.99426
    A7        2.04116   0.00035  -0.02937  -0.01355  -0.04688   1.99429
    A8        2.05174  -0.00192   0.00725  -0.02099  -0.01762   2.03412
    A9        1.98802   0.00017  -0.02002  -0.01601  -0.04164   1.94638
    D1        0.04879   0.00015   0.00799   0.01372   0.02169   0.07048
    D2        3.13665  -0.00010   0.00671  -0.01186  -0.00513   3.13152
    D3       -3.09284   0.00042  -0.00123   0.03567   0.03443  -3.05842
    D4       -0.00498   0.00017  -0.00250   0.01009   0.00760   0.00262
    D5       -0.35269  -0.00049   0.00446  -0.01052  -0.00427  -0.35696
    D6       -2.81506   0.00148   0.07887   0.06932   0.14636  -2.66870
    D7        2.83979  -0.00025   0.00570   0.01378   0.02131   2.86109
    D8        0.37742   0.00172   0.08011   0.09363   0.17194   0.54936
         Item               Value     Threshold  Converged?
 Maximum Force            0.001924     0.000450     NO 
 RMS     Force            0.000747     0.000300     NO 
 Maximum Displacement     0.132392     0.001800     NO 
 RMS     Displacement     0.044390     0.001200     NO 
 Predicted change in Energy=-3.033173D-04
 GradGradGradGradGradGradGradGradGradGradGradGradGradGradGradGradGradGrad

                          Input orientation:                          
 ---------------------------------------------------------------------
 Center     Atomic      Atomic             Coordinates (Angstroms)
 Number     Number       Type             X           Y           Z
 ---------------------------------------------------------------------
      1          6           0        1.263178    0.017030    0.021085
      2          6           0       -0.000845   -0.468932   -0.006830
      3          1           0        1.469169    1.090526    0.054724
      4          1           0        2.105345   -0.673670   -0.002033
      5          7           0       -1.164872    0.299934   -0.077028
      6          1           0       -0.172130   -1.549691   -0.049859
      7          1           0       -1.045829    1.265382    0.216033
      8          1           0       -2.001019   -0.108172    0.320463
 ---------------------------------------------------------------------
                    Distance matrix (angstroms):
                    1          2          3          4          5
     1  C    0.000000
     2  C    1.354508   0.000000
     3  H    1.093599   2.143977   0.000000
     4  H    1.089425   2.116123   1.876254   0.000000
     5  N    2.446444   1.396797   2.753283   3.412895   0.000000
     6  H    2.125972   1.095094   3.110554   2.440614   2.099378
     7  H    2.632091   2.037033   2.526225   3.706397   1.015945
     8  H    3.280287   2.058632   3.680992   4.157646   1.011777
                    6          7          8
     6  H    0.000000
     7  H    2.959508   0.000000
     8  H    2.357955   1.676288   0.000000
 Stoichiometry    C2H5N
 Framework group  C1[X(C2H5N)]
 Deg. of freedom    18
 Full point group                 C1      NOp   1
 Largest Abelian subgroup         C1      NOp   1
 Largest concise Abelian subgroup C1      NOp   1
                         Standard orientation:                         
 ---------------------------------------------------------------------
 Center     Atomic      Atomic             Coordinates (Angstroms)
 Number     Number       Type             X           Y           Z
 ---------------------------------------------------------------------
      1          6           0       -1.257296   -0.201110    0.011688
      2          6           0       -0.064133    0.439983    0.004524
      3          1           0       -1.327155   -1.292470    0.008489
      4          1           0       -2.179374    0.379071    0.008884
      5          7           0        1.186991   -0.174243   -0.087446
      6          1           0       -0.029623    1.534517   -0.001539
      7          1           0        1.190058   -1.156348    0.172566
      8          1           0        1.965729    0.321691    0.326449
 ---------------------------------------------------------------------
 Rotational constants (GHZ):          55.4555467           9.9349018           8.4895345
 Standard basis: Aug-CC-pVDZ (5D, 7F)
 There are   120 symmetry adapted cartesian basis functions of A   symmetry.
 There are   114 symmetry adapted basis functions of A   symmetry.
   114 basis functions,   184 primitive gaussians,   120 cartesian basis functions
    12 alpha electrons       12 beta electrons
       nuclear repulsion energy        71.0416645170 Hartrees.
 NAtoms=    8 NActive=    8 NUniq=    8 SFac= 1.00D+00 NAtFMM=   60 NAOKFM=F Big=F
 Integral buffers will be    131072 words long.
 Raffenetti 1 integral format.
 Two-electron integral symmetry is turned on.
 One-electron integrals computed using PRISM.
 NBasis=   114 RedAO= T EigKep=  7.05D-05  NBF=   114
 NBsUse=   114 1.00D-06 EigRej= -1.00D+00 NBFU=   114
 Initial guess from the checkpoint file:  "/scr/Gau-51020.chk"
 B after Tr=    -0.000000   -0.000000   -0.000000
         Rot=    0.999998   -0.001801    0.000452    0.000179 Ang=  -0.21 deg.
 ExpMin= 2.97D-02 ExpMax= 9.05D+03 ExpMxC= 3.09D+02 IAcc=3 IRadAn=         5 AccDes= 0.00D+00
 Harris functional with IExCor=  205 and IRadAn=       5 diagonalized for initial guess.
 HarFok:  IExCor=  205 AccDes= 0.00D+00 IRadAn=         5 IDoV= 1 UseB2=F ITyADJ=14
 ICtDFT=  3500011 ScaDFX=  1.000000  1.000000  1.000000  1.000000
 FoFCou: FMM=F IPFlag=           0 FMFlag=      100000 FMFlg1=           0
         NFxFlg=           0 DoJE=T BraDBF=F KetDBF=T FulRan=T
         wScrn=  0.000000 ICntrl=       500 IOpCl=  0 I1Cent=   200000004 NGrid=           0
         NMat0=    1 NMatS0=      1 NMatT0=    0 NMatD0=    1 NMtDS0=    0 NMtDT0=    0
 Petite list used in FoFCou.
 Keep R1 ints in memory in canonical form, NReq=26620676.
 Requested convergence on RMS density matrix=1.00D-08 within 128 cycles.
 Requested convergence on MAX density matrix=1.00D-06.
 Requested convergence on             energy=1.00D-06.
 No special actions if energy rises.
 SCF Done:  E(RHF) =  -133.087640063     A.U. after   12 cycles
            NFock= 12  Conv=0.56D-08     -V/T= 2.0024
 ExpMin= 2.97D-02 ExpMax= 9.05D+03 ExpMxC= 3.09D+02 IAcc=3 IRadAn=         5 AccDes= 0.00D+00
 HarFok:  IExCor=  205 AccDes= 0.00D+00 IRadAn=         5 IDoV=-2 UseB2=F ITyADJ=14
 ICtDFT= 12500011 ScaDFX=  1.000000  1.000000  1.000000  1.000000
 Range of M.O.s used for correlation:     4   114
 NBasis=   114 NAE=    12 NBE=    12 NFC=     3 NFV=     0
 NROrb=    111 NOA=     9 NOB=     9 NVA=   102 NVB=   102

 **** Warning!!: The largest alpha MO coefficient is  0.31560932D+02

 Fully direct method using O(ONN) memory.
 JobTyp=1 Pass  1:  I=   4 to  12 NPSUse= 24 ParTrn=T ParDer=T DoDerP=T.
 Spin components of T(2) and E(2):
     alpha-alpha T2 =       0.2012036009D-01 E2=     -0.5611219534D-01
     alpha-beta  T2 =       0.1225783636D+00 E2=     -0.3528050789D+00
     beta-beta   T2 =       0.2012036009D-01 E2=     -0.5611219534D-01
 ANorm=    0.1078340894D+01
 E2 =    -0.4650294696D+00 EUMP2 =    -0.13355266953287D+03
          IDoAtm=11111111
          Differentiating once with respect to electric field.
                with respect to dipole field.
          Differentiating once with respect to nuclear coordinates.
 Keep R1 ints in memory in canonical form, NReq=26623880.
          There are     1 degrees of freedom in the 1st order CPHF.  IDoFFX=0 NUNeed=     1.
 LinEq1:  Iter=  0 NonCon=     1 RMS=4.56D-03 Max=5.09D-02 NDo=     1
 AX will form     1 AO Fock derivatives at one time.
 LinEq1:  Iter=  1 NonCon=     1 RMS=8.72D-04 Max=5.24D-03 NDo=     1
 LinEq1:  Iter=  2 NonCon=     1 RMS=3.66D-04 Max=4.05D-03 NDo=     1
 LinEq1:  Iter=  3 NonCon=     1 RMS=6.67D-05 Max=4.03D-04 NDo=     1
 LinEq1:  Iter=  4 NonCon=     1 RMS=2.45D-05 Max=2.75D-04 NDo=     1
 LinEq1:  Iter=  5 NonCon=     1 RMS=6.11D-06 Max=6.27D-05 NDo=     1
 LinEq1:  Iter=  6 NonCon=     1 RMS=1.64D-06 Max=1.02D-05 NDo=     1
 LinEq1:  Iter=  7 NonCon=     1 RMS=7.71D-07 Max=9.21D-06 NDo=     1
 LinEq1:  Iter=  8 NonCon=     1 RMS=2.07D-07 Max=1.59D-06 NDo=     1
 LinEq1:  Iter=  9 NonCon=     1 RMS=4.78D-08 Max=2.90D-07 NDo=     1
 LinEq1:  Iter= 10 NonCon=     1 RMS=8.61D-09 Max=5.66D-08 NDo=     1
 LinEq1:  Iter= 11 NonCon=     1 RMS=1.52D-09 Max=1.25D-08 NDo=     1
 LinEq1:  Iter= 12 NonCon=     1 RMS=3.19D-10 Max=2.48D-09 NDo=     1
 LinEq1:  Iter= 13 NonCon=     0 RMS=5.99D-11 Max=5.56D-10 NDo=     1
 Linear equations converged to 1.000D-10 1.000D-09 after    13 iterations.
 End of Minotr F.D. properties file   721 does not exist.
 End of Minotr F.D. properties file   722 does not exist.
 End of Minotr F.D. properties file   788 does not exist.
 Calling FoFJK, ICntrl=  10002127 FMM=F ISym2X=0 I1Cent= 0 IOpClX= 0 NMat=1 NMatS=1 NMatT=0.
 ***** Axes restored to original set *****
 -------------------------------------------------------------------
 Center     Atomic                   Forces (Hartrees/Bohr)
 Number     Number              X              Y              Z
 -------------------------------------------------------------------
      1        6           0.000592371   -0.000799748    0.000491037
      2        6           0.001428049   -0.002485685    0.000215231
      3        1          -0.000108354   -0.000017744   -0.000000822
      4        1           0.000369000    0.000122432   -0.000030192
      5        7          -0.001244259    0.004887529   -0.001406267
      6        1          -0.000058937    0.000268549   -0.000188176
      7        1          -0.000779704    0.000303558   -0.000548187
      8        1          -0.000198166   -0.002278892    0.001467375
 -------------------------------------------------------------------
 Cartesian Forces:  Max     0.004887529 RMS     0.001377968

 GradGradGradGradGradGradGradGradGradGradGradGradGradGradGradGradGradGrad
 Berny optimization.
 Using GEDIIS/GDIIS optimizer.
 FormGI is forming the generalized inverse of G from B-inverse, IUseBI=4.
 Internal  Forces:  Max     0.003595965 RMS     0.001235833
 Search for a local minimum.
 Step number   4 out of a maximum of   34
 All quantities printed in internal units (Hartrees-Bohrs-Radians)
 Mixed Optimization -- RFO/linear search
 Update second derivatives using D2CorX and points    1    2    3    4
 DE= -3.50D-04 DEPred=-3.03D-04 R= 1.15D+00
 TightC=F SS=  1.41D+00  RLast= 2.40D-01 DXNew= 8.4853D-01 7.2089D-01
 Trust test= 1.15D+00 RLast= 2.40D-01 DXMaxT set to 7.21D-01
 ITU=  1  1  1  0
 Use linear search instead of GDIIS.
     Eigenvalues ---    0.00669   0.02414   0.02641   0.02797   0.03037
     Eigenvalues ---    0.15917   0.15986   0.16000   0.16134   0.20541
     Eigenvalues ---    0.24571   0.34377   0.34473   0.34970   0.45547
     Eigenvalues ---    0.46879   0.52534   0.61021
 RFO step:  Lambda=-1.38240680D-04 EMin= 6.69337646D-03
 Quartic linear search produced a step of  0.13540.
 Iteration  1 RMS(Cart)=  0.01776463 RMS(Int)=  0.00054663
 Iteration  2 RMS(Cart)=  0.00041709 RMS(Int)=  0.00030380
 Iteration  3 RMS(Cart)=  0.00000017 RMS(Int)=  0.00030380
 Variable       Old X    -DE/DX   Delta X   Delta X   Delta X     New X
                                 (Linear)    (Quad)   (Total)
    R1        2.55965   0.00056  -0.00013  -0.00001  -0.00013   2.55952
    R2        2.06660  -0.00004   0.00002   0.00013   0.00015   2.06675
    R3        2.05871   0.00021   0.00005   0.00029   0.00034   2.05906
    R4        2.63956   0.00348   0.00075   0.00607   0.00682   2.64638
    R5        2.06943  -0.00025   0.00002  -0.00022  -0.00020   2.06923
    R6        1.91986   0.00004   0.00092   0.00118   0.00210   1.92196
    R7        1.91198   0.00166   0.00042   0.00299   0.00341   1.91539
    A1        2.12774  -0.00037  -0.00001  -0.00142  -0.00143   2.12630
    A2        2.08690   0.00052   0.00008   0.00209   0.00217   2.08907
    A3        2.06848  -0.00015  -0.00008  -0.00064  -0.00073   2.06775
    A4        2.19104   0.00115  -0.00162   0.00237   0.00074   2.19178
    A5        2.09538  -0.00045   0.00032  -0.00049  -0.00018   2.09519
    A6        1.99426  -0.00070   0.00110  -0.00152  -0.00042   1.99384
    A7        1.99429   0.00223  -0.00635   0.00392  -0.00308   1.99121
    A8        2.03412  -0.00360  -0.00239  -0.01806  -0.02109   2.01303
    A9        1.94638   0.00069  -0.00564  -0.00274  -0.00935   1.93703
    D1        0.07048  -0.00006   0.00294  -0.00066   0.00227   0.07275
    D2        3.13152   0.00007  -0.00070   0.00510   0.00441   3.13593
    D3       -3.05842  -0.00003   0.00466  -0.00357   0.00109  -3.05733
    D4        0.00262   0.00010   0.00103   0.00219   0.00323   0.00585
    D5       -0.35696   0.00021  -0.00058   0.01678   0.01653  -0.34044
    D6       -2.66870   0.00056   0.01982   0.03604   0.05553  -2.61317
    D7        2.86109   0.00008   0.00288   0.01128   0.01449   2.87559
    D8        0.54936   0.00043   0.02328   0.03054   0.05349   0.60285
         Item               Value     Threshold  Converged?
 Maximum Force            0.003596     0.000450     NO 
 RMS     Force            0.001236     0.000300     NO 
 Maximum Displacement     0.059087     0.001800     NO 
 RMS     Displacement     0.017851     0.001200     NO 
 Predicted change in Energy=-8.021977D-05
 GradGradGradGradGradGradGradGradGradGradGradGradGradGradGradGradGradGrad

                          Input orientation:                          
 ---------------------------------------------------------------------
 Center     Atomic      Atomic             Coordinates (Angstroms)
 Number     Number       Type             X           Y           Z
 ---------------------------------------------------------------------
      1          6           0        1.261220    0.015777    0.024292
      2          6           0       -0.002431   -0.470216   -0.014429
      3          1           0        1.465218    1.089421    0.066770
      4          1           0        2.105307   -0.672901    0.002363
      5          7           0       -1.169693    0.299928   -0.088672
      6          1           0       -0.173033   -1.550788   -0.061979
      7          1           0       -1.046829    1.268431    0.196480
      8          1           0       -1.986762   -0.107244    0.351731
 ---------------------------------------------------------------------
                    Distance matrix (angstroms):
                    1          2          3          4          5
     1  C    0.000000
     2  C    1.354437   0.000000
     3  H    1.093678   2.143141   0.000000
     4  H    1.089606   2.117527   1.876070   0.000000
     5  N    2.450069   1.400405   2.755035   3.417647   0.000000
     6  H    2.125712   1.094990   3.109847   2.442470   2.102187
     7  H    2.631707   2.039153   2.521755   3.707076   1.017057
     8  H    3.266762   2.050217   3.664611   4.145727   1.013580
                    6          7          8
     6  H    0.000000
     7  H    2.962822   0.000000
     8  H    2.354694   1.673337   0.000000
 Stoichiometry    C2H5N
 Framework group  C1[X(C2H5N)]
 Deg. of freedom    18
 Full point group                 C1      NOp   1
 Largest Abelian subgroup         C1      NOp   1
 Largest concise Abelian subgroup C1      NOp   1
                         Standard orientation:                         
 ---------------------------------------------------------------------
 Center     Atomic      Atomic             Coordinates (Angstroms)
 Number     Number       Type             X           Y           Z
 ---------------------------------------------------------------------
      1          6           0       -1.257205   -0.202037    0.013800
      2          6           0       -0.065073    0.440741    0.001279
      3          1           0       -1.323880   -1.293675    0.017360
      4          1           0       -2.181558    0.374848    0.009695
      5          7           0        1.190437   -0.172674   -0.091200
      6          1           0       -0.032387    1.535208   -0.007353
      7          1           0        1.190253   -1.158441    0.159137
      8          1           0        1.948179    0.318558    0.369086
 ---------------------------------------------------------------------
 Rotational constants (GHZ):          55.1956039           9.9192708           8.4814926
 Standard basis: Aug-CC-pVDZ (5D, 7F)
 There are   120 symmetry adapted cartesian basis functions of A   symmetry.
 There are   114 symmetry adapted basis functions of A   symmetry.
   114 basis functions,   184 primitive gaussians,   120 cartesian basis functions
    12 alpha electrons       12 beta electrons
       nuclear repulsion energy        70.9828985975 Hartrees.
 NAtoms=    8 NActive=    8 NUniq=    8 SFac= 1.00D+00 NAtFMM=   60 NAOKFM=F Big=F
 Integral buffers will be    131072 words long.
 Raffenetti 1 integral format.
 Two-electron integral symmetry is turned on.
 One-electron integrals computed using PRISM.
 NBasis=   114 RedAO= T EigKep=  7.11D-05  NBF=   114
 NBsUse=   114 1.00D-06 EigRej= -1.00D+00 NBFU=   114
 Initial guess from the checkpoint file:  "/scr/Gau-51020.chk"
 B after Tr=     0.000000    0.000000   -0.000000
         Rot=    1.000000   -0.000341    0.000261   -0.000571 Ang=  -0.08 deg.
 ExpMin= 2.97D-02 ExpMax= 9.05D+03 ExpMxC= 3.09D+02 IAcc=3 IRadAn=         5 AccDes= 0.00D+00
 Harris functional with IExCor=  205 and IRadAn=       5 diagonalized for initial guess.
 HarFok:  IExCor=  205 AccDes= 0.00D+00 IRadAn=         5 IDoV= 1 UseB2=F ITyADJ=14
 ICtDFT=  3500011 ScaDFX=  1.000000  1.000000  1.000000  1.000000
 FoFCou: FMM=F IPFlag=           0 FMFlag=      100000 FMFlg1=           0
         NFxFlg=           0 DoJE=T BraDBF=F KetDBF=T FulRan=T
         wScrn=  0.000000 ICntrl=       500 IOpCl=  0 I1Cent=   200000004 NGrid=           0
         NMat0=    1 NMatS0=      1 NMatT0=    0 NMatD0=    1 NMtDS0=    0 NMtDT0=    0
 Petite list used in FoFCou.
 Keep R1 ints in memory in canonical form, NReq=26620676.
 Requested convergence on RMS density matrix=1.00D-08 within 128 cycles.
 Requested convergence on MAX density matrix=1.00D-06.
 Requested convergence on             energy=1.00D-06.
 No special actions if energy rises.
 SCF Done:  E(RHF) =  -133.087674179     A.U. after   10 cycles
            NFock= 10  Conv=0.95D-08     -V/T= 2.0025
 ExpMin= 2.97D-02 ExpMax= 9.05D+03 ExpMxC= 3.09D+02 IAcc=3 IRadAn=         5 AccDes= 0.00D+00
 HarFok:  IExCor=  205 AccDes= 0.00D+00 IRadAn=         5 IDoV=-2 UseB2=F ITyADJ=14
 ICtDFT= 12500011 ScaDFX=  1.000000  1.000000  1.000000  1.000000
 Range of M.O.s used for correlation:     4   114
 NBasis=   114 NAE=    12 NBE=    12 NFC=     3 NFV=     0
 NROrb=    111 NOA=     9 NOB=     9 NVA=   102 NVB=   102

 **** Warning!!: The largest alpha MO coefficient is  0.31139231D+02

 Fully direct method using O(ONN) memory.
 JobTyp=1 Pass  1:  I=   4 to  12 NPSUse= 24 ParTrn=T ParDer=T DoDerP=T.
 Spin components of T(2) and E(2):
     alpha-alpha T2 =       0.2012753926D-01 E2=     -0.5609438473D-01
     alpha-beta  T2 =       0.1227022015D+00 E2=     -0.3529151743D+00
     beta-beta   T2 =       0.2012753926D-01 E2=     -0.5609438473D-01
 ANorm=    0.1078404970D+01
 E2 =    -0.4651039437D+00 EUMP2 =    -0.13355277812233D+03
          IDoAtm=11111111
          Differentiating once with respect to electric field.
                with respect to dipole field.
          Differentiating once with respect to nuclear coordinates.
 Keep R1 ints in memory in canonical form, NReq=26623880.
          There are     1 degrees of freedom in the 1st order CPHF.  IDoFFX=0 NUNeed=     1.
 LinEq1:  Iter=  0 NonCon=     1 RMS=4.56D-03 Max=4.67D-02 NDo=     1
 AX will form     1 AO Fock derivatives at one time.
 LinEq1:  Iter=  1 NonCon=     1 RMS=8.72D-04 Max=5.15D-03 NDo=     1
 LinEq1:  Iter=  2 NonCon=     1 RMS=3.65D-04 Max=4.01D-03 NDo=     1
 LinEq1:  Iter=  3 NonCon=     1 RMS=6.71D-05 Max=4.05D-04 NDo=     1
 LinEq1:  Iter=  4 NonCon=     1 RMS=2.47D-05 Max=2.73D-04 NDo=     1
 LinEq1:  Iter=  5 NonCon=     1 RMS=6.13D-06 Max=6.91D-05 NDo=     1
 LinEq1:  Iter=  6 NonCon=     1 RMS=1.65D-06 Max=1.01D-05 NDo=     1
 LinEq1:  Iter=  7 NonCon=     1 RMS=7.64D-07 Max=8.38D-06 NDo=     1
 LinEq1:  Iter=  8 NonCon=     1 RMS=2.06D-07 Max=1.57D-06 NDo=     1
 LinEq1:  Iter=  9 NonCon=     1 RMS=4.79D-08 Max=2.94D-07 NDo=     1
 LinEq1:  Iter= 10 NonCon=     1 RMS=8.76D-09 Max=5.86D-08 NDo=     1
 LinEq1:  Iter= 11 NonCon=     1 RMS=1.56D-09 Max=1.32D-08 NDo=     1
 LinEq1:  Iter= 12 NonCon=     1 RMS=3.26D-10 Max=2.45D-09 NDo=     1
 LinEq1:  Iter= 13 NonCon=     0 RMS=6.09D-11 Max=5.59D-10 NDo=     1
 Linear equations converged to 1.000D-10 1.000D-09 after    13 iterations.
 End of Minotr F.D. properties file   721 does not exist.
 End of Minotr F.D. properties file   722 does not exist.
 End of Minotr F.D. properties file   788 does not exist.
 Calling FoFJK, ICntrl=  10002127 FMM=F ISym2X=0 I1Cent= 0 IOpClX= 0 NMat=1 NMatS=1 NMatT=0.
 ***** Axes restored to original set *****
 -------------------------------------------------------------------
 Center     Atomic                   Forces (Hartrees/Bohr)
 Number     Number              X              Y              Z
 -------------------------------------------------------------------
      1        6           0.000360244   -0.000651396    0.000362212
      2        6           0.001359301   -0.000957730    0.000475243
      3        1          -0.000061908   -0.000032032   -0.000055306
      4        1           0.000244929    0.000087365   -0.000170814
      5        7          -0.001170298    0.002916023   -0.000442835
      6        1          -0.000270556    0.000243837   -0.000184292
      7        1          -0.000321164   -0.000260726   -0.000574457
      8        1          -0.000140548   -0.001345342    0.000590249
 -------------------------------------------------------------------
 Cartesian Forces:  Max     0.002916023 RMS     0.000834055

 GradGradGradGradGradGradGradGradGradGradGradGradGradGradGradGradGradGrad
 Berny optimization.
 Using GEDIIS/GDIIS optimizer.
 FormGI is forming the generalized inverse of G from B-inverse, IUseBI=4.
 Internal  Forces:  Max     0.002103351 RMS     0.000733583
 Search for a local minimum.
 Step number   5 out of a maximum of   34
 All quantities printed in internal units (Hartrees-Bohrs-Radians)
 Mixed Optimization -- En-DIIS/RFO-DIIS
 Update second derivatives using D2CorX and points    1    2    3    4    5
 DE= -1.09D-04 DEPred=-8.02D-05 R= 1.35D+00
 TightC=F SS=  1.41D+00  RLast= 8.41D-02 DXNew= 1.2124D+00 2.5236D-01
 Trust test= 1.35D+00 RLast= 8.41D-02 DXMaxT set to 7.21D-01
 ITU=  1  1  1  1  0
 Use linear search instead of GDIIS.
     Eigenvalues ---    0.00701   0.02425   0.02647   0.02849   0.03349
     Eigenvalues ---    0.14636   0.15904   0.16000   0.16190   0.16389
     Eigenvalues ---    0.24340   0.34373   0.34478   0.34964   0.45604
     Eigenvalues ---    0.46851   0.51380   0.57508
 RFO step:  Lambda=-3.09653752D-05 EMin= 7.00770724D-03
 Quartic linear search produced a step of  0.66345.
 Iteration  1 RMS(Cart)=  0.01131842 RMS(Int)=  0.00017245
 Iteration  2 RMS(Cart)=  0.00014168 RMS(Int)=  0.00008837
 Iteration  3 RMS(Cart)=  0.00000002 RMS(Int)=  0.00008837
 Variable       Old X    -DE/DX   Delta X   Delta X   Delta X     New X
                                 (Linear)    (Quad)   (Total)
    R1        2.55952   0.00030  -0.00009  -0.00007  -0.00016   2.55935
    R2        2.06675  -0.00005   0.00010  -0.00005   0.00005   2.06680
    R3        2.05906   0.00014   0.00023   0.00010   0.00033   2.05938
    R4        2.64638   0.00210   0.00452   0.00110   0.00563   2.65201
    R5        2.06923  -0.00019  -0.00013  -0.00024  -0.00037   2.06886
    R6        1.92196  -0.00045   0.00139  -0.00154  -0.00015   1.92181
    R7        1.91539   0.00091   0.00226   0.00028   0.00254   1.91793
    A1        2.12630  -0.00022  -0.00095  -0.00042  -0.00138   2.12493
    A2        2.08907   0.00033   0.00144   0.00069   0.00212   2.09119
    A3        2.06775  -0.00011  -0.00048  -0.00035  -0.00084   2.06691
    A4        2.19178   0.00113   0.00049   0.00392   0.00441   2.19619
    A5        2.09519  -0.00023  -0.00012   0.00056   0.00043   2.09563
    A6        1.99384  -0.00090  -0.00028  -0.00484  -0.00512   1.98872
    A7        1.99121   0.00109  -0.00204   0.00619   0.00396   1.99517
    A8        2.01303  -0.00184  -0.01399  -0.00271  -0.01688   1.99615
    A9        1.93703   0.00056  -0.00620   0.00705   0.00057   1.93759
    D1        0.07275   0.00000   0.00151   0.00028   0.00179   0.07454
    D2        3.13593  -0.00010   0.00293  -0.00583  -0.00291   3.13302
    D3       -3.05733   0.00021   0.00072   0.00869   0.00941  -3.04792
    D4        0.00585   0.00011   0.00214   0.00258   0.00472   0.01057
    D5       -0.34044   0.00013   0.01096   0.00094   0.01201  -0.32843
    D6       -2.61317   0.00004   0.03684  -0.01302   0.02372  -2.58945
    D7        2.87559   0.00020   0.00962   0.00655   0.01626   2.89185
    D8        0.60285   0.00011   0.03549  -0.00741   0.02797   0.63083
         Item               Value     Threshold  Converged?
 Maximum Force            0.002103     0.000450     NO 
 RMS     Force            0.000734     0.000300     NO 
 Maximum Displacement     0.030636     0.001800     NO 
 RMS     Displacement     0.011333     0.001200     NO 
 Predicted change in Energy=-3.677998D-05
 GradGradGradGradGradGradGradGradGradGradGradGradGradGradGradGradGradGrad

                          Input orientation:                          
 ---------------------------------------------------------------------
 Center     Atomic      Atomic             Coordinates (Angstroms)
 Number     Number       Type             X           Y           Z
 ---------------------------------------------------------------------
      1          6           0        1.262364    0.014112    0.028692
      2          6           0       -0.002301   -0.468558   -0.015102
      3          1           0        1.467457    1.087437    0.074502
      4          1           0        2.106478   -0.674578    0.000488
      5          7           0       -1.173184    0.301134   -0.093133
      6          1           0       -0.175868   -1.548179   -0.068663
      7          1           0       -1.054516    1.273018    0.181828
      8          1           0       -1.977433   -0.111980    0.367942
 ---------------------------------------------------------------------
                    Distance matrix (angstroms):
                    1          2          3          4          5
     1  C    0.000000
     2  C    1.354351   0.000000
     3  H    1.093703   2.142274   0.000000
     4  H    1.089779   2.118876   1.875773   0.000000
     5  N    2.455426   1.403383   2.760318   3.423005   0.000000
     6  H    2.125734   1.094794   3.109257   2.444803   2.101237
     7  H    2.641255   2.044266   2.531068   3.717243   1.016977
     8  H    3.259950   2.043286   3.659504   4.138824   1.014923
                    6          7          8
     6  H    0.000000
     7  H    2.965454   0.000000
     8  H    2.344980   1.674704   0.000000
 Stoichiometry    C2H5N
 Framework group  C1[X(C2H5N)]
 Deg. of freedom    18
 Full point group                 C1      NOp   1
 Largest Abelian subgroup         C1      NOp   1
 Largest concise Abelian subgroup C1      NOp   1
                         Standard orientation:                         
 ---------------------------------------------------------------------
 Center     Atomic      Atomic             Coordinates (Angstroms)
 Number     Number       Type             X           Y           Z
 ---------------------------------------------------------------------
      1          6           0       -1.259029   -0.201812    0.015852
      2          6           0       -0.066098    0.439244    0.000717
      3          1           0       -1.325698   -1.293460    0.022676
      4          1           0       -2.183977    0.374326    0.003415
      5          7           0        1.193812   -0.171804   -0.092708
      6          1           0       -0.031462    1.533392   -0.013934
      7          1           0        1.198768   -1.160009    0.147437
      8          1           0        1.936448    0.323788    0.389941
 ---------------------------------------------------------------------
 Rotational constants (GHZ):          55.2221816           9.8850254           8.4616661
 Standard basis: Aug-CC-pVDZ (5D, 7F)
 There are   120 symmetry adapted cartesian basis functions of A   symmetry.
 There are   114 symmetry adapted basis functions of A   symmetry.
   114 basis functions,   184 primitive gaussians,   120 cartesian basis functions
    12 alpha electrons       12 beta electrons
       nuclear repulsion energy        70.9205897256 Hartrees.
 NAtoms=    8 NActive=    8 NUniq=    8 SFac= 1.00D+00 NAtFMM=   60 NAOKFM=F Big=F
 Integral buffers will be    131072 words long.
 Raffenetti 1 integral format.
 Two-electron integral symmetry is turned on.
 One-electron integrals computed using PRISM.
 NBasis=   114 RedAO= T EigKep=  7.11D-05  NBF=   114
 NBsUse=   114 1.00D-06 EigRej= -1.00D+00 NBFU=   114
 Initial guess from the checkpoint file:  "/scr/Gau-51020.chk"
 B after Tr=     0.000000   -0.000000    0.000000
         Rot=    1.000000    0.000163    0.000177   -0.000399 Ang=   0.05 deg.
 ExpMin= 2.97D-02 ExpMax= 9.05D+03 ExpMxC= 3.09D+02 IAcc=3 IRadAn=         5 AccDes= 0.00D+00
 Harris functional with IExCor=  205 and IRadAn=       5 diagonalized for initial guess.
 HarFok:  IExCor=  205 AccDes= 0.00D+00 IRadAn=         5 IDoV= 1 UseB2=F ITyADJ=14
 ICtDFT=  3500011 ScaDFX=  1.000000  1.000000  1.000000  1.000000
 FoFCou: FMM=F IPFlag=           0 FMFlag=      100000 FMFlg1=           0
         NFxFlg=           0 DoJE=T BraDBF=F KetDBF=T FulRan=T
         wScrn=  0.000000 ICntrl=       500 IOpCl=  0 I1Cent=   200000004 NGrid=           0
         NMat0=    1 NMatS0=      1 NMatT0=    0 NMatD0=    1 NMtDS0=    0 NMtDT0=    0
 Petite list used in FoFCou.
 Keep R1 ints in memory in canonical form, NReq=26620715.
 Requested convergence on RMS density matrix=1.00D-08 within 128 cycles.
 Requested convergence on MAX density matrix=1.00D-06.
 Requested convergence on             energy=1.00D-06.
 No special actions if energy rises.
 SCF Done:  E(RHF) =  -133.087660032     A.U. after   10 cycles
            NFock= 10  Conv=0.88D-08     -V/T= 2.0025
 ExpMin= 2.97D-02 ExpMax= 9.05D+03 ExpMxC= 3.09D+02 IAcc=3 IRadAn=         5 AccDes= 0.00D+00
 HarFok:  IExCor=  205 AccDes= 0.00D+00 IRadAn=         5 IDoV=-2 UseB2=F ITyADJ=14
 ICtDFT= 12500011 ScaDFX=  1.000000  1.000000  1.000000  1.000000
 Range of M.O.s used for correlation:     4   114
 NBasis=   114 NAE=    12 NBE=    12 NFC=     3 NFV=     0
 NROrb=    111 NOA=     9 NOB=     9 NVA=   102 NVB=   102

 **** Warning!!: The largest alpha MO coefficient is  0.30715746D+02

 Fully direct method using O(ONN) memory.
 JobTyp=1 Pass  1:  I=   4 to  12 NPSUse= 24 ParTrn=T ParDer=T DoDerP=T.
 Spin components of T(2) and E(2):
     alpha-alpha T2 =       0.2013366618D-01 E2=     -0.5608321641D-01
     alpha-beta  T2 =       0.1227876939D+00 E2=     -0.3529904318D+00
     beta-beta   T2 =       0.2013366618D-01 E2=     -0.5608321641D-01
 ANorm=    0.1078450289D+01
 E2 =    -0.4651568646D+00 EUMP2 =    -0.13355281689650D+03
          IDoAtm=11111111
          Differentiating once with respect to electric field.
                with respect to dipole field.
[...]
 00027587,0.00134101,-0.00040448,0.00588804,-0.00518786,0.00011841,0.00
 003222,-0.00065610,-0.00001093,-0.00002494,-0.00002691,-0.00009233,-0.
 00038702,-0.00063565,-0.00013014,-0.00571998,0.00605978,0.00186908,0.0
 0114507,0.00033956,-0.00807344,-0.00301964,-0.00167681,0.00001735,-0.0
 0021509,-0.00008494,-0.00006504,-0.00030145,-0.00005001,-0.00622001,0.
 01007511,0.00273168,0.00218190,-0.00172713,0.00045077,0.01095722,0.000
 19695,0.00033745,0.00016685,0.00527799,-0.00170570,0.00156576,0.000249
 51,-0.00005380,-0.00004115,0.00012734,-0.00004666,-0.00001670,0.007515
 91,0.09341752,0.02316951,-0.00084979,-0.00063703,-0.00010852,-0.009792
 77,-0.08747570,-0.00070907,0.00011935,0.00036150,0.00163297,0.00007391
 ,0.00123386,0.00001875,-0.00007291,-0.00049363,-0.00006324,-0.00002729
 ,-0.00011086,0.00385727,0.02992504,0.00441274,0.00020002,-0.00023957,-
 0.00115442,-0.00522998,-0.02738280,-0.00366214,-0.00132557,0.00010428,
 0.00000511,-0.00113526,0.00157151,0.00102704,0.00005438,-0.00013467,0.
 00018416,-0.00019143,0.00013952,-0.00021824,0.02091489,0.00610281,-0.0
 1180752,-0.00031647,0.00049838,0.00009072,-0.00066707,-0.00272515,0.00
 029328,-0.01733347,-0.00073915,0.00007073,0.00010306,0.00052257,-0.000
 06417,-0.00011013,0.00018053,0.00004343,-0.00002788,0.00001777,-0.0001
 0182,-0.00001994,0.00160424,0.00472473,-0.00281456,0.00013480,-0.00007
 760,0.00004434,0.00383591,-0.00383608,-0.00239574,-0.00555667,-0.00075
 922,-0.00180372,-0.00079594,-0.00019790,0.00554207,-0.00039496,0.00089
 642,-0.00006916,-0.00013623,0.00010082,-0.00010976,0.00017069,0.000268
 70,-0.01742479,-0.00711099,0.00825572,-0.00007984,0.00039954,0.0002601
 4,0.00351974,0.00264706,-0.00058706,0.01042545,0.00522084,-0.00899685,
 0.10064548,-0.15807284,2.32143342,-0.00514194,0.12688011,-0.65101910,0
 .00002812,-0.00439531,0.00032868,-0.00680093,0.00569687,-0.01079819,-0
 .00028784,0.02188827,0.05542805,-0.00007481,0.00071889,-0.00318416,0.0
 0108299,0.00404239,-0.01815375,0.35662250,-0.41252778,-0.01851944,-0.0
 0749176,-0.01286642,-0.00051834,-0.36191808,-0.40757885,-1.99487323,-0
 .10522938,0.01011467,0.01556112,-0.00032450,0.40025216,1.98271419,-0.0
 1819995,-0.10498603,0.44903698,0.00001038,0.00036243,0.00403790,0.0180
 7478,0.10533810,-0.46215747,-0.45322771,0.57630792,0.02335453,0.000042
 00,0.00217530,0.00046271,0.00963187,-0.00535012,-0.00002645,0.44174355
 ,0.55975746,-0.31628341,-0.02162558,-0.01063805,0.00319083,-0.00023573
 ,0.02397207,-0.00121120,-0.00051063,-0.57338950,0.31492805,0.02329053,
 -0.02210532,0.20524923,-0.00062114,0.00015105,0.00157076,0.00112157,-0
 .00041734,0.00925761,-0.02371687,0.02245639,-0.21604517,-0.00284019,-0
 .00053650,-0.00023952,0.00103441,0.00131103,0.00019326,0.00204532,0.00
 145375,0.00012946,0.00066648,-0.00161219,0.00003319,-0.00109222,-0.000
 16227,0.00105322,-0.00009151,-0.00120141,0.00304570,-0.00042045,0.0011
 6343,-0.00264878,0.00026822,-0.00010888,-0.00021737,-0.00011545,-0.000
 11104,-0.00139666,0.00016655,-0.00033589,0.00137584,0.00052047,-0.0005
 1553,-0.00002955,-0.00042532,0.00075292,-0.00189827,-0.00015330,-0.000
 21026,0.00059363,-0.00007819,0.00030120,-0.00061996,-0.00086183,-0.000
 78230,0.00008729,0.01385988,-0.01827922,-0.00111760,0.00000964,0.00059
 128,-0.00001177,0.00100527,0.00189339,0.00007948,-0.00029127,0.0008414
 8,0.00000891,-0.01361064,0.00066230,-0.00080451,-0.00001225,-0.0164452
 8,-0.06648516,-0.00385601,-0.00030850,0.00110022,0.00002470,0.00055446
 ,-0.00038651,-0.00001261,-0.00013500,0.00025876,-0.00011109,0.01575788
 ,0.06621607,0.00012001,0.00003002,-0.00186925,-0.00102173,-0.00426990,
 0.01590312,-0.00001470,0.00016948,0.00221261,0.00005277,-0.00005435,-0
 .00068382,0.00000483,0.00015855,0.00044443,0.00091802,0.00391897,-0.01
 599759,-0.00015827,-0.00004196,0.00023202,-0.00060514,-0.00050530,-0.0
 0003226,0.00058573,0.00069948,-0.00015928,0.00011918,0.00017162,-0.000
 04852,0.00049728,-0.00011002,-0.00008962,-0.00007231,-0.00004376,-0.00
 001774,-0.00039479,-0.00039381,0.00025519,0.00045896,0.00031718,0.0003
 5079,0.00004425,0.00060598,-0.00037677,-0.00050179,-0.00003104,-0.0001
 8587,0.00000679,-0.00009997,-0.00019631,-0.00009580,-0.00004301,0.0000
 3306,0.00005754,-0.00025825,-0.00002762,0.00007587,0.00015630,-0.00015
 357,-0.00018818,0.00006999,-0.00008122,-0.00007273,-0.00019906,0.00005
 983,0.00004836,0.00000745,0.00008580,-0.00001278,-0.00002680,0.0000022
 6,0.00004373,-0.00001820,-0.00008942,0.00002890,-0.00004822,0.00011777
 ,-0.00020809,0.00004876,-0.00010162,-0.00006661,0.00057949,0.00000405,
 0.00051480,-0.00018238,0.00018283,0.00001936,-0.00015480,-0.00013823,-
 0.00001981,-0.00031129,0.00005049,-0.00003874,-0.00004210,-0.00004146,
 0.00002832,-0.00009707,0.00007683,-0.00022923,0.00009114,0.00001751,-0
 .00009250,0.00035994,-0.00029313,0.00003117,-0.00029093,-0.00026554,0.
 00000499,-0.00015815,0.00016546,0.00003649,-0.00027009,0.00010143,0.00
 021445,0.00002049,0.00006807,-0.00001030,0.00008820,0.00014754,0.00005
 853,0.00015940,0.00005867,-0.00023627,-0.00035808,0.00056404,-0.000111
 47,0.00044740,-0.00006311,0.00035418,-0.00009022,-0.00054919,-0.000021
 75,0.00017272,-0.00002805,-0.00003025,-0.00007376,0.00013164,-0.000008
 05,0.00006649,0.00007991,0.00008650,0.00007826,0.00005855,-0.00003289,
 -0.00024282,-0.00019378,-0.02414437,0.01438389,0.09175317,0.00124274,0
 .00540448,-0.02399020,0.00610499,0.02492302,0.00128556,-0.56892488,-0.
 00380820,0.00394828,-0.00076906,0.57889710,2.97586053,-0.00009142,-0.0
 0011588,-0.00558451,0.02893307,0.18557977,-0.66151764,0.02454329,-0.02
 561963,-0.00113565,-0.00032749,-0.00003418,-0.00029394,-0.02181363,-0.
 02366497,-0.10807321,-0.00594745,0.00024261,-0.00096083,-0.00002739,0.
 02342471,0.10801263,-0.00108840,-0.00588746,0.02693429,0.00054510,-0.0
 0049939,-0.00703228,0.00112666,0.00613949,-0.02722349,-0.00096865,0.00
 268076,0.00009282,-0.00301288,-0.00191666,0.00024627,-0.00045172,-0.00
 032413,-0.00005018,0.00197174,0.00075216,0.00131581,0.00012019,-0.0007
 0876,0.00100921,-0.00017234,0.00057455,0.00026699,-0.00011129,-0.00216
 822,-0.00112473,-0.00021294,-0.00002254,-0.00181214,-0.00040901,0.0007
 0506,0.00669092,0.00011758,-0.00010890,0.00105352,-0.00019268,0.000027
 21,-0.00042915,-0.00091627,0.00014776,-0.00072059,0.01265374,0.0050623
 6,0.00342777,0.00004415,0.00072722,-0.00034238,-0.00002944,-0.00016480
 ,0.00032783,-0.00755140,-0.00193992,-0.00264248,0.00041883,-0.03032625
 ,0.00321039,-0.00426677,0.00052483,-0.00067880,0.00067473,0.00065050,-
 0.00006421,-0.00050579,0.00546693,-0.01104789,0.00081520,0.00016370,-0
 .00031031,-0.00073472,0.00135125,-0.00166806,-0.00001535,-0.00002612,0
 .00060639,-0.00023098,-0.00009426,-0.00080816,-0.00005099,-0.00071857,
 -0.00310159,-0.00467485,-0.01495034,-0.00063563,0.55521350,-0.58218199
 ,-0.03240847,-0.00177895,-0.00070977,0.00005699,0.00227423,0.00153425,
 0.00009644,-0.00829042,0.02561519,-0.00067521,-0.54176986,0.01477845,0
 .01432955,0.00065562,-0.57551786,-2.98435436,-0.18097117,0.00137903,0.
 00117479,-0.00013500,0.00109937,-0.00142399,-0.00012564,-0.00915654,0.
 01132902,0.00065302,0.57226867,2.95807486,0.00005369,0.00041428,0.0044
 0705,-0.03075249,-0.18553543,0.67057156,0.00016017,-0.00008494,0.00516
 264,0.00004797,0.00012544,-0.00422745,-0.00216124,0.00385961,0.0017949
 6,0.03330883,0.18074187,-0.67814109,0.00005181,-0.00085055,-0.00001337
 ,-0.00008231,0.00149333,-0.00001035,-0.00026006,0.00031478,-0.00001882
 ,0.00005377,0.00015592,0.00004144,0.00412249,0.00052617,0.00046760,-0.
 00170344,-0.00340927,-0.00044736,-0.00221381,-0.00089597,-0.00054502,-
 0.00008773,0.00029793,0.00089308,0.00042138,-0.00008405,0.00025648,-0.
 00007391,0.00008651,0.00000947,0.00004319,-0.00203833,-0.00180220,-0.0
 0135193,0.00118292,0.00056884,-0.00003277,0.00169209,0.00070900,-0.000
 38667,-0.00016613,0.00039074,-0.00026189,0.00051097,-0.00185627,0.0000
 0939,-0.00003908,0.00086943,0.00007632,0.00007626,-0.00067661,0.000376
 94,-0.00071915,0.00324601,-0.00022262,-0.00085047,0.00089351,-0.000076
 26,0.00123583,-0.00344386,0.00000404,-0.00071493,-0.00011589,-0.001624
 67,0.00248827,0.00019707,0.00004442,-0.00001046,-0.00022897,0.00016295
 ,0.00002489,0.00023132,-0.00003285,-0.00051745,0.00042445,0.00072979,-
 0.00144186,-0.00020957,0.00003156,-0.00024110,0.00048480,0.00068476,0.
 00039454,-0.00008611,0.00020511,0.00219221,0.00039371,-0.00044760,-0.0
 0016526,0.00000196,-0.00010718,-0.00010813,0.00001145,-0.00001258,-0.0
 0004460,0.00169617,0.00002290,-0.00275894,0.00030130,0.00051195,0.0000
 7754,-0.00008965,-0.00004823,0.00041263,-0.00222883,-0.00033221,0.0002
 0955,-0.00003492,0.00139437,-0.00134317,0.00039628,0.00003114,0.000094
 40,-0.00037050,0.00001048,0.00002880,0.00020907,-0.00085735,0.00125710
 ,0.00024075,0.00047967,0.00003176,-0.00046119,0.00005712,-0.00015406,0
 .00057704,-0.00078322,-0.00012438,-0.00055653,1.03134156,-1.12403374,1
 .56572423,-0.04563945,0.09790722,-0.76116672,0.01737854,0.01817277,0.0
 0169671,-0.02890129,0.00937650,-0.01518322,0.00058522,0.00541768,0.035
 77172,0.00072546,0.00134708,-0.00662175,-0.00048483,0.00162231,-0.0049
 0599,0.17192020,-0.27283819,-0.01161050,-0.00281602,-0.00329327,-0.000
 50021,-0.16526523,-0.26376400,-0.96716627,-0.05276768,0.00420265,0.010
 82558,0.00008319,0.27597866,0.95444833,-0.01141826,-0.05226574,0.23708
 476,-0.00009680,0.00030068,0.00057463,0.01215592,0.05192848,-0.2329952
 4,-1.21766271,1.38076650,0.05522706,0.00234733,-0.00234158,0.00063291,
 -0.00541469,-0.01820416,-0.00063422,1.21920154,1.38013387,-0.58497717,
 -0.04521094,-0.01824569,0.00806111,-0.00066454,0.00018858,0.00435553,0
 .00010177,-1.36205549,0.57412645,0.05668591,-0.04633731,0.53164759,-0.
 00122086,0.00013708,0.00153701,-0.00015738,0.00043844,-0.00496779,-0.0
 5514881,0.04565059,-0.52876772,-0.00339606,0.00011431,-0.00008130,0.00
 292475,0.00166333,0.00045625,0.00074483,0.00026810,0.00001094,0.002020
 08,-0.00269622,0.00003024,-0.00237046,0.00011848,0.00159858,0.00035352
 ,-0.00224889,0.00275664,-0.00031163,0.00009395,-0.00205886,-0.00002966
 ,0.00092801,-0.00085948,-0.00052876,0.00123744,-0.00094732,-0.00073089
 ,-0.00040987,-0.00285500,0.00165404,-0.00102122,0.00029540,0.00021106,
 0.00056135,0.00005030,-0.00032943,0.00004219,0.00244040,-0.00086891,0.
 00068485,-0.00046328,0.00021740,-0.00216923,-0.00013976,0.00985186,-0.
 01112606,-0.00079036,0.00017728,0.00112470,0.00009548,-0.00007686,0.00
 279642,0.00019986,-0.00000763,0.00040034,-0.00001137,-0.01018554,-0.00
 176950,0.00022646,-0.00031884,-0.00799806,-0.04256133,-0.00231868,-0.0
 0013318,-0.00004982,0.00003146,0.00107772,-0.00092320,0.00015398,-0.00
 010277,-0.00003879,-0.00004369,0.00904073,0.04328011,-0.00009524,-0.00
 009597,0.00250025,-0.00043733,-0.00270897,0.00911388,0.00004397,0.0001
 4160,0.00038584,0.00009096,-0.00001367,-0.00242834,-0.00001007,0.00015
 784,0.00058733,0.00058595,0.00249739,-0.01026923,0.00032613,-0.0001890
 3,0.00010222,-0.00067353,-0.00034180,-0.00000699,0.00058086,0.00057221
 ,-0.00010643,-0.00060094,0.00025209,0.00002221,0.00010305,-0.00014905,
 -0.00004055,0.00001786,-0.00006646,-0.00002263,0.00015252,0.00009680,0
 .00021937,-0.00019498,0.00043600,0.00075694,0.00011303,-0.00000945,-0.
 00029777,-0.00017482,-0.00003391,-0.00038866,0.00032637,-0.00018822,-0
 .00041610,-0.00004504,-0.00009411,-0.00001203,0.00003596,-0.00012459,0
 .00001162,-0.00000451,0.00015132,-0.00024560,-0.00032734,0.00006973,-0
 .00009764,-0.00012328,-0.00010483,-0.00001795,0.00019655,-0.00003268,0
 .00015156,0.00018789,0.00004265,-0.00020801,0.00003998,-0.00001930,0.0
 0012825,0.00003489,-0.00007967,0.00023939,-0.00012505,0.00017660,0.000
 44503,-0.00011164,0.00064521,-0.00003222,0.00007278,-0.00017815,-0.000
 00663,0.00018625,-0.00037355,-0.00041117,-0.00001857,-0.00038027,0.000
 11605,0.00000563,-0.00004847,-0.00015561,0.00009405,-0.00008252,-0.000
 00419,-0.00010346,-0.00015842,-0.00044197,-0.00035353,0.00026354,-0.00
 042744,0.00012924,0.00001290,-0.00005671,0.00010783,-0.00013708,0.0006
 0543,0.00015961,-0.00029596,-0.00003467,0.00023141,0.00002722,0.000078
 60,-0.00001418,0.00004664,0.00012662,-0.00002723,0.00024116,0.00015013
 ,0.00047697,-0.00029674,-0.00034354,-0.00078359,0.00101517,0.00010446,
 -0.00001957,-0.00028055,-0.00011455,-0.00003501,0.00012727,0.00038729,
 0.00027496,-0.00036882,0.00015285,0.00002022,0.00001768,-0.00001799,0.
 00001728,0.00001915,0.00004999,0.00004874,-0.00023315,-0.00021852,-0.0
 0464833,0.00123633,-0.00241418,-0.00102736,0.00080039,0.00133080,0.004
 52286,0.00192745,0.00073523,-0.01804962,-0.00243853,0.00436600,-0.0008
 5248,0.00225016,-0.01516614,0.00232437,-0.00108129,0.00122297,-0.00125
 182,0.00057035,-0.00577814,0.00078136,-0.00045689,0.00008400,-0.000531
 89,0.00085872,-0.00047407,-0.00054252,-0.00012102,-0.00031967,-0.00075
 446,-0.00006881,0.00007087,0.00008528,0.00017551,0.00012734,0.00024668
 ,-0.00037516,-0.00073659,0.00064091,-0.00027475,0.00005903,0.00017705,
 0.00054597,0.00030814,0.00024577,0.00026391,0.00038661,-0.00017445,-0.
 00053913,0.00033678,-0.00003240,0.00002646,-0.00017200,-0.00031315,0.0
 0009037,0.00001628,-0.00024428,-0.00026484,-0.00016504,0.00031144,-0.0
 0003714,0.00015210,-0.00024088,-0.00010725,0.00007793,0.00015690,0.000
 06964,-0.00081570,-0.00047541,0.00002603,0.00055552,0.00018847,0.00008
 705,0.00047073,-0.00046308,0.00027439,-0.00008533,-0.00516825,-0.00025
 882,-0.00027429,0.02083270,-0.02266792,-0.00767520,0.00021181,0.000305
 35,-0.00118144,-0.00045004,-0.00010761,0.00164278,0.58409932,0.0024929
 5,-0.00088680,-0.00010254,-0.01669819,0.00116417,0.00401831,-0.0002676
 4,0.00040499,0.00092473,0.00001096,0.00019214,-0.00078147,1.28504298,2
 .67477409,-0.00131179,0.00083748,-0.00047333,-0.00033041,-0.00486095,-
 0.00694508,-0.00000272,0.00012171,-0.00009997,0.00026276,0.00002350,0.
 00065182,-0.78373335,0.43465285,-0.24680864,-0.00039256,0.00000898,0.0
 0011924,0.00335706,0.00161918,0.00081266,0.00002821,0.00004077,0.00007
 684,0.00003579,-0.00004692,-0.00008719,-0.00014216,0.00059859,0.000981
 34,-0.00291989,0.00000709,0.00009771,0.00009424,-0.00117383,-0.0006089
 8,-0.00051826,0.00006137,-0.00001950,-0.00002261,0.00009190,-0.0000094
 0,0.00002245,0.00042854,-0.00097625,-0.00024982,0.00112191,-0.00008117
 ,-0.00007434,-0.00001763,0.00010154,0.00097621,0.00094159,0.00289324,0
 .00003851,-0.00000844,-0.00037587,0.00000471,0.00000673,0.00011375,-0.
 00042301,-0.00006102,-0.00032064,-0.00050202,-0.00006039,-0.00185663,0
 .00277378,-0.00239032,-0.00080531,-0.00683713,0.02094314,0.00284450,0.
 00019039,-0.00025841,-0.00031538,0.00037709,0.00034013,0.00000736,0.50
 436685,-0.43448978,-0.09821137,-0.00090840,0.00040529,0.00012031,-0.50
 463464,-0.00199609,-0.00023439,0.00092598,-0.00178764,0.00863904,-0.00
 199965,-0.00016391,-0.00023144,-0.00093823,-0.00010307,-0.00016986,0.0
 0059584,-0.45396808,-2.61366753,-0.88444883,-0.00128222,0.00124606,-0.
 00125704,0.45827038,2.60924747,0.00044498,-0.00034006,-0.00006315,0.00
 177592,0.00549457,0.00478884,-0.00006248,-0.00007525,0.00020517,-0.000
 01461,-0.00001259,-0.00089368,-0.11809932,-0.93314247,0.34749098,-0.00
 107456,0.00053319,-0.00035585,0.10843860,0.89845159,-0.36943597,0.0018
 8536,-0.00033065,0.00078188,-0.00311953,-0.00002559,0.00308278,-0.0001
 0497,-0.00009985,0.00052734,0.00031139,0.00013324,-0.00096983,-1.10375
 021,-0.83668988,0.88234554,0.00094194,-0.00094227,-0.00014038,0.004672
 05,0.00103063,0.00859148,1.09916397,0.00072891,-0.00062494,0.00013313,
 0.01581570,0.00170008,-0.00138619,-0.00017002,-0.00018468,0.00038093,0
 .00035622,-0.00009416,-0.00029393,-0.80877444,-0.06100481,0.45392405,-
 0.00206029,0.00035152,0.00045620,-0.04282043,-0.00482935,0.02909101,0.
 83692435,0.06468633,-0.00075945,0.00010662,-0.00056653,-0.00207063,-0.
 00104436,0.00320362,0.00005123,-0.00000188,0.00016936,-0.00034117,-0.0
 0011832,0.00000290,0.90974384,0.49449162,-0.09349513,-0.00032631,0.000
 20119,-0.00019954,-0.01207871,-0.01132967,0.01826368,-0.89421881,-0.48
 230519,0.07262165,-0.00352550,0.00058064,-0.00178636,-0.00074189,-0.00
 022778,0.00050059,0.00385484,0.00205809,0.00208479,-0.02475854,-0.0032
 0097,0.00397350,-0.00106618,0.01200195,-0.01467927,0.00113097,-0.00061
 316,0.00093525,-0.00274831,0.00288861,0.00184909,0.00031746,0.00007996
 ,-0.00008197,-0.00061003,0.00035115,-0.00009465,-0.00003167,0.00007994
 ,-0.00038225,-0.00001851,0.00003762,0.00025687,-0.00009247,-0.00003089
 ,0.00007888,0.00013750,0.00003265,-0.00067055,0.00007140,0.00020801,0.
 00017773,0.00009468,-0.00009847,0.00039117,0.00018668,0.00017046,0.000
 07713,-0.00013975,-0.00061690,0.00003613,-0.00002008,0.00002977,-0.000
 04378,-0.00017235,0.00023649,-0.00019732,-0.00014323,-0.00043654,-0.00
 013665,0.00011376,-0.00000801,0.00002152,-0.00006069,-0.00004457,0.000
 28747,0.00033855,0.00025916,-0.00040009,-0.00107789,0.00001928,0.00027
 982,0.00001119,0.00006503,0.00020567,-0.00009783,0.00009161,0.00009118
 ,-0.00477565,-0.00060577,-0.00191519,0.02951714,-0.02822874,0.00020955
 ,0.00058926,0.00026331,-0.00015599,0.00000918,0.00018127,0.00069335,1.
 24328254,0.00259961,0.00114256,0.00107277,-0.03033131,-0.00015577,0.00
 266794,-0.00018966,0.00019458,-0.00013111,-0.00019525,-0.00025831,-0.0
 0099698,1.44633942,1.89929530,-0.00086068,-0.00049069,0.00046995,0.016
 02416,-0.00651455,-0.01417325,-0.00009431,0.00025782,-0.00107878,0.000
 38367,-0.00001382,0.00102429,-1.34897245,0.04345920,-0.09987105,-0.000
 30621,-0.00004543,-0.00005227,0.00265177,0.00165887,-0.00026876,0.0000
 5009,0.00004821,0.00005981,0.00006299,-0.00002056,-0.00000288,0.000268
 00,0.00173447,0.00006704,-0.00275971,-0.00015334,-0.00009888,-0.000191
 27,-0.00152211,-0.00070241,-0.00027718,0.00002860,0.00000841,0.0000606
 2,0.00009986,0.00005678,0.00002087,0.00219248,-0.00138174,-0.00035377,
 0.00052593,0.00101973,0.00010402,0.00004817,0.00024463,-0.00114218,0.0
 0045790,0.00238487,0.00004096,0.00001592,-0.00005139,0.00002446,0.0000
 0814,-0.00022261,0.00157568,-0.00085294,-0.00084992,0.00050253,0.00008
 015,-0.00175909,0.00148992,-0.00106793,-0.00054451,-0.00497655,0.01115
 728,0.00057788,0.00012597,-0.00026503,-0.00012419,-0.00004496,0.000051
 14,0.00011551,0.44108178,-0.25192742,-0.06514134,-0.00047123,0.0000789
 8,-0.00012985,-0.43700515,-0.00093801,-0.00113977,0.00062480,0.0023489
 7,0.00841474,-0.00136257,-0.00029005,-0.00026734,-0.00037888,0.0000073
 1,-0.00007492,0.00055783,-0.24906589,-1.97245645,-0.72344308,-0.001707
 11,0.00081844,-0.00078398,0.23754297,1.96408039,0.00126350,-0.00058510
 ,-0.00023486,-0.00318323,0.00753734,0.00414597,-0.00017855,-0.00018885
 ,0.00044085,0.00012353,-0.00001429,-0.00077286,-0.06904547,-0.74121899
 ,0.26159577,-0.00081388,0.00021652,-0.00002924,0.07048615,0.73205658,-
 0.26108873,0.00275846,-0.00117002,0.00117391,-0.00553889,0.00687736,0.
 00115720,-0.00042100,-0.00016294,-0.00003943,0.00011830,0.00004078,0.0
 0002001,-1.70997225,-1.16802985,1.39859391,0.00050430,-0.00125040,-0.0
 0097563,-0.00019977,0.01210182,0.00134796,1.71275085,0.00079565,-0.001
 51147,-0.00005061,0.01584333,0.00302899,-0.00332494,0.00005891,0.00008
 932,0.00036788,0.00054931,0.00030143,-0.00001680,-1.17107608,0.0736198
 3,0.68709889,-0.00219439,0.00027967,0.00102664,0.00443002,0.00062491,0
 .00219680,1.15159326,-0.07643267,-0.00137198,0.00157675,-0.00084492,-0
 .01002874,-0.00353040,0.00440051,0.00030265,0.00005952,0.00058529,-0.0
 0050331,0.00001852,-0.00020539,1.41761054,0.69600011,-0.14711701,0.000
 50840,0.00044405,0.00028275,-0.00523964,-0.00727071,-0.00405689,-1.401
 27793,-0.68729785,0.14695566\\@
 The archive entry for this job was punched.


 IT IS UNWORTHY OF EXCELLENT MEN TO LOSE HOURS LIKE SLAVES IN THE LABOR
 OF CALCULATION WHICH COULD BE SAFELY RELEGATED TO ANYONE ELSE
 IF A MACHINE WERE USED.
    -- G.W. VON LEIBNIZ
 Job cpu time:       0 days  4 hours 18 minutes 23.1 seconds.
 Elapsed time:       0 days  0 hours 10 minutes 59.6 seconds.
 File lengths (MBytes):  RWF=    822 Int=      0 D2E=      0 Chk=     41 Scr=      1
 Normal termination of Gaussian 16 at Tue Apr  8 15:14:27 2025.
