 Entering Gaussian System, Link 0=g16
 Input=vinylamine_mp2_avtz_opt_anharm.gjf
 Output=vinylamine_mp2_avtz_opt_anharm.log
 Initial command:
 /sw/contrib/chem-src/g16/c01/g16/l1.exe "/scr/Gau-34769.inp" -scrdir="/scr/"
 Entering Link 1 = /sw/contrib/chem-src/g16/c01/g16/l1.exe PID=     34770.
  
 Copyright (c) 1988-2019, Gaussian, Inc.  All Rights Reserved.
  
 This is part of the Gaussian(R) 16 program.  It is based on
 the Gaussian(R) 09 system (copyright 2009, Gaussian, Inc.),
 the Gaussian(R) 03 system (copyright 2003, Gaussian, Inc.),
 the Gaussian(R) 98 system (copyright 1998, Gaussian, Inc.),
 the Gaussian(R) 94 system (copyright 1995, Gaussian, Inc.),
 the Gaussian 92(TM) system (copyright 1992, Gaussian, Inc.),
 the Gaussian 90(TM) system (copyright 1990, Gaussian, Inc.),
 the Gaussian 88(TM) system (copyright 1988, Gaussian, Inc.),
 the Gaussian 86(TM) system (copyright 1986, Carnegie Mellon
 University), and the Gaussian 82(TM) system (copyright 1983,
 Carnegie Mellon University). Gaussian is a federally registered
 trademark of Gaussian, Inc.
  
 This software contains proprietary and confidential information,
 including trade secrets, belonging to Gaussian, Inc.
  
 This software is provided under written license and may be
 used, copied, transmitted, or stored only in accord with that
 written license.
  
 The following legend is applicable only to US Government
 contracts under FAR:
  
                    RESTRICTED RIGHTS LEGEND
  
 Use, reproduction and disclosure by the US Government is
 subject to restrictions as set forth in subparagraphs (a)
 and (c) of the Commercial Computer Software - Restricted
 Rights clause in FAR 52.227-19.
  
 Gaussian, Inc.
 340 Quinnipiac St., Bldg. 40, Wallingford CT 06492
  
  
 ---------------------------------------------------------------
 Warning -- This program may not be used in any manner that
 competes with the business of Gaussian, Inc. or will provide
 assistance to any competitor of Gaussian, Inc.  The licensee
 of this program is prohibited from giving any competitor of
 Gaussian, Inc. access to this program.  By using this program,
 the user acknowledges that Gaussian, Inc. is engaged in the
 business of creating and licensing software in the field of
 computational chemistry and represents and warrants to the
 licensee that it is not a competitor of Gaussian, Inc. and that
 it will not use this program in any manner prohibited above.
 ---------------------------------------------------------------
  

 Cite this work as:
 Gaussian 16, Revision C.01,
 M. J. Frisch, G. W. Trucks, H. B. Schlegel, G. E. Scuseria, 
 M. A. Robb, J. R. Cheeseman, G. Scalmani, V. Barone, 
 G. A. Petersson, H. Nakatsuji, X. Li, M. Caricato, A. V. Marenich, 
 J. Bloino, B. G. Janesko, R. Gomperts, B. Mennucci, H. P. Hratchian, 
 J. V. Ortiz, A. F. Izmaylov, J. L. Sonnenberg, D. Williams-Young, 
 F. Ding, F. Lipparini, F. Egidi, J. Goings, B. Peng, A. Petrone, 
 T. Henderson, D. Ranasinghe, V. G. Zakrzewski, J. Gao, N. Rega, 
 G. Zheng, W. Liang, M. Hada, M. Ehara, K. Toyota, R. Fukuda, 
 J. Hasegawa, M. Ishida, T. Nakajima, Y. Honda, O. Kitao, H. Nakai, 
 T. Vreven, K. Throssell, J. A. Montgomery, Jr., J. E. Peralta, 
 F. Ogliaro, M. J. Bearpark, J. J. Heyd, E. N. Brothers, K. N. Kudin, 
 V. N. Staroverov, T. A. Keith, R. Kobayashi, J. Normand, 
 K. Raghavachari, A. P. Rendell, J. C. Burant, S. S. Iyengar, 
 J. Tomasi, M. Cossi, J. M. Millam, M. Klene, C. Adamo, R. Cammi, 
 J. W. Ochterski, R. L. Martin, K. Morokuma, O. Farkas, 
 J. B. Foresman, and D. J. Fox, Gaussian, Inc., Wallingford CT, 2019.
 
 ******************************************
 Gaussian 16:  EM64L-G16RevC.01  3-Jul-2019
                 8-Apr-2025 
 ******************************************
 %nprocshared=40
 Will use up to   40 processors via shared memory.
 %mem=50gb
 ----------------------------------------------
 # MP2/aug-cc-pVTZ opt freq=(vibrot,anharmonic)
 ----------------------------------------------
 1/18=20,19=15,38=1,80=1/1,3;
 2/9=110,12=2,17=6,18=5,40=1/2;
 3/5=16,6=1,7=10,11=9,25=1,30=1,71=1/1,2,3;
 4//1;
 5/5=2,38=5/2;
 8/6=4,10=1/1;
 9/15=2,16=-3/6;
 10/5=1/2;
 6/7=2,8=2,9=2,10=2/1;
 7/12=2/1,2,3,16;
 1/18=20,19=15,80=1/3(2);
 2/9=110/2;
 99//99;
 2/9=110/2;
 3/5=16,6=1,7=10,11=9,25=1,30=1,71=1/1,2,3;
 4/5=5,16=3,69=1/1;
 5/5=2,38=5/2;
 8/6=4,10=1/1;
 9/15=2,16=-3/6;
 10/5=1/2;
 7/12=2/1,2,3,16;
 1/18=20,19=15,80=1/3(-8);
 2/9=110/2;
 6/7=2,8=2,9=2,10=2/1;
 99/9=10/99;
 ----
 blah
 ----
 Symbolic Z-matrix:
 Charge =  0 Multiplicity = 1
 C                     1.28204   0.00742   0. 
 C                     0.       -0.43698   0. 
 H                     1.52429   1.0735    0. 
 H                     2.09987  -0.71198   0. 
 N                    -1.13965   0.34845   0. 
 H                    -0.20554  -1.51193   0. 
 H                    -1.15543   1.31659   0.28414 
 H                    -1.95259  -0.21265   0.19242 
 

 GradGradGradGradGradGradGradGradGradGradGradGradGradGradGradGradGradGrad
 Berny optimization.
 Initialization pass.
                           ----------------------------
                           !    Initial Parameters    !
                           ! (Angstroms and Degrees)  !
 --------------------------                            --------------------------
 ! Name  Definition              Value          Derivative Info.                !
 --------------------------------------------------------------------------------
 ! R1    R(1,2)                  1.3569         estimate D2E/DX2                !
 ! R2    R(1,3)                  1.0933         estimate D2E/DX2                !
 ! R3    R(1,4)                  1.0892         estimate D2E/DX2                !
 ! R4    R(2,5)                  1.3841         estimate D2E/DX2                !
 ! R5    R(2,6)                  1.0944         estimate D2E/DX2                !
 ! R6    R(5,7)                  1.0091         estimate D2E/DX2                !
 ! R7    R(5,8)                  1.0063         estimate D2E/DX2                !
 ! A1    A(2,1,3)              121.9198         estimate D2E/DX2                !
 ! A2    A(2,1,4)              119.5457         estimate D2E/DX2                !
 ! A3    A(3,1,4)              118.5345         estimate D2E/DX2                !
 ! A4    A(1,2,5)              126.3077         estimate D2E/DX2                !
 ! A5    A(1,2,6)              119.9428         estimate D2E/DX2                !
 ! A6    A(5,2,6)              113.7495         estimate D2E/DX2                !
 ! A7    A(2,5,7)              123.8703         estimate D2E/DX2                !
 ! A8    A(2,5,8)              110.4103         estimate D2E/DX2                !
 ! A9    A(7,5,8)              117.9349         estimate D2E/DX2                !
 ! D1    D(3,1,2,5)              0.0            estimate D2E/DX2                !
 ! D2    D(3,1,2,6)            180.0            estimate D2E/DX2                !
 ! D3    D(4,1,2,5)            180.0            estimate D2E/DX2                !
 ! D4    D(4,1,2,6)              0.0            estimate D2E/DX2                !
 ! D5    D(1,2,5,7)            -19.8234         estimate D2E/DX2                !
 ! D6    D(1,2,5,8)           -168.2282         estimate D2E/DX2                !
 ! D7    D(6,2,5,7)            160.1766         estimate D2E/DX2                !
 ! D8    D(6,2,5,8)             11.7718         estimate D2E/DX2                !
 --------------------------------------------------------------------------------
 Trust Radius=3.00D-01 FncErr=1.00D-07 GrdErr=1.00D-07 EigMax=2.50D+02 EigMin=1.00D-04
 Number of steps in this run=     34 maximum allowed number of steps=    100.
 GradGradGradGradGradGradGradGradGradGradGradGradGradGradGradGradGradGrad

                          Input orientation:                          
 ---------------------------------------------------------------------
 Center     Atomic      Atomic             Coordinates (Angstroms)
 Number     Number       Type             X           Y           Z
 ---------------------------------------------------------------------
      1          6           0        1.282042    0.007415    0.000000
      2          6           0        0.000000   -0.436984    0.000000
      3          1           0        1.524285    1.073502    0.000000
      4          1           0        2.099872   -0.711984    0.000000
      5          7           0       -1.139649    0.348451    0.000000
      6          1           0       -0.205539   -1.511934    0.000000
      7          1           0       -1.155426    1.316594    0.284136
      8          1           0       -1.952588   -0.212654    0.192419
 ---------------------------------------------------------------------
                    Distance matrix (angstroms):
                    1          2          3          4          5
     1  C    0.000000
     2  C    1.356880   0.000000
     3  H    1.093263   2.145929   0.000000
     4  H    1.089211   2.117802   1.875969   0.000000
     5  N    2.445586   1.384091   2.760841   3.408668   0.000000
     6  H    2.126339   1.094424   3.110751   2.440254   2.081729
     7  H    2.781355   2.119146   2.705676   3.846145   1.009100
     8  H    3.247813   1.974829   3.712125   4.087638   1.006347
                    6          7          8
     6  H    0.000000
     7  H    2.997264   0.000000
     8  H    2.185711   1.726985   0.000000
 Stoichiometry    C2H5N
 Framework group  C1[X(C2H5N)]
 Deg. of freedom    18
 Full point group                 C1      NOp   1
 Largest Abelian subgroup         C1      NOp   1
 Largest concise Abelian subgroup C1      NOp   1
                         Standard orientation:                         
 ---------------------------------------------------------------------
 Center     Atomic      Atomic             Coordinates (Angstroms)
 Number     Number       Type             X           Y           Z
 ---------------------------------------------------------------------
      1          6           0       -1.266049   -0.196612    0.003889
      2          6           0       -0.060210    0.425484   -0.004534
      3          1           0       -1.354840   -1.285749   -0.029581
      4          1           0       -2.177262    0.398682    0.045067
      5          7           0        1.178838   -0.189338   -0.054166
      6          1           0       -0.008998    1.518165    0.029948
      7          1           0        1.338296   -1.154135    0.194875
      8          1           0        1.908494    0.475169    0.142726
 ---------------------------------------------------------------------
 Rotational constants (GHZ):          56.4499914           9.9209372           8.4651581
 Standard basis: Aug-CC-pVTZ (5D, 7F)
 There are   290 symmetry adapted cartesian basis functions of A   symmetry.
 There are   253 symmetry adapted basis functions of A   symmetry.
   253 basis functions,   351 primitive gaussians,   290 cartesian basis functions
    12 alpha electrons       12 beta electrons
       nuclear repulsion energy        71.1620094586 Hartrees.
 NAtoms=    8 NActive=    8 NUniq=    8 SFac= 1.00D+00 NAtFMM=   60 NAOKFM=F Big=F
 Integral buffers will be    131072 words long.
 Raffenetti 1 integral format.
 Two-electron integral symmetry is turned on.
 One-electron integrals computed using PRISM.
 NBasis=   253 RedAO= T EigKep=  8.15D-06  NBF=   253
 NBsUse=   253 1.00D-06 EigRej= -1.00D+00 NBFU=   253
 ExpMin= 2.53D-02 ExpMax= 1.14D+04 ExpMxC= 3.89D+02 IAcc=3 IRadAn=         5 AccDes= 0.00D+00
 Harris functional with IExCor=  205 and IRadAn=       5 diagonalized for initial guess.
 HarFok:  IExCor=  205 AccDes= 0.00D+00 IRadAn=         5 IDoV= 1 UseB2=F ITyADJ=14
 ICtDFT=  3500011 ScaDFX=  1.000000  1.000000  1.000000  1.000000
 FoFCou: FMM=F IPFlag=           0 FMFlag=      100000 FMFlg1=           0
         NFxFlg=           0 DoJE=T BraDBF=F KetDBF=T FulRan=T
         wScrn=  0.000000 ICntrl=       500 IOpCl=  0 I1Cent=   200000004 NGrid=           0
         NMat0=    1 NMatS0=      1 NMatT0=    0 NMatD0=    1 NMtDS0=    0 NMtDT0=    0
 Petite list used in FoFCou.
 Keep R1 ints in memory in canonical form, NReq=536181689.
 Requested convergence on RMS density matrix=1.00D-08 within 128 cycles.
 Requested convergence on MAX density matrix=1.00D-06.
 Requested convergence on             energy=1.00D-06.
 No special actions if energy rises.
 SCF Done:  E(RHF) =  -133.117109675     A.U. after   12 cycles
            NFock= 12  Conv=0.61D-08     -V/T= 2.0025
 ExpMin= 2.53D-02 ExpMax= 1.14D+04 ExpMxC= 3.89D+02 IAcc=3 IRadAn=         5 AccDes= 0.00D+00
 HarFok:  IExCor=  205 AccDes= 0.00D+00 IRadAn=         5 IDoV=-2 UseB2=F ITyADJ=14
 ICtDFT= 12500011 ScaDFX=  1.000000  1.000000  1.000000  1.000000
 Range of M.O.s used for correlation:     4   253
 NBasis=   253 NAE=    12 NBE=    12 NFC=     3 NFV=     0
 NROrb=    250 NOA=     9 NOB=     9 NVA=   241 NVB=   241

 **** Warning!!: The largest alpha MO coefficient is  0.73921377D+02

 Fully direct method using O(ONN) memory.
 JobTyp=1 Pass  1:  I=   4 to  12 NPSUse= 40 ParTrn=T ParDer=T DoDerP=T.
 Spin components of T(2) and E(2):
     alpha-alpha T2 =       0.2125364255D-01 E2=     -0.6425286725D-01
     alpha-beta  T2 =       0.1318877492D+00 E2=     -0.4276051499D+00
     beta-beta   T2 =       0.2125364255D-01 E2=     -0.6425286725D-01
 ANorm=    0.1083695084D+01
 E2 =    -0.5561108844D+00 EUMP2 =    -0.13367322055973D+03
          IDoAtm=11111111
          Differentiating once with respect to electric field.
                with respect to dipole field.
          Differentiating once with respect to nuclear coordinates.
 Keep R1 ints in memory in canonical form, NReq=536186533.
          There are     1 degrees of freedom in the 1st order CPHF.  IDoFFX=0 NUNeed=     1.
 LinEq1:  Iter=  0 NonCon=     1 RMS=3.02D-03 Max=7.24D-02 NDo=     1
 AX will form     1 AO Fock derivatives at one time.
 LinEq1:  Iter=  1 NonCon=     1 RMS=8.78D-04 Max=9.00D-03 NDo=     1
 LinEq1:  Iter=  2 NonCon=     1 RMS=2.78D-04 Max=4.49D-03 NDo=     1
 LinEq1:  Iter=  3 NonCon=     1 RMS=7.29D-05 Max=1.45D-03 NDo=     1
 LinEq1:  Iter=  4 NonCon=     1 RMS=2.84D-05 Max=5.65D-04 NDo=     1
 LinEq1:  Iter=  5 NonCon=     1 RMS=6.19D-06 Max=6.16D-05 NDo=     1
 LinEq1:  Iter=  6 NonCon=     1 RMS=1.70D-06 Max=3.24D-05 NDo=     1
 LinEq1:  Iter=  7 NonCon=     1 RMS=5.82D-07 Max=8.48D-06 NDo=     1
 LinEq1:  Iter=  8 NonCon=     1 RMS=1.96D-07 Max=2.14D-06 NDo=     1
 LinEq1:  Iter=  9 NonCon=     1 RMS=4.50D-08 Max=4.00D-07 NDo=     1
 LinEq1:  Iter= 10 NonCon=     1 RMS=7.00D-09 Max=6.36D-08 NDo=     1
 LinEq1:  Iter= 11 NonCon=     1 RMS=1.01D-09 Max=1.06D-08 NDo=     1
 LinEq1:  Iter= 12 NonCon=     1 RMS=1.94D-10 Max=1.70D-09 NDo=     1
 LinEq1:  Iter= 13 NonCon=     0 RMS=4.97D-11 Max=5.84D-10 NDo=     1
 Linear equations converged to 1.000D-10 1.000D-09 after    13 iterations.
 End of Minotr F.D. properties file   721 does not exist.
 End of Minotr F.D. properties file   722 does not exist.
 End of Minotr F.D. properties file   788 does not exist.

 **********************************************************************

            Population analysis using the SCF Density.

 **********************************************************************

 Orbital symmetries:
       Occupied  (A) (A) (A) (A) (A) (A) (A) (A) (A) (A) (A) (A)
       Virtual   (A) (A) (A) (A) (A) (A) (A) (A) (A) (A) (A) (A)
                 (A) (A) (A) (A) (A) (A) (A) (A) (A) (A) (A) (A)
                 (A) (A) (A) (A) (A) (A) (A) (A) (A) (A) (A) (A)
                 (A) (A) (A) (A) (A) (A) (A) (A) (A) (A) (A) (A)
                 (A) (A) (A) (A) (A) (A) (A) (A) (A) (A) (A) (A)
                 (A) (A) (A) (A) (A) (A) (A) (A) (A) (A) (A) (A)
                 (A) (A) (A) (A) (A) (A) (A) (A) (A) (A) (A) (A)
                 (A) (A) (A) (A) (A) (A) (A) (A) (A) (A) (A) (A)
                 (A) (A) (A) (A) (A) (A) (A) (A) (A) (A) (A) (A)
                 (A) (A) (A) (A) (A) (A) (A) (A) (A) (A) (A) (A)
                 (A) (A) (A) (A) (A) (A) (A) (A) (A) (A) (A) (A)
                 (A) (A) (A) (A) (A) (A) (A) (A) (A) (A) (A) (A)
                 (A) (A) (A) (A) (A) (A) (A) (A) (A) (A) (A) (A)
                 (A) (A) (A) (A) (A) (A) (A) (A) (A) (A) (A) (A)
                 (A) (A) (A) (A) (A) (A) (A) (A) (A) (A) (A) (A)
                 (A) (A) (A) (A) (A) (A) (A) (A) (A) (A) (A) (A)
                 (A) (A) (A) (A) (A) (A) (A) (A) (A) (A) (A) (A)
                 (A) (A) (A) (A) (A) (A) (A) (A) (A) (A) (A) (A)
                 (A) (A) (A) (A) (A) (A) (A) (A) (A) (A) (A) (A)
                 (A) (A) (A) (A) (A) (A) (A) (A) (A) (A) (A) (A)
                 (A)
 The electronic state is 1-A.
 Alpha  occ. eigenvalues --  -15.56625 -11.27467 -11.19999  -1.21148  -0.98568
 Alpha  occ. eigenvalues --   -0.79158  -0.70003  -0.64349  -0.56136  -0.51978
 Alpha  occ. eigenvalues --   -0.49441  -0.30758
 Alpha virt. eigenvalues --    0.02704   0.03855   0.04169   0.05987   0.06190
 Alpha virt. eigenvalues --    0.09655   0.10349   0.11257   0.12328   0.12479
 Alpha virt. eigenvalues --    0.13936   0.14456   0.15048   0.16460   0.18002
 Alpha virt. eigenvalues --    0.18958   0.19846   0.24089   0.24316   0.24860
 Alpha virt. eigenvalues --    0.26640   0.28321   0.29347   0.30131   0.31578
 Alpha virt. eigenvalues --    0.32529   0.32837   0.34197   0.35696   0.36724
 Alpha virt. eigenvalues --    0.37719   0.39302   0.39486   0.41016   0.42049
 Alpha virt. eigenvalues --    0.43164   0.43506   0.44320   0.44543   0.46116
 Alpha virt. eigenvalues --    0.47599   0.48348   0.48509   0.49754   0.51496
 Alpha virt. eigenvalues --    0.54780   0.55475   0.57096   0.60643   0.62460
 Alpha virt. eigenvalues --    0.63541   0.64318   0.67276   0.68525   0.71941
 Alpha virt. eigenvalues --    0.73221   0.74770   0.79328   0.83021   0.83122
 Alpha virt. eigenvalues --    0.84976   0.85848   0.87189   0.88159   0.89516
 Alpha virt. eigenvalues --    0.90971   0.92007   0.92107   0.93864   0.94707
 Alpha virt. eigenvalues --    0.95986   0.98866   0.99306   1.00099   1.01519
 Alpha virt. eigenvalues --    1.01940   1.03095   1.04690   1.05354   1.05755
 Alpha virt. eigenvalues --    1.06750   1.08666   1.10363   1.10826   1.12644
 Alpha virt. eigenvalues --    1.14503   1.16482   1.16575   1.18359   1.21592
 Alpha virt. eigenvalues --    1.22112   1.23475   1.24085   1.27651   1.28718
 Alpha virt. eigenvalues --    1.30409   1.31414   1.36394   1.38467   1.40619
 Alpha virt. eigenvalues --    1.44318   1.46057   1.48382   1.49336   1.50627
 Alpha virt. eigenvalues --    1.52799   1.56132   1.60167   1.62593   1.63087
 Alpha virt. eigenvalues --    1.69090   1.70504   1.75366   1.77897   1.78421
 Alpha virt. eigenvalues --    1.78788   1.85085   1.86591   1.87512   1.88588
 Alpha virt. eigenvalues --    1.92541   1.93201   1.97256   1.99867   2.01220
 Alpha virt. eigenvalues --    2.04941   2.06820   2.09072   2.12429   2.17014
 Alpha virt. eigenvalues --    2.20339   2.22684   2.24096   2.25829   2.28083
 Alpha virt. eigenvalues --    2.29671   2.35813   2.38308   2.43092   2.46916
 Alpha virt. eigenvalues --    2.51344   2.59441   2.61816   2.62228   2.71858
 Alpha virt. eigenvalues --    2.76283   2.83324   2.94899   2.95436   3.16594
 Alpha virt. eigenvalues --    3.23385   3.26186   3.29792   3.35972   3.36890
 Alpha virt. eigenvalues --    3.42483   3.46980   3.49349   3.51784   3.55477
 Alpha virt. eigenvalues --    3.61198   3.63625   3.67978   3.70432   3.75638
 Alpha virt. eigenvalues --    3.76319   3.80026   3.82545   3.84318   3.87026
 Alpha virt. eigenvalues --    3.90342   3.93083   3.96775   4.04976   4.06023
 Alpha virt. eigenvalues --    4.08252   4.10599   4.13758   4.14752   4.21091
 Alpha virt. eigenvalues --    4.25110   4.27460   4.30249   4.31761   4.36668
 Alpha virt. eigenvalues --    4.40493   4.41752   4.46480   4.47742   4.49664
 Alpha virt. eigenvalues --    4.53400   4.56453   4.59962   4.67273   4.70677
 Alpha virt. eigenvalues --    4.76344   4.79955   4.80851   4.86076   4.86696
 Alpha virt. eigenvalues --    4.89847   4.94040   4.97689   5.01323   5.05296
 Alpha virt. eigenvalues --    5.07883   5.12424   5.16313   5.20381   5.23977
 Alpha virt. eigenvalues --    5.28891   5.31595   5.33587   5.34713   5.37943
 Alpha virt. eigenvalues --    5.44974   5.49128   5.54216   5.58608   5.62503
 Alpha virt. eigenvalues --    5.68219   5.70472   5.73862   5.93088   5.99318
 Alpha virt. eigenvalues --    6.10086   6.16891   6.28965   6.37300   6.43214
 Alpha virt. eigenvalues --    6.50936   6.64906   6.70639   6.83314   6.95900
 Alpha virt. eigenvalues --    7.12138   7.42662   7.68469  16.49964  16.89755
 Alpha virt. eigenvalues --   17.90527
          Condensed to atoms (all electrons):
               1          2          3          4          5          6
     1  C    6.253066   0.264463   0.388394   0.394495  -0.216762  -0.061979
     2  C    0.264463   5.388336  -0.065310   0.017976   0.322445   0.240373
     3  H    0.388394  -0.065310   0.287074  -0.016874  -0.025223   0.005271
     4  H    0.394495   0.017976  -0.016874   0.293789   0.002530  -0.013176
     5  N   -0.216762   0.322445  -0.025223   0.002530   6.630869  -0.043726
     6  H   -0.061979   0.240373   0.005271  -0.013176  -0.043726   0.271828
     7  H   -0.004989   0.022379  -0.003676   0.001768   0.393406  -0.002250
     8  H    0.001017  -0.029828   0.000216  -0.000260   0.380274  -0.002636
               7          8
     1  C   -0.004989   0.001017
     2  C    0.022379  -0.029828
     3  H   -0.003676   0.000216
     4  H    0.001768  -0.000260
     5  N    0.393406   0.380274
     6  H   -0.002250  -0.002636
     7  H    0.514286  -0.047891
     8  H   -0.047891   0.559901
 Mulliken charges:
               1
     1  C   -1.017704
     2  C   -0.160834
     3  H    0.430128
     4  H    0.319753
     5  N   -0.443813
     6  H    0.606296
     7  H    0.126968
     8  H    0.139207
 Sum of Mulliken charges =  -0.00000
 Mulliken charges with hydrogens summed into heavy atoms:
               1
     1  C   -0.267823
     2  C    0.445462
     5  N   -0.177639
 Electronic spatial extent (au):  <R**2>=            180.7450
 Charge=              0.0000 electrons
 Dipole moment (field-independent basis, Debye):
    X=              1.5536    Y=              0.1695    Z=              0.7077  Tot=              1.7156
 Quadrupole moment (field-independent basis, Debye-Ang):
   XX=            -17.6653   YY=            -16.0940   ZZ=            -23.4509
   XY=              0.0742   XZ=              1.2742   YZ=             -0.2724
 Traceless Quadrupole moment (field-independent basis, Debye-Ang):
   XX=              1.4048   YY=              2.9760   ZZ=             -4.3808
   XY=              0.0742   XZ=              1.2742   YZ=             -0.2724
 Octapole moment (field-independent basis, Debye-Ang**2):
  XXX=              9.4596  YYY=             -1.6697  ZZZ=              0.4515  XYY=              4.1564
  XXY=              1.0555  XXZ=              2.4246  XZZ=              2.6761  YZZ=             -0.0227
  YYZ=              0.7110  XYZ=             -0.6185
 Hexadecapole moment (field-independent basis, Debye-Ang**3):
 XXXX=           -152.5929 YYYY=            -42.4594 ZZZZ=            -29.8968 XXXY=             -0.3404
 XXXZ=              4.0188 YYYX=             -2.1737 YYYZ=             -0.5621 ZZZX=              1.2338
 ZZZY=             -0.2230 XXYY=            -30.9157 XXZZ=            -39.1301 YYZZ=            -14.1123
 XXYZ=             -0.3338 YYXZ=              1.2140 ZZXY=              0.1621
 N-N= 7.116200945859D+01 E-N=-4.528309043827D+02  KE= 1.327852657262D+02
 Calling FoFJK, ICntrl=  10002127 FMM=F ISym2X=0 I1Cent= 0 IOpClX= 0 NMat=1 NMatS=1 NMatT=0.
 ***** Axes restored to original set *****
 -------------------------------------------------------------------
 Center     Atomic                   Forces (Hartrees/Bohr)
 Number     Number              X              Y              Z
 -------------------------------------------------------------------
      1        6          -0.007183194   -0.004515007   -0.000075943
      2        6           0.022234087    0.010032107    0.004226133
      3        1          -0.002378015   -0.008009805    0.000423826
      4        1          -0.005940241    0.005231650   -0.000787787
      5        7          -0.007162530   -0.016866795   -0.005049496
      6        1           0.001351543    0.008195744   -0.001552170
      7        1           0.003997861   -0.006604757    0.000901460
      8        1          -0.004919512    0.012536864    0.001913978
 -------------------------------------------------------------------
 Cartesian Forces:  Max     0.022234087 RMS     0.007895849

 GradGradGradGradGradGradGradGradGradGradGradGradGradGradGradGradGradGrad
 Berny optimization.
 FormGI is forming the generalized inverse of G from B-inverse, IUseBI=4.
 Internal  Forces:  Max     0.019117101 RMS     0.006897306
 Search for a local minimum.
 Step number   1 out of a maximum of   34
 All quantities printed in internal units (Hartrees-Bohrs-Radians)
 Mixed Optimization -- RFO/linear search
 Second derivative matrix not updated -- first step.
 ITU=  0
     Eigenvalues ---    0.01902   0.02301   0.02659   0.02659   0.03030
     Eigenvalues ---    0.16000   0.16000   0.16000   0.16000   0.16000
     Eigenvalues ---    0.22000   0.34306   0.34438   0.34904   0.46124
     Eigenvalues ---    0.46590   0.48362   0.53583
 RFO step:  Lambda=-5.13176040D-03 EMin= 1.90222555D-02
 Linear search not attempted -- first point.
 Iteration  1 RMS(Cart)=  0.04639567 RMS(Int)=  0.00248842
 Iteration  2 RMS(Cart)=  0.00246283 RMS(Int)=  0.00015377
 Iteration  3 RMS(Cart)=  0.00000759 RMS(Int)=  0.00015360
 Iteration  4 RMS(Cart)=  0.00000000 RMS(Int)=  0.00015360
 Variable       Old X    -DE/DX   Delta X   Delta X   Delta X     New X
                                 (Linear)    (Quad)   (Total)
    R1        2.56413  -0.01704   0.00000  -0.03149  -0.03149   2.53264
    R2        2.06597  -0.00834   0.00000  -0.02385  -0.02385   2.04211
    R3        2.05831  -0.00792   0.00000  -0.02235  -0.02235   2.03596
    R4        2.61555   0.00045   0.00000   0.00092   0.00092   2.61648
    R5        2.06816  -0.00830   0.00000  -0.02385  -0.02385   2.04431
    R6        1.90692  -0.00615   0.00000  -0.01318  -0.01318   1.89375
    R7        1.90172  -0.00265   0.00000  -0.00563  -0.00563   1.89609
    A1        2.12790  -0.00075   0.00000  -0.00456  -0.00457   2.12333
    A2        2.08647   0.00038   0.00000   0.00231   0.00229   2.08876
    A3        2.06882   0.00037   0.00000   0.00225   0.00223   2.07105
    A4        2.20449   0.00249   0.00000   0.01106   0.01080   2.21529
    A5        2.09340  -0.00103   0.00000  -0.00421  -0.00447   2.08893
    A6        1.98530  -0.00146   0.00000  -0.00686  -0.00712   1.97819
    A7        2.16194  -0.01347   0.00000  -0.08746  -0.08715   2.07479
    A8        1.92702   0.01912   0.00000   0.10962   0.10993   2.03695
    A9        2.05835  -0.00622   0.00000  -0.04473  -0.04436   2.01399
    D1       -0.00000   0.00101   0.00000   0.03441   0.03442   0.03442
    D2        3.14159  -0.00027   0.00000  -0.01098  -0.01099   3.13061
    D3        3.14159   0.00134   0.00000   0.04493   0.04493  -3.09666
    D4        0.00000   0.00007   0.00000  -0.00046  -0.00047  -0.00047
    D5       -0.34598  -0.00069   0.00000  -0.01396  -0.01404  -0.36002
    D6       -2.93614   0.00100   0.00000   0.03377   0.03387  -2.90226
    D7        2.79561   0.00052   0.00000   0.02902   0.02892   2.82453
    D8        0.20546   0.00221   0.00000   0.07675   0.07683   0.28229
         Item               Value     Threshold  Converged?
 Maximum Force            0.019117     0.000450     NO 
 RMS     Force            0.006897     0.000300     NO 
 Maximum Displacement     0.105809     0.001800     NO 
 RMS     Displacement     0.046876     0.001200     NO 
 Predicted change in Energy=-2.659891D-03
 GradGradGradGradGradGradGradGradGradGradGradGradGradGradGradGradGradGrad

                          Input orientation:                          
 ---------------------------------------------------------------------
 Center     Atomic      Atomic             Coordinates (Angstroms)
 Number     Number       Type             X           Y           Z
 ---------------------------------------------------------------------
      1          6           0        1.273415    0.009684    0.006838
      2          6           0        0.011956   -0.442947    0.011653
      3          1           0        1.496631    1.067002    0.012672
      4          1           0        2.091515   -0.691085   -0.012933
      5          7           0       -1.144795    0.317533   -0.013977
      6          1           0       -0.175052   -1.508338   -0.004789
      7          1           0       -1.099458    1.277219    0.270990
      8          1           0       -2.001215   -0.156663    0.206102
 ---------------------------------------------------------------------
                    Distance matrix (angstroms):
                    1          2          3          4          5
     1  C    0.000000
     2  C    1.340216   0.000000
     3  H    1.080639   2.117595   0.000000
     4  H    1.077384   2.094455   1.856183   0.000000
     5  N    2.437816   1.384580   2.745824   3.389840   0.000000
     6  H    2.098234   1.081804   3.070376   2.409418   2.067437
     7  H    2.703137   2.064333   2.617365   3.759940   1.002127
     8  H    3.284902   2.042701   3.710755   4.133282   1.003370
                    6          7          8
     6  H    0.000000
     7  H    2.947865   0.000000
     8  H    2.281748   1.695108   0.000000
 Stoichiometry    C2H5N
 Framework group  C1[X(C2H5N)]
 Deg. of freedom    18
 Full point group                 C1      NOp   1
 Largest Abelian subgroup         C1      NOp   1
 Largest concise Abelian subgroup C1      NOp   1
                         Standard orientation:                         
 ---------------------------------------------------------------------
 Center     Atomic      Atomic             Coordinates (Angstroms)
 Number     Number       Type             X           Y           Z
 ---------------------------------------------------------------------
      1          6           0       -1.258291   -0.194793    0.004327
      2          6           0       -0.068169    0.421475    0.005766
      3          1           0       -1.339109   -1.272092   -0.021660
      4          1           0       -2.162357    0.391027    0.019735
      5          7           0        1.178559   -0.176978   -0.061930
      6          1           0       -0.024504    1.502277    0.021947
      7          1           0        1.266327   -1.142502    0.191680
      8          1           0        1.968492    0.400037    0.161251
 ---------------------------------------------------------------------
 Rotational constants (GHZ):          58.2844941           9.9757459           8.5493058
 Standard basis: Aug-CC-pVTZ (5D, 7F)
 There are   290 symmetry adapted cartesian basis functions of A   symmetry.
 There are   253 symmetry adapted basis functions of A   symmetry.
   253 basis functions,   351 primitive gaussians,   290 cartesian basis functions
    12 alpha electrons       12 beta electrons
       nuclear repulsion energy        71.6015789382 Hartrees.
 NAtoms=    8 NActive=    8 NUniq=    8 SFac= 1.00D+00 NAtFMM=   60 NAOKFM=F Big=F
 Integral buffers will be    131072 words long.
 Raffenetti 1 integral format.
 Two-electron integral symmetry is turned on.
 One-electron integrals computed using PRISM.
 NBasis=   253 RedAO= T EigKep=  8.39D-06  NBF=   253
 NBsUse=   253 1.00D-06 EigRej= -1.00D+00 NBFU=   253
 Initial guess from the checkpoint file:  "/scr/Gau-34770.chk"
 B after Tr=    -0.000000    0.000000    0.000000
         Rot=    0.999997   -0.002105    0.000154    0.001101 Ang=  -0.27 deg.
 ExpMin= 2.53D-02 ExpMax= 1.14D+04 ExpMxC= 3.89D+02 IAcc=3 IRadAn=         5 AccDes= 0.00D+00
 Harris functional with IExCor=  205 and IRadAn=       5 diagonalized for initial guess.
 HarFok:  IExCor=  205 AccDes= 0.00D+00 IRadAn=         5 IDoV= 1 UseB2=F ITyADJ=14
 ICtDFT=  3500011 ScaDFX=  1.000000  1.000000  1.000000  1.000000
 FoFCou: FMM=F IPFlag=           0 FMFlag=      100000 FMFlg1=           0
         NFxFlg=           0 DoJE=T BraDBF=F KetDBF=T FulRan=T
         wScrn=  0.000000 ICntrl=       500 IOpCl=  0 I1Cent=   200000004 NGrid=           0
         NMat0=    1 NMatS0=      1 NMatT0=    0 NMatD0=    1 NMtDS0=    0 NMtDT0=    0
 Petite list used in FoFCou.
 Keep R1 ints in memory in canonical form, NReq=536182148.
 Requested convergence on RMS density matrix=1.00D-08 within 128 cycles.
 Requested convergence on MAX density matrix=1.00D-06.
 Requested convergence on             energy=1.00D-06.
 No special actions if energy rises.
 SCF Done:  E(RHF) =  -133.121615528     A.U. after   11 cycles
            NFock= 11  Conv=0.46D-08     -V/T= 2.0016
 ExpMin= 2.53D-02 ExpMax= 1.14D+04 ExpMxC= 3.89D+02 IAcc=3 IRadAn=         5 AccDes= 0.00D+00
 HarFok:  IExCor=  205 AccDes= 0.00D+00 IRadAn=         5 IDoV=-2 UseB2=F ITyADJ=14
 ICtDFT= 12500011 ScaDFX=  1.000000  1.000000  1.000000  1.000000
 Range of M.O.s used for correlation:     4   253
 NBasis=   253 NAE=    12 NBE=    12 NFC=     3 NFV=     0
 NROrb=    250 NOA=     9 NOB=     9 NVA=   241 NVB=   241

 **** Warning!!: The largest alpha MO coefficient is  0.62516083D+02

 Fully direct method using O(ONN) memory.
 JobTyp=1 Pass  1:  I=   4 to  12 NPSUse= 40 ParTrn=T ParDer=T DoDerP=T.
 Spin components of T(2) and E(2):
     alpha-alpha T2 =       0.2100960668D-01 E2=     -0.6407119665D-01
     alpha-beta  T2 =       0.1300910347D+00 E2=     -0.4262991261D+00
     beta-beta   T2 =       0.2100960668D-01 E2=     -0.6407119665D-01
 ANorm=    0.1082640406D+01
 E2 =    -0.5544415194D+00 EUMP2 =    -0.13367605704768D+03
          IDoAtm=11111111
          Differentiating once with respect to electric field.
                with respect to dipole field.
          Differentiating once with respect to nuclear coordinates.
 Keep R1 ints in memory in canonical form, NReq=536186828.
          There are     1 degrees of freedom in the 1st order CPHF.  IDoFFX=0 NUNeed=     1.
 LinEq1:  Iter=  0 NonCon=     1 RMS=2.96D-03 Max=7.00D-02 NDo=     1
 AX will form     1 AO Fock derivatives at one time.
 LinEq1:  Iter=  1 NonCon=     1 RMS=8.50D-04 Max=8.81D-03 NDo=     1
 LinEq1:  Iter=  2 NonCon=     1 RMS=2.67D-04 Max=4.35D-03 NDo=     1
 LinEq1:  Iter=  3 NonCon=     1 RMS=7.00D-05 Max=1.44D-03 NDo=     1
 LinEq1:  Iter=  4 NonCon=     1 RMS=2.64D-05 Max=4.98D-04 NDo=     1
 LinEq1:  Iter=  5 NonCon=     1 RMS=5.77D-06 Max=5.59D-05 NDo=     1
 LinEq1:  Iter=  6 NonCon=     1 RMS=1.54D-06 Max=2.72D-05 NDo=     1
 LinEq1:  Iter=  7 NonCon=     1 RMS=5.32D-07 Max=8.45D-06 NDo=     1
 LinEq1:  Iter=  8 NonCon=     1 RMS=1.76D-07 Max=1.71D-06 NDo=     1
 LinEq1:  Iter=  9 NonCon=     1 RMS=4.06D-08 Max=3.66D-07 NDo=     1
 LinEq1:  Iter= 10 NonCon=     1 RMS=6.40D-09 Max=5.00D-08 NDo=     1
 LinEq1:  Iter= 11 NonCon=     1 RMS=9.44D-10 Max=7.19D-09 NDo=     1
 LinEq1:  Iter= 12 NonCon=     1 RMS=1.88D-10 Max=1.73D-09 NDo=     1
 LinEq1:  Iter= 13 NonCon=     0 RMS=4.68D-11 Max=5.69D-10 NDo=     1
 Linear equations converged to 1.000D-10 1.000D-09 after    13 iterations.
 End of Minotr F.D. properties file   721 does not exist.
 End of Minotr F.D. properties file   722 does not exist.
 End of Minotr F.D. properties file   788 does not exist.
 Calling FoFJK, ICntrl=  10002127 FMM=F ISym2X=0 I1Cent= 0 IOpClX= 0 NMat=1 NMatS=1 NMatT=0.
 ***** Axes restored to original set *****
 -------------------------------------------------------------------
 Center     Atomic                   Forces (Hartrees/Bohr)
 Number     Number              X              Y              Z
 -------------------------------------------------------------------
      1        6          -0.001053087    0.000926015    0.000503452
      2        6          -0.000188695    0.000157073    0.000780806
      3        1           0.000411766    0.000475123    0.000178904
      4        1          -0.000039038   -0.000008135    0.000064451
      5        7          -0.000055871   -0.004784944   -0.004209593
      6        1           0.000109666   -0.000866916   -0.000820226
      7        1           0.000682612    0.002119757    0.001332803
      8        1           0.000132647    0.001982027    0.002169404
 -------------------------------------------------------------------
 Cartesian Forces:  Max     0.004784944 RMS     0.001591210

 GradGradGradGradGradGradGradGradGradGradGradGradGradGradGradGradGradGrad
 Berny optimization.
 Using GEDIIS/GDIIS optimizer.
 FormGI is forming the generalized inverse of G from B-inverse, IUseBI=4.
 Internal  Forces:  Max     0.002439864 RMS     0.001162353
 Search for a local minimum.
 Step number   2 out of a maximum of   34
 All quantities printed in internal units (Hartrees-Bohrs-Radians)
 Mixed Optimization -- RFO/linear search
 Update second derivatives using D2CorX and points    1    2
 DE= -2.84D-03 DEPred=-2.66D-03 R= 1.07D+00
 TightC=F SS=  1.41D+00  RLast= 1.90D-01 DXNew= 5.0454D-01 5.7008D-01
 Trust test= 1.07D+00 RLast= 1.90D-01 DXMaxT set to 5.05D-01
 ITU=  1  0
 Use linear search instead of GDIIS.
     Eigenvalues ---    0.01821   0.02328   0.02656   0.02668   0.03046
     Eigenvalues ---    0.14664   0.15995   0.16000   0.16000   0.16091
     Eigenvalues ---    0.22633   0.34370   0.34743   0.35440   0.46533
     Eigenvalues ---    0.46945   0.48416   0.54310
 RFO step:  Lambda=-4.39885372D-04 EMin= 1.82080513D-02
 Quartic linear search produced a step of  0.11370.
 Iteration  1 RMS(Cart)=  0.02860342 RMS(Int)=  0.00105559
 Iteration  2 RMS(Cart)=  0.00101563 RMS(Int)=  0.00030156
 Iteration  3 RMS(Cart)=  0.00000061 RMS(Int)=  0.00030156
 Variable       Old X    -DE/DX   Delta X   Delta X   Delta X     New X
                                 (Linear)    (Quad)   (Total)
    R1        2.53264  -0.00017  -0.00358   0.00080  -0.00278   2.52986
    R2        2.04211   0.00055  -0.00271   0.00267  -0.00004   2.04207
    R3        2.03596  -0.00003  -0.00254   0.00076  -0.00179   2.03418
    R4        2.61648  -0.00100   0.00010  -0.00233  -0.00222   2.61426
    R5        2.04431   0.00085  -0.00271   0.00364   0.00093   2.04524
    R6        1.89375   0.00244  -0.00150   0.00637   0.00487   1.89862
    R7        1.89609  -0.00057  -0.00064  -0.00116  -0.00180   1.89429
    A1        2.12333   0.00043  -0.00052   0.00322   0.00269   2.12602
    A2        2.08876  -0.00025   0.00026  -0.00179  -0.00154   2.08722
    A3        2.07105  -0.00018   0.00025  -0.00135  -0.00111   2.06995
    A4        2.21529  -0.00227   0.00123  -0.01185  -0.01065   2.20464
    A5        2.08893   0.00090  -0.00051   0.00430   0.00376   2.09269
    A6        1.97819   0.00137  -0.00081   0.00770   0.00686   1.98505
    A7        2.07479  -0.00205  -0.00991  -0.02083  -0.03147   2.04332
    A8        2.03695   0.00180   0.01250  -0.00209   0.00968   2.04663
    A9        2.01399  -0.00088  -0.00504  -0.01650  -0.02247   1.99152
    D1        0.03442   0.00014   0.00391   0.00350   0.00742   0.04183
    D2        3.13061   0.00017  -0.00125   0.00788   0.00663   3.13724
    D3       -3.09666  -0.00007   0.00511  -0.00593  -0.00082  -3.09748
    D4       -0.00047  -0.00005  -0.00005  -0.00155  -0.00160  -0.00207
    D5       -0.36002  -0.00023  -0.00160   0.01235   0.01100  -0.34902
    D6       -2.90226   0.00196   0.00385   0.08512   0.08872  -2.81355
    D7        2.82453  -0.00025   0.00329   0.00824   0.01178   2.83631
    D8        0.28229   0.00194   0.00874   0.08101   0.08949   0.37178
         Item               Value     Threshold  Converged?
 Maximum Force            0.002440     0.000450     NO 
 RMS     Force            0.001162     0.000300     NO 
 Maximum Displacement     0.081041     0.001800     NO 
 RMS     Displacement     0.028831     0.001200     NO 
 Predicted change in Energy=-2.505178D-04
 GradGradGradGradGradGradGradGradGradGradGradGradGradGradGradGradGradGrad

                          Input orientation:                          
 ---------------------------------------------------------------------
 Center     Atomic      Atomic             Coordinates (Angstroms)
 Number     Number       Type             X           Y           Z
 ---------------------------------------------------------------------
      1          6           0        1.264073    0.012738    0.009417
      2          6           0        0.008675   -0.452156    0.000176
      3          1           0        1.479289    1.071553    0.027567
      4          1           0        2.087620   -0.680315   -0.003547
      5          7           0       -1.146403    0.308355   -0.034845
      6          1           0       -0.171410   -1.519130   -0.022160
      7          1           0       -1.070530    1.268558    0.250961
      8          1           0       -1.998318   -0.137198    0.248987
 ---------------------------------------------------------------------
                    Distance matrix (angstroms):
                    1          2          3          4          5
     1  C    0.000000
     2  C    1.338744   0.000000
     3  H    1.080618   2.117816   0.000000
     4  H    1.076439   2.091431   1.854744   0.000000
     5  N    2.428938   1.383405   2.735073   3.381915   0.000000
     6  H    2.099578   1.082295   3.072282   2.409808   2.071345
     7  H    2.661916   2.046567   2.567157   3.719784   1.004705
     8  H    3.274609   2.046735   3.688340   4.129605   1.002416
                    6          7          8
     6  H    0.000000
     7  H    2.941805   0.000000
     8  H    2.306696   1.684323   0.000000
 Stoichiometry    C2H5N
 Framework group  C1[X(C2H5N)]
 Deg. of freedom    18
 Full point group                 C1      NOp   1
 Largest Abelian subgroup         C1      NOp   1
 Largest concise Abelian subgroup C1      NOp   1
                         Standard orientation:                         
 ---------------------------------------------------------------------
 Center     Atomic      Atomic             Coordinates (Angstroms)
 Number     Number       Type             X           Y           Z
 ---------------------------------------------------------------------
      1          6           0       -1.251713   -0.196537    0.006436
      2          6           0       -0.067293    0.427454    0.002137
      3          1           0       -1.327799   -1.274344   -0.010231
      4          1           0       -2.158144    0.383779    0.024856
      5          7           0        1.175941   -0.175075   -0.069531
      6          1           0       -0.027152    1.508925    0.015216
      7          1           0        1.228820   -1.145965    0.183465
      8          1           0        1.966722    0.367627    0.221980
 ---------------------------------------------------------------------
 Rotational constants (GHZ):          57.6607893          10.0558481           8.6034150
 Standard basis: Aug-CC-pVTZ (5D, 7F)
 There are   290 symmetry adapted cartesian basis functions of A   symmetry.
 There are   253 symmetry adapted basis functions of A   symmetry.
   253 basis functions,   351 primitive gaussians,   290 cartesian basis functions
    12 alpha electrons       12 beta electrons
       nuclear repulsion energy        71.7029654080 Hartrees.
 NAtoms=    8 NActive=    8 NUniq=    8 SFac= 1.00D+00 NAtFMM=   60 NAOKFM=F Big=F
 Integral buffers will be    131072 words long.
 Raffenetti 1 integral format.
 Two-electron integral symmetry is turned on.
 One-electron integrals computed using PRISM.
 NBasis=   253 RedAO= T EigKep=  8.97D-06  NBF=   253
 NBsUse=   253 1.00D-06 EigRej= -1.00D+00 NBFU=   253
 Initial guess from the checkpoint file:  "/scr/Gau-34770.chk"
 B after Tr=     0.000000   -0.000000    0.000000
         Rot=    0.999999   -0.001074    0.000195    0.000610 Ang=  -0.14 deg.
 ExpMin= 2.53D-02 ExpMax= 1.14D+04 ExpMxC= 3.89D+02 IAcc=3 IRadAn=         5 AccDes= 0.00D+00
 Harris functional with IExCor=  205 and IRadAn=       5 diagonalized for initial guess.
 HarFok:  IExCor=  205 AccDes= 0.00D+00 IRadAn=         5 IDoV= 1 UseB2=F ITyADJ=14
 ICtDFT=  3500011 ScaDFX=  1.000000  1.000000  1.000000  1.000000
 FoFCou: FMM=F IPFlag=           0 FMFlag=      100000 FMFlg1=           0
         NFxFlg=           0 DoJE=T BraDBF=F KetDBF=T FulRan=T
         wScrn=  0.000000 ICntrl=       500 IOpCl=  0 I1Cent=   200000004 NGrid=           0
         NMat0=    1 NMatS0=      1 NMatT0=    0 NMatD0=    1 NMtDS0=    0 NMtDT0=    0
 Petite list used in FoFCou.
 Keep R1 ints in memory in canonical form, NReq=536182384.
 Requested convergence on RMS density matrix=1.00D-08 within 128 cycles.
 Requested convergence on MAX density matrix=1.00D-06.
 Requested convergence on             energy=1.00D-06.
 No special actions if energy rises.
 SCF Done:  E(RHF) =  -133.122076453     A.U. after   11 cycles
            NFock= 11  Conv=0.21D-08     -V/T= 2.0015
 ExpMin= 2.53D-02 ExpMax= 1.14D+04 ExpMxC= 3.89D+02 IAcc=3 IRadAn=         5 AccDes= 0.00D+00
 HarFok:  IExCor=  205 AccDes= 0.00D+00 IRadAn=         5 IDoV=-2 UseB2=F ITyADJ=14
 ICtDFT= 12500011 ScaDFX=  1.000000  1.000000  1.000000  1.000000
 Range of M.O.s used for correlation:     4   253
 NBasis=   253 NAE=    12 NBE=    12 NFC=     3 NFV=     0
 NROrb=    250 NOA=     9 NOB=     9 NVA=   241 NVB=   241

 **** Warning!!: The largest alpha MO coefficient is  0.50113790D+02

 Fully direct method using O(ONN) memory.
 JobTyp=1 Pass  1:  I=   4 to  12 NPSUse= 40 ParTrn=T ParDer=T DoDerP=T.
 Spin components of T(2) and E(2):
     alpha-alpha T2 =       0.2099076977D-01 E2=     -0.6405534330D-01
     alpha-beta  T2 =       0.1299872672D+00 E2=     -0.4262446110D+00
     beta-beta   T2 =       0.2099076977D-01 E2=     -0.6405534330D-01
 ANorm=    0.1082575081D+01
 E2 =    -0.5543552976D+00 EUMP2 =    -0.13367643175094D+03
          IDoAtm=11111111
          Differentiating once with respect to electric field.
                with respect to dipole field.
          Differentiating once with respect to nuclear coordinates.
 Keep R1 ints in memory in canonical form, NReq=536187123.
          There are     1 degrees of freedom in the 1st order CPHF.  IDoFFX=0 NUNeed=     1.
 LinEq1:  Iter=  0 NonCon=     1 RMS=2.96D-03 Max=6.93D-02 NDo=     1
 AX will form     1 AO Fock derivatives at one time.
 LinEq1:  Iter=  1 NonCon=     1 RMS=8.47D-04 Max=8.59D-03 NDo=     1
 LinEq1:  Iter=  2 NonCon=     1 RMS=2.66D-04 Max=4.31D-03 NDo=     1
 LinEq1:  Iter=  3 NonCon=     1 RMS=6.98D-05 Max=1.43D-03 NDo=     1
 LinEq1:  Iter=  4 NonCon=     1 RMS=2.63D-05 Max=4.94D-04 NDo=     1
 LinEq1:  Iter=  5 NonCon=     1 RMS=5.78D-06 Max=5.72D-05 NDo=     1
 LinEq1:  Iter=  6 NonCon=     1 RMS=1.54D-06 Max=2.68D-05 NDo=     1
 LinEq1:  Iter=  7 NonCon=     1 RMS=5.26D-07 Max=8.15D-06 NDo=     1
 LinEq1:  Iter=  8 NonCon=     1 RMS=1.74D-07 Max=1.76D-06 NDo=     1
 LinEq1:  Iter=  9 NonCon=     1 RMS=4.05D-08 Max=3.70D-07 NDo=     1
 LinEq1:  Iter= 10 NonCon=     1 RMS=6.47D-09 Max=4.86D-08 NDo=     1
 LinEq1:  Iter= 11 NonCon=     1 RMS=9.95D-10 Max=9.21D-09 NDo=     1
 LinEq1:  Iter= 12 NonCon=     1 RMS=2.06D-10 Max=2.10D-09 NDo=     1
 LinEq1:  Iter= 13 NonCon=     0 RMS=5.08D-11 Max=6.25D-10 NDo=     1
 Linear equations converged to 1.000D-10 1.000D-09 after    13 iterations.
 End of Minotr F.D. properties file   721 does not exist.
 End of Minotr F.D. properties file   722 does not exist.
 End of Minotr F.D. properties file   788 does not exist.
 Calling FoFJK, ICntrl=  10002127 FMM=F ISym2X=0 I1Cent= 0 IOpClX= 0 NMat=1 NMatS=1 NMatT=0.
 ***** Axes restored to original set *****
 -------------------------------------------------------------------
 Center     Atomic                   Forces (Hartrees/Bohr)
 Number     Number              X              Y              Z
 -------------------------------------------------------------------
      1        6           0.000447188    0.000411331    0.000674298
      2        6          -0.000335914   -0.001684763    0.001418650
      3        1           0.000145598    0.000557087    0.000059740
      4        1           0.000706380   -0.000329862   -0.000334915
      5        7          -0.000650364    0.000869258   -0.003706371
      6        1           0.000134812   -0.000460505   -0.000756333
      7        1           0.000006839    0.001131048    0.000610893
      8        1          -0.000454538   -0.000493593    0.002034039
 -------------------------------------------------------------------
 Cartesian Forces:  Max     0.003706371 RMS     0.001095461

 GradGradGradGradGradGradGradGradGradGradGradGradGradGradGradGradGradGrad
 Berny optimization.
 Using GEDIIS/GDIIS optimizer.
 FormGI is forming the generalized inverse of G from B-inverse, IUseBI=4.
 Internal  Forces:  Max     0.001772001 RMS     0.000805708
 Search for a local minimum.
 Step number   3 out of a maximum of   34
 All quantities printed in internal units (Hartrees-Bohrs-Radians)
 Mixed Optimization -- En-DIIS/RFO-DIIS
 Update second derivatives using D2CorX and points    1    2    3
 DE= -3.75D-04 DEPred=-2.51D-04 R= 1.50D+00
 TightC=F SS=  1.41D+00  RLast= 1.34D-01 DXNew= 8.4853D-01 4.0316D-01
 Trust test= 1.50D+00 RLast= 1.34D-01 DXMaxT set to 5.05D-01
 ITU=  1  1  0
 Use linear search instead of GDIIS.
     Eigenvalues ---    0.00824   0.02355   0.02615   0.02698   0.02850
     Eigenvalues ---    0.15896   0.15996   0.16000   0.16070   0.19497
     Eigenvalues ---    0.22436   0.34388   0.34774   0.35839   0.46347
     Eigenvalues ---    0.47000   0.51185   0.58085
 RFO step:  Lambda=-2.47519529D-04 EMin= 8.23618190D-03
 Quartic linear search produced a step of  0.83754.
 Iteration  1 RMS(Cart)=  0.03945171 RMS(Int)=  0.00254452
 Iteration  2 RMS(Cart)=  0.00228784 RMS(Int)=  0.00119576
 Iteration  3 RMS(Cart)=  0.00000356 RMS(Int)=  0.00119576
 Iteration  4 RMS(Cart)=  0.00000001 RMS(Int)=  0.00119576
 Variable       Old X    -DE/DX   Delta X   Delta X   Delta X     New X
                                 (Linear)    (Quad)   (Total)
    R1        2.52986   0.00144  -0.00233   0.00254   0.00021   2.53007
    R2        2.04207   0.00058  -0.00003   0.00067   0.00064   2.04271
    R3        2.03418   0.00076  -0.00150   0.00219   0.00070   2.03487
    R4        2.61426   0.00177  -0.00186   0.00708   0.00522   2.61947
    R5        2.04524   0.00045   0.00078  -0.00026   0.00052   2.04576
    R6        1.89862   0.00126   0.00408   0.00200   0.00608   1.90470
    R7        1.89429   0.00118  -0.00151   0.00439   0.00289   1.89718
    A1        2.12602  -0.00009   0.00225  -0.00224  -0.00002   2.12600
    A2        2.08722   0.00025  -0.00129   0.00334   0.00202   2.08923
    A3        2.06995  -0.00016  -0.00093  -0.00113  -0.00209   2.06786
    A4        2.20464  -0.00059  -0.00892  -0.00056  -0.00957   2.19507
    A5        2.09269   0.00011   0.00315  -0.00156   0.00150   2.09419
    A6        1.98505   0.00048   0.00575   0.00124   0.00690   1.99195
    A7        2.04332   0.00002  -0.02636  -0.01017  -0.03924   2.00408
    A8        2.04663  -0.00108   0.00810  -0.01626  -0.01084   2.03579
    A9        1.99152  -0.00005  -0.01882  -0.01246  -0.03504   1.95648
    D1        0.04183   0.00018   0.00621   0.01384   0.02004   0.06187
    D2        3.13724  -0.00010   0.00555  -0.01110  -0.00553   3.13171
    D3       -3.09748   0.00043  -0.00068   0.03370   0.03300  -3.06447
    D4       -0.00207   0.00015  -0.00134   0.00876   0.00743   0.00536
    D5       -0.34902  -0.00035   0.00922  -0.00528   0.00511  -0.34391
    D6       -2.81355   0.00128   0.07430   0.05617   0.12928  -2.68427
    D7        2.83631  -0.00008   0.00987   0.01840   0.02947   2.86578
    D8        0.37178   0.00155   0.07495   0.07985   0.15364   0.52542
         Item               Value     Threshold  Converged?
 Maximum Force            0.001772     0.000450     NO 
 RMS     Force            0.000806     0.000300     NO 
 Maximum Displacement     0.119782     0.001800     NO 
 RMS     Displacement     0.039729     0.001200     NO 
 Predicted change in Energy=-2.462630D-04
 GradGradGradGradGradGradGradGradGradGradGradGradGradGradGradGradGradGrad

                          Input orientation:                          
 ---------------------------------------------------------------------
 Center     Atomic      Atomic             Coordinates (Angstroms)
 Number     Number       Type             X           Y           Z
 ---------------------------------------------------------------------
      1          6           0        1.253939    0.014297    0.021217
      2          6           0        0.003235   -0.462666   -0.006730
      3          1           0        1.458579    1.075220    0.053264
      4          1           0        2.086113   -0.668669   -0.002420
      5          7           0       -1.153212    0.299088   -0.068524
      6          1           0       -0.167711   -1.530861   -0.047859
      7          1           0       -1.042720    1.259911    0.215235
      8          1           0       -1.985226   -0.113915    0.312372
 ---------------------------------------------------------------------
                    Distance matrix (angstroms):
                    1          2          3          4          5
     1  C    0.000000
     2  C    1.338856   0.000000
     3  H    1.080954   2.118188   0.000000
     4  H    1.076809   2.093045   1.854198   0.000000
     5  N    2.425600   1.386166   2.727392   3.381442   0.000000
     6  H    2.100803   1.082569   3.073549   2.413537   2.078546
     7  H    2.619893   2.027452   2.513333   3.681901   1.007922
     8  H    3.254751   2.043877   3.652530   4.121001   1.003943
                    6          7          8
     6  H    0.000000
     7  H    2.936540   0.000000
     8  H    2.332567   1.668877   0.000000
 Stoichiometry    C2H5N
 Framework group  C1[X(C2H5N)]
 Deg. of freedom    18
 Full point group                 C1      NOp   1
 Largest Abelian subgroup         C1      NOp   1
 Largest concise Abelian subgroup C1      NOp   1
                         Standard orientation:                         
 ---------------------------------------------------------------------
 Center     Atomic      Atomic             Coordinates (Angstroms)
 Number     Number       Type             X           Y           Z
 ---------------------------------------------------------------------
      1          6           0       -1.246288   -0.198991    0.011887
      2          6           0       -0.066522    0.433942    0.002797
      3          1           0       -1.314180   -1.277798    0.006593
      4          1           0       -2.158663    0.372923    0.010576
      5          7           0        1.177286   -0.171832   -0.083437
      6          1           0       -0.033001    1.515986   -0.000792
      7          1           0        1.190711   -1.148187    0.166482
      8          1           0        1.950997    0.330198    0.313094
 ---------------------------------------------------------------------
 Rotational constants (GHZ):          56.8087795          10.1035588           8.6388375
 Standard basis: Aug-CC-pVTZ (5D, 7F)
 There are   290 symmetry adapted cartesian basis functions of A   symmetry.
 There are   253 symmetry adapted basis functions of A   symmetry.
   253 basis functions,   351 primitive gaussians,   290 cartesian basis functions
    12 alpha electrons       12 beta electrons
       nuclear repulsion energy        71.7075105674 Hartrees.
 NAtoms=    8 NActive=    8 NUniq=    8 SFac= 1.00D+00 NAtFMM=   60 NAOKFM=F Big=F
 Integral buffers will be    131072 words long.
 Raffenetti 1 integral format.
 Two-electron integral symmetry is turned on.
 One-electron integrals computed using PRISM.
 NBasis=   253 RedAO= T EigKep=  9.56D-06  NBF=   253
 NBsUse=   253 1.00D-06 EigRej= -1.00D+00 NBFU=   253
 Initial guess from the checkpoint file:  "/scr/Gau-34770.chk"
 B after Tr=     0.000000    0.000000   -0.000000
         Rot=    0.999998   -0.001711    0.000367    0.000151 Ang=  -0.20 deg.
 ExpMin= 2.53D-02 ExpMax= 1.14D+04 ExpMxC= 3.89D+02 IAcc=3 IRadAn=         5 AccDes= 0.00D+00
 Harris functional with IExCor=  205 and IRadAn=       5 diagonalized for initial guess.
 HarFok:  IExCor=  205 AccDes= 0.00D+00 IRadAn=         5 IDoV= 1 UseB2=F ITyADJ=14
 ICtDFT=  3500011 ScaDFX=  1.000000  1.000000  1.000000  1.000000
 FoFCou: FMM=F IPFlag=           0 FMFlag=      100000 FMFlg1=           0
         NFxFlg=           0 DoJE=T BraDBF=F KetDBF=T FulRan=T
         wScrn=  0.000000 ICntrl=       500 IOpCl=  0 I1Cent=   200000004 NGrid=           0
         NMat0=    1 NMatS0=      1 NMatT0=    0 NMatD0=    1 NMtDS0=    0 NMtDT0=    0
 Petite list used in FoFCou.
 Keep R1 ints in memory in canonical form, NReq=536182443.
 Requested convergence on RMS density matrix=1.00D-08 within 128 cycles.
 Requested convergence on MAX density matrix=1.00D-06.
 Requested convergence on             energy=1.00D-06.
 No special actions if energy rises.
 SCF Done:  E(RHF) =  -133.122246035     A.U. after   11 cycles
            NFock= 11  Conv=0.31D-08     -V/T= 2.0015
 ExpMin= 2.53D-02 ExpMax= 1.14D+04 ExpMxC= 3.89D+02 IAcc=3 IRadAn=         5 AccDes= 0.00D+00
 HarFok:  IExCor=  205 AccDes= 0.00D+00 IRadAn=         5 IDoV=-2 UseB2=F ITyADJ=14
 ICtDFT= 12500011 ScaDFX=  1.000000  1.000000  1.000000  1.000000
 Range of M.O.s used for correlation:     4   253
 NBasis=   253 NAE=    12 NBE=    12 NFC=     3 NFV=     0
 NROrb=    250 NOA=     9 NOB=     9 NVA=   241 NVB=   241

 **** Warning!!: The largest alpha MO coefficient is  0.52313327D+02

 Fully direct method using O(ONN) memory.
 JobTyp=1 Pass  1:  I=   4 to  12 NPSUse= 40 ParTrn=T ParDer=T DoDerP=T.
 Spin components of T(2) and E(2):
     alpha-alpha T2 =       0.2099999729D-01 E2=     -0.6403144245D-01
     alpha-beta  T2 =       0.1301599760D+00 E2=     -0.4264091972D+00
     beta-beta   T2 =       0.2099999729D-01 E2=     -0.6403144245D-01
 ANorm=    0.1082663369D+01
 E2 =    -0.5544720821D+00 EUMP2 =    -0.13367671811693D+03
          IDoAtm=11111111
          Differentiating once with respect to electric field.
                with respect to dipole field.
          Differentiating once with respect to nuclear coordinates.
 Keep R1 ints in memory in canonical form, NReq=536187123.
          There are     1 degrees of freedom in the 1st order CPHF.  IDoFFX=0 NUNeed=     1.
 LinEq1:  Iter=  0 NonCon=     1 RMS=2.96D-03 Max=6.82D-02 NDo=     1
 AX will form     1 AO Fock derivatives at one time.
 LinEq1:  Iter=  1 NonCon=     1 RMS=8.47D-04 Max=8.21D-03 NDo=     1
 LinEq1:  Iter=  2 NonCon=     1 RMS=2.65D-04 Max=4.26D-03 NDo=     1
 LinEq1:  Iter=  3 NonCon=     1 RMS=6.99D-05 Max=1.44D-03 NDo=     1
 LinEq1:  Iter=  4 NonCon=     1 RMS=2.63D-05 Max=4.86D-04 NDo=     1
 LinEq1:  Iter=  5 NonCon=     1 RMS=5.83D-06 Max=5.81D-05 NDo=     1
 LinEq1:  Iter=  6 NonCon=     1 RMS=1.57D-06 Max=2.55D-05 NDo=     1
 LinEq1:  Iter=  7 NonCon=     1 RMS=5.24D-07 Max=7.61D-06 NDo=     1
 LinEq1:  Iter=  8 NonCon=     1 RMS=1.73D-07 Max=1.78D-06 NDo=     1
 LinEq1:  Iter=  9 NonCon=     1 RMS=4.08D-08 Max=4.02D-07 NDo=     1
 LinEq1:  Iter= 10 NonCon=     1 RMS=6.75D-09 Max=5.31D-08 NDo=     1
 LinEq1:  Iter= 11 NonCon=     1 RMS=1.12D-09 Max=1.19D-08 NDo=     1
 LinEq1:  Iter= 12 NonCon=     1 RMS=2.39D-10 Max=2.58D-09 NDo=     1
 LinEq1:  Iter= 13 NonCon=     0 RMS=5.66D-11 Max=6.45D-10 NDo=     1
 Linear equations converged to 1.000D-10 1.000D-09 after    13 iterations.
 End of Minotr F.D. properties file   721 does not exist.
 End of Minotr F.D. properties file   722 does not exist.
 End of Minotr F.D. properties file   788 does not exist.
 Calling FoFJK, ICntrl=  10002127 FMM=F ISym2X=0 I1Cent= 0 IOpClX= 0 NMat=1 NMatS=1 NMatT=0.
 ***** Axes restored to original set *****
 -------------------------------------------------------------------
 Center     Atomic                   Forces (Hartrees/Bohr)
 Number     Number              X              Y              Z
 -------------------------------------------------------------------
      1        6           0.000494499   -0.000453172    0.000368881
      2        6           0.001203334   -0.002070160    0.000176195
      3        1          -0.000055447    0.000455938    0.000037140
      4        1           0.000584466   -0.000278517   -0.000016197
      5        7          -0.001087179    0.004071855   -0.001397477
      6        1          -0.000148139   -0.000199456   -0.000169013
      7        1          -0.000519921    0.000448763   -0.000336244
      8        1          -0.000471613   -0.001975252    0.001336715
 -------------------------------------------------------------------
 Cartesian Forces:  Max     0.004071855 RMS     0.001177624

 GradGradGradGradGradGradGradGradGradGradGradGradGradGradGradGradGradGrad
 Berny optimization.
 Using GEDIIS/GDIIS optimizer.
 FormGI is forming the generalized inverse of G from B-inverse, IUseBI=4.
 Internal  Forces:  Max     0.003150702 RMS     0.001055827
 Search for a local minimum.
 Step number   4 out of a maximum of   34
 All quantities printed in internal units (Hartrees-Bohrs-Radians)
 Mixed Optimization -- RFO/linear search
 Update second derivatives using D2CorX and points    1    2    3    4
 DE= -2.86D-04 DEPred=-2.46D-04 R= 1.16D+00
 TightC=F SS=  1.41D+00  RLast= 2.14D-01 DXNew= 8.4853D-01 6.4271D-01
 Trust test= 1.16D+00 RLast= 2.14D-01 DXMaxT set to 6.43D-01
 ITU=  1  1  1  0
 Use linear search instead of GDIIS.
     Eigenvalues ---    0.00678   0.02409   0.02646   0.02784   0.03083
     Eigenvalues ---    0.15931   0.15990   0.16002   0.16080   0.19469
     Eigenvalues ---    0.23705   0.34397   0.34846   0.35110   0.45940
     Eigenvalues ---    0.46953   0.53353   0.56487
 RFO step:  Lambda=-1.03414331D-04 EMin= 6.78248279D-03
 Quartic linear search produced a step of  0.17936.
 Iteration  1 RMS(Cart)=  0.01660521 RMS(Int)=  0.00048159
 Iteration  2 RMS(Cart)=  0.00036641 RMS(Int)=  0.00027036
 Iteration  3 RMS(Cart)=  0.00000013 RMS(Int)=  0.00027036
 Variable       Old X    -DE/DX   Delta X   Delta X   Delta X     New X
                                 (Linear)    (Quad)   (Total)
    R1        2.53007   0.00087   0.00004   0.00077   0.00081   2.53088
    R2        2.04271   0.00044   0.00011   0.00106   0.00117   2.04388
    R3        2.03487   0.00063   0.00013   0.00121   0.00133   2.03621
    R4        2.61947   0.00315   0.00094   0.00578   0.00671   2.62619
    R5        2.04576   0.00023   0.00009   0.00067   0.00076   2.04652
    R6        1.90470   0.00028   0.00109   0.00119   0.00228   1.90698
    R7        1.89718   0.00171   0.00052   0.00309   0.00360   1.90078
    A1        2.12600  -0.00030  -0.00000  -0.00131  -0.00132   2.12468
    A2        2.08923   0.00031   0.00036   0.00148   0.00184   2.09108
    A3        2.06786  -0.00001  -0.00037  -0.00013  -0.00051   2.06735
    A4        2.19507   0.00076  -0.00172   0.00194   0.00021   2.19527
    A5        2.09419  -0.00024   0.00027  -0.00010   0.00016   2.09434
    A6        1.99195  -0.00051   0.00124  -0.00151  -0.00029   1.99166
    A7        2.00408   0.00164  -0.00704   0.00361  -0.00402   2.00006
    A8        2.03579  -0.00281  -0.00194  -0.01554  -0.01807   2.01772
    A9        1.95648   0.00059  -0.00629  -0.00160  -0.00874   1.94774
    D1        0.06187  -0.00004   0.00359  -0.00084   0.00275   0.06462
    D2        3.13171   0.00008  -0.00099   0.00502   0.00403   3.13574
    D3       -3.06447  -0.00005   0.00592  -0.00410   0.00182  -3.06265
    D4        0.00536   0.00007   0.00133   0.00176   0.00310   0.00846
    D5       -0.34391   0.00015   0.00092   0.01427   0.01546  -0.32845
    D6       -2.68427   0.00051   0.02319   0.03023   0.05313  -2.63113
    D7        2.86578   0.00003   0.00529   0.00867   0.01424   2.88001
    D8        0.52542   0.00039   0.02756   0.02463   0.05191   0.57733
         Item               Value     Threshold  Converged?
 Maximum Force            0.003151     0.000450     NO 
 RMS     Force            0.001056     0.000300     NO 
 Maximum Displacement     0.055743     0.001800     NO 
 RMS     Displacement     0.016679     0.001200     NO 
 Predicted change in Energy=-6.292505D-05
 GradGradGradGradGradGradGradGradGradGradGradGradGradGradGradGradGradGrad

                          Input orientation:                          
 ---------------------------------------------------------------------
 Center     Atomic      Atomic             Coordinates (Angstroms)
 Number     Number       Type             X           Y           Z
 ---------------------------------------------------------------------
      1          6           0        1.252327    0.013350    0.024315
      2          6           0        0.001690   -0.464293   -0.013667
      3          1           0        1.454845    1.075021    0.064893
      4          1           0        2.086834   -0.667901    0.001289
      5          7           0       -1.157886    0.298831   -0.079565
      6          1           0       -0.168648   -1.532804   -0.059433
      7          1           0       -1.042749    1.262512    0.196853
      8          1           0       -1.973416   -0.112310    0.341871
 ---------------------------------------------------------------------
                    Distance matrix (angstroms):
                    1          2          3          4          5
     1  C    0.000000
     2  C    1.339283   0.000000
     3  H    1.081575   2.118330   0.000000
     4  H    1.077514   2.095115   1.855056   0.000000
     5  N    2.429283   1.389718   2.729414   3.386638   0.000000
     6  H    2.101613   1.082971   3.074401   2.416391   2.081798
     7  H    2.618692   2.029046   2.508095   3.682259   1.009131
     8  H    3.243771   2.037484   3.638605   4.112215   1.005850
                    6          7          8
     6  H    0.000000
     7  H    2.939988   0.000000
     8  H    2.331531   1.666526   0.000000
 Stoichiometry    C2H5N
 Framework group  C1[X(C2H5N)]
 Deg. of freedom    18
 Full point group                 C1      NOp   1
 Largest Abelian subgroup         C1      NOp   1
 Largest concise Abelian subgroup C1      NOp   1
                         Standard orientation:                         
 ---------------------------------------------------------------------
 Center     Atomic      Atomic             Coordinates (Angstroms)
 Number     Number       Type             X           Y           Z
 ---------------------------------------------------------------------
      1          6           0       -1.246424   -0.199930    0.013918
      2          6           0       -0.067287    0.434988   -0.000085
      3          1           0       -1.311237   -1.279560    0.015190
      4          1           0       -2.161342    0.369238    0.010885
      5          7           0        1.180579   -0.170465   -0.087102
      6          1           0       -0.035262    1.517467   -0.006470
      7          1           0        1.189688   -1.150365    0.153853
      8          1           0        1.936369    0.326122    0.353260
 ---------------------------------------------------------------------
 Rotational constants (GHZ):          56.5056349          10.0854612           8.6275242
 Standard basis: Aug-CC-pVTZ (5D, 7F)
 There are   290 symmetry adapted cartesian basis functions of A   symmetry.
 There are   253 symmetry adapted basis functions of A   symmetry.
   253 basis functions,   351 primitive gaussians,   290 cartesian basis functions
    12 alpha electrons       12 beta electrons
       nuclear repulsion energy        71.6329944630 Hartrees.
 NAtoms=    8 NActive=    8 NUniq=    8 SFac= 1.00D+00 NAtFMM=   60 NAOKFM=F Big=F
 Integral buffers will be    131072 words long.
 Raffenetti 1 integral format.
 Two-electron integral symmetry is turned on.
 One-electron integrals computed using PRISM.
 NBasis=   253 RedAO= T EigKep=  9.72D-06  NBF=   253
 NBsUse=   253 1.00D-06 EigRej= -1.00D+00 NBFU=   253
 Initial guess from the checkpoint file:  "/scr/Gau-34770.chk"
 B after Tr=    -0.000000    0.000000   -0.000000
         Rot=    1.000000   -0.000365    0.000227   -0.000466 Ang=  -0.07 deg.
 ExpMin= 2.53D-02 ExpMax= 1.14D+04 ExpMxC= 3.89D+02 IAcc=3 IRadAn=         5 AccDes= 0.00D+00
 Harris functional with IExCor=  205 and IRadAn=       5 diagonalized for initial guess.
 HarFok:  IExCor=  205 AccDes= 0.00D+00 IRadAn=         5 IDoV= 1 UseB2=F ITyADJ=14
 ICtDFT=  3500011 ScaDFX=  1.000000  1.000000  1.000000  1.000000
 FoFCou: FMM=F IPFlag=           0 FMFlag=      100000 FMFlg1=           0
         NFxFlg=           0 DoJE=T BraDBF=F KetDBF=T FulRan=T
         wScrn=  0.000000 ICntrl=       500 IOpCl=  0 I1Cent=   200000004 NGrid=           0
         NMat0=    1 NMatS0=      1 NMatT0=    0 NMatD0=    1 NMtDS0=    0 NMtDT0=    0
 Petite list used in FoFCou.
 Keep R1 ints in memory in canonical form, NReq=536182384.
 Requested convergence on RMS density matrix=1.00D-08 within 128 cycles.
 Requested convergence on MAX density matrix=1.00D-06.
 Requested convergence on             energy=1.00D-06.
 No special actions if energy rises.
 SCF Done:  E(RHF) =  -133.122217704     A.U. after   10 cycles
            NFock= 10  Conv=0.67D-08     -V/T= 2.0016
 ExpMin= 2.53D-02 ExpMax= 1.14D+04 ExpMxC= 3.89D+02 IAcc=3 IRadAn=         5 AccDes= 0.00D+00
 HarFok:  IExCor=  205 AccDes= 0.00D+00 IRadAn=         5 IDoV=-2 UseB2=F ITyADJ=14
 ICtDFT= 12500011 ScaDFX=  1.000000  1.000000  1.000000  1.000000
 Range of M.O.s used for correlation:     4   253
 NBasis=   253 NAE=    12 NBE=    12 NFC=     3 NFV=     0
 NROrb=    250 NOA=     9 NOB=     9 NVA=   241 NVB=   241

 **** Warning!!: The largest alpha MO coefficient is  0.53323555D+02

 Fully direct method using O(ONN) memory.
 JobTyp=1 Pass  1:  I=   4 to  12 NPSUse= 40 ParTrn=T ParDer=T DoDerP=T.
 Spin components of T(2) and E(2):
     alpha-alpha T2 =       0.2101657811D-01 E2=     -0.6401674046D-01
     alpha-beta  T2 =       0.1303448399D+00 E2=     -0.4265481209D+00
     beta-beta   T2 =       0.2101657811D-01 E2=     -0.6401674046D-01
 ANorm=    0.1082764054D+01
 E2 =    -0.5545816018D+00 EUMP2 =    -0.13367679930577D+03
          IDoAtm=11111111
          Differentiating once with respect to electric field.
                with respect to dipole field.
          Differentiating once with respect to nuclear coordinates.
 Keep R1 ints in memory in canonical form, NReq=536187064.
          There are     1 degrees of freedom in the 1st order CPHF.  IDoFFX=0 NUNeed=     1.
 LinEq1:  Iter=  0 NonCon=     1 RMS=2.97D-03 Max=6.80D-02 NDo=     1
 AX will form     1 AO Fock derivatives at one time.
 LinEq1:  Iter=  1 NonCon=     1 RMS=8.47D-04 Max=7.99D-03 NDo=     1
 LinEq1:  Iter=  2 NonCon=     1 RMS=2.65D-04 Max=4.27D-03 NDo=     1
 LinEq1:  Iter=  3 NonCon=     1 RMS=7.01D-05 Max=1.45D-03 NDo=     1
 LinEq1:  Iter=  4 NonCon=     1 RMS=2.64D-05 Max=4.82D-04 NDo=     1
 LinEq1:  Iter=  5 NonCon=     1 RMS=5.85D-06 Max=5.81D-05 NDo=     1
 LinEq1:  Iter=  6 NonCon=     1 RMS=1.58D-06 Max=2.46D-05 NDo=     1
 LinEq1:  Iter=  7 NonCon=     1 RMS=5.24D-07 Max=7.39D-06 NDo=     1
 LinEq1:  Iter=  8 NonCon=     1 RMS=1.73D-07 Max=1.81D-06 NDo=     1
 LinEq1:  Iter=  9 NonCon=     1 RMS=4.10D-08 Max=4.18D-07 NDo=     1
 LinEq1:  Iter= 10 NonCon=     1 RMS=6.87D-09 Max=6.02D-08 NDo=     1
 LinEq1:  Iter= 11 NonCon=     1 RMS=1.16D-09 Max=1.24D-08 NDo=     1
 LinEq1:  Iter= 12 NonCon=     1 RMS=2.51D-10 Max=2.66D-09 NDo=     1
 LinEq1:  Iter= 13 NonCon=     0 RMS=5.85D-11 Max=6.35D-10 NDo=     1
 Linear equations converged to 1.000D-10 1.000D-09 after    13 iterations.
 End of Minotr F.D. properties file   721 does not exist.
 End of Minotr F.D. properties file   722 does not exist.
 End of Minotr F.D. properties file   788 does not exist.
 Calling FoFJK, ICntrl=  10002127 FMM=F ISym2X=0 I1Cent= 0 IOpClX= 0 NMat=1 NMatS=1 NMatT=0.
 ***** Axes restored to original set *****
 -------------------------------------------------------------------
 Center     Atomic                   Forces (Hartrees/Bohr)
 Number     Number              X              Y              Z
 -------------------------------------------------------------------
      1        6           0.000099438   -0.000432746    0.000209120
      2        6           0.001369163   -0.000745573    0.000430040
      3        1          -0.000092019    0.000061995   -0.000031002
      4        1           0.000173604   -0.000057962   -0.000122671
      5        7          -0.000945638    0.002368694   -0.000403094
      6        1          -0.000262908    0.000121131   -0.000135459
      7        1          -0.000186312   -0.000220936   -0.000394733
      8        1          -0.000155328   -0.001094603    0.000447798
 -------------------------------------------------------------------
 Cartesian Forces:  Max     0.002368694 RMS     0.000687685

 GradGradGradGradGradGradGradGradGradGradGradGradGradGradGradGradGradGrad
 Berny optimization.
 Using GEDIIS/GDIIS optimizer.
 FormGI is forming the generalized inverse of G from B-inverse, IUseBI=4.
 Internal  Forces:  Max     0.001669011 RMS     0.000555595
 Search for a local minimum.
 Step number   5 out of a maximum of   34
 All quantities printed in internal units (Hartrees-Bohrs-Radians)
 Mixed Optimization -- En-DIIS/RFO-DIIS
 Update second derivatives using D2CorX and points    1    2    3    4    5
 DE= -8.12D-05 DEPred=-6.29D-05 R= 1.29D+00
 TightC=F SS=  1.41D+00  RLast= 8.06D-02 DXNew= 1.0809D+00 2.4165D-01
 Trust test= 1.29D+00 RLast= 8.06D-02 DXMaxT set to 6.43D-01
 ITU=  1  1  1  1  0
 Use linear search instead of GDIIS.
     Eigenvalues ---    0.00711   0.02432   0.02651   0.02839   0.03314
     Eigenvalues ---    0.14862   0.15922   0.15999   0.16128   0.16282
     Eigenvalues ---    0.23589   0.34388   0.34886   0.35529   0.45179
     Eigenvalues ---    0.46937   0.50755   0.55862
 RFO step:  Lambda=-1.82245946D-05 EMin= 7.10897875D-03
 Quartic linear search produced a step of  0.50089.
 Iteration  1 RMS(Cart)=  0.00761575 RMS(Int)=  0.00009646
 Iteration  2 RMS(Cart)=  0.00007043 RMS(Int)=  0.00006160
 Iteration  3 RMS(Cart)=  0.00000001 RMS(Int)=  0.00006160
 Variable       Old X    -DE/DX   Delta X   Delta X   Delta X     New X
                                 (Linear)    (Quad)   (Total)
    R1        2.53088   0.00002   0.00040  -0.00040   0.00000   2.53088
    R2        2.04388   0.00004   0.00059  -0.00007   0.00052   2.04440
    R3        2.03621   0.00017   0.00067   0.00004   0.00071   2.03691
    R4        2.62619   0.00167   0.00336   0.00119   0.00455   2.63074
    R5        2.04652  -0.00007   0.00038  -0.00017   0.00021   2.04673
    R6        1.90698  -0.00034   0.00114  -0.00111   0.00003   1.90702
    R7        1.90078   0.00076   0.00181   0.00031   0.00211   1.90290
    A1        2.12468  -0.00018  -0.00066  -0.00043  -0.00110   2.12358
    A2        2.09108   0.00015   0.00092   0.00009   0.00101   2.09208
    A3        2.06735   0.00003  -0.00026   0.00027   0.00001   2.06736
    A4        2.19527   0.00076   0.00010   0.00269   0.00279   2.19807
    A5        2.09434  -0.00009   0.00008   0.00070   0.00077   2.09511
    A6        1.99166  -0.00067  -0.00015  -0.00366  -0.00381   1.98785
    A7        2.00006   0.00074  -0.00201   0.00432   0.00217   2.00223
    A8        2.01772  -0.00141  -0.00905  -0.00315  -0.01233   2.00539
    A9        1.94774   0.00047  -0.00438   0.00505   0.00048   1.94822
    D1        0.06462   0.00002   0.00138   0.00060   0.00198   0.06661
    D2        3.13574  -0.00007   0.00202  -0.00449  -0.00247   3.13327
    D3       -3.06265   0.00015   0.00091   0.00625   0.00717  -3.05548
    D4        0.00846   0.00006   0.00155   0.00116   0.00271   0.01118
    D5       -0.32845   0.00005   0.00774  -0.00144   0.00637  -0.32208
    D6       -2.63113   0.00002   0.02661  -0.01041   0.01615  -2.61499
    D7        2.88001   0.00012   0.00713   0.00325   0.01044   2.89045
    D8        0.57733   0.00009   0.02600  -0.00571   0.02022   0.59755
         Item               Value     Threshold  Converged?
 Maximum Force            0.001669     0.000450     NO 
 RMS     Force            0.000556     0.000300     NO 
 Maximum Displacement     0.020697     0.001800     NO 
 RMS     Displacement     0.007625     0.001200     NO 
 Predicted change in Energy=-1.954047D-05
 GradGradGradGradGradGradGradGradGradGradGradGradGradGradGradGradGradGrad

                          Input orientation:                          
 ---------------------------------------------------------------------
 Center     Atomic      Atomic             Coordinates (Angstroms)
 Number     Number       Type             X           Y           Z
 ---------------------------------------------------------------------
      1          6           0        1.253259    0.012343    0.027308
      2          6           0        0.001915   -0.463187   -0.013835
      3          1           0        1.456326    1.074106    0.069972
      4          1           0        2.087732   -0.669382   -0.000007
      5          7           0       -1.160334    0.299966   -0.083092
      6          1           0       -0.170888   -1.531220   -0.063966
      7          1           0       -1.047815    1.265668    0.187353
      8          1           0       -1.967198   -0.115888    0.352823
 ---------------------------------------------------------------------
                    Distance matrix (angstroms):
                    1          2          3          4          5
     1  C    0.000000
     2  C    1.339285   0.000000
     3  H    1.081848   2.117924   0.000000
     4  H    1.077887   2.096030   1.855619   0.000000
     5  N    2.433176   1.392128   2.733062   3.390644   0.000000
     6  H    2.102169   1.083083   3.074652   2.418309   2.081492
     7  H    2.625144   2.032572   2.514199   3.689333   1.009149
     8  H    3.239406   2.032846   3.635465   4.107713   1.006969
                    6          7          8
     6  H    0.000000
     7  H    2.941895   0.000000
     8  H    2.324566   1.667736   0.000000
 Stoichiometry    C2H5N
 Framework group  C1[X(C2H5N)]
 Deg. of freedom    18
 Full point group                 C1      NOp   1
 Largest Abelian subgroup         C1      NOp   1
 Largest concise Abelian subgroup C1      NOp   1
                         Standard orientation:                         
 ---------------------------------------------------------------------
 Center     Atomic      Atomic             Coordinates (Angstroms)
 Number     Number       Type             X           Y           Z
 ---------------------------------------------------------------------
      1          6           0       -1.247763   -0.199851    0.015283
      2          6           0       -0.068103    0.434061   -0.000217
      3          1           0       -1.312302   -1.279767    0.018817
      4          1           0       -2.163120    0.369256    0.006356
      5          7           0        1.183020   -0.170038   -0.088400
      6          1           0       -0.034365    1.516563   -0.011201
      7          1           0        1.195349   -1.151317    0.146806
      8          1           0        1.928490    0.330266    0.367623
 ---------------------------------------------------------------------
 Rotational constants (GHZ):          56.4929028          10.0598420           8.6118072
 Standard basis: Aug-CC-pVTZ (5D, 7F)
[...]
 7,-0.00035059,0.00021396,0.00000192,0.00907950,-0.00260652,0.00019668,
 -0.01420626,-0.11130090,-0.00008319,0.00017121,0.00204170,-0.00039888,
 0.00560138,-0.00566685,0.00013188,0.00004788,-0.00095472,-0.00004139,-
 0.00000812,-0.00009920,0.00000481,-0.00059679,-0.00059752,-0.00017555,
 -0.00525896,0.00603450,0.00176503,0.00138164,0.00028979,-0.00910928,-0
 .00381378,-0.00184674,-0.00001769,-0.00023833,-0.00013611,-0.00007991,
 -0.00034967,-0.00004469,-0.00545868,0.00986053,0.00250374,0.00231131,-
 0.00199191,0.00045505,0.01131466,0.00030701,0.00032436,0.00001898,0.00
 602762,-0.00194855,0.00166344,0.00019739,-0.00001836,0.00000647,0.0001
 4013,-0.00004568,-0.00000091,0.00708250,0.10345450,0.02603869,-0.00097
 418,-0.00081771,-0.00005127,-0.00987902,-0.09721617,-0.00070450,0.0000
 4130,0.00053498,0.00167112,0.00016601,0.00110022,0.00000687,-0.0000368
 7,-0.00053334,-0.00006287,-0.00002282,-0.00013826,0.00373680,0.0333445
 8,0.00517307,0.00019302,-0.00021227,-0.00114280,-0.00518597,-0.0302769
 6,-0.00414147,-0.00105936,0.00024967,0.00003983,-0.00168383,0.00171906
 ,0.00087288,0.00001620,-0.00013387,0.00012242,-0.00019520,0.00012437,-
 0.00015294,0.02499403,0.00734345,-0.01324815,-0.00034536,0.00047999,0.
 00010728,-0.00072544,-0.00290146,0.00034553,-0.02100108,-0.00087945,0.
 00011560,0.00016289,0.00032639,-0.00041519,-0.00026568,0.00023154,0.00
 002874,-0.00000536,-0.00002760,-0.00010344,-0.00004480,0.00165356,0.00
 523418,-0.00265568,0.00054628,-0.00001602,0.00009466,0.00503050,-0.003
 73234,-0.00300295,-0.00688117,-0.00111156,-0.00154242,-0.00075374,-0.0
 0002400,0.00544336,-0.00034451,0.00057579,-0.00003386,-0.00016039,0.00
 004676,-0.00013691,0.00016607,0.00026239,-0.01945921,-0.00767313,0.009
 38113,-0.00014900,0.00044724,0.00038484,0.00396490,0.00260157,-0.00085
 241,0.01191316,0.00571689,-0.00977449,0.09372166,-0.14970711,2.3556473
 3,-0.00538731,0.12004333,-0.64390297,0.01193764,0.00098451,0.00065887,
 -0.03173916,0.00866511,-0.01110006,-0.00007432,0.03604352,0.13672287,0
 .00006903,-0.00007427,-0.00531384,0.00140863,0.00816297,-0.03433197,0.
 34791638,-0.42080411,-0.01754276,-0.00698217,-0.01254623,-0.00048524,-
 0.35497496,-0.40576440,-2.02462149,-0.09915932,0.00785931,0.01471579,0
 .00059242,0.40978914,1.99677093,-0.01682637,-0.09878189,0.44748075,-0.
 00001594,0.00023590,0.00512928,0.01715477,0.09839211,-0.45895520,-0.45
 053589,0.57135194,0.02274655,-0.00140265,0.00154206,-0.00000402,0.0110
 3476,-0.01529387,-0.00058627,0.43903055,0.54557990,-0.32134799,-0.0209
 6498,-0.00880175,0.00454820,-0.00016965,0.02243630,0.01413904,0.000296
 57,-0.55898064,0.30426048,0.02181035,-0.02116075,0.20077144,-0.0006390
 9,0.00008529,0.00146130,0.00095936,0.00027103,0.00722787,-0.02219951,0
 .02077412,-0.20920527,-0.00241865,-0.00012431,-0.00031736,0.00194315,0
 .00130573,0.00053852,0.00213308,0.00050321,0.00015366,0.00029339,-0.00
 121408,0.00000245,-0.00236696,-0.00008613,0.00048908,-0.00024854,-0.00
 262166,0.00319899,-0.00028993,0.00131204,-0.00161556,0.00033285,0.0000
 0653,-0.00066382,-0.00005628,0.00009664,-0.00156704,0.00015447,-0.0002
 6776,0.00199819,0.00047764,-0.00028628,-0.00026692,-0.00010805,0.00037
 468,-0.00254481,0.00007497,-0.00002048,0.00071109,-0.00046014,0.000157
 19,-0.00028801,-0.00060440,-0.00145525,-0.00014211,0.02723150,-0.03527
 763,-0.00157359,-0.00000652,0.00221768,0.00011450,0.00148892,0.0010388
 7,0.00011828,-0.00047894,0.00163349,-0.00020169,-0.02750997,0.00176219
 ,0.00060741,0.00003884,-0.03441261,-0.14791315,-0.00841981,-0.00046313
 ,0.00119531,0.00001415,0.00139360,-0.00080967,0.00003701,0.00005258,0.
 00030488,0.00003232,0.03193127,0.14632479,0.00028507,0.00023089,-0.001
 28190,-0.00163873,-0.00843316,0.03356176,-0.00005563,-0.00022706,0.002
 01348,0.00002576,0.00008089,-0.00109743,0.00002707,0.00012231,0.000355
 03,0.00155708,0.00826853,-0.03353986,0.00000043,-0.00035649,0.00012269
 ,-0.00060596,-0.00036215,0.00000778,0.00046348,0.00081084,-0.00010180,
 0.00009253,0.00019139,-0.00005623,0.00082104,-0.00003060,-0.00007124,-
 0.00015201,-0.00009421,0.00000259,-0.00060420,-0.00047156,0.00038214,0
 .00048094,0.00036354,0.00022106,0.00019014,0.00057505,-0.00044427,-0.0
 0054251,0.00004164,-0.00022019,0.00000180,-0.00020366,-0.00015159,-0.0
 0009918,-0.00001624,0.00011682,-0.00003393,-0.00020374,-0.00006599,0.0
 0015387,0.00002280,-0.00033390,-0.00006244,0.00011083,-0.00018613,-0.0
 0016137,-0.00008925,0.00026095,-0.00007046,0.00001024,0.00007840,0.000
 06335,-0.00003496,0.00006782,-0.00000835,-0.00002215,-0.00001149,0.000
 03130,-0.00006033,0.00002871,-0.00001705,0.00011092,-0.00013853,-0.000
 38254,0.00062954,0.00003889,0.00041588,-0.00012199,0.00010743,-0.00000
 161,-0.00024982,0.00000440,0.00007387,-0.00031019,0.00013404,0.0000315
 8,-0.00016996,-0.00020323,-0.00001532,-0.00008504,0.00005406,-0.000104
 84,0.00002248,-0.00005682,-0.00011597,0.00058511,-0.00039337,0.0000081
 4,-0.00029910,-0.00013977,0.00005285,-0.00006154,0.00009410,0.00004773
 ,-0.00041611,0.00000501,0.00010949,-0.00007232,0.00017360,-0.00000847,
 0.00004491,0.00016206,0.00006283,0.00019660,0.00015518,-0.00025906,-0.
 00001235,0.00058222,-0.00018892,0.00019880,-0.00005340,0.00023891,-0.0
 0015452,-0.00061236,0.00001297,-0.00000682,0.00005262,-0.00000756,0.00
 001734,-0.00003240,0.00013581,0.00005110,0.00000038,0.00006490,0.00006
 307,0.00009563,0.00000296,-0.00015662,-0.00003269,-0.04029856,0.026061
 99,0.17151618,0.00144928,0.00866182,-0.03936575,0.01053442,0.03078975,
 0.00155638,-0.55097076,0.00504501,-0.00192623,-0.00004715,0.58958908,3
 .00385384,0.00029518,-0.00011484,-0.01022968,0.02828719,0.17536884,-0.
 64034237,0.03859102,-0.04238194,-0.00168323,-0.00143505,-0.00300864,-0
 .00030690,-0.03651225,-0.03788898,-0.18901887,-0.00944041,-0.00250520,
 0.00071309,0.00012067,0.03879203,0.18596576,-0.00149590,-0.00933545,0.
 04447271,0.00048235,-0.00064163,-0.00710458,0.00156768,0.00952325,-0.0
 4464203,-0.00148744,0.00159683,0.00014908,-0.00328586,-0.00218974,-0.0
 0002831,0.00006512,-0.00051796,-0.00001465,0.00165057,-0.00012274,0.00
 078863,0.00013962,-0.00081548,0.00186881,-0.00028969,0.00117339,0.0011
 4581,-0.00004060,-0.00149581,-0.00091869,-0.00026246,0.00000616,-0.002
 41011,-0.00055880,0.00055505,0.00789112,0.00020984,-0.00004321,0.00078
 081,-0.00024871,-0.00005289,0.00023832,-0.00253044,-0.00057281,-0.0005
 5827,0.01077363,-0.00259385,0.00204253,0.00033313,0.00048593,-0.000252
 78,0.00005765,0.00010576,0.00026033,-0.00926827,-0.00144650,-0.0019884
 6,0.00016430,-0.03259417,0.00346780,-0.00357669,0.00055043,-0.00077894
 ,0.00059789,0.00041594,-0.00017610,-0.00045515,0.00856354,-0.01373344,
 0.00023483,0.00018006,0.00079323,-0.00249103,0.00025984,-0.00351530,0.
 00017813,-0.00007108,0.00041839,-0.00007190,-0.00005277,-0.00074232,0.
 00128315,0.00023069,-0.00138629,-0.00463434,-0.01438137,-0.00081067,0.
 53518766,-0.59107251,-0.03057865,-0.00088659,0.00117549,0.00006370,0.0
 0283253,0.00100381,0.00019135,-0.00347599,0.02471764,0.00027374,-0.527
 12746,0.00917488,0.02125225,0.00055032,-0.58682513,-3.00842498,-0.1719
 5416,0.00510172,0.00177439,0.00000980,0.00214135,-0.00272944,-0.000006
 13,-0.00453682,0.01360651,0.00105546,0.58012422,2.97334850,0.00013679,
 0.00067610,0.00606052,-0.02937456,-0.17513894,0.65489961,0.00013799,-0
 .00013277,0.00584555,0.00022276,0.00021749,-0.00538520,-0.00146941,0.0
 0338497,0.00190557,0.03115490,0.17082588,-0.66371156,-0.00010802,-0.00
 044915,0.00007199,0.00077866,0.00132851,-0.00028192,-0.00023015,0.0004
 0605,-0.00001325,0.00006345,0.00016061,0.00002258,0.00408141,0.0001376
 5,0.00010250,-0.00272415,-0.00307656,-0.00016182,-0.00191291,-0.000895
 91,-0.00074446,-0.00012417,0.00051016,0.00085690,0.00086176,-0.0001194
 1,0.00024090,-0.00006396,0.00013536,0.00003436,0.00001418,-0.00193498,
 -0.00221197,-0.00153019,0.00108924,0.00036238,-0.00036838,0.00142335,0
 .00152643,-0.00006078,-0.00022422,0.00064520,0.00041275,0.00081293,-0.
 00230227,-0.00008805,0.00001629,0.00072017,0.00001697,0.00006484,-0.00
 064388,-0.00023241,-0.00125723,0.00263860,-0.00062623,-0.00074788,0.00
 110840,0.00018987,0.00130329,-0.00287301,-0.00006677,-0.00066317,-0.00
 017454,-0.00158316,0.00290220,0.00057086,0.00007457,0.00005251,-0.0003
 3716,0.00010429,-0.00000902,0.00038591,0.00002886,-0.00034446,0.000490
 58,0.00082891,-0.00210430,-0.00064668,0.00005167,-0.00020782,0.0003878
 6,0.00056162,0.00007259,0.00012096,0.00009567,0.00185092,-0.00040870,-
 0.00041589,-0.00010786,-0.00004231,-0.00004929,-0.00008578,-0.00001331
 ,-0.00001804,0.00048323,0.00181454,-0.00007200,-0.00265669,0.00080997,
 0.00053563,0.00006950,-0.00006449,0.00003198,0.00037410,-0.00221662,-0
 .00029688,0.00015035,0.00003386,0.00168575,-0.00116885,0.00070347,-0.0
 0001546,0.00002732,-0.00049103,-0.00002523,0.00001396,0.00027122,-0.00
 107316,0.00091118,-0.00011187,0.00033176,0.00026663,-0.00072284,0.0000
 7005,-0.00009252,0.00070679,-0.00067682,-0.00010806,-0.00038960,1.1028
 7734,-1.19501891,1.59700489,-0.04810752,0.09525617,-0.75777363,0.02182
 328,0.02449278,0.00213864,-0.03890087,0.01314679,-0.01445117,0.0004662
 4,-0.00045012,0.03451916,0.00073861,-0.00041019,-0.01126393,-0.0011247
 4,0.00183378,-0.00315669,0.16602387,-0.26940669,-0.01088249,-0.0023067
 4,-0.00228110,-0.00000195,-0.16119038,-0.26206074,-0.96009330,-0.04865
 690,0.00388312,0.01065106,0.00075792,0.27296655,0.94677186,-0.01037160
 ,-0.04819625,0.22723844,-0.00017341,0.00037589,0.00200005,0.01116013,0
 .04766707,-0.22500895,-1.28830346,1.44165917,0.05694659,0.00652212,-0.
 00263290,-0.00042978,-0.00339317,-0.01650199,-0.00072116,1.28322283,1.
 44929360,-0.62413672,-0.04671466,-0.02037939,0.00929169,0.00029038,-0.
 00146974,0.00417633,0.00034353,-1.42620134,0.61396305,0.05785695,-0.04
 687593,0.54152525,-0.00141359,-0.00012120,0.00322049,-0.00017953,0.000
 46886,-0.00421457,-0.05610712,0.04631079,-0.54035770,-0.00187082,0.000
 01949,-0.00045927,0.00365247,0.00257017,0.00111144,0.00043023,-0.00051
 640,0.00015756,0.00122940,-0.00234329,0.00002330,-0.00369696,-0.000106
 73,0.00167835,0.00071538,-0.00231910,0.00290596,-0.00047873,0.00008504
 ,-0.00133029,-0.00015895,0.00123208,-0.00187031,-0.00058973,0.00113864
 ,-0.00084575,-0.00045185,-0.00021099,-0.00302135,0.00156595,-0.0008259
 2,0.00036206,0.00000113,0.00023847,-0.00034894,0.00006829,-0.00011244,
 0.00283201,-0.00136142,0.00057488,0.00005435,-0.00051076,-0.00197839,-
 0.00019848,0.00993634,-0.01088687,-0.00035033,-0.00005668,0.00168690,0
 .00011591,0.00098479,0.00172505,0.00021534,-0.00023739,0.00056701,-0.0
 0012290,-0.01014586,-0.00515853,0.00017334,-0.00034982,-0.00610116,-0.
 04308312,-0.00231048,0.00011952,0.00005551,-0.00004606,0.00239150,-0.0
 0153065,0.00025714,-0.00005237,-0.00005796,0.00016034,0.00897388,0.044
 33804,-0.00014350,0.00021945,0.00382865,-0.00007859,-0.00235161,0.0088
 1119,-0.00006045,-0.00020209,0.00039145,0.00029358,-0.00012887,-0.0035
 2144,-0.00002813,0.00009642,0.00050631,0.00031001,0.00239305,-0.010083
 02,0.00022963,-0.00009467,0.00021697,-0.00047779,-0.00013942,-0.000059
 66,0.00040765,0.00060683,-0.00010341,-0.00063357,-0.00000967,-0.000076
 41,0.00036913,-0.00022012,0.00004991,-0.00001355,-0.00008665,-0.000013
 34,0.00004727,0.00012190,0.00023233,-0.00033362,0.00041895,0.00069529,
 0.00028392,-0.00001197,-0.00024165,-0.00015143,-0.00000327,-0.00043438
 ,0.00036274,-0.00032186,-0.00034274,-0.00000615,-0.00005556,-0.0000278
 3,-0.00001791,-0.00009505,0.00001743,0.00000679,-0.00006054,-0.0001541
 4,-0.00013263,0.00003523,-0.00003467,-0.00002229,-0.00001502,0.0000877
 7,-0.00006778,0.00016607,0.00000982,0.00029711,0.00004874,-0.00030293,
 -0.00002541,-0.00005648,0.00013326,-0.00002054,-0.00011968,0.00018017,
 -0.00026866,0.00032735,0.00034558,-0.00024921,0.00067336,0.00011640,0.
 00008519,-0.00006409,-0.00006400,0.00037094,-0.00061515,-0.00031899,0.
 00012394,-0.00037678,0.00025089,0.00004332,-0.00008655,-0.00027960,0.0
 0007122,-0.00005315,-0.00003527,-0.00017678,-0.00021678,-0.00040795,-0
 .00038281,0.00045480,-0.00052841,0.00003345,-0.00000207,0.00001056,0.0
 0016626,0.00005703,0.00054104,0.00018729,-0.00049443,-0.00013731,0.000
 18180,-0.00003227,0.00013229,-0.00000848,0.00003873,0.00010156,0.00000
 169,0.00019500,0.00028826,0.00047218,0.00027821,-0.00037930,-0.0007816
 4,0.00058761,0.00006152,-0.00001462,-0.00025823,-0.00014526,0.00001742
 ,-0.00015486,0.00050613,0.00025941,-0.00020805,-0.00008152,0.00005579,
 -0.00004762,-0.00006634,0.00000648,-0.00001786,0.00008072,-0.00001500,
 -0.00017921,0.00002404,-0.00381148,0.00136288,-0.00237147,-0.00081911,
 0.00086227,0.00087541,0.00400653,0.00131319,0.00064122,-0.02043159,-0.
 00248158,0.00441454,-0.00042526,0.00434276,-0.01718864,0.00184039,-0.0
 0102709,0.00135910,-0.00078258,0.00058815,-0.00565741,0.00093016,-0.00
 070977,-0.00000398,-0.00047164,0.00093663,-0.00029047,-0.00049138,-0.0
 0003397,-0.00022888,-0.00083358,-0.00008561,-0.00010265,0.00019731,0.0
 0039002,0.00015564,0.00014162,-0.00036178,-0.00058730,0.00072284,-0.00
 044578,-0.00010098,0.00015296,0.00052464,0.00041244,0.00011352,0.00041
 275,0.00032143,-0.00032589,-0.00055549,0.00030708,-0.00011158,-0.00014
 972,-0.00008034,-0.00005789,0.00011896,0.00001801,-0.00026946,-0.00005
 832,-0.00016559,0.00023648,-0.00003260,0.00026295,-0.00024700,-0.00014
 454,0.00004250,0.00020131,-0.00005316,-0.00070344,-0.00043653,0.000026
 55,0.00063002,0.00025623,0.00014631,0.00015815,-0.00055889,0.00036174,
 0.00021539,-0.00477037,0.00023490,-0.00085753,0.02209570,-0.02585036,-
 0.00655326,-0.00001915,0.00023505,-0.00108394,-0.00024497,-0.00024370,
 0.00166105,0.53446660,0.00208918,-0.00076492,0.00000018,-0.01812182,0.
 00166634,0.00218472,-0.00032763,0.00028012,0.00100380,-0.00008146,0.00
 011107,-0.00063549,1.27226840,2.74834470,-0.00146984,0.00127411,-0.000
 62540,-0.00039750,-0.00563855,-0.00656430,-0.00005916,0.00005704,-0.00
 017999,0.00022294,-0.00013758,0.00077830,-0.71196613,0.49079346,-0.324
 02078,-0.00048174,0.00008158,0.00011841,0.00356336,0.00128078,0.000661
 12,0.00005420,-0.00003558,0.00010853,0.00000069,-0.00010547,-0.0001400
 9,0.00012956,0.00090502,0.00090873,-0.00279074,-0.00019849,0.00006564,
 0.00007531,-0.00133401,-0.00097719,-0.00060084,0.00005580,-0.00012977,
 0.00006153,0.00015412,-0.00006238,-0.00009376,0.00040535,-0.00095490,-
 0.00014474,0.00129356,0.00060657,0.00002462,-0.00003336,0.00021480,0.0
 0096867,0.00064660,0.00217356,-0.00005994,-0.00008845,-0.00015327,0.00
 009503,0.00002026,-0.00012346,-0.00054607,0.00029122,-0.00020486,-0.00
 039069,0.00013592,-0.00132352,0.00270683,-0.00249080,-0.00016277,-0.00
 637201,0.02084212,0.00287854,0.00023579,-0.00026951,-0.00034597,0.0003
 8644,0.00041587,-0.00013637,0.52903873,-0.42741215,-0.09907290,-0.0011
 1923,0.00028566,0.00019980,-0.53473950,-0.00145448,-0.00048739,0.00070
 730,-0.00078782,0.00997220,-0.00011193,-0.00012045,-0.00005048,-0.0008
 9512,0.00006738,-0.00008341,0.00050958,-0.45234813,-2.67724679,-0.9077
 5634,-0.00127689,0.00088260,-0.00129321,0.44368708,2.65860199,0.000558
 45,-0.00052963,-0.00019271,0.00148258,0.00620624,0.00483705,-0.0000430
 9,-0.00000032,0.00025997,0.00000131,0.00004829,-0.00091575,-0.11703435
 ,-0.95393874,0.36805108,-0.00108026,0.00047592,-0.00020363,0.10813744,
 0.92193439,-0.38930963,0.00130694,-0.00020484,0.00076237,-0.00206479,0
 .00148518,0.00193914,-0.00012638,-0.00005072,0.00038425,0.00023937,0.0
 0005015,-0.00084670,-1.08069612,-0.82931951,0.81183387,0.00064418,-0.0
 0066232,-0.00029145,0.00986294,0.01223332,0.00797789,1.07083383,0.0005
 9829,-0.00064608,-0.00011681,0.01473162,0.00238130,-0.00146675,-0.0001
 9256,-0.00018678,0.00035976,0.00029711,-0.00012309,-0.00026182,-0.7947
 0156,-0.07143572,0.42155260,-0.00214332,0.00056949,0.00032103,-0.03505
 829,0.00841135,0.02580386,0.81646875,0.06102952,-0.00047733,-0.0001313
 9,-0.00034049,-0.00219865,-0.00095788,0.00332302,0.00004744,-0.0000028
 8,0.00019092,-0.00030858,-0.00001279,-0.00003915,0.83638024,0.46030082
 ,-0.03723405,-0.00018594,0.00009065,-0.00037965,-0.01149777,-0.0130946
 6,0.01747363,-0.82175938,-0.44619188,0.01700577,-0.00329718,0.00023005
 ,-0.00127109,-0.00072810,-0.00052703,0.00068914,0.00357348,0.00204051,
 0.00215298,-0.02743919,-0.00274946,0.00336946,-0.00064533,0.01324230,-
 0.01450412,0.00083949,-0.00023272,0.00041081,-0.00149543,0.00211977,0.
 00341695,0.00042858,0.00007939,-0.00020195,-0.00052433,0.00047683,0.00
 008604,-0.00000062,0.00008087,-0.00045645,-0.00009629,-0.00003233,0.00
 015349,0.00006616,-0.00005111,0.00019958,0.00010404,0.00004747,-0.0007
 1432,0.00016082,0.00022254,0.00025799,0.00015626,-0.00010417,0.0004135
 6,0.00026596,0.00037912,0.00012475,-0.00023176,-0.00068339,-0.00004286
 ,-0.00005187,0.00000635,-0.00002547,-0.00025119,0.00030363,-0.00028734
 ,-0.00005990,-0.00045747,-0.00009686,-0.00006533,-0.00003200,0.0000762
 6,-0.00008313,-0.00007793,0.00031211,0.00038780,0.00027250,-0.00035635
 ,-0.00112177,-0.00007036,0.00025376,0.00001252,0.00009187,0.00014951,-
 0.00012624,0.00013321,0.00014235,-0.00429333,-0.00042195,-0.00177299,0
 .02884037,-0.03018652,0.00087523,0.00051553,0.00024588,-0.00021357,0.0
 0008090,0.00023807,0.00077436,1.34001066,0.00261985,0.00162306,0.00158
 683,-0.03264303,-0.00134407,0.00188925,-0.00033250,0.00002624,0.000035
 71,-0.00034030,-0.00034077,-0.00095841,1.48921947,1.82782894,-0.001110
 81,-0.00013434,0.00014794,0.01521634,-0.00588915,-0.01408289,-0.000292
 77,0.00019325,-0.00125555,0.00033469,-0.00014787,0.00119216,-1.3406193
 1,0.01395439,-0.17796475,-0.00025420,-0.00015075,-0.00011149,0.0025975
 3,0.00165260,-0.00029134,0.00005221,0.00003155,0.00007939,0.00001570,-
 0.00000954,-0.00004006,0.00072879,0.00185894,-0.00000831,-0.00257165,-
 0.00017805,-0.00005489,-0.00006829,-0.00142031,-0.00074526,-0.00057218
 ,0.00005372,-0.00003008,0.00011709,0.00006312,0.00003757,-0.00006687,0
 .00199838,-0.00118423,-0.00013261,0.00056579,0.00107405,0.00018596,0.0
 0000027,0.00043893,-0.00115337,0.00039667,0.00128783,-0.00001649,-0.00
 005024,0.00004885,0.00006446,0.00003288,-0.00028409,0.00130557,-0.0007
 5644,-0.00063032,0.00051353,0.00026734,-0.00110074,0.00151178,-0.00117
 949,-0.00041004,-0.00456809,0.01114213,0.00034432,0.00012869,-0.000229
 78,-0.00005162,-0.00000417,0.00009279,0.00001299,0.43270058,-0.2299575
 3,-0.05988695,-0.00058717,0.00005048,0.00002527,-0.42887737,-0.0007883
 5,-0.00129401,0.00012633,0.00212805,0.00953440,0.00018058,-0.00027539,
 -0.00009588,-0.00045839,0.00013106,0.00004145,0.00048557,-0.22257706,-
 1.88914109,-0.69577856,-0.00160292,0.00042486,-0.00064957,0.21352608,1
 .88141012,0.00122182,-0.00065356,-0.00020800,-0.00265468,0.00758293,0.
 00379458,-0.00018865,-0.00014717,0.00048790,0.00013413,0.00001943,-0.0
 0085122,-0.06182033,-0.70869240,0.25934354,-0.00080621,0.00005735,0.00
 020724,0.06448200,0.70175382,-0.25856534,0.00206482,-0.00097664,0.0009
 4686,-0.00224811,0.00710531,-0.00031547,-0.00054827,-0.00005142,-0.000
 20988,0.00017648,-0.00005736,0.00010042,-1.79858348,-1.23042483,1.3863
 6711,0.00001905,-0.00113343,-0.00092494,-0.00030423,0.00945851,-0.0003
 6810,1.79942370,0.00048166,-0.00162883,-0.00031636,0.01714217,0.003633
 40,-0.00338548,0.00008103,0.00012670,0.00022290,0.00052185,0.00025791,
 0.00011246,-1.23851626,0.06253181,0.68793488,-0.00234559,0.00047749,0.
 00075909,0.00655526,-0.00087982,0.00007963,1.21607992,-0.06451864,-0.0
 0090011,0.00122742,-0.00040816,-0.01110484,-0.00371707,0.00466103,0.00
 044503,0.00004667,0.00061204,-0.00046350,0.00017063,-0.00024614,1.4014
 7103,0.69294106,-0.06675014,0.00066439,0.00039821,0.00003229,-0.004515
 99,-0.00565978,-0.00420871,-1.38559600,-0.68540713,0.06630779\\@
 The archive entry for this job was punched.


 MOST BUREAUCRACIES FUNCTION LIKE A SEPTIC TANK.
 THE LARGE CHUNKS RISE TO THE TOP.
 Job cpu time:       9 days 13 hours 59 minutes 24.4 seconds.
 Elapsed time:       0 days  5 hours 50 minutes 37.1 seconds.
 File lengths (MBytes):  RWF=   9376 Int=      0 D2E=      0 Chk=     49 Scr=      1
 Normal termination of Gaussian 16 at Tue Apr  8 23:27:12 2025.
