 Entering Gaussian System, Link 0=g16
 Input=vinylamine_mp2_avtz_opt_anharm.gjf
 Output=vinylamine_mp2_avtz_opt_anharm.log
 Initial command:
 /sw/contrib/chem-src/g16/c01/g16/l1.exe "/scr/Gau-45620.inp" -scrdir="/scr/"
 Entering Link 1 = /sw/contrib/chem-src/g16/c01/g16/l1.exe PID=     45621.
  
 Copyright (c) 1988-2019, Gaussian, Inc.  All Rights Reserved.
  
 This is part of the Gaussian(R) 16 program.  It is based on
 the Gaussian(R) 09 system (copyright 2009, Gaussian, Inc.),
 the Gaussian(R) 03 system (copyright 2003, Gaussian, Inc.),
 the Gaussian(R) 98 system (copyright 1998, Gaussian, Inc.),
 the Gaussian(R) 94 system (copyright 1995, Gaussian, Inc.),
 the Gaussian 92(TM) system (copyright 1992, Gaussian, Inc.),
 the Gaussian 90(TM) system (copyright 1990, Gaussian, Inc.),
 the Gaussian 88(TM) system (copyright 1988, Gaussian, Inc.),
 the Gaussian 86(TM) system (copyright 1986, Carnegie Mellon
 University), and the Gaussian 82(TM) system (copyright 1983,
 Carnegie Mellon University). Gaussian is a federally registered
 trademark of Gaussian, Inc.
  
 This software contains proprietary and confidential information,
 including trade secrets, belonging to Gaussian, Inc.
  
 This software is provided under written license and may be
 used, copied, transmitted, or stored only in accord with that
 written license.
  
 The following legend is applicable only to US Government
 contracts under FAR:
  
                    RESTRICTED RIGHTS LEGEND
  
 Use, reproduction and disclosure by the US Government is
 subject to restrictions as set forth in subparagraphs (a)
 and (c) of the Commercial Computer Software - Restricted
 Rights clause in FAR 52.227-19.
  
 Gaussian, Inc.
 340 Quinnipiac St., Bldg. 40, Wallingford CT 06492
  
  
 ---------------------------------------------------------------
 Warning -- This program may not be used in any manner that
 competes with the business of Gaussian, Inc. or will provide
 assistance to any competitor of Gaussian, Inc.  The licensee
 of this program is prohibited from giving any competitor of
 Gaussian, Inc. access to this program.  By using this program,
 the user acknowledges that Gaussian, Inc. is engaged in the
 business of creating and licensing software in the field of
 computational chemistry and represents and warrants to the
 licensee that it is not a competitor of Gaussian, Inc. and that
 it will not use this program in any manner prohibited above.
 ---------------------------------------------------------------
  

 Cite this work as:
 Gaussian 16, Revision C.01,
 M. J. Frisch, G. W. Trucks, H. B. Schlegel, G. E. Scuseria, 
 M. A. Robb, J. R. Cheeseman, G. Scalmani, V. Barone, 
 G. A. Petersson, H. Nakatsuji, X. Li, M. Caricato, A. V. Marenich, 
 J. Bloino, B. G. Janesko, R. Gomperts, B. Mennucci, H. P. Hratchian, 
 J. V. Ortiz, A. F. Izmaylov, J. L. Sonnenberg, D. Williams-Young, 
 F. Ding, F. Lipparini, F. Egidi, J. Goings, B. Peng, A. Petrone, 
 T. Henderson, D. Ranasinghe, V. G. Zakrzewski, J. Gao, N. Rega, 
 G. Zheng, W. Liang, M. Hada, M. Ehara, K. Toyota, R. Fukuda, 
 J. Hasegawa, M. Ishida, T. Nakajima, Y. Honda, O. Kitao, H. Nakai, 
 T. Vreven, K. Throssell, J. A. Montgomery, Jr., J. E. Peralta, 
 F. Ogliaro, M. J. Bearpark, J. J. Heyd, E. N. Brothers, K. N. Kudin, 
 V. N. Staroverov, T. A. Keith, R. Kobayashi, J. Normand, 
 K. Raghavachari, A. P. Rendell, J. C. Burant, S. S. Iyengar, 
 J. Tomasi, M. Cossi, J. M. Millam, M. Klene, C. Adamo, R. Cammi, 
 J. W. Ochterski, R. L. Martin, K. Morokuma, O. Farkas, 
 J. B. Foresman, and D. J. Fox, Gaussian, Inc., Wallingford CT, 2019.
 
 ******************************************
 Gaussian 16:  EM64L-G16RevC.01  3-Jul-2019
                 4-Apr-2025 
 ******************************************
 %nprocshared=40
 Will use up to   40 processors via shared memory.
 %mem=50gb
 ----------------------------------------------
 # MP2/aug-cc-pVTZ opt freq=(vibrot,anharmonic)
 ----------------------------------------------
 1/18=20,19=15,38=1,80=1/1,3;
 2/9=110,12=2,17=6,18=5,40=1/2;
 3/5=16,6=1,7=10,11=9,25=1,30=1,71=1/1,2,3;
 4//1;
 5/5=2,38=5/2;
 8/6=4,10=1/1;
 9/15=2,16=-3/6;
 10/5=1/2;
 6/7=2,8=2,9=2,10=2/1;
 7/12=2/1,2,3,16;
 1/18=20,19=15,80=1/3(2);
 2/9=110/2;
 99//99;
 2/9=110/2;
 3/5=16,6=1,7=10,11=9,25=1,30=1,71=1/1,2,3;
 4/5=5,16=3,69=1/1;
 5/5=2,38=5/2;
 8/6=4,10=1/1;
 9/15=2,16=-3/6;
 10/5=1/2;
 7/12=2/1,2,3,16;
 1/18=20,19=15,80=1/3(-8);
 2/9=110/2;
 6/7=2,8=2,9=2,10=2/1;
 99/9=10/99;
 ----
 blah
 ----
 Symbolic Z-matrix:
 Charge =  0 Multiplicity = 1
 C                    -0.50998  -0.16456  -0.30604 
 C                     0.25435  -1.25118  -0.41653 
 H                    -0.47258   0.47042   0.5718 
 H                    -1.19459   0.11261  -1.10051 
 N                     1.14231  -1.6981    0.50172 
 H                     0.19552  -1.87052  -1.3103 
 H                     1.27612  -1.19585   1.37118 
 H                     1.68057  -2.53857   0.32733 
 

 GradGradGradGradGradGradGradGradGradGradGradGradGradGradGradGradGradGrad
 Berny optimization.
 Initialization pass.
                           ----------------------------
                           !    Initial Parameters    !
                           ! (Angstroms and Degrees)  !
 --------------------------                            --------------------------
 ! Name  Definition              Value          Derivative Info.                !
 --------------------------------------------------------------------------------
 ! R1    R(1,2)                  1.3331         estimate D2E/DX2                !
 ! R2    R(1,3)                  1.0841         estimate D2E/DX2                !
 ! R3    R(1,4)                  1.0848         estimate D2E/DX2                !
 ! R4    R(2,5)                  1.3533         estimate D2E/DX2                !
 ! R5    R(2,6)                  1.089          estimate D2E/DX2                !
 ! R6    R(5,7)                  1.013          estimate D2E/DX2                !
 ! R7    R(5,8)                  1.0132         estimate D2E/DX2                !
 ! A1    A(2,1,3)              121.6533         estimate D2E/DX2                !
 ! A2    A(2,1,4)              120.6252         estimate D2E/DX2                !
 ! A3    A(3,1,4)              117.7215         estimate D2E/DX2                !
 ! A4    A(1,2,5)              126.0963         estimate D2E/DX2                !
 ! A5    A(1,2,6)              120.0422         estimate D2E/DX2                !
 ! A6    A(5,2,6)              113.8614         estimate D2E/DX2                !
 ! A7    A(2,5,7)              120.3533         estimate D2E/DX2                !
 ! A8    A(2,5,8)              120.3808         estimate D2E/DX2                !
 ! A9    A(7,5,8)              119.2658         estimate D2E/DX2                !
 ! D1    D(3,1,2,5)              0.0            estimate D2E/DX2                !
 ! D2    D(3,1,2,6)           -180.0            estimate D2E/DX2                !
 ! D3    D(4,1,2,5)            180.0            estimate D2E/DX2                !
 ! D4    D(4,1,2,6)              0.0            estimate D2E/DX2                !
 ! D5    D(1,2,5,7)              0.0            estimate D2E/DX2                !
 ! D6    D(1,2,5,8)           -180.0            estimate D2E/DX2                !
 ! D7    D(6,2,5,7)            180.0            estimate D2E/DX2                !
 ! D8    D(6,2,5,8)              0.0            estimate D2E/DX2                !
 --------------------------------------------------------------------------------
 Trust Radius=3.00D-01 FncErr=1.00D-07 GrdErr=1.00D-07 EigMax=2.50D+02 EigMin=1.00D-04
 Number of steps in this run=     34 maximum allowed number of steps=    100.
 GradGradGradGradGradGradGradGradGradGradGradGradGradGradGradGradGradGrad

                          Input orientation:                          
 ---------------------------------------------------------------------
 Center     Atomic      Atomic             Coordinates (Angstroms)
 Number     Number       Type             X           Y           Z
 ---------------------------------------------------------------------
      1          6           0       -0.509979   -0.164565   -0.306036
      2          6           0        0.254350   -1.251178   -0.416535
      3          1           0       -0.472575    0.470415    0.571803
      4          1           0       -1.194589    0.112613   -1.100507
      5          7           0        1.142310   -1.698100    0.501723
      6          1           0        0.195518   -1.870521   -1.310304
      7          1           0        1.276120   -1.195847    1.371179
      8          1           0        1.680575   -2.538571    0.327329
 ---------------------------------------------------------------------
                    Distance matrix (angstroms):
                    1          2          3          4          5
     1  C    0.000000
     2  C    1.333094   0.000000
     3  H    1.084066   2.114029   0.000000
     4  H    1.084759   2.104084   1.856326   0.000000
     5  N    2.394632   1.353296   2.704667   3.362576   0.000000
     6  H    2.101564   1.088977   3.077119   2.430892   2.051728
     7  H    2.658334   2.059853   2.544281   3.731715   1.012974
     8  H    3.291745   2.060299   3.708076   4.163420   1.013181
                    6          7          8
     6  H    0.000000
     7  H    2.968710   0.000000
     8  H    2.309443   1.748175   0.000000
 Stoichiometry    C2H5N
 Framework group  CS[SG(C2H5N)]
 Deg. of freedom    13
 Full point group                 CS      NOp   2
 Largest Abelian subgroup         CS      NOp   2
 Largest concise Abelian subgroup C1      NOp   1
                         Standard orientation:                         
 ---------------------------------------------------------------------
 Center     Atomic      Atomic             Coordinates (Angstroms)
 Number     Number       Type             X           Y           Z
 ---------------------------------------------------------------------
      1          6           0        0.375099   -1.198553    0.000000
      2          6           0       -0.411913   -0.122565    0.000000
      3          1           0        1.455779   -1.112939    0.000000
      4          1           0       -0.052092   -2.195654    0.000000
      5          7           0        0.000000    1.166519   -0.000000
      6          1           0       -1.494642   -0.239053   -0.000000
      7          1           0        0.988452    1.388055   -0.000000
      8          1           0       -0.676614    1.920660   -0.000000
 ---------------------------------------------------------------------
 Rotational constants (GHZ):          58.1643019          10.2788385           8.7351554
 Standard basis: Aug-CC-pVTZ (5D, 7F)
 There are   201 symmetry adapted cartesian basis functions of A'  symmetry.
 There are    89 symmetry adapted cartesian basis functions of A"  symmetry.
 There are   170 symmetry adapted basis functions of A'  symmetry.
 There are    83 symmetry adapted basis functions of A"  symmetry.
   253 basis functions,   351 primitive gaussians,   290 cartesian basis functions
    12 alpha electrons       12 beta electrons
       nuclear repulsion energy        72.1233663934 Hartrees.
 NAtoms=    8 NActive=    8 NUniq=    8 SFac= 1.00D+00 NAtFMM=   60 NAOKFM=F Big=F
 Integral buffers will be    131072 words long.
 Raffenetti 1 integral format.
 Two-electron integral symmetry is turned on.
 One-electron integrals computed using PRISM.
 NBasis=   253 RedAO= T EigKep=  8.63D-06  NBF=   170    83
 NBsUse=   253 1.00D-06 EigRej= -1.00D+00 NBFU=   170    83
 ExpMin= 2.53D-02 ExpMax= 1.14D+04 ExpMxC= 3.89D+02 IAcc=3 IRadAn=         5 AccDes= 0.00D+00
 Harris functional with IExCor=  205 and IRadAn=       5 diagonalized for initial guess.
 HarFok:  IExCor=  205 AccDes= 0.00D+00 IRadAn=         5 IDoV= 1 UseB2=F ITyADJ=14
 ICtDFT=  3500011 ScaDFX=  1.000000  1.000000  1.000000  1.000000
 FoFCou: FMM=F IPFlag=           0 FMFlag=      100000 FMFlg1=           0
         NFxFlg=           0 DoJE=T BraDBF=F KetDBF=T FulRan=T
         wScrn=  0.000000 ICntrl=       500 IOpCl=  0 I1Cent=   200000004 NGrid=           0
         NMat0=    1 NMatS0=      1 NMatT0=    0 NMatD0=    1 NMtDS0=    0 NMtDT0=    0
 Petite list used in FoFCou.
 Initial guess orbital symmetries:
       Occupied  (A') (A') (A') (A') (A') (A') (A') (A') (A') (A')
                 (A") (A")
       Virtual   (A") (A') (A') (A') (A') (A') (A") (A') (A') (A')
                 (A") (A') (A') (A") (A') (A') (A') (A') (A') (A")
                 (A') (A') (A") (A') (A') (A") (A') (A") (A') (A')
                 (A') (A') (A') (A") (A") (A') (A') (A') (A") (A')
                 (A') (A') (A") (A') (A") (A') (A') (A') (A') (A")
                 (A") (A') (A") (A') (A') (A') (A') (A") (A') (A')
                 (A') (A") (A') (A') (A") (A') (A") (A') (A') (A")
                 (A') (A") (A') (A") (A') (A') (A") (A') (A') (A')
                 (A") (A") (A') (A') (A") (A') (A') (A") (A") (A')
                 (A') (A') (A") (A") (A') (A') (A') (A') (A") (A')
                 (A") (A') (A") (A') (A') (A") (A') (A") (A') (A')
                 (A") (A') (A') (A") (A') (A') (A") (A") (A') (A')
                 (A') (A') (A') (A") (A') (A') (A") (A") (A') (A')
                 (A") (A') (A') (A') (A') (A") (A") (A') (A') (A')
                 (A") (A') (A") (A') (A') (A') (A") (A') (A') (A')
                 (A") (A') (A") (A') (A") (A') (A") (A') (A") (A")
                 (A') (A') (A') (A') (A") (A") (A') (A') (A") (A')
                 (A') (A') (A") (A') (A') (A') (A') (A") (A") (A')
                 (A') (A") (A') (A") (A") (A') (A") (A') (A") (A')
                 (A") (A') (A') (A') (A") (A') (A') (A') (A") (A")
                 (A') (A") (A') (A") (A") (A') (A") (A') (A') (A')
                 (A') (A') (A") (A') (A') (A") (A") (A') (A') (A")
                 (A') (A') (A") (A') (A') (A") (A') (A") (A') (A')
                 (A') (A') (A') (A') (A') (A') (A') (A') (A') (A')
                 (A')
 The electronic state of the initial guess is 1-A'.
 Keep R1 ints in memory in symmetry-blocked form, NReq=778226835.
 Requested convergence on RMS density matrix=1.00D-08 within 128 cycles.
 Requested convergence on MAX density matrix=1.00D-06.
 Requested convergence on             energy=1.00D-06.
 No special actions if energy rises.
 SCF Done:  E(RHF) =  -133.119501233     A.U. after   12 cycles
            NFock= 12  Conv=0.35D-08     -V/T= 2.0015
 ExpMin= 2.53D-02 ExpMax= 1.14D+04 ExpMxC= 3.89D+02 IAcc=3 IRadAn=         5 AccDes= 0.00D+00
 HarFok:  IExCor=  205 AccDes= 0.00D+00 IRadAn=         5 IDoV=-2 UseB2=F ITyADJ=14
 ICtDFT= 12500011 ScaDFX=  1.000000  1.000000  1.000000  1.000000
 Range of M.O.s used for correlation:     4   253
 NBasis=   253 NAE=    12 NBE=    12 NFC=     3 NFV=     0
 NROrb=    250 NOA=     9 NOB=     9 NVA=   241 NVB=   241

 **** Warning!!: The largest alpha MO coefficient is  0.69190981D+02

 Fully direct method using O(ONN) memory.
 JobTyp=1 Pass  1:  I=   4 to  12 NPSUse= 40 ParTrn=T ParDer=T DoDerP=T.
 Spin components of T(2) and E(2):
     alpha-alpha T2 =       0.2102802957D-01 E2=     -0.6431035615D-01
     alpha-beta  T2 =       0.1297252824D+00 E2=     -0.4261250132D+00
     beta-beta   T2 =       0.2102802957D-01 E2=     -0.6431035615D-01
 ANorm=    0.1082488495D+01
 E2 =    -0.5547457255D+00 EUMP2 =    -0.13367424695809D+03
          IDoAtm=11111111
          Differentiating once with respect to electric field.
                with respect to dipole field.
          Differentiating once with respect to nuclear coordinates.
 Keep R1 ints in memory in symmetry-blocked form, NReq=778228475.
          There are     1 degrees of freedom in the 1st order CPHF.  IDoFFX=0 NUNeed=     1.
 LinEq1:  Iter=  0 NonCon=     1 RMS=2.94D-03 Max=7.43D-02 NDo=     1
 AX will form     1 AO Fock derivatives at one time.
 LinEq1:  Iter=  1 NonCon=     1 RMS=8.52D-04 Max=1.01D-02 NDo=     1
 LinEq1:  Iter=  2 NonCon=     1 RMS=2.68D-04 Max=4.50D-03 NDo=     1
 LinEq1:  Iter=  3 NonCon=     1 RMS=7.07D-05 Max=1.36D-03 NDo=     1
 LinEq1:  Iter=  4 NonCon=     1 RMS=2.71D-05 Max=5.48D-04 NDo=     1
 LinEq1:  Iter=  5 NonCon=     1 RMS=5.89D-06 Max=6.36D-05 NDo=     1
 LinEq1:  Iter=  6 NonCon=     1 RMS=1.61D-06 Max=3.21D-05 NDo=     1
 LinEq1:  Iter=  7 NonCon=     1 RMS=5.26D-07 Max=8.92D-06 NDo=     1
 LinEq1:  Iter=  8 NonCon=     1 RMS=1.74D-07 Max=2.11D-06 NDo=     1
 LinEq1:  Iter=  9 NonCon=     1 RMS=4.02D-08 Max=4.02D-07 NDo=     1
 LinEq1:  Iter= 10 NonCon=     1 RMS=6.16D-09 Max=5.97D-08 NDo=     1
 LinEq1:  Iter= 11 NonCon=     1 RMS=7.79D-10 Max=1.17D-08 NDo=     1
 LinEq1:  Iter= 12 NonCon=     1 RMS=1.16D-10 Max=1.58D-09 NDo=     1
 LinEq1:  Iter= 13 NonCon=     0 RMS=2.06D-11 Max=2.42D-10 NDo=     1
 Linear equations converged to 1.000D-10 1.000D-09 after    13 iterations.
 End of Minotr F.D. properties file   721 does not exist.
 End of Minotr F.D. properties file   722 does not exist.
 End of Minotr F.D. properties file   788 does not exist.

 **********************************************************************

            Population analysis using the SCF Density.

 **********************************************************************

 Orbital symmetries:
       Occupied  (A') (A') (A') (A') (A') (A') (A') (A') (A') (A')
                 (A") (A")
       Virtual   (A') (A') (A') (A') (A') (A") (A") (A') (A') (A')
                 (A") (A') (A') (A') (A') (A') (A") (A') (A") (A')
                 (A') (A') (A") (A") (A') (A') (A') (A') (A") (A')
                 (A') (A') (A") (A') (A") (A') (A') (A') (A") (A')
                 (A') (A") (A') (A') (A') (A") (A') (A') (A') (A")
                 (A') (A") (A") (A') (A') (A') (A') (A") (A') (A')
                 (A') (A") (A') (A") (A') (A') (A') (A') (A") (A')
                 (A") (A") (A') (A") (A') (A') (A') (A") (A') (A')
                 (A") (A") (A') (A') (A") (A') (A") (A') (A') (A")
                 (A') (A') (A") (A') (A') (A") (A') (A') (A') (A")
                 (A") (A') (A') (A") (A') (A') (A") (A') (A") (A')
                 (A") (A') (A') (A") (A') (A') (A") (A') (A") (A')
                 (A') (A') (A") (A') (A') (A') (A") (A") (A') (A')
                 (A') (A") (A') (A') (A') (A") (A") (A') (A') (A")
                 (A') (A') (A") (A') (A') (A') (A') (A") (A') (A')
                 (A') (A") (A') (A") (A') (A") (A") (A') (A") (A")
                 (A') (A') (A') (A') (A") (A') (A") (A") (A') (A')
                 (A') (A') (A') (A") (A") (A') (A') (A') (A") (A')
                 (A') (A") (A') (A") (A") (A') (A") (A') (A") (A')
                 (A") (A') (A') (A") (A') (A') (A') (A") (A") (A')
                 (A") (A') (A') (A") (A") (A') (A') (A") (A') (A')
                 (A') (A') (A') (A") (A') (A") (A') (A') (A") (A')
                 (A") (A') (A') (A") (A') (A") (A") (A') (A') (A')
                 (A') (A') (A') (A') (A') (A') (A') (A') (A') (A')
                 (A')
 The electronic state is 1-A'.
 Alpha  occ. eigenvalues --  -15.56635 -11.26733 -11.18875  -1.21856  -0.98883
 Alpha  occ. eigenvalues --   -0.79321  -0.71244  -0.64221  -0.56731  -0.51354
 Alpha  occ. eigenvalues --   -0.50186  -0.30321
 Alpha virt. eigenvalues --    0.02655   0.03874   0.04201   0.05986   0.06211
 Alpha virt. eigenvalues --    0.09834   0.10534   0.11147   0.12233   0.12474
 Alpha virt. eigenvalues --    0.14100   0.14189   0.15059   0.16412   0.18261
 Alpha virt. eigenvalues --    0.18684   0.20757   0.24235   0.24676   0.24988
 Alpha virt. eigenvalues --    0.26633   0.29113   0.29357   0.30434   0.31752
 Alpha virt. eigenvalues --    0.31977   0.33023   0.34906   0.36317   0.36332
 Alpha virt. eigenvalues --    0.37570   0.39473   0.39574   0.41008   0.42754
 Alpha virt. eigenvalues --    0.42976   0.43465   0.44616   0.44763   0.46308
 Alpha virt. eigenvalues --    0.47725   0.48669   0.49431   0.50506   0.51876
 Alpha virt. eigenvalues --    0.52784   0.55400   0.57890   0.62460   0.62470
 Alpha virt. eigenvalues --    0.64199   0.64586   0.67984   0.68637   0.71099
 Alpha virt. eigenvalues --    0.73302   0.73508   0.80108   0.82533   0.82716
 Alpha virt. eigenvalues --    0.85845   0.86344   0.88020   0.88894   0.89179
 Alpha virt. eigenvalues --    0.91868   0.93623   0.93937   0.94893   0.95380
 Alpha virt. eigenvalues --    0.95445   0.98843   0.99490   1.00219   1.02049
 Alpha virt. eigenvalues --    1.02159   1.04500   1.05637   1.05946   1.07368
 Alpha virt. eigenvalues --    1.07381   1.08466   1.11966   1.13371   1.13799
 Alpha virt. eigenvalues --    1.14646   1.15072   1.18172   1.19434   1.23380
 Alpha virt. eigenvalues --    1.23820   1.24431   1.24642   1.27693   1.28281
 Alpha virt. eigenvalues --    1.31312   1.33774   1.35808   1.38940   1.41096
 Alpha virt. eigenvalues --    1.43331   1.45191   1.46321   1.49753   1.53212
 Alpha virt. eigenvalues --    1.53870   1.54387   1.60617   1.62592   1.64094
 Alpha virt. eigenvalues --    1.68777   1.69968   1.76377   1.78526   1.78789
 Alpha virt. eigenvalues --    1.81084   1.86462   1.86834   1.87944   1.88213
 Alpha virt. eigenvalues --    1.90032   1.95691   1.99015   2.00908   2.03419
 Alpha virt. eigenvalues --    2.05890   2.06519   2.08019   2.12416   2.17049
 Alpha virt. eigenvalues --    2.19502   2.21111   2.26685   2.28471   2.30975
 Alpha virt. eigenvalues --    2.31104   2.40321   2.41032   2.44552   2.53619
 Alpha virt. eigenvalues --    2.54319   2.56665   2.62372   2.62771   2.71779
 Alpha virt. eigenvalues --    2.83135   2.89561   2.94942   2.98618   3.17443
 Alpha virt. eigenvalues --    3.25997   3.27320   3.31969   3.36280   3.38217
 Alpha virt. eigenvalues --    3.42539   3.48467   3.49340   3.51023   3.58532
 Alpha virt. eigenvalues --    3.58699   3.63657   3.67751   3.72824   3.73677
 Alpha virt. eigenvalues --    3.80147   3.81818   3.82821   3.85425   3.93873
 Alpha virt. eigenvalues --    3.96467   3.97531   4.01051   4.06542   4.08314
 Alpha virt. eigenvalues --    4.08467   4.09755   4.13077   4.16295   4.23334
 Alpha virt. eigenvalues --    4.29372   4.30208   4.31362   4.31906   4.33391
 Alpha virt. eigenvalues --    4.41574   4.42221   4.48575   4.51851   4.52913
 Alpha virt. eigenvalues --    4.55468   4.61104   4.63096   4.71503   4.72226
 Alpha virt. eigenvalues --    4.79678   4.84015   4.87127   4.87596   4.88958
 Alpha virt. eigenvalues --    4.89618   4.93988   5.00428   5.00605   5.04179
 Alpha virt. eigenvalues --    5.09297   5.14601   5.14810   5.20235   5.28213
 Alpha virt. eigenvalues --    5.29775   5.36006   5.37415   5.38594   5.44717
 Alpha virt. eigenvalues --    5.47897   5.52979   5.56616   5.58938   5.66553
 Alpha virt. eigenvalues --    5.75505   5.78953   5.85156   5.88479   5.98501
 Alpha virt. eigenvalues --    6.09596   6.19966   6.21321   6.36665   6.44148
 Alpha virt. eigenvalues --    6.48542   6.59754   6.77830   6.81372   6.97053
 Alpha virt. eigenvalues --    7.40838   7.52361   7.71264  16.91342  17.44167
 Alpha virt. eigenvalues --   18.25024
          Condensed to atoms (all electrons):
               1          2          3          4          5          6
     1  C    6.331554   0.218958   0.415135   0.381839  -0.279343  -0.047913
     2  C    0.218958   5.468318  -0.096814   0.039140   0.392116   0.212897
     3  H    0.415135  -0.096814   0.299726  -0.014451  -0.034481   0.003074
     4  H    0.381839   0.039140  -0.014451   0.273691   0.000453  -0.007284
     5  N   -0.279343   0.392116  -0.034481   0.000453   6.527529  -0.041519
     6  H   -0.047913   0.212897   0.003074  -0.007284  -0.041519   0.236098
     7  H   -0.000772   0.003311  -0.003704   0.002116   0.432826  -0.004920
     8  H    0.009058  -0.049890   0.001472  -0.001013   0.436756   0.005938
               7          8
     1  C   -0.000772   0.009058
     2  C    0.003311  -0.049890
     3  H   -0.003704   0.001472
     4  H    0.002116  -0.001013
     5  N    0.432826   0.436756
     6  H   -0.004920   0.005938
     7  H    0.506758  -0.058778
     8  H   -0.058778   0.527910
 Mulliken charges:
               1
     1  C   -1.028516
     2  C   -0.188037
     3  H    0.430043
     4  H    0.325508
     5  N   -0.434336
     6  H    0.643628
     7  H    0.123163
     8  H    0.128546
 Sum of Mulliken charges =  -0.00000
 Mulliken charges with hydrogens summed into heavy atoms:
               1
     1  C   -0.272964
     2  C    0.455592
     5  N   -0.182627
 Electronic spatial extent (au):  <R**2>=            176.5831
 Charge=             -0.0000 electrons
 Dipole moment (field-independent basis, Debye):
    X=             -0.3457    Y=              1.8071    Z=             -0.0000  Tot=              1.8399
 Quadrupole moment (field-independent basis, Debye-Ang):
   XX=            -16.2195   YY=            -17.1439   ZZ=            -23.4503
   XY=              0.1276   XZ=             -0.0000   YZ=              0.0000
 Traceless Quadrupole moment (field-independent basis, Debye-Ang):
   XX=              2.7184   YY=              1.7940   ZZ=             -4.5124
   XY=              0.1276   XZ=             -0.0000   YZ=              0.0000
 Octapole moment (field-independent basis, Debye-Ang**2):
  XXX=              0.0034  YYY=             10.9864  ZZZ=             -0.0000  XYY=             -1.7849
  XXY=              4.5802  XXZ=             -0.0000  XZZ=             -0.4377  YZZ=              2.5490
  YYZ=             -0.0000  XYZ=              0.0000
 Hexadecapole moment (field-independent basis, Debye-Ang**3):
 XXXX=            -45.8535 YYYY=           -140.3833 ZZZZ=            -29.3080 XXXY=              9.7976
 XXXZ=             -0.0000 YYYX=              6.8280 YYYZ=              0.0000 ZZZX=             -0.0000
 ZZZY=              0.0000 XXYY=            -30.2756 XXZZ=            -14.5336 YYZZ=            -37.9506
 XXYZ=              0.0000 YYXZ=             -0.0000 ZZXY=              3.4429
 N-N= 7.212336639343D+01 E-N=-4.548792392445D+02  KE= 1.329207130476D+02
 Symmetry A'   KE= 1.278635879671D+02
 Symmetry A"   KE= 5.057125080517D+00
 Calling FoFJK, ICntrl=  10002127 FMM=F ISym2X=1 I1Cent= 0 IOpClX= 0 NMat=1 NMatS=1 NMatT=0.
 ***** Axes restored to original set *****
 -------------------------------------------------------------------
 Center     Atomic                   Forces (Hartrees/Bohr)
 Number     Number              X              Y              Z
 -------------------------------------------------------------------
      1        6          -0.010445088    0.012035280   -0.002101767
      2        6          -0.006767196   -0.003553933   -0.015931163
      3        1           0.000211824   -0.001064502   -0.001010395
      4        1           0.003676601   -0.002275748    0.003256218
      5        7           0.018390346   -0.011957834    0.015550158
      6        1          -0.000151035    0.002522233    0.002983519
      7        1           0.000466986   -0.006497388   -0.007554781
      8        1          -0.005382438    0.010791892    0.004808211
 -------------------------------------------------------------------
 Cartesian Forces:  Max     0.018390346 RMS     0.008186478

 GradGradGradGradGradGradGradGradGradGradGradGradGradGradGradGradGradGrad
 Berny optimization.
 FormGI is forming the generalized inverse of G from B-inverse, IUseBI=4.
 Internal  Forces:  Max     0.020059968 RMS     0.005941814
 Search for a local minimum.
 Step number   1 out of a maximum of   34
 All quantities printed in internal units (Hartrees-Bohrs-Radians)
 Mixed Optimization -- RFO/linear search
 Second derivative matrix not updated -- first step.
 ITU=  0
     Eigenvalues ---    0.02310   0.02310   0.02660   0.02974   0.02974
     Eigenvalues ---    0.16000   0.16000   0.16000   0.16000   0.16000
     Eigenvalues ---    0.22000   0.34931   0.35425   0.35507   0.45444
     Eigenvalues ---    0.45478   0.54326   0.58781
 RFO step:  Lambda=-1.78845136D-03 EMin= 2.30958928D-02
 Linear search not attempted -- first point.
 Iteration  1 RMS(Cart)=  0.01923079 RMS(Int)=  0.00010260
 Iteration  2 RMS(Cart)=  0.00010469 RMS(Int)=  0.00000001
 Iteration  3 RMS(Cart)=  0.00000001 RMS(Int)=  0.00000001
 ClnCor:  largest displacement from symmetrization is 6.15D-09 for atom     3.
 Variable       Old X    -DE/DX   Delta X   Delta X   Delta X     New X
                                 (Linear)    (Quad)   (Total)
    R1        2.51918   0.01086   0.00000   0.01842   0.01842   2.53760
    R2        2.04859  -0.00143   0.00000  -0.00402  -0.00402   2.04457
    R3        2.04990  -0.00529   0.00000  -0.01485  -0.01485   2.03505
    R4        2.55736   0.02006   0.00000   0.03680   0.03680   2.59416
    R5        2.05787  -0.00388   0.00000  -0.01104  -0.01104   2.04683
    R6        1.91424  -0.00964   0.00000  -0.02112  -0.02112   1.89312
    R7        1.91463  -0.01264   0.00000  -0.02770  -0.02770   1.88693
    A1        2.12325   0.00028   0.00000   0.00173   0.00173   2.12498
    A2        2.10531  -0.00133   0.00000  -0.00823  -0.00823   2.09708
    A3        2.05463   0.00105   0.00000   0.00649   0.00649   2.06112
    A4        2.20080   0.00213   0.00000   0.00960   0.00960   2.21039
    A5        2.09513  -0.00160   0.00000  -0.00810  -0.00810   2.08703
    A6        1.98726  -0.00053   0.00000  -0.00149  -0.00149   1.98576
    A7        2.10056   0.00136   0.00000   0.00840   0.00840   2.10897
    A8        2.10104   0.00216   0.00000   0.01335   0.01335   2.11439
    A9        2.08158  -0.00352   0.00000  -0.02175  -0.02175   2.05983
    D1       -0.00000   0.00000   0.00000   0.00000   0.00000  -0.00000
    D2        3.14159   0.00000   0.00000   0.00000   0.00000  -3.14159
    D3        3.14159  -0.00000   0.00000  -0.00000  -0.00000   3.14159
    D4        0.00000   0.00000   0.00000   0.00000   0.00000   0.00000
    D5       -0.00000   0.00000   0.00000   0.00000   0.00000   0.00000
    D6        3.14159   0.00000   0.00000   0.00000   0.00000   3.14159
    D7        3.14159   0.00000   0.00000   0.00000   0.00000   3.14159
    D8       -0.00000   0.00000   0.00000   0.00000   0.00000   0.00000
         Item               Value     Threshold  Converged?
 Maximum Force            0.020060     0.000450     NO 
 RMS     Force            0.005942     0.000300     NO 
 Maximum Displacement     0.049197     0.001800     NO 
 RMS     Displacement     0.019204     0.001200     NO 
 Predicted change in Energy=-8.980358D-04
 GradGradGradGradGradGradGradGradGradGradGradGradGradGradGradGradGradGrad

                          Input orientation:                          
 ---------------------------------------------------------------------
 Center     Atomic      Atomic             Coordinates (Angstroms)
 Number     Number       Type             X           Y           Z
 ---------------------------------------------------------------------
      1          6           0       -0.520704   -0.154304   -0.310885
      2          6           0        0.250793   -1.248111   -0.418574
      3          1           0       -0.486925    0.482472    0.563167
      4          1           0       -1.196776    0.111231   -1.105954
      5          7           0        1.153608   -1.708417    0.507463
      6          1           0        0.188439   -1.860733   -1.309635
      7          1           0        1.296195   -1.221880    1.371493
      8          1           0        1.687098   -2.536011    0.341577
 ---------------------------------------------------------------------
                    Distance matrix (angstroms):
                    1          2          3          4          5
     1  C    0.000000
     2  C    1.342839   0.000000
     3  H    1.081939   2.122019   0.000000
     4  H    1.076902   2.101370   1.851397   0.000000
     5  N    2.426578   1.372771   2.737599   3.382091   0.000000
     6  H    2.100544   1.083136   3.074755   2.418460   2.063153
     7  H    2.696523   2.073136   2.595713   3.758967   1.001796
     8  H    3.312495   2.073521   3.726489   4.173723   0.998520
                    6          7          8
     6  H    0.000000
     7  H    2.970472   0.000000
     8  H    2.329910   1.714781   0.000000
 Stoichiometry    C2H5N
 Framework group  CS[SG(C2H5N)]
 Deg. of freedom    13
 Full point group                 CS      NOp   2
 Largest Abelian subgroup         CS      NOp   2
 Largest concise Abelian subgroup C1      NOp   1
                         Standard orientation:                         
 ---------------------------------------------------------------------
 Center     Atomic      Atomic             Coordinates (Angstroms)
 Number     Number       Type             X           Y           Z
 ---------------------------------------------------------------------
      1          6           0        1.271148    0.002003   -0.000000
      2          6           0       -0.000000   -0.430895   -0.000000
      3          1           0        1.513537    1.056441    0.000000
      4          1           0        2.083407   -0.705069   -0.000000
      5          7           0       -1.130696    0.347583    0.000000
      6          1           0       -0.202427   -1.494947   -0.000000
      7          1           0       -1.065832    1.347277    0.000000
      8          1           0       -2.040701   -0.063433    0.000000
 ---------------------------------------------------------------------
 Rotational constants (GHZ):          58.4975741          10.0375973           8.5675001
 Standard basis: Aug-CC-pVTZ (5D, 7F)
 There are   201 symmetry adapted cartesian basis functions of A'  symmetry.
 There are    89 symmetry adapted cartesian basis functions of A"  symmetry.
 There are   170 symmetry adapted basis functions of A'  symmetry.
 There are    83 symmetry adapted basis functions of A"  symmetry.
   253 basis functions,   351 primitive gaussians,   290 cartesian basis functions
    12 alpha electrons       12 beta electrons
       nuclear repulsion energy        71.7229387278 Hartrees.
 NAtoms=    8 NActive=    8 NUniq=    8 SFac= 1.00D+00 NAtFMM=   60 NAOKFM=F Big=F
 Integral buffers will be    131072 words long.
 Raffenetti 1 integral format.
 Two-electron integral symmetry is turned on.
 One-electron integrals computed using PRISM.
 NBasis=   253 RedAO= T EigKep=  8.82D-06  NBF=   170    83
 NBsUse=   253 1.00D-06 EigRej= -1.00D+00 NBFU=   170    83
 Initial guess from the checkpoint file:  "/scr/Gau-45621.chk"
 B after Tr=     0.000000    0.000000    0.000000
         Rot=    0.804797   -0.000000    0.000000   -0.593550 Ang= -72.82 deg.
 Initial guess orbital symmetries:
       Occupied  (A') (A') (A') (A') (A') (A') (A') (A') (A') (A')
                 (A") (A")
       Virtual   (A') (A') (A') (A') (A') (A") (A") (A') (A') (A')
                 (A") (A') (A') (A') (A') (A') (A") (A') (A") (A')
                 (A') (A') (A") (A") (A') (A') (A') (A') (A") (A')
                 (A') (A') (A") (A') (A") (A') (A') (A') (A") (A')
                 (A') (A") (A') (A') (A') (A") (A') (A') (A') (A")
                 (A') (A") (A") (A') (A') (A') (A') (A") (A') (A')
                 (A') (A") (A') (A") (A') (A') (A') (A') (A") (A')
                 (A") (A") (A') (A") (A') (A') (A') (A") (A') (A')
                 (A") (A") (A') (A') (A") (A') (A") (A') (A') (A")
                 (A') (A') (A") (A') (A') (A") (A') (A') (A') (A")
                 (A") (A') (A') (A") (A') (A') (A") (A') (A") (A')
                 (A") (A') (A') (A") (A') (A') (A") (A') (A") (A')
                 (A') (A') (A") (A') (A') (A') (A") (A") (A') (A')
                 (A') (A") (A') (A') (A') (A") (A") (A') (A') (A")
                 (A') (A') (A") (A') (A') (A') (A') (A") (A') (A')
                 (A') (A") (A') (A") (A') (A") (A") (A') (A") (A")
                 (A') (A') (A') (A') (A") (A') (A") (A") (A') (A')
                 (A') (A') (A') (A") (A") (A') (A') (A') (A") (A')
                 (A') (A") (A') (A") (A") (A') (A") (A') (A") (A')
                 (A") (A') (A') (A") (A') (A') (A') (A") (A") (A')
                 (A") (A') (A') (A") (A") (A') (A') (A") (A') (A')
                 (A') (A') (A') (A") (A') (A") (A') (A') (A") (A')
                 (A") (A') (A') (A") (A') (A") (A") (A') (A') (A')
                 (A') (A') (A') (A') (A') (A') (A') (A') (A') (A')
                 (A')
 ExpMin= 2.53D-02 ExpMax= 1.14D+04 ExpMxC= 3.89D+02 IAcc=3 IRadAn=         5 AccDes= 0.00D+00
 Harris functional with IExCor=  205 and IRadAn=       5 diagonalized for initial guess.
 HarFok:  IExCor=  205 AccDes= 0.00D+00 IRadAn=         5 IDoV= 1 UseB2=F ITyADJ=14
 ICtDFT=  3500011 ScaDFX=  1.000000  1.000000  1.000000  1.000000
 FoFCou: FMM=F IPFlag=           0 FMFlag=      100000 FMFlg1=           0
         NFxFlg=           0 DoJE=T BraDBF=F KetDBF=T FulRan=T
         wScrn=  0.000000 ICntrl=       500 IOpCl=  0 I1Cent=   200000004 NGrid=           0
         NMat0=    1 NMatS0=      1 NMatT0=    0 NMatD0=    1 NMtDS0=    0 NMtDT0=    0
 Petite list used in FoFCou.
 Keep R1 ints in memory in symmetry-blocked form, NReq=778226835.
 Requested convergence on RMS density matrix=1.00D-08 within 128 cycles.
 Requested convergence on MAX density matrix=1.00D-06.
 Requested convergence on             energy=1.00D-06.
 No special actions if energy rises.
 SCF Done:  E(RHF) =  -133.120563737     A.U. after   10 cycles
            NFock= 10  Conv=0.32D-08     -V/T= 2.0016
 ExpMin= 2.53D-02 ExpMax= 1.14D+04 ExpMxC= 3.89D+02 IAcc=3 IRadAn=         5 AccDes= 0.00D+00
 HarFok:  IExCor=  205 AccDes= 0.00D+00 IRadAn=         5 IDoV=-2 UseB2=F ITyADJ=14
 ICtDFT= 12500011 ScaDFX=  1.000000  1.000000  1.000000  1.000000
 Range of M.O.s used for correlation:     4   253
 NBasis=   253 NAE=    12 NBE=    12 NFC=     3 NFV=     0
 NROrb=    250 NOA=     9 NOB=     9 NVA=   241 NVB=   241

 **** Warning!!: The largest alpha MO coefficient is  0.60505540D+02

 Fully direct method using O(ONN) memory.
 JobTyp=1 Pass  1:  I=   4 to  12 NPSUse= 40 ParTrn=T ParDer=T DoDerP=T.
 Spin components of T(2) and E(2):
     alpha-alpha T2 =       0.2103619722D-01 E2=     -0.6420083043D-01
     alpha-beta  T2 =       0.1299488748D+00 E2=     -0.4261587132D+00
     beta-beta   T2 =       0.2103619722D-01 E2=     -0.6420083043D-01
 ANorm=    0.1082599312D+01
 E2 =    -0.5545603740D+00 EUMP2 =    -0.13367512411147D+03
          IDoAtm=11111111
          Differentiating once with respect to electric field.
                with respect to dipole field.
          Differentiating once with respect to nuclear coordinates.
 Keep R1 ints in memory in symmetry-blocked form, NReq=778228475.
          There are     1 degrees of freedom in the 1st order CPHF.  IDoFFX=0 NUNeed=     1.
 LinEq1:  Iter=  0 NonCon=     1 RMS=2.96D-03 Max=7.50D-02 NDo=     1
 AX will form     1 AO Fock derivatives at one time.
 LinEq1:  Iter=  1 NonCon=     1 RMS=8.54D-04 Max=9.88D-03 NDo=     1
 LinEq1:  Iter=  2 NonCon=     1 RMS=2.69D-04 Max=4.62D-03 NDo=     1
 LinEq1:  Iter=  3 NonCon=     1 RMS=7.07D-05 Max=1.39D-03 NDo=     1
 LinEq1:  Iter=  4 NonCon=     1 RMS=2.73D-05 Max=5.61D-04 NDo=     1
 LinEq1:  Iter=  5 NonCon=     1 RMS=5.91D-06 Max=6.30D-05 NDo=     1
 LinEq1:  Iter=  6 NonCon=     1 RMS=1.66D-06 Max=3.33D-05 NDo=     1
 LinEq1:  Iter=  7 NonCon=     1 RMS=5.65D-07 Max=9.14D-06 NDo=     1
 LinEq1:  Iter=  8 NonCon=     1 RMS=1.83D-07 Max=2.26D-06 NDo=     1
 LinEq1:  Iter=  9 NonCon=     1 RMS=4.10D-08 Max=4.17D-07 NDo=     1
 LinEq1:  Iter= 10 NonCon=     1 RMS=6.22D-09 Max=6.17D-08 NDo=     1
 LinEq1:  Iter= 11 NonCon=     1 RMS=7.79D-10 Max=9.70D-09 NDo=     1
 LinEq1:  Iter= 12 NonCon=     1 RMS=1.15D-10 Max=1.39D-09 NDo=     1
 LinEq1:  Iter= 13 NonCon=     0 RMS=2.00D-11 Max=1.95D-10 NDo=     1
 Linear equations converged to 1.000D-10 1.000D-09 after    13 iterations.
 End of Minotr F.D. properties file   721 does not exist.
 End of Minotr F.D. properties file   722 does not exist.
 End of Minotr F.D. properties file   788 does not exist.
 Calling FoFJK, ICntrl=  10002127 FMM=F ISym2X=1 I1Cent= 0 IOpClX= 0 NMat=1 NMatS=1 NMatT=0.
 ***** Axes restored to original set *****
 -------------------------------------------------------------------
 Center     Atomic                   Forces (Hartrees/Bohr)
 Number     Number              X              Y              Z
 -------------------------------------------------------------------
      1        6           0.000976303    0.000102521    0.001771892
      2        6          -0.001975971    0.000877653   -0.002193404
      3        1           0.000209887   -0.000318774   -0.000056510
      4        1           0.000203728   -0.000797312   -0.000681059
      5        7          -0.000182271    0.000831024    0.000760379
      6        1           0.000257177   -0.000109124    0.000292028
      7        1           0.000179484    0.000034990    0.000346465
      8        1           0.000331662   -0.000620977   -0.000239790
 -------------------------------------------------------------------
 Cartesian Forces:  Max     0.002193404 RMS     0.000842884

 GradGradGradGradGradGradGradGradGradGradGradGradGradGradGradGradGradGrad
 Berny optimization.
 Using GEDIIS/GDIIS optimizer.
 FormGI is forming the generalized inverse of G from B-inverse, IUseBI=4.
 Internal  Forces:  Max     0.001541194 RMS     0.000571527
 Search for a local minimum.
 Step number   2 out of a maximum of   34
 All quantities printed in internal units (Hartrees-Bohrs-Radians)
 Mixed Optimization -- En-DIIS/RFO-DIIS
 Update second derivatives using D2CorX and points    1    2
 DE= -8.77D-04 DEPred=-8.98D-04 R= 9.77D-01
 TightC=F SS=  1.41D+00  RLast= 6.53D-02 DXNew= 5.0454D-01 1.9583D-01
 Trust test= 9.77D-01 RLast= 6.53D-02 DXMaxT set to 3.00D-01
 ITU=  1  0
 Use linear search instead of GDIIS.
     Eigenvalues ---    0.02310   0.02310   0.02659   0.02974   0.02974
     Eigenvalues ---    0.15408   0.16000   0.16000   0.16000   0.16279
     Eigenvalues ---    0.22286   0.34835   0.35444   0.35545   0.45448
     Eigenvalues ---    0.46610   0.52469   0.61112
 RFO step:  Lambda=-2.92380017D-05 EMin= 2.30958928D-02
 Quartic linear search produced a step of -0.01586.
 Iteration  1 RMS(Cart)=  0.00250564 RMS(Int)=  0.00000520
 Iteration  2 RMS(Cart)=  0.00000601 RMS(Int)=  0.00000001
 Iteration  3 RMS(Cart)=  0.00000001 RMS(Int)=  0.00000000
 ClnCor:  largest displacement from symmetrization is 6.13D-09 for atom     6.
 Variable       Old X    -DE/DX   Delta X   Delta X   Delta X     New X
                                 (Linear)    (Quad)   (Total)
    R1        2.53760  -0.00154  -0.00029  -0.00199  -0.00228   2.53532
    R2        2.04457  -0.00023   0.00006  -0.00076  -0.00069   2.04388
    R3        2.03505   0.00018   0.00024   0.00002   0.00025   2.03530
    R4        2.59416   0.00072  -0.00058   0.00248   0.00190   2.59606
    R5        2.04683  -0.00019   0.00018  -0.00090  -0.00072   2.04611
    R6        1.89312   0.00034   0.00034   0.00006   0.00040   1.89352
    R7        1.88693   0.00073   0.00044   0.00070   0.00113   1.88806
    A1        2.12498   0.00029  -0.00003   0.00183   0.00180   2.12679
    A2        2.09708  -0.00122   0.00013  -0.00774  -0.00761   2.08947
    A3        2.06112   0.00093  -0.00010   0.00591   0.00581   2.06693
    A4        2.21039  -0.00093  -0.00015  -0.00385  -0.00400   2.20639
    A5        2.08703   0.00083   0.00013   0.00405   0.00418   2.09121
    A6        1.98576   0.00010   0.00002  -0.00020  -0.00018   1.98559
    A7        2.10897   0.00033  -0.00013   0.00228   0.00214   2.11111
    A8        2.11439  -0.00029  -0.00021  -0.00135  -0.00156   2.11283
    A9        2.05983  -0.00004   0.00035  -0.00093  -0.00058   2.05924
    D1       -0.00000   0.00000   0.00000   0.00000   0.00000   0.00000
    D2        3.14159   0.00000  -0.00000   0.00000  -0.00000   3.14159
    D3        3.14159  -0.00000   0.00000  -0.00000   0.00000   3.14159
    D4       -0.00000  -0.00000   0.00000   0.00000  -0.00000  -0.00000
    D5        0.00000   0.00000   0.00000   0.00000  -0.00000   0.00000
    D6        3.14159   0.00000   0.00000  -0.00000   0.00000   3.14159
    D7        3.14159  -0.00000   0.00000  -0.00000   0.00000   3.14159
    D8        0.00000   0.00000   0.00000  -0.00000  -0.00000   0.00000
         Item               Value     Threshold  Converged?
 Maximum Force            0.001541     0.000450     NO 
 RMS     Force            0.000572     0.000300     NO 
 Maximum Displacement     0.006832     0.001800     NO 
 RMS     Displacement     0.002508     0.001200     NO 
 Predicted change in Energy=-1.484981D-05
 GradGradGradGradGradGradGradGradGradGradGradGradGradGradGradGradGradGrad

                          Input orientation:                          
 ---------------------------------------------------------------------
 Center     Atomic      Atomic             Coordinates (Angstroms)
 Number     Number       Type             X           Y           Z
 ---------------------------------------------------------------------
      1          6           0       -0.519939   -0.153919   -0.309106
      2          6           0        0.249321   -1.247476   -0.420231
      3          1           0       -0.485330    0.481922    0.565141
      4          1           0       -1.194576    0.107615   -1.106898
      5          7           0        1.152461   -1.706982    0.507376
      6          1           0        0.187933   -1.860719   -1.310467
      7          1           0        1.295802   -1.221069    1.371874
      8          1           0        1.686058   -2.535127    0.340963
 ---------------------------------------------------------------------
                    Distance matrix (angstroms):
                    1          2          3          4          5
     1  C    0.000000
     2  C    1.341633   0.000000
     3  H    1.081572   2.121671   0.000000
     4  H    1.077036   2.095858   1.854413   0.000000
     5  N    2.423958   1.373777   2.734410   3.377459   0.000000
     6  H    2.101660   1.082753   3.075574   2.413941   2.063614
     7  H    2.694702   2.075443   2.592958   3.756554   1.002005
     8  H    3.310463   2.074048   3.723945   4.168745   0.999121
                    6          7          8
     6  H    0.000000
     7  H    2.971781   0.000000
     8  H    2.329469   1.715175   0.000000
 Stoichiometry    C2H5N
 Framework group  CS[SG(C2H5N)]
 Deg. of freedom    13
 Full point group                 CS      NOp   2
 Largest Abelian subgroup         CS      NOp   2
 Largest concise Abelian subgroup C1      NOp   1
                         Standard orientation:                         
 ---------------------------------------------------------------------
 Center     Atomic      Atomic             Coordinates (Angstroms)
 Number     Number       Type             X           Y           Z
 ---------------------------------------------------------------------
      1          6           0        1.269837    0.000482   -0.000000
      2          6           0        0.000000   -0.432520    0.000000
      3          1           0        1.513637    1.054219   -0.000000
      4          1           0        2.077069   -0.712528    0.000000
      5          7           0       -1.128700    0.350615   -0.000000
      6          1           0       -0.206390   -1.495421    0.000000
      7          1           0       -1.062347    1.350422   -0.000000
      8          1           0       -2.040095   -0.058775    0.000000
 ---------------------------------------------------------------------
 Rotational constants (GHZ):          58.2748240          10.0593516           8.5785325
 Standard basis: Aug-CC-pVTZ (5D, 7F)
 There are   201 symmetry adapted cartesian basis functions of A'  symmetry.
 There are    89 symmetry adapted cartesian basis functions of A"  symmetry.
 There are   170 symmetry adapted basis functions of A'  symmetry.
 There are    83 symmetry adapted basis functions of A"  symmetry.
   253 basis functions,   351 primitive gaussians,   290 cartesian basis functions
    12 alpha electrons       12 beta electrons
       nuclear repulsion energy        71.7381444946 Hartrees.
 NAtoms=    8 NActive=    8 NUniq=    8 SFac= 1.00D+00 NAtFMM=   60 NAOKFM=F Big=F
 Integral buffers will be    131072 words long.
 Raffenetti 1 integral format.
 Two-electron integral symmetry is turned on.
 One-electron integrals computed using PRISM.
 NBasis=   253 RedAO= T EigKep=  8.89D-06  NBF=   170    83
 NBsUse=   253 1.00D-06 EigRej= -1.00D+00 NBFU=   170    83
 Initial guess from the checkpoint file:  "/scr/Gau-45621.chk"
 B after Tr=     0.000000    0.000000   -0.000000
         Rot=    0.999999    0.000000   -0.000000    0.001142 Ang=   0.13 deg.
 Initial guess orbital symmetries:
       Occupied  (A') (A') (A') (A') (A') (A') (A') (A') (A') (A')
                 (A") (A")
       Virtual   (A') (A') (A') (A') (A') (A") (A") (A') (A') (A')
                 (A") (A') (A') (A') (A') (A') (A") (A') (A") (A')
                 (A') (A') (A") (A") (A') (A') (A') (A') (A") (A')
                 (A') (A") (A') (A') (A") (A') (A') (A') (A") (A')
                 (A') (A") (A') (A') (A') (A") (A') (A') (A') (A")
                 (A') (A") (A") (A') (A') (A') (A') (A") (A') (A')
                 (A') (A") (A') (A") (A') (A') (A') (A') (A") (A')
                 (A") (A") (A') (A") (A') (A') (A') (A") (A') (A')
                 (A") (A") (A') (A') (A") (A') (A") (A') (A') (A")
                 (A') (A') (A") (A') (A') (A") (A') (A') (A') (A")
                 (A") (A') (A') (A") (A') (A') (A") (A') (A") (A')
                 (A") (A') (A') (A") (A') (A') (A") (A') (A") (A')
                 (A') (A') (A") (A') (A') (A") (A') (A") (A') (A')
                 (A') (A") (A') (A') (A") (A') (A') (A") (A') (A')
                 (A") (A') (A') (A") (A') (A') (A') (A") (A') (A')
                 (A') (A") (A') (A") (A') (A") (A") (A') (A") (A")
                 (A') (A') (A') (A') (A") (A') (A") (A") (A') (A')
                 (A') (A') (A') (A") (A") (A') (A') (A') (A") (A')
                 (A') (A") (A') (A") (A") (A') (A") (A') (A") (A')
                 (A") (A') (A') (A') (A") (A') (A') (A") (A") (A')
                 (A") (A') (A") (A') (A") (A') (A") (A') (A') (A')
                 (A') (A') (A') (A") (A') (A") (A') (A") (A') (A')
                 (A") (A') (A') (A") (A') (A") (A') (A") (A') (A')
                 (A') (A') (A') (A') (A') (A') (A') (A') (A') (A')
                 (A')
 Keep R1 ints in memory in symmetry-blocked form, NReq=778226835.
 Requested convergence on RMS density matrix=1.00D-08 within 128 cycles.
 Requested convergence on MAX density matrix=1.00D-06.
 Requested convergence on             energy=1.00D-06.
 No special actions if energy rises.
 SCF Done:  E(RHF) =  -133.120589411     A.U. after    8 cycles
            NFock=  8  Conv=0.69D-08     -V/T= 2.0016
 ExpMin= 2.53D-02 ExpMax= 1.14D+04 ExpMxC= 3.89D+02 IAcc=3 IRadAn=         5 AccDes= 0.00D+00
 HarFok:  IExCor=  205 AccDes= 0.00D+00 IRadAn=         5 IDoV=-2 UseB2=F ITyADJ=14
 ICtDFT= 12500011 ScaDFX=  1.000000  1.000000  1.000000  1.000000
 Range of M.O.s used for correlation:     4   253
 NBasis=   253 NAE=    12 NBE=    12 NFC=     3 NFV=     0
 NROrb=    250 NOA=     9 NOB=     9 NVA=   241 NVB=   241

 **** Warning!!: The largest alpha MO coefficient is  0.58882606D+02

 Fully direct method using O(ONN) memory.
 JobTyp=1 Pass  1:  I=   4 to  12 NPSUse= 40 ParTrn=T ParDer=T DoDerP=T.
 Spin components of T(2) and E(2):
     alpha-alpha T2 =       0.2103267342D-01 E2=     -0.6420022020D-01
     alpha-beta  T2 =       0.1299220007D+00 E2=     -0.4261518457D+00
     beta-beta   T2 =       0.2103267342D-01 E2=     -0.6420022020D-01
 ANorm=    0.1082583645D+01
 E2 =    -0.5545522861D+00 EUMP2 =    -0.13367514169728D+03
          IDoAtm=11111111
          Differentiating once with respect to electric field.
                with respect to dipole field.
          Differentiating once with respect to nuclear coordinates.
 Keep R1 ints in memory in symmetry-blocked form, NReq=778228475.
          There are     1 degrees of freedom in the 1st order CPHF.  IDoFFX=0 NUNeed=     1.
 LinEq1:  Iter=  0 NonCon=     1 RMS=2.95D-03 Max=7.49D-02 NDo=     1
 AX will form     1 AO Fock derivatives at one time.
 LinEq1:  Iter=  1 NonCon=     1 RMS=8.52D-04 Max=9.86D-03 NDo=     1
 LinEq1:  Iter=  2 NonCon=     1 RMS=2.68D-04 Max=4.63D-03 NDo=     1
 LinEq1:  Iter=  3 NonCon=     1 RMS=7.05D-05 Max=1.39D-03 NDo=     1
 LinEq1:  Iter=  4 NonCon=     1 RMS=2.72D-05 Max=5.55D-04 NDo=     1
 LinEq1:  Iter=  5 NonCon=     1 RMS=5.89D-06 Max=6.29D-05 NDo=     1
 LinEq1:  Iter=  6 NonCon=     1 RMS=1.64D-06 Max=3.26D-05 NDo=     1
 LinEq1:  Iter=  7 NonCon=     1 RMS=5.58D-07 Max=9.15D-06 NDo=     1
 LinEq1:  Iter=  8 NonCon=     1 RMS=1.82D-07 Max=2.23D-06 NDo=     1
 LinEq1:  Iter=  9 NonCon=     1 RMS=4.09D-08 Max=4.14D-07 NDo=     1
 LinEq1:  Iter= 10 NonCon=     1 RMS=6.22D-09 Max=6.13D-08 NDo=     1
 LinEq1:  Iter= 11 NonCon=     1 RMS=7.78D-10 Max=9.68D-09 NDo=     1
 LinEq1:  Iter= 12 NonCon=     1 RMS=1.15D-10 Max=1.38D-09 NDo=     1
 LinEq1:  Iter= 13 NonCon=     0 RMS=2.00D-11 Max=1.95D-10 NDo=     1
 Linear equations converged to 1.000D-10 1.000D-09 after    13 iterations.
 End of Minotr F.D. properties file   721 does not exist.
 End of Minotr F.D. properties file   722 does not exist.
 End of Minotr F.D. properties file   788 does not exist.
 Calling FoFJK, ICntrl=  10002127 FMM=F ISym2X=1 I1Cent= 0 IOpClX= 0 NMat=1 NMatS=1 NMatT=0.
 ***** Axes restored to original set *****
 -------------------------------------------------------------------
 Center     Atomic                   Forces (Hartrees/Bohr)
 Number     Number              X              Y              Z
 -------------------------------------------------------------------
      1        6           0.000002807    0.000362480    0.000469958
      2        6          -0.000378744    0.000186817   -0.000396556
      3        1           0.000095280   -0.000172754   -0.000061648
      4        1          -0.000014122   -0.000173927   -0.000246962
      5        7           0.000056658    0.000016212    0.000116000
      6        1           0.000122049   -0.000088014    0.000092091
      7        1           0.000011910    0.000044290    0.000076856
      8        1           0.000104163   -0.000175103   -0.000049738
 -------------------------------------------------------------------
 Cartesian Forces:  Max     0.000469958 RMS     0.000196010

 GradGradGradGradGradGradGradGradGradGradGradGradGradGradGradGradGradGrad
 Berny optimization.
 Using GEDIIS/GDIIS optimizer.
 FormGI is forming the generalized inverse of G from B-inverse, IUseBI=4.
 Internal  Forces:  Max     0.000276371 RMS     0.000123763
 Search for a local minimum.
 Step number   3 out of a maximum of   34
 All quantities printed in internal units (Hartrees-Bohrs-Radians)
 Mixed Optimization -- En-DIIS/RFO-DIIS
 Swapping is turned off.
 Update second derivatives using D2CorX and points    1    2    3
 DE= -1.76D-05 DEPred=-1.48D-05 R= 1.18D+00
 TightC=F SS=  1.41D+00  RLast= 1.21D-02 DXNew= 5.0454D-01 3.6393D-02
 Trust test= 1.18D+00 RLast= 1.21D-02 DXMaxT set to 3.00D-01
 ITU=  1  1  0
     Eigenvalues ---    0.02310   0.02310   0.02659   0.02974   0.02974
     Eigenvalues ---    0.12235   0.16000   0.16000   0.16048   0.16334
     Eigenvalues ---    0.22935   0.34769   0.35383   0.35502   0.45405
     Eigenvalues ---    0.45967   0.51790   0.62345
 En-DIIS/RFO-DIIS/Sim-DIIS IScMMF=       -3 using points:     3    2
 RFO step:  Lambda=-2.23166944D-06.
 DidBck=F Rises=F RFO-DIIS coefs:    1.28602   -0.28602
 Iteration  1 RMS(Cart)=  0.00070474 RMS(Int)=  0.00000072
 Iteration  2 RMS(Cart)=  0.00000074 RMS(Int)=  0.00000000
 ClnCor:  largest displacement from symmetrization is 9.23D-09 for atom     8.
 Variable       Old X    -DE/DX   Delta X   Delta X   Delta X     New X
                                 (Linear)    (Quad)   (Total)
    R1        2.53532  -0.00002  -0.00065   0.00061  -0.00005   2.53527
    R2        2.04388  -0.00015  -0.00020  -0.00036  -0.00055   2.04332
    R3        2.03530   0.00015   0.00007   0.00039   0.00047   2.03577
    R4        2.59606   0.00025   0.00054   0.00024   0.00078   2.59684
    R5        2.04611  -0.00003  -0.00021   0.00002  -0.00019   2.04592
    R6        1.89352   0.00009   0.00011   0.00005   0.00017   1.89368
    R7        1.88806   0.00021   0.00032   0.00016   0.00049   1.88855
    A1        2.12679  -0.00002   0.00052  -0.00058  -0.00007   2.12672
    A2        2.08947  -0.00026  -0.00218  -0.00010  -0.00228   2.08719
    A3        2.06693   0.00028   0.00166   0.00069   0.00235   2.06928
    A4        2.20639  -0.00003  -0.00115   0.00089  -0.00025   2.20614
    A5        2.09121   0.00019   0.00120   0.00035   0.00155   2.09276
    A6        1.98559  -0.00016  -0.00005  -0.00125  -0.00130   1.98429
    A7        2.11111   0.00001   0.00061  -0.00044   0.00018   2.11128
    A8        2.11283  -0.00002  -0.00045   0.00029  -0.00015   2.11268
    A9        2.05924   0.00001  -0.00017   0.00015  -0.00002   2.05922
    D1       -0.00000   0.00000   0.00000  -0.00000  -0.00000  -0.00000
    D2        3.14159   0.00000   0.00000  -0.00000  -0.00000   3.14159
    D3        3.14159   0.00000   0.00000  -0.00000   0.00000   3.14159
    D4       -0.00000   0.00000   0.00000   0.00000   0.00000   0.00000
    D5        0.00000  -0.00000   0.00000   0.00000   0.00000   0.00000
    D6        3.14159   0.00000   0.00000  -0.00000   0.00000   3.14159
    D7        3.14159  -0.00000   0.00000  -0.00000   0.00000   3.14159
    D8       -0.00000  -0.00000   0.00000  -0.00000   0.00000   0.00000
         Item               Value     Threshold  Converged?
 Maximum Force            0.000276     0.000450     YES
 RMS     Force            0.000124     0.000300     YES
 Maximum Displacement     0.001665     0.001800     YES
 RMS     Displacement     0.000705     0.001200     YES
 Predicted change in Energy=-1.115850D-06
 Optimization completed.
    -- Stationary point found.
                           ----------------------------
                           !   Optimized Parameters   !
                           ! (Angstroms and Degrees)  !
 --------------------------                            --------------------------
 ! Name  Definition              Value          Derivative Info.                !
 --------------------------------------------------------------------------------
 ! R1    R(1,2)                  1.3416         -DE/DX =    0.0                 !
 ! R2    R(1,3)                  1.0816         -DE/DX =   -0.0001              !
 ! R3    R(1,4)                  1.077          -DE/DX =    0.0001              !
 ! R4    R(2,5)                  1.3738         -DE/DX =    0.0002              !
 ! R5    R(2,6)                  1.0828         -DE/DX =    0.0                 !
 ! R6    R(5,7)                  1.002          -DE/DX =    0.0001              !
 ! R7    R(5,8)                  0.9991         -DE/DX =    0.0002              !
 ! A1    A(2,1,3)              121.856          -DE/DX =    0.0                 !
 ! A2    A(2,1,4)              119.7177         -DE/DX =   -0.0003              !
 ! A3    A(3,1,4)              118.4263         -DE/DX =    0.0003              !
 ! A4    A(1,2,5)              126.4167         -DE/DX =    0.0                 !
 ! A5    A(1,2,6)              119.8176         -DE/DX =    0.0002              !
 ! A6    A(5,2,6)              113.7657         -DE/DX =   -0.0002              !
 ! A7    A(2,5,7)              120.9575         -DE/DX =    0.0                 !
 ! A8    A(2,5,8)              121.0564         -DE/DX =    0.0                 !
 ! A9    A(7,5,8)              117.986          -DE/DX =    0.0                 !
 ! D1    D(3,1,2,5)              0.0            -DE/DX =    0.0                 !
 ! D2    D(3,1,2,6)            180.0            -DE/DX =    0.0                 !
 ! D3    D(4,1,2,5)            180.0            -DE/DX =    0.0                 !
 ! D4    D(4,1,2,6)              0.0            -DE/DX =    0.0                 !
 ! D5    D(1,2,5,7)              0.0            -DE/DX =    0.0                 !
 ! D6    D(1,2,5,8)            180.0            -DE/DX =    0.0                 !
 ! D7    D(6,2,5,7)            180.0            -DE/DX =    0.0                 !
 ! D8    D(6,2,5,8)              0.0            -DE/DX =    0.0                 !
 --------------------------------------------------------------------------------
 GradGradGradGradGradGradGradGradGradGradGradGradGradGradGradGradGradGrad

                          Input orientation:                          
 ---------------------------------------------------------------------
 Center     Atomic      Atomic             Coordinates (Angstroms)
 Number     Number       Type             X           Y           Z
 ---------------------------------------------------------------------
      1          6           0       -0.519939   -0.153919   -0.309106
      2          6           0        0.249321   -1.247476   -0.420231
      3          1           0       -0.485330    0.481922    0.565141
      4          1           0       -1.194576    0.107615   -1.106898
      5          7           0        1.152461   -1.706982    0.507376
      6          1           0        0.187933   -1.860719   -1.310467
      7          1           0        1.295802   -1.221069    1.371874
      8          1           0        1.686058   -2.535127    0.340963
 ---------------------------------------------------------------------
                    Distance matrix (angstroms):
                    1          2          3          4          5
     1  C    0.000000
     2  C    1.341633   0.000000
     3  H    1.081572   2.121671   0.000000
     4  H    1.077036   2.095858   1.854413   0.000000
     5  N    2.423958   1.373777   2.734410   3.377459   0.000000
     6  H    2.101660   1.082753   3.075574   2.413941   2.063614
     7  H    2.694702   2.075443   2.592958   3.756554   1.002005
     8  H    3.310463   2.074048   3.723945   4.168745   0.999121
                    6          7          8
     6  H    0.000000
     7  H    2.971781   0.000000
     8  H    2.329469   1.715175   0.000000
 Stoichiometry    C2H5N
 Framework group  CS[SG(C2H5N)]
 Deg. of freedom    13
 Full point group                 CS      NOp   2
 Largest Abelian subgroup         CS      NOp   2
 Largest concise Abelian subgroup C1      NOp   1
                         Standard orientation:                         
 ---------------------------------------------------------------------
 Center     Atomic      Atomic             Coordinates (Angstroms)
 Number     Number       Type             X           Y           Z
 ---------------------------------------------------------------------
      1          6           0        1.269837    0.000482   -0.000000
      2          6           0        0.000000   -0.432520   -0.000000
      3          1           0        1.513637    1.054219   -0.000000
      4          1           0        2.077069   -0.712528   -0.000000
      5          7           0       -1.128700    0.350615    0.000000
      6          1           0       -0.206390   -1.495421   -0.000000
      7          1           0       -1.062347    1.350422    0.000000
      8          1           0       -2.040095   -0.058775    0.000000
 ---------------------------------------------------------------------
 Rotational constants (GHZ):          58.2748240          10.0593516           8.5785325

 **********************************************************************

            Population analysis using the SCF Density.

 **********************************************************************

 Orbital symmetries:
       Occupied  (A') (A') (A') (A') (A') (A') (A') (A') (A') (A')
                 (A") (A")
       Virtual   (A') (A') (A') (A') (A') (A") (A") (A') (A') (A')
                 (A") (A') (A') (A') (A') (A') (A") (A') (A") (A')
                 (A') (A') (A") (A") (A') (A') (A') (A') (A") (A')
                 (A') (A") (A') (A') (A") (A') (A') (A') (A") (A')
                 (A') (A") (A') (A') (A') (A") (A') (A') (A') (A")
                 (A') (A") (A") (A') (A') (A') (A') (A") (A') (A')
                 (A') (A") (A') (A") (A') (A') (A') (A') (A") (A')
                 (A") (A") (A') (A") (A') (A') (A') (A") (A') (A')
                 (A") (A") (A') (A') (A") (A') (A") (A') (A') (A")
                 (A') (A') (A") (A') (A') (A") (A') (A') (A') (A")
                 (A") (A') (A') (A") (A') (A') (A") (A') (A") (A')
                 (A") (A') (A') (A") (A') (A') (A") (A') (A") (A')
                 (A') (A') (A") (A') (A') (A") (A') (A") (A') (A')
                 (A') (A") (A') (A') (A") (A') (A") (A') (A') (A')
                 (A") (A') (A') (A") (A') (A') (A') (A") (A') (A')
                 (A') (A") (A') (A") (A') (A") (A") (A') (A") (A")
                 (A') (A') (A') (A') (A") (A') (A") (A") (A') (A')
                 (A') (A') (A') (A") (A") (A') (A') (A') (A") (A')
                 (A') (A") (A') (A") (A") (A') (A") (A') (A") (A')
                 (A") (A') (A') (A') (A") (A') (A') (A") (A") (A')
                 (A") (A') (A") (A') (A") (A') (A") (A') (A') (A')
                 (A') (A') (A') (A") (A') (A") (A') (A") (A') (A')
                 (A") (A') (A') (A") (A') (A") (A') (A") (A') (A')
                 (A') (A') (A') (A') (A') (A') (A') (A') (A') (A')
                 (A')
 The electronic state is 1-A'.
 Alpha  occ. eigenvalues --  -15.56393 -11.27068 -11.19188  -1.21277  -0.99098
 Alpha  occ. eigenvalues --   -0.79454  -0.71200  -0.64255  -0.56989  -0.51749
 Alpha  occ. eigenvalues --   -0.49646  -0.30494
 Alpha virt. eigenvalues --    0.02685   0.03888   0.04177   0.05979   0.06199
 Alpha virt. eigenvalues --    0.09870   0.10499   0.11178   0.12284   0.12464
 Alpha virt. eigenvalues --    0.14115   0.14185   0.15042   0.16390   0.18258
 Alpha virt. eigenvalues --    0.18717   0.20429   0.24373   0.24718   0.24930
 Alpha virt. eigenvalues --    0.26688   0.29096   0.29233   0.30476   0.31758
 Alpha virt. eigenvalues --    0.31957   0.32979   0.34878   0.36274   0.36327
 Alpha virt. eigenvalues --    0.37542   0.39501   0.39546   0.41170   0.42726
 Alpha virt. eigenvalues --    0.43005   0.43452   0.44590   0.44671   0.46315
 Alpha virt. eigenvalues --    0.47757   0.48616   0.49297   0.50188   0.51846
 Alpha virt. eigenvalues --    0.53004   0.55385   0.57216   0.62335   0.62504
 Alpha virt. eigenvalues --    0.64036   0.64779   0.68087   0.68675   0.70824
 Alpha virt. eigenvalues --    0.73212   0.73452   0.79951   0.82554   0.83134
 Alpha virt. eigenvalues --    0.86109   0.86489   0.87636   0.88688   0.89186
 Alpha virt. eigenvalues --    0.91746   0.93502   0.93560   0.94896   0.95032
 Alpha virt. eigenvalues --    0.95506   0.98664   0.99416   1.00304   1.01829
 Alpha virt. eigenvalues --    1.02496   1.04495   1.05276   1.05996   1.07231
 Alpha virt. eigenvalues --    1.07557   1.08632   1.11705   1.13339   1.14095
 Alpha virt. eigenvalues --    1.14702   1.14829   1.18116   1.19603   1.22972
 Alpha virt. eigenvalues --    1.23674   1.24401   1.24754   1.27503   1.27914
 Alpha virt. eigenvalues --    1.31502   1.33758   1.36081   1.38967   1.41375
 Alpha virt. eigenvalues --    1.42793   1.45273   1.45501   1.49427   1.53052
 Alpha virt. eigenvalues --    1.53855   1.54275   1.61133   1.62486   1.64188
 Alpha virt. eigenvalues --    1.68701   1.69566   1.75860   1.78241   1.78332
 Alpha virt. eigenvalues --    1.80602   1.85723   1.86640   1.87934   1.88154
 Alpha virt. eigenvalues --    1.90086   1.95265   1.98719   2.00392   2.03882
 Alpha virt. eigenvalues --    2.05984   2.06577   2.08527   2.12326   2.17530
 Alpha virt. eigenvalues --    2.20046   2.20972   2.26274   2.28862   2.30995
 Alpha virt. eigenvalues --    2.31378   2.39854   2.39890   2.44626   2.54311
 Alpha virt. eigenvalues --    2.54354   2.56461   2.62353   2.62623   2.71465
 Alpha virt. eigenvalues --    2.82009   2.89040   2.94980   2.96931   3.16968
 Alpha virt. eigenvalues --    3.25327   3.26721   3.31287   3.35573   3.38098
 Alpha virt. eigenvalues --    3.42298   3.48485   3.48914   3.51157   3.58430
 Alpha virt. eigenvalues --    3.59803   3.63292   3.67545   3.71974   3.73489
 Alpha virt. eigenvalues --    3.79844   3.81634   3.82867   3.85422   3.94239
 Alpha virt. eigenvalues --    3.97304   3.97820   4.00678   4.06047   4.07168
 Alpha virt. eigenvalues --    4.08380   4.09302   4.12913   4.15742   4.23953
 Alpha virt. eigenvalues --    4.29509   4.30068   4.31434   4.32739   4.33567
 Alpha virt. eigenvalues --    4.41066   4.42267   4.47975   4.51491   4.52942
 Alpha virt. eigenvalues --    4.55657   4.61291   4.62464   4.71586   4.71793
 Alpha virt. eigenvalues --    4.79004   4.83323   4.87751   4.87802   4.89526
 Alpha virt. eigenvalues --    4.89943   4.94507   5.00812   5.01483   5.04567
 Alpha virt. eigenvalues --    5.09722   5.15265   5.15320   5.21191   5.28605
 Alpha virt. eigenvalues --    5.30088   5.36516   5.37498   5.38882   5.45412
 Alpha virt. eigenvalues --    5.48391   5.53117   5.57879   5.58517   5.65985
 Alpha virt. eigenvalues --    5.73771   5.79548   5.84300   5.86810   5.99438
 Alpha virt. eigenvalues --    6.11614   6.22500   6.24264   6.38845   6.45122
 Alpha virt. eigenvalues --    6.51184   6.60014   6.76314   6.79984   7.00447
 Alpha virt. eigenvalues --    7.37889   7.49489   7.75419  16.84325  17.43217
 Alpha virt. eigenvalues --   18.30987
          Condensed to atoms (all electrons):
               1          2          3          4          5          6
     1  C    6.305462   0.236941   0.409170   0.376188  -0.257501  -0.046005
     2  C    0.236941   5.449526  -0.083712   0.035754   0.389915   0.212693
     3  H    0.409170  -0.083712   0.285326  -0.010040  -0.031992   0.002450
     4  H    0.376188   0.035754  -0.010040   0.263053   0.000748  -0.006202
     5  N   -0.257501   0.389915  -0.031992   0.000748   6.505747  -0.040474
     6  H   -0.046005   0.212693   0.002450  -0.006202  -0.040474   0.232052
     7  H   -0.001251   0.002934  -0.003125   0.001871   0.431970  -0.004540
     8  H    0.008719  -0.048482   0.001423  -0.001012   0.434585   0.005826
               7          8
     1  C   -0.001251   0.008719
     2  C    0.002934  -0.048482
     3  H   -0.003125   0.001423
     4  H    0.001871  -0.001012
     5  N    0.431970   0.434585
     6  H   -0.004540   0.005826
     7  H    0.516673  -0.065073
     8  H   -0.065073   0.538609
 Mulliken charges:
               1
     1  C   -1.031721
     2  C   -0.195569
     3  H    0.430500
     4  H    0.339640
     5  N   -0.432998
     6  H    0.644201
     7  H    0.120542
     8  H    0.125405
 Sum of Mulliken charges =  -0.00000
 Mulliken charges with hydrogens summed into heavy atoms:
               1
     1  C   -0.261581
     2  C    0.448632
     5  N   -0.187051
 Electronic spatial extent (au):  <R**2>=            178.6009
 Charge=             -0.0000 electrons
 Dipole moment (field-independent basis, Debye):
    X=             -1.7285    Y=              0.1910    Z=             -0.0000  Tot=              1.7390
 Quadrupole moment (field-independent basis, Debye-Ang):
   XX=            -17.0726   YY=            -16.2153   ZZ=            -23.4705
   XY=              0.0973   XZ=             -0.0000   YZ=              0.0000
 Traceless Quadrupole moment (field-independent basis, Debye-Ang):
   XX=              1.8468   YY=              2.7042   ZZ=             -4.5510
   XY=              0.0973   XZ=             -0.0000   YZ=              0.0000
 Octapole moment (field-independent basis, Debye-Ang**2):
  XXX=            -12.0587  YYY=              3.4714  ZZZ=             -0.0000  XYY=             -3.1543
  XXY=             -0.4248  XXZ=             -0.0000  XZZ=             -2.4927  YZZ=              0.3377
  YYZ=             -0.0000  XYZ=              0.0000
 Hexadecapole moment (field-independent basis, Debye-Ang**3):
 XXXX=           -141.8496 YYYY=            -42.9023 ZZZZ=            -29.3907 XXXY=              7.6670
 XXXZ=             -0.0000 YYYX=              5.8098 YYYZ=              0.0000 ZZZX=             -0.0000
 ZZZY=              0.0000 XXYY=            -32.1410 XXZZ=            -38.2685 YYZZ=            -14.6384
 XXYZ=              0.0000 YYXZ=             -0.0000 ZZXY=              3.9688
 N-N= 7.173814449455D+01 E-N=-4.540876300112D+02  KE= 1.329063685057D+02
 Symmetry A'   KE= 1.278619320190D+02
 Symmetry A"   KE= 5.044436486720D+00
 Unable to Open any file for archive entry.
 1\1\GINC-N3277\FOpt\RMP2-FC\Aug-CC-pVTZ\C2H5N1\GDS001\04-Apr-2025\0\\#
  MP2/aug-cc-pVTZ opt freq=(vibrot,anharmonic)\\blah\\0,1\C,-0.51993943
 79,-0.1539186851,-0.3091058833\C,0.2493213593,-1.2474755975,-0.4202314
 817\H,-0.485330412,0.4819220189,0.5651406667\H,-1.1945758219,0.1076152
 884,-1.1068982882\N,1.1524608603,-1.7069822092,0.5073764977\H,0.187932
 8883,-1.8607188302,-1.31046695\H,1.2958018229,-1.2210690354,1.37187434
 74\H,1.6860577228,-2.5351265649,0.3409631783\\Version=EM64L-G16RevC.01
 \State=1-A'\HF=-133.1205894\MP2=-133.6751417\RMSD=6.906e-09\RMSF=1.960
 e-04\Dipole=0.4484967,-0.4069633,0.2311925\PG=CS [SG(C2H5N1)]\\@
 The archive entry for this job was punched.


 ALL THINGS ARE POSSIBLE EXCEPT SKIING THROUGH A REVOLVING DOOR.
 Job cpu time:       0 days  1 hours 35 minutes 59.7 seconds.
 Elapsed time:       0 days  0 hours  2 minutes 40.6 seconds.
 File lengths (MBytes):  RWF=     35 Int=      0 D2E=      0 Chk=      8 Scr=      1
 Normal termination of Gaussian 16 at Fri Apr  4 04:51:34 2025.
 Link1:  Proceeding to internal job step number  2.
 ----------------------------------------------------------------------
 #N Geom=AllCheck Guess=TCheck SCRF=Check GenChk RMP2(FC)/Aug-CC-pVTZ F
 req
 ----------------------------------------------------------------------
 1/10=4,29=7,30=1,38=21,40=1,80=1/1,6,3;
 2/12=2,40=1/2;
 3/5=16,6=1,7=10,11=1,14=-4,25=1,30=1,70=2,71=2,116=1,140=1/1,2,3;
 4/5=101,69=2/1;
 5/5=2,38=6,98=1/2;
 8/6=3,8=1,10=1,19=11,30=-1/1;
 9/15=3,16=-3/6;
 11/6=1,8=1,15=11,17=12,24=-1,27=1,28=-2,29=300,32=6,42=3/1,2,10;
 10/6=2,21=1,60=-2/2;
 8/6=4,8=1,10=1,19=11,30=-1/11,4;
 10/5=1,20=4,60=-2/2;
 11/12=2,14=11,16=1,17=2,28=-2,42=3,76=2/2,10,12;
 6/7=2,8=2,9=2,10=2,22=-1/1;
 7/10=1,12=2,25=1,44=2,70=1,71=2/1,2,3,16;
 1/38=20,80=1/6(3);
 7/8=1,25=202,44=-1,70=1,71=1,92=10/16,17;
 1/10=4,30=1,38=20,80=1/3;
 99//99;
 3/5=16,6=1,7=10,11=1,14=-2,25=1,30=1,70=5,71=2,116=1,140=1/1,2,3;
 4/5=5,16=3,69=2/1;
 5/5=2,38=5,98=1/2;
 8/6=3,8=1,10=1,19=11,30=-1/1;
 9/15=3,16=-3/6;
 11/6=1,8=1,15=11,17=12,24=-1,27=1,28=-2,29=300,32=6,42=3/1,2,10;
 10/6=2,21=1,60=-2/2;
 8/6=4,8=1,10=1,19=11,30=-1/11,4;
 10/5=1,20=4,60=-2/2;
 11/12=2,14=11,16=1,17=2,28=-2,42=3,76=2/2,10,12;
 6/7=2,8=2,9=2,10=2,22=-1/1;
 7/7=1,10=1,12=2,25=1,44=2,70=1,71=1/1,2,3,16;
 1/38=20,80=1/6(-12);
 7/8=1,25=202,44=-1,70=1,71=1,92=10/16,17;
 1/10=4,30=1,38=20,80=1/3;
 99//99;
 Structure from the checkpoint file:  "/scr/Gau-45621.chk"
 ----
 blah
 ----
 Charge =  0 Multiplicity = 1
 Redundant internal coordinates found in file.  (old form).
 C,0,-0.5199394379,-0.1539186851,-0.3091058833
 C,0,0.2493213593,-1.2474755975,-0.4202314817
 H,0,-0.485330412,0.4819220189,0.5651406667
 H,0,-1.1945758219,0.1076152884,-1.1068982882
 N,0,1.1524608603,-1.7069822092,0.5073764977
 H,0,0.1879328883,-1.8607188302,-1.31046695
 H,0,1.2958018229,-1.2210690354,1.3718743474
 H,0,1.6860577228,-2.5351265649,0.3409631783
 Recover connectivity data from disk.
 Numerical evaluation of third derivatives.
 Nuclear step= 0.010000 Angstroms, electric field step= 0.000333 atomic units, NStep=1.

 GradGradGradGradGradGradGradGradGradGradGradGradGradGradGradGradGradGrad
 Berny optimization.
 Initialization pass.
                           ----------------------------
                           !    Initial Parameters    !
                           ! (Angstroms and Degrees)  !
 --------------------------                            --------------------------
 ! Name  Definition              Value          Derivative Info.                !
 --------------------------------------------------------------------------------
 ! R1    R(1,2)                  1.3416         calculate D2E/DX2 analytically  !
 ! R2    R(1,3)                  1.0816         calculate D2E/DX2 analytically  !
 ! R3    R(1,4)                  1.077          calculate D2E/DX2 analytically  !
 ! R4    R(2,5)                  1.3738         calculate D2E/DX2 analytically  !
 ! R5    R(2,6)                  1.0828         calculate D2E/DX2 analytically  !
 ! R6    R(5,7)                  1.002          calculate D2E/DX2 analytically  !
 ! R7    R(5,8)                  0.9991         calculate D2E/DX2 analytically  !
 ! A1    A(2,1,3)              121.856          calculate D2E/DX2 analytically  !
 ! A2    A(2,1,4)              119.7177         calculate D2E/DX2 analytically  !
 ! A3    A(3,1,4)              118.4263         calculate D2E/DX2 analytically  !
 ! A4    A(1,2,5)              126.4167         calculate D2E/DX2 analytically  !
 ! A5    A(1,2,6)              119.8176         calculate D2E/DX2 analytically  !
 ! A6    A(5,2,6)              113.7657         calculate D2E/DX2 analytically  !
 ! A7    A(2,5,7)              120.9575         calculate D2E/DX2 analytically  !
 ! A8    A(2,5,8)              121.0564         calculate D2E/DX2 analytically  !
 ! A9    A(7,5,8)              117.986          calculate D2E/DX2 analytically  !
 ! D1    D(3,1,2,5)              0.0            calculate D2E/DX2 analytically  !
 ! D2    D(3,1,2,6)            180.0            calculate D2E/DX2 analytically  !
 ! D3    D(4,1,2,5)            180.0            calculate D2E/DX2 analytically  !
 ! D4    D(4,1,2,6)              0.0            calculate D2E/DX2 analytically  !
 ! D5    D(1,2,5,7)              0.0            calculate D2E/DX2 analytically  !
 ! D6    D(1,2,5,8)           -180.0            calculate D2E/DX2 analytically  !
 ! D7    D(6,2,5,7)            180.0            calculate D2E/DX2 analytically  !
 ! D8    D(6,2,5,8)              0.0            calculate D2E/DX2 analytically  !
 --------------------------------------------------------------------------------
 Trust Radius=3.00D-01 FncErr=1.00D-07 GrdErr=1.00D-07 EigMax=2.50D+02 EigMin=1.00D-04
 Number of steps in this run=      2 maximum allowed number of steps=      2.
 GradGradGradGradGradGradGradGradGradGradGradGradGradGradGradGradGradGrad

                          Input orientation:                          
 ---------------------------------------------------------------------
 Center     Atomic      Atomic             Coordinates (Angstroms)
 Number     Number       Type             X           Y           Z
 ---------------------------------------------------------------------
      1          6           0       -0.519939   -0.153919   -0.309106
      2          6           0        0.249321   -1.247476   -0.420231
      3          1           0       -0.485330    0.481922    0.565141
      4          1           0       -1.194576    0.107615   -1.106898
      5          7           0        1.152461   -1.706982    0.507376
      6          1           0        0.187933   -1.860719   -1.310467
      7          1           0        1.295802   -1.221069    1.371874
      8          1           0        1.686058   -2.535127    0.340963
 ---------------------------------------------------------------------
                    Distance matrix (angstroms):
                    1          2          3          4          5
     1  C    0.000000
     2  C    1.341633   0.000000
     3  H    1.081572   2.121671   0.000000
[...]
 1225391,-0.02503989,-0.00028140,-0.00190748,-0.00046347,0.00995451,0.0
 5923139,0.08584948,0.00029963,-0.00045087,-0.00103876,0.00024711,0.000
 09680,0.00014125,-0.00608307,0.00616803,-0.00266084,-0.00537131,-0.061
 66295,-0.08120632,0.00096350,-0.00072183,-0.00042926,-0.00311287,0.005
 82401,-0.00043095,-0.00031933,-0.00013155,0.00040812,-0.00011845,0.000
 06807,0.00017684,-0.00420135,0.00834130,0.01464353,0.00073620,-0.00138
 062,0.00165842,0.00717757,-0.00055124,0.00163867,0.00032030,0.00244572
 ,-0.00359656,-0.00255138,-0.00037643,-0.00024352,-0.00009439,-0.000097
 50,-0.00016894,-0.00016023,0.00909282,0.01891409,0.04795357,-0.0017274
 2,-0.00020891,-0.00149472,-0.01169137,-0.01482000,-0.00021028,0.000033
 65,0.00035745,-0.00476697,0.00312459,-0.00240595,0.00009382,0.00031704
 ,-0.00009820,-0.00003566,0.00011792,-0.00008026,0.01560810,0.04669093,
 0.07960619,0.00121329,-0.00091205,-0.00043769,-0.01200134,-0.04558150,
 -0.07327808,-0.00048927,-0.00009135,-0.00029196,-0.00079260,0.00211671
 ,-0.00181663,0.00015958,0.00024524,0.00001168,0.00005690,0.00019210,-0
 .00021271,0.01115064,-0.01635989,0.00060421,0.00010894,0.00018586,-0.0
 0042379,-0.00112527,0.00290543,0.00009903,-0.00906891,0.00043118,-0.00
 040409,0.00070024,0.00248508,-0.00089208,0.00058437,0.00003582,0.00014
 784,-0.00018644,0.00023353,-0.00000119,-0.00003304,-0.01378782,0.01866
 815,0.00298585,0.00010429,0.00038214,0.00001996,-0.00030799,-0.0015148
 3,-0.00379058,0.01080588,-0.01638594,0.00037868,-0.00017764,0.00002298
 ,-0.00134386,-0.00003452,-0.00039650,-0.00025713,0.00016544,0.00012031
 ,-0.00015953,-0.00010264,-0.00006952,0.00390545,-0.00133556,0.00314064
 ,-0.00052841,0.00015694,-0.00018325,-0.00402537,0.00160835,-0.00366347
 ,0.00203015,-0.00028039,0.00102874,-0.24323257,-0.07588192,0.30070009,
 0.59982443,1.10327209,1.76560885,0.00032103,-0.00638544,0.00183747,-0.
 02892684,-0.01094142,0.00382290,-0.00622378,0.00279869,0.02234643,-0.0
 0401012,0.00143080,-0.01055153,0.00225403,0.06948924,0.06484550,0.4549
 2436,-0.05364753,-0.10738493,0.00036475,0.01177314,0.00664322,-0.46349
 559,-0.05965729,-0.42688733,-1.26146669,0.00269869,-0.00019148,-0.0026
 4838,0.05375010,0.41173123,-0.11509845,-1.25136957,-1.32165124,-0.0050
 0373,0.01259768,0.01316684,0.11182176,1.24637908,1.29860702,-0.2118524
 9,0.13361167,-0.49462972,0.00080650,0.00010470,-0.00069544,0.00786622,
 0.00616105,0.00993203,0.20277289,0.14510764,0.12321655,0.16498843,0.00
 425448,-0.00142500,0.00364997,-0.01008256,0.01275474,-0.00911899,-0.13
 851524,-0.13523898,-0.47987470,0.14567384,-0.43465626,0.00463073,-0.00
 332212,0.00481671,-0.01091658,0.01817219,0.01164419,0.48595799,-0.1595
 0623,0.41945885,0.00043355,0.00197406,-0.00089745,-0.00013769,-0.00116
 327,0.00015682,-0.00056707,-0.00223332,0.00037419,0.00046423,0.0004087
 6,0.00039044,-0.00057002,0.00218975,-0.00046267,-0.00009240,0.00001452
 ,0.00081215,0.00250385,-0.00256168,0.00066196,-0.00025080,-0.00009360,
 -0.00019743,-0.00110904,0.00091792,-0.00132869,-0.00062059,-0.00045480
 ,0.00084934,0.00166848,0.00052503,0.00235753,-0.00004722,0.00030084,-0
 .00218912,-0.00025435,-0.00026500,-0.00022334,-0.00018939,-0.00047624,
 -0.00068552,-0.00081790,0.00017357,0.00116126,0.02817548,-0.00301700,-
 0.00402003,0.00095990,0.00013724,-0.00191407,-0.00022319,-0.00122629,-
 0.00006427,-0.00015420,-0.00006572,-0.00094038,-0.02787754,-0.00093774
 ,-0.00046525,-0.00040596,-0.00357014,-0.02512574,-0.07452305,0.0013408
 7,0.00163849,0.00152704,-0.00139737,0.00081387,0.00013658,0.00048651,0
 .00038775,0.00085907,0.00392582,0.02290687,-0.00026507,0.00146117,0.00
 005350,-0.00472998,-0.07359365,-0.07414076,-0.00036921,-0.00049522,0.0
 0094804,-0.00028388,0.00042399,-0.00105449,-0.00023158,-0.00006877,-0.
 00012205,0.00570711,0.07228801,0.07409481,-0.00023158,-0.00001427,0.00
 037295,-0.00036521,0.00045991,0.00016887,0.00027235,-0.00035904,-0.000
 56092,0.00008144,-0.00007930,-0.00018346,0.00040132,-0.00037603,0.0002
 2062,-0.00006550,0.00005535,0.00003358,-0.00014125,-0.00003924,-0.0003
 1979,0.00011975,0.00018455,-0.00038292,-0.00003462,-0.00016349,0.00063
 124,0.00010949,0.00000762,0.00015216,0.00004118,-0.00040808,0.00029061
 ,-0.00029048,0.00005155,-0.00009829,0.00001592,0.00026320,-0.00031839,
 0.00034089,0.00016172,0.00031584,-0.00018454,0.00042801,0.00012493,-0.
 00030992,-0.00021906,-0.00046995,-0.00007190,-0.00010487,-0.00012533,0
 .00017949,-0.00023664,-0.00001946,0.00002871,0.00002228,0.00003363,-0.
 00002353,-0.00006118,-0.00004420,0.00045541,0.00017004,-0.00028406,-0.
 00023788,-0.00001481,-0.00049730,-0.00032501,-0.00049729,0.00044922,0.
 00008440,0.00013241,0.00005974,0.00012983,-0.00002512,0.00016284,0.000
 00316,0.00009649,0.00013911,0.00004843,0.00010388,0.00004078,-0.000158
 34,0.00016029,0.00039539,-0.00019145,0.00000466,0.00014351,0.00013197,
 -0.00040863,-0.00033918,0.00012604,0.00012108,-0.00007577,-0.00008634,
 0.00001745,-0.00016370,-0.00019837,0.00002056,-0.00005720,-0.00003126,
 0.00005018,0.00004539,0.00000973,0.00003441,0.00005153,-0.00029659,-0.
 00017506,0.00003139,-0.00047228,0.00009924,-0.00061935,0.00056302,-0.0
 0002293,-0.00005577,0.00004520,-0.00006730,0.00013956,0.00021746,-0.00
 026987,0.00003268,0.00004166,0.00009631,0.00018767,-0.00002813,0.00009
 993,0.00018451,-0.00007032,0.00023966,0.00009928,-0.03481836,0.0108364
 8,0.01720358,0.01088132,0.08266434,0.09136460,-0.00483806,-0.01903512,
 -0.01324780,-0.64030930,-0.00805715,0.01321735,0.01818031,0.12194496,0
 .56206588,0.00084248,-0.00026416,-0.01041789,0.17942231,1.76562565,1.9
 1368195,0.03864790,-0.00485166,-0.00615778,-0.00361189,-0.00143864,0.0
 0367168,-0.03765827,-0.00677094,-0.02968931,-0.09903363,-0.00158727,-0
 .00439026,0.00054966,0.00491181,0.02913151,-0.00862115,-0.09580899,-0.
 09884835,0.00348096,0.00079938,-0.00002191,0.00823038,0.09544829,0.097
 53073,-0.00199532,-0.00044236,0.00026461,0.00297167,0.00533333,-0.0017
 9674,0.00039626,0.00055644,0.00021689,0.00123837,0.00008598,-0.0010037
 5,0.00205308,0.00486870,0.00055374,-0.00152533,-0.00006523,0.00065854,
 -0.00015283,-0.00047113,-0.00014736,0.00094263,0.00116549,0.00058876,-
 0.00239308,-0.00074476,0.00313888,-0.00058094,0.00089165,0.00086063,0.
 00060074,-0.00164930,-0.00058661,-0.00009996,0.00133361,-0.00048621,0.
 00650069,-0.00989404,0.00563435,0.00032046,0.00000782,-0.00060455,-0.0
 0053689,-0.00039829,0.00016142,-0.00719220,0.00177341,-0.00187039,-0.0
 0097184,0.00400282,-0.00733286,0.00297535,-0.00004313,0.00054148,-0.00
 025828,-0.00047760,-0.00015851,0.00019706,0.00049435,-0.00283590,0.000
 07827,-0.00171071,-0.00085600,0.02347092,-0.02037308,0.00887398,-0.000
 66993,-0.00017268,-0.00066097,0.00005963,0.00033030,-0.00041310,-0.008
 01122,-0.00018299,-0.01574101,0.00268353,0.01176801,0.00842236,0.64155
 405,-0.10724447,-0.18521179,0.00195702,0.00299862,-0.00249675,-0.00205
 895,-0.00383721,0.00127478,-0.00267609,-0.00521998,-0.01514981,-0.6415
 7880,0.00180564,0.00272165,-0.00202195,-0.11020384,-0.56534670,-1.7705
 4385,0.00130486,0.00368571,-0.00043641,-0.00436544,-0.00000407,0.00003
 909,0.00868946,0.00910604,0.02326644,0.10051959,0.55299757,-0.00436430
 ,0.01471604,0.01821594,-0.18901012,-1.76557181,-1.91380095,-0.00467069
 ,0.00240933,0.00097885,0.00059681,0.00092660,-0.00355705,0.00270291,-0
 .00010309,0.00676218,0.19174576,1.75004034,1.88941149,0.00050360,0.000
 24953,-0.00011061,-0.00129174,-0.00151734,-0.00006710,0.00040738,0.000
 34395,-0.00050722,-0.00044059,-0.00039414,0.00021449,0.00318292,-0.001
 15152,-0.00037185,-0.00023006,0.00285638,0.00105373,-0.00283581,0.0004
 5457,-0.00031598,-0.00061735,-0.00113129,0.00037087,0.00166975,0.00057
 551,0.00035789,0.00017868,-0.00041253,-0.00012882,0.00025738,-0.000444
 50,0.00194177,-0.00149480,0.00117189,-0.00159796,-0.00178252,-0.000785
 05,-0.00106332,0.00015257,-0.00096185,-0.00021815,0.00042838,0.0010211
 5,-0.00038058,-0.00021001,-0.00021036,0.00034919,0.00019090,0.00028826
 ,-0.00017863,0.00053560,-0.00268267,-0.00001873,-0.00110832,0.00104763
 ,0.00080739,0.00032578,0.00197460,-0.00054774,-0.00008326,0.00014146,0
 .00043428,-0.00097531,0.00087320,-0.00249523,-0.00045898,-0.00046029,0
 .00030137,0.00042541,0.00021124,-0.00022013,0.00050105,0.00062168,0.00
 059405,0.00034928,-0.00060655,0.00194589,0.00070429,0.00057141,-0.0003
 1490,-0.00046250,-0.00012818,-0.00026319,-0.00025328,0.00114097,0.0008
 6212,0.00151297,-0.00039322,-0.00029592,0.00023017,0.00027913,0.000230
 39,-0.00015663,0.00021160,0.00060835,0.00033751,-0.00015633,-0.0015620
 5,-0.00063456,0.00039818,0.00043553,-0.00047679,-0.00135214,-0.0000152
 7,0.00008817,0.00019976,0.00017090,-0.00215152,0.00106305,-0.00107350,
 0.00038745,0.00011749,-0.00018822,-0.00013301,-0.00027068,0.00014692,0
 .00006771,0.00102650,0.00205369,0.00252376,-0.00139098,0.00118259,-0.0
 0053724,-0.00018574,0.00018721,-0.00024533,-0.00055942,-0.00247964,0.4
 5919409,-0.47791830,-0.15479372,1.44829222,-0.01601539,1.64482996,-0.0
 0148748,-0.02112167,-0.01026202,-0.01549312,-0.01576737,0.01500803,0.0
 0755125,0.01885645,-0.01165153,-0.00338978,-0.00144464,-0.01906465,-0.
 00018234,0.01798350,0.02179613,0.20890453,-0.00259673,-0.00734586,0.00
 023988,0.00337725,0.00164309,-0.20784397,-0.00646311,-0.21378826,-0.55
 644908,0.00112753,0.00202223,0.00212584,0.00128713,0.21883201,-0.01230
 833,-0.54995308,-0.51524922,-0.00124451,0.00590572,0.00733091,0.002886
 60,0.55074271,0.50314735,-0.66745861,0.50035687,-1.43147962,0.00753461
 ,-0.00268546,0.00343044,-0.00123558,0.00516507,0.01179308,0.66104484,0
 .49707164,0.35620106,0.56485027,0.00529966,-0.00103381,0.00316027,-0.0
 0162008,-0.00779317,-0.00719388,-0.50037397,-0.34797371,-1.43569623,0.
 57036988,-1.11328496,0.01367941,-0.01025578,0.01326115,0.00308436,0.00
 420602,0.00627149,1.41835523,-0.56161613,1.09677011,-0.00128266,-0.000
 24759,0.00044490,0.00059488,-0.00228882,-0.00019650,-0.00007411,-0.000
 22093,0.00024485,0.00155070,0.00115951,0.00055023,-0.00102893,0.000019
 24,-0.00058755,0.00150705,-0.00042630,0.00176055,0.00287406,-0.0004763
 1,-0.00042091,-0.00084175,-0.00044839,0.00024158,-0.00315010,0.0013211
 2,-0.00057759,0.00078732,0.00105876,0.00094521,0.00219409,-0.00025518,
 0.00232184,-0.00008295,-0.00041265,-0.00105761,-0.00151348,-0.00044867
 ,-0.00100972,-0.00146084,0.00038783,-0.00110654,0.00293080,0.00209660,
 -0.00012047,0.00871521,-0.00199247,-0.00057315,-0.00010026,-0.00042051
 ,-0.00095909,-0.00187552,-0.00232246,0.00006154,0.00022297,0.00025177,
 -0.00058452,-0.00991309,0.00356248,-0.00129388,-0.00158469,-0.00397818
 ,-0.00658502,-0.02480578,0.00014923,0.00068928,0.00094365,-0.00263884,
 0.00036618,0.00076790,0.00049473,0.00021941,0.00013320,0.00239371,0.00
 668994,0.00176105,-0.00404762,0.00236783,-0.00312186,-0.02146954,-0.02
 526679,-0.00022787,-0.00001353,-0.00025086,-0.00034451,0.00129943,-0.0
 0259738,-0.00027267,-0.00027499,-0.00004784,0.00205934,0.02455777,0.02
 566943,-0.00008216,-0.00024328,0.00019983,-0.00017676,0.00047180,-0.00
 007838,0.00013582,-0.00034626,-0.00033898,-0.00021010,0.00032744,-0.00
 017411,-0.00017227,-0.00028954,0.00040040,0.00006844,0.00004806,0.0000
 3318,0.00035448,-0.00033530,0.00006919,0.00002212,0.00028291,0.0000335
 2,0.00022273,-0.00007194,0.00034996,0.00023454,0.00041128,-0.00041133,
 -0.00002135,-0.00039156,-0.00027590,-0.00020116,0.00005582,-0.00005745
 ,-0.00008954,0.00005501,0.00018803,0.00008171,0.00017674,-0.00002283,-
 0.00032080,0.00054014,0.00038455,0.00001311,-0.00022637,-0.00019543,-0
 .00006651,-0.00016219,-0.00017628,0.00026947,-0.00002981,-0.00021736,0
 .00004313,-0.00010261,0.00002622,-0.00002270,-0.00019244,0.00012493,-0
 .00071853,-0.00032584,0.00027109,0.00007288,0.00002852,-0.00065335,-0.
 00002640,-0.00012879,-0.00007359,0.00064964,0.00045814,0.00013939,0.00
 018936,0.00004846,0.00025998,-0.00004845,-0.00003119,0.00011344,0.0000
 8255,-0.00000621,0.00000259,-0.00020108,-0.00016926,-0.00081495,0.0001
 1844,-0.00004033,0.00044585,-0.00011609,-0.00004832,0.00010858,0.00016
 212,0.00021327,0.00040350,-0.00030034,0.00017358,-0.00035964,-0.000262
 11,-0.00006264,-0.00002819,0.00003801,-0.00002323,0.00010396,-0.000003
 47,-0.00004309,0.00014088,0.00047208,-0.00014464,-0.00052130,-0.000741
 72,-0.00000049,-0.00076321,0.00002969,0.00002692,0.00000347,-0.0001748
 9,0.00011108,0.00076539,0.00042052,-0.00047224,0.00017201,0.00007307,0
 .00009085,0.00009958,-0.00001924,0.00002510,0.00007617,-0.00005956,0.0
 0036343,0.00016785,-0.00244335,0.00046519,-0.00195717,-0.00115772,0.00
 006468,-0.00326084,0.00248358,-0.00191509,0.00105637,-0.01188082,-0.00
 075430,0.00282671,0.00185806,0.00162980,-0.01121941,0.00254621,-0.0000
 9214,0.00455139,-0.00381184,-0.00092326,-0.01595602,0.00074441,-0.0001
 6706,0.00038135,-0.00094807,-0.00043030,-0.00044237,-0.00043368,-0.000
 41761,0.00042941,-0.00065089,0.00008625,-0.00032328,0.00103086,0.00012
 248,-0.00016086,0.00005969,-0.00022985,0.00019508,0.00022062,0.0001629
 3,-0.00043369,-0.00020450,0.00027967,-0.00020297,0.00003493,0.00000937
 ,-0.00029069,0.00048343,0.00074098,-0.00016348,0.00004286,0.00011767,0
 .00005835,-0.00000913,0.00008594,0.00024564,0.00018366,0.00058497,-0.0
 0011543,-0.00063721,0.00007512,-0.00001592,-0.00002011,-0.00008909,-0.
 00000813,-0.00019229,0.00005489,-0.00003757,-0.00036365,-0.00037512,0.
 00005432,0.00000369,0.00005134,0.00017023,0.00014139,0.00004711,0.0001
 3652,-0.00190180,0.00235364,-0.00161338,0.01202117,0.00073045,0.014168
 36,0.00089954,0.00045826,-0.00071212,-0.00098154,-0.00053146,0.0006787
 5,-0.42223995,0.00190908,-0.00139945,0.00031199,-0.00334998,-0.0037003
 5,-0.01569948,0.00083687,0.00060507,0.00003476,-0.00063077,-0.00069073
 ,0.00035310,-0.73581612,1.46001711,-0.00218401,0.00105888,-0.00145377,
 0.00893114,-0.00884379,0.00780052,-0.00022620,-0.00060134,0.00052165,0
 .00055130,0.00051996,-0.00019793,0.26475000,2.10333119,2.00249889,-0.0
 0001704,0.00031081,-0.00028087,0.00323132,-0.00149677,-0.00055941,-0.0
 0019033,-0.00018279,0.00013316,0.00002099,0.00003024,0.00002332,-0.000
 60779,-0.00017834,-0.00068234,-0.00270194,0.00048747,-0.00018393,0.000
 08561,-0.00044250,0.00252667,-0.00060755,-0.00020781,-0.00011668,0.000
 02628,-0.00005471,0.00004153,-0.00007729,-0.00009686,-0.00015509,0.000
 07191,0.00048284,-0.00110341,-0.00005412,-0.00021124,0.00002551,0.0007
 9362,-0.00237872,0.00070107,0.00010101,0.00006840,-0.00015176,-0.00008
 560,0.00006525,-0.00002980,-0.00057773,-0.00006500,-0.00139200,-0.0008
 1503,0.00176663,-0.00094977,0.00113537,-0.00073733,0.00192655,-0.00306
 079,-0.00254672,-0.01210731,0.00006726,-0.00004834,0.00029221,-0.00004
 474,-0.00040735,-0.00003461,0.62885302,-0.23675920,-0.48455868,-0.0002
 9788,0.00035137,-0.00019363,-0.64082075,-0.00129958,-0.00014651,-0.001
 63403,0.00769977,0.00585438,0.01762704,-0.00012486,-0.00016838,-0.0002
 4158,-0.00027378,0.00015632,0.00017102,-0.22355810,-0.30818301,-1.7163
 1337,0.00096813,-0.00055561,0.00080334,0.22658294,0.29813891,0.0012049
 0,-0.00068939,0.00056498,0.00104408,0.00041165,0.00448243,0.00019400,-
 0.00011303,0.00003729,0.00013682,-0.00005337,-0.00017396,-0.46761516,-
 1.73849276,-2.28060639,0.00059798,-0.00023290,0.00079154,0.47201822,1.
 72426222,2.25746157,-0.00003610,-0.00031940,-0.00002138,-0.00232974,0.
 00212665,0.00036970,-0.00018207,-0.00013578,0.00015258,0.00045324,0.00
 025144,-0.00025668,-0.21604270,0.97398855,0.21341884,0.00056267,-0.000
 51976,0.00083145,0.01416850,-0.00999451,-0.00758086,0.20340621,-0.0004
 7616,0.00018524,-0.00021910,-0.00429341,0.00415082,-0.00069845,-0.0001
 0421,-0.00024960,-0.00001206,0.00018020,0.00038686,-0.00022506,0.95646
 022,-1.14649360,-0.37922344,0.00006591,-0.00045330,-0.00004845,0.01356
 463,0.00490390,0.01490757,-0.96539720,1.13756968,-0.00022256,0.0000443
 1,-0.00058447,-0.00787045,0.01008800,-0.00120048,0.00019311,-0.0000651
 0,-0.00013573,-0.00034813,-0.00010537,0.00007798,0.19092127,-0.3497737
 1,0.27282911,0.00158316,-0.00103245,0.00100547,0.02265725,-0.02467467,
 0.01744251,-0.20691367,0.36551896,-0.28943444,-0.00153576,0.00116966,-
 0.00169191,-0.00074131,0.00005107,-0.00138038,0.00208183,-0.00230100,0
 .00080037,-0.01429671,-0.00049202,0.00193443,0.00185220,0.00953585,-0.
 00576514,0.00312179,-0.00118684,0.00356940,-0.01600270,0.00539602,-0.0
 1744729,-0.00020735,-0.00050268,0.00016129,-0.00040832,0.00010647,-0.0
 0036718,0.00034873,-0.00056888,-0.00001716,-0.00009608,0.00037401,-0.0
 0016893,0.00055072,0.00018732,0.00028704,0.00007621,0.00001529,-0.0005
 4004,-0.00002385,0.00010109,-0.00001858,-0.00012287,-0.00004153,0.0003
 0561,0.00005676,-0.00019787,-0.00037617,0.00029903,0.00054776,0.000026
 20,-0.00000975,0.00005433,0.00017156,0.00006368,-0.00010966,0.00043253
 ,0.00020509,0.00049067,-0.00039926,-0.00058908,-0.00000778,-0.00007744
 ,-0.00002220,0.00019779,-0.00000696,-0.00026251,0.00005642,-0.00023927
 ,-0.00004717,-0.00049290,-0.00001005,0.00009184,0.00008198,0.00018923,
 0.00000098,0.00004872,0.00027826,-0.00103382,0.00188820,-0.00054550,0.
 01343195,-0.00650429,0.01863625,0.00030687,-0.00048363,-0.00004484,-0.
 00073234,-0.00077595,0.00016292,0.08240357,0.00082085,0.00021335,0.000
 71175,-0.00298707,-0.01121115,-0.01603355,-0.00025654,0.00035111,0.000
 06564,-0.00037626,-0.00058611,0.00044085,-1.80378114,2.30167423,-0.001
 91541,0.00250508,0.00073042,0.02315062,-0.02194305,0.00810290,0.000246
 59,-0.00031582,-0.00002700,0.00067594,-0.00023074,-0.00058251,-0.01556
 240,1.57458041,0.70852311,0.00017787,0.00031757,-0.00018617,0.00192344
 ,-0.00096615,-0.00096947,0.00016273,0.00006592,-0.00005776,-0.00027336
 ,-0.00019511,0.00020185,-0.00049552,-0.00090661,-0.00143927,-0.0018736
 0,0.00040586,-0.00015863,-0.00020346,0.00023053,0.00168351,0.00028578,
 0.00004458,0.00008907,-0.00012835,-0.00026112,-0.00012367,0.00009903,-
 0.00100563,0.00132217,0.00043288,0.00054255,-0.00094254,-0.00007283,-0
 .00035180,-0.00004271,0.00056620,-0.00172452,0.00049997,-0.00008526,-0
 .00009241,-0.00001430,0.00011743,0.00020964,-0.00007632,-0.00156634,0.
 00059918,-0.00219408,-0.00019586,0.00142494,0.00015782,0.00017937,-0.0
 0042550,0.00030234,-0.00187052,0.00016717,-0.00345176,0.00022943,0.000
 05091,-0.00001265,-0.00013570,-0.00009356,0.00004592,0.38511175,-0.169
 92758,-0.34678170,0.00005833,-0.00003402,0.00004038,-0.37775834,-0.000
 52119,-0.00028747,-0.00082666,0.00381432,0.00287147,0.00969406,0.00016
 641,-0.00005130,-0.00014032,-0.00013311,0.00004481,0.00013484,-0.17096
 653,-0.08716692,-0.99171512,0.00061829,-0.00060661,0.00024954,0.173249
 99,0.08251717,0.00017954,-0.00066588,-0.00087866,0.00122934,0.00356643
 ,0.00695458,0.00013559,-0.00033435,0.00007450,-0.00000485,0.00020130,0
 .00001574,-0.34811519,-0.98996957,-1.39379604,0.00087762,-0.00084644,0
 .00039643,0.35136828,0.98039178,1.39413016,0.00028119,0.00005155,0.000
 58526,-0.00116081,-0.00239461,-0.00099311,-0.00042234,0.00032009,0.000
 01418,0.00073157,0.00049348,-0.00019407,-0.47899246,1.97741440,0.34162
 569,0.00032027,0.00007714,0.00119637,-0.00581432,-0.00622817,-0.005670
 32,0.48505689,-0.00070469,-0.00042522,-0.00169408,-0.00915707,0.011054
 69,0.00188279,0.00026240,-0.00041253,0.00015043,0.00016843,0.00071625,
 -0.00036877,1.98162896,-2.20459670,-0.56331369,0.00052324,-0.00126279,
 -0.00031445,-0.00298740,0.00267883,0.00765674,-1.96973388,2.19224745,-
 0.00038538,-0.00042349,-0.00121881,-0.00967270,0.01324452,-0.00165101,
 -0.00005987,0.00024736,0.00003066,-0.00061125,0.00017733,0.00042468,0.
 34703508,-0.57039466,0.67924325,0.00176893,-0.00106396,0.00127353,-0.0
 0151081,0.00221187,-0.00689667,-0.33656402,0.55600100,-0.67120570\\@
 The archive entry for this job was punched.


 I DON'T EXACTLY UNDERSTAND WHAT YOU ARE SAYING,
 BUT YOU ARE ABSOLUTELY RIGHT.
     M.S.GORDON, IN A NDSU FACULTY MEETING
 Job cpu time:       9 days 11 hours 15 minutes 22.4 seconds.
 Elapsed time:       0 days  5 hours 46 minutes 55.8 seconds.
 File lengths (MBytes):  RWF=   9361 Int=      0 D2E=      0 Chk=     49 Scr=      1
 Normal termination of Gaussian 16 at Fri Apr  4 10:38:43 2025.
