 Entering Gaussian System, Link 0=g16
 Input=foh_nh3_mp2_avtz_opt_anharm.gjf
 Output=foh_nh3_mp2_avtz_opt_anharm.log
 Initial command:
 /sw/contrib/gaussian/g16/A03/g16/l1.exe "/tmp/Gau-25888.inp" -scrdir="/tmp/"
 Entering Link 1 = /sw/contrib/gaussian/g16/A03/g16/l1.exe PID=     25889.
  
 Copyright (c) 1988,1990,1992,1993,1995,1998,2003,2009,2016,
            Gaussian, Inc.  All Rights Reserved.
  
 This is part of the Gaussian(R) 16 program.  It is based on
 the Gaussian(R) 09 system (copyright 2009, Gaussian, Inc.),
 the Gaussian(R) 03 system (copyright 2003, Gaussian, Inc.),
 the Gaussian(R) 98 system (copyright 1998, Gaussian, Inc.),
 the Gaussian(R) 94 system (copyright 1995, Gaussian, Inc.),
 the Gaussian 92(TM) system (copyright 1992, Gaussian, Inc.),
 the Gaussian 90(TM) system (copyright 1990, Gaussian, Inc.),
 the Gaussian 88(TM) system (copyright 1988, Gaussian, Inc.),
 the Gaussian 86(TM) system (copyright 1986, Carnegie Mellon
 University), and the Gaussian 82(TM) system (copyright 1983,
 Carnegie Mellon University). Gaussian is a federally registered
 trademark of Gaussian, Inc.
  
 This software contains proprietary and confidential information,
 including trade secrets, belonging to Gaussian, Inc.
  
 This software is provided under written license and may be
 used, copied, transmitted, or stored only in accord with that
 written license.
  
 The following legend is applicable only to US Government
 contracts under FAR:
  
                    RESTRICTED RIGHTS LEGEND
  
 Use, reproduction and disclosure by the US Government is
 subject to restrictions as set forth in subparagraphs (a)
 and (c) of the Commercial Computer Software - Restricted
 Rights clause in FAR 52.227-19.
  
 Gaussian, Inc.
 340 Quinnipiac St., Bldg. 40, Wallingford CT 06492
  
  
 ---------------------------------------------------------------
 Warning -- This program may not be used in any manner that
 competes with the business of Gaussian, Inc. or will provide
 assistance to any competitor of Gaussian, Inc.  The licensee
 of this program is prohibited from giving any competitor of
 Gaussian, Inc. access to this program.  By using this program,
 the user acknowledges that Gaussian, Inc. is engaged in the
 business of creating and licensing software in the field of
 computational chemistry and represents and warrants to the
 licensee that it is not a competitor of Gaussian, Inc. and that
 it will not use this program in any manner prohibited above.
 ---------------------------------------------------------------
  

 Cite this work as:
 Gaussian 16, Revision A.03,
 M. J. Frisch, G. W. Trucks, H. B. Schlegel, G. E. Scuseria, 
 M. A. Robb, J. R. Cheeseman, G. Scalmani, V. Barone, 
 G. A. Petersson, H. Nakatsuji, X. Li, M. Caricato, A. V. Marenich, 
 J. Bloino, B. G. Janesko, R. Gomperts, B. Mennucci, H. P. Hratchian, 
 J. V. Ortiz, A. F. Izmaylov, J. L. Sonnenberg, D. Williams-Young, 
 F. Ding, F. Lipparini, F. Egidi, J. Goings, B. Peng, A. Petrone, 
 T. Henderson, D. Ranasinghe, V. G. Zakrzewski, J. Gao, N. Rega, 
 G. Zheng, W. Liang, M. Hada, M. Ehara, K. Toyota, R. Fukuda, 
 J. Hasegawa, M. Ishida, T. Nakajima, Y. Honda, O. Kitao, H. Nakai, 
 T. Vreven, K. Throssell, J. A. Montgomery, Jr., J. E. Peralta, 
 F. Ogliaro, M. J. Bearpark, J. J. Heyd, E. N. Brothers, K. N. Kudin, 
 V. N. Staroverov, T. A. Keith, R. Kobayashi, J. Normand, 
 K. Raghavachari, A. P. Rendell, J. C. Burant, S. S. Iyengar, 
 J. Tomasi, M. Cossi, J. M. Millam, M. Klene, C. Adamo, R. Cammi, 
 J. W. Ochterski, R. L. Martin, K. Morokuma, O. Farkas, 
 J. B. Foresman, and D. J. Fox, Gaussian, Inc., Wallingford CT, 2016.
 
 ******************************************
 Gaussian 16:  ES64L-G16RevA.03 25-Dec-2016
                 1-Jul-2022 
 ******************************************
 %nprocshared=28
 Will use up to   28 processors via shared memory.
 %mem=41GB
 ----------------------------------------------
 # MP2/aug-cc-pVtZ opt freq=(vibrot,anharmonic)
 ----------------------------------------------
 1/18=20,19=15,38=1,80=1/1,3;
 2/9=110,12=2,17=6,18=5,40=1/2;
 3/5=16,6=1,7=10,11=9,25=1,30=1,71=1/1,2,3;
 4//1;
 5/5=2,38=5/2;
 8/6=4,10=1/1;
 9/15=2,16=-3/6;
 10/5=1/2;
 6/7=2,8=2,9=2,10=2/1;
 7/12=2/1,2,3,16;
 1/18=20,19=15,80=1/3(2);
 2/9=110/2;
 99//99;
 2/9=110/2;
 3/5=16,6=1,7=10,11=9,25=1,30=1,71=1/1,2,3;
 4/5=5,16=3,69=1/1;
 5/5=2,38=5/2;
 8/6=4,10=1/1;
 9/15=2,16=-3/6;
 10/5=1/2;
 7/12=2/1,2,3,16;
 1/18=20,19=15,80=1/3(-8);
 2/9=110/2;
 6/7=2,8=2,9=2,10=2/1;
 99//99;
 ----
 blah
 ----
 Symbolic Z-matrix:
 Charge =  0 Multiplicity = 1
 O
 F                    1    R1
 H                    1    R2       2    A2
 X                    3     1.       1     90.      2     0.       0
 N                    3    R3       4    A3       1     180.     0
 H                    5    R4       3    A4       4    D1       0
 H                    5    R4       3    A4       4    -D1      0
 H                    5    R5       3    A5       4     0.       0
       Variables:
  R1                    1.5                      
  R2                    1.                       
  A2                  105.                       
  R3                    2.                       
  A3                   95.                       
  R4                    1.                       
  A4                  110.                       
  D1                  120.                       
  R5                    1.                       
  A5                  110.                       
 
 Add virtual bond connecting atoms N4         and H3         Dist= 3.78D+00.

 GradGradGradGradGradGradGradGradGradGradGradGradGradGradGradGradGradGrad
 Berny optimization.
 Initialization pass.
                           ----------------------------
                           !    Initial Parameters    !
                           ! (Angstroms and Degrees)  !
 --------------------------                            --------------------------
 ! Name  Definition              Value          Derivative Info.                !
 --------------------------------------------------------------------------------
 ! R1    R(1,2)                  1.5            estimate D2E/DX2                !
 ! R2    R(1,3)                  1.0            estimate D2E/DX2                !
 ! R3    R(3,4)                  2.0            estimate D2E/DX2                !
 ! R4    R(4,5)                  1.0            estimate D2E/DX2                !
 ! R5    R(4,6)                  1.0            estimate D2E/DX2                !
 ! R6    R(4,7)                  1.0            estimate D2E/DX2                !
 ! A1    A(2,1,3)              105.0            estimate D2E/DX2                !
 ! A2    A(3,4,5)              110.0            estimate D2E/DX2                !
 ! A3    A(3,4,6)              110.0            estimate D2E/DX2                !
 ! A4    A(3,4,7)              110.0            estimate D2E/DX2                !
 ! A5    A(5,4,6)              108.9373         estimate D2E/DX2                !
 ! A6    A(5,4,7)              108.9373         estimate D2E/DX2                !
 ! A7    A(6,4,7)              108.9373         estimate D2E/DX2                !
 ! A8    L(1,3,4,2,-1)         185.0            estimate D2E/DX2                !
 ! A9    L(1,3,4,2,-2)         180.0            estimate D2E/DX2                !
 ! D1    D(2,1,4,5)            120.512          estimate D2E/DX2                !
 ! D2    D(2,1,4,6)           -120.512          estimate D2E/DX2                !
 ! D3    D(2,1,4,7)              0.0            estimate D2E/DX2                !
 --------------------------------------------------------------------------------
 Trust Radius=3.00D-01 FncErr=1.00D-07 GrdErr=1.00D-07 EigMax=2.50D+02 EigMin=1.00D-04
 Number of steps in this run=     28 maximum allowed number of steps=    100.
 GradGradGradGradGradGradGradGradGradGradGradGradGradGradGradGradGradGrad

                          Input orientation:                          
 ---------------------------------------------------------------------
 Center     Atomic      Atomic             Coordinates (Angstroms)
 Number     Number       Type             X           Y           Z
 ---------------------------------------------------------------------
      1          8           0        0.000000    0.000000    0.000000
      2          9           0        0.000000    0.000000    1.500000
      3          1           0        0.965926    0.000000   -0.258819
      4          7           0        2.845311    0.000000   -0.942859
      5          1           0        3.006008   -0.813798   -1.501348
      6          1           0        3.006008    0.813798   -1.501348
      7          1           0        3.488099    0.000000   -0.176815
 ---------------------------------------------------------------------
                    Distance matrix (angstroms):
                    1          2          3          4          5
     1  O    0.000000
     2  F    1.500000   0.000000
     3  H    1.000000   2.006603   0.000000
     4  N    2.997462   3.750114   2.000000   0.000000
     5  H    3.457224   4.325094   2.523506   1.000000   0.000000
     6  H    3.457224   4.325094   2.523506   1.000000   1.627595
     7  H    3.492577   3.870212   2.523506   1.000000   1.627595
                    6          7
     6  H    0.000000
     7  H    1.627595   0.000000
 Stoichiometry    FH4NO
 Framework group  CS[SG(FH2NO),X(H2)]
 Deg. of freedom    10
 Full point group                 CS      NOp   2
 Largest Abelian subgroup         CS      NOp   2
 Largest concise Abelian subgroup CS      NOp   2
                         Standard orientation:                         
 ---------------------------------------------------------------------
 Center     Atomic      Atomic             Coordinates (Angstroms)
 Number     Number       Type             X           Y           Z
 ---------------------------------------------------------------------
      1          8           0        0.999188    0.440889    0.000000
      2          9           0        1.445487   -0.991179    0.000000
      3          1           0        0.000000    0.400592    0.000000
      4          7           0       -1.997795    0.494474    0.000000
      5          1           0       -2.317383    0.979858    0.813798
      6          1           0       -2.317383    0.979858   -0.813798
      7          1           0       -2.383549   -0.428127    0.000000
 ---------------------------------------------------------------------
 Rotational constants (GHZ):          30.9226337           3.5990193           3.2796619
 Standard basis: Aug-CC-pVTZ (5D, 7F)
 There are   172 symmetry adapted cartesian basis functions of A'  symmetry.
 There are    93 symmetry adapted cartesian basis functions of A"  symmetry.
 There are   145 symmetry adapted basis functions of A'  symmetry.
 There are    85 symmetry adapted basis functions of A"  symmetry.
   230 basis functions,   324 primitive gaussians,   265 cartesian basis functions
    14 alpha electrons       14 beta electrons
       nuclear repulsion energy        72.4469844905 Hartrees.
 NAtoms=    7 NActive=    7 NUniq=    6 SFac= 1.36D+00 NAtFMM=   60 NAOKFM=F Big=F
 Integral buffers will be    131072 words long.
 Raffenetti 1 integral format.
 Two-electron integral symmetry is turned on.
 One-electron integrals computed using PRISM.
 NBasis=   230 RedAO= T EigKep=  9.97D-05  NBF=   145    85
 NBsUse=   230 1.00D-06 EigRej= -1.00D+00 NBFU=   145    85
 ExpMin= 2.53D-02 ExpMax= 1.95D+04 ExpMxC= 6.65D+02 IAcc=3 IRadAn=         5 AccDes= 0.00D+00
 Harris functional with IExCor=  205 and IRadAn=       5 diagonalized for initial guess.
 HarFok:  IExCor=  205 AccDes= 0.00D+00 IRadAn=         5 IDoV= 1 UseB2=F ITyADJ=14
 ICtDFT=  3500011 ScaDFX=  1.000000  1.000000  1.000000  1.000000
 FoFCou: FMM=F IPFlag=           0 FMFlag=      100000 FMFlg1=           0
         NFxFlg=           0 DoJE=T BraDBF=F KetDBF=T FulRan=T
         wScrn=  0.000000 ICntrl=       500 IOpCl=  0 I1Cent=   200000004 NGrid=           0
         NMat0=    1 NMatS0=      1 NMatT0=    0 NMatD0=    1 NMtDS0=    0 NMtDT0=    0
 Petite list used in FoFCou.
 Initial guess orbital symmetries:
       Occupied  (A') (A') (A') (A') (A') (A') (A') (A") (A') (A')
                 (A") (A') (A') (A")
       Virtual   (A') (A') (A') (A") (A') (A') (A') (A") (A') (A')
                 (A') (A") (A') (A") (A') (A') (A") (A') (A") (A')
                 (A') (A') (A") (A') (A') (A") (A") (A') (A") (A')
                 (A') (A') (A') (A") (A") (A') (A') (A') (A") (A')
                 (A') (A") (A") (A') (A') (A') (A') (A") (A') (A")
                 (A") (A') (A') (A") (A') (A') (A") (A') (A") (A")
                 (A') (A') (A') (A") (A") (A') (A') (A") (A') (A')
                 (A') (A") (A') (A") (A') (A") (A') (A') (A") (A')
                 (A') (A") (A') (A') (A") (A') (A') (A") (A") (A')
                 (A") (A') (A') (A') (A") (A") (A') (A') (A") (A')
                 (A') (A') (A") (A") (A') (A") (A') (A") (A') (A')
                 (A") (A') (A') (A") (A') (A') (A') (A') (A') (A")
                 (A") (A') (A") (A') (A") (A') (A") (A') (A') (A')
                 (A') (A") (A') (A') (A") (A") (A') (A') (A') (A")
                 (A") (A') (A") (A") (A') (A") (A") (A") (A') (A')
                 (A') (A") (A') (A') (A") (A') (A') (A") (A') (A')
                 (A') (A") (A') (A") (A') (A') (A") (A") (A') (A')
                 (A") (A') (A') (A") (A') (A') (A') (A") (A') (A')
                 (A") (A') (A') (A") (A") (A") (A') (A') (A') (A")
                 (A') (A") (A") (A') (A') (A") (A') (A') (A") (A')
                 (A') (A") (A') (A") (A') (A") (A") (A') (A') (A')
                 (A") (A') (A') (A') (A') (A')
 The electronic state of the initial guess is 1-A'.
 Keep R1 ints in memory in symmetry-blocked form, NReq=530275577.
 Requested convergence on RMS density matrix=1.00D-08 within 128 cycles.
 Requested convergence on MAX density matrix=1.00D-06.
 Requested convergence on             energy=1.00D-06.
 No special actions if energy rises.
 SCF Done:  E(RHF) =  -231.031178336     A.U. after   13 cycles
            NFock= 13  Conv=0.34D-08     -V/T= 2.0019
 ExpMin= 2.53D-02 ExpMax= 1.95D+04 ExpMxC= 6.65D+02 IAcc=3 IRadAn=         5 AccDes= 0.00D+00
 HarFok:  IExCor=  205 AccDes= 0.00D+00 IRadAn=         5 IDoV=-2 UseB2=F ITyADJ=14
 ICtDFT= 12500011 ScaDFX=  1.000000  1.000000  1.000000  1.000000
 Range of M.O.s used for correlation:     4   230
 NBasis=   230 NAE=    14 NBE=    14 NFC=     3 NFV=     0
 NROrb=    227 NOA=    11 NOB=    11 NVA=   216 NVB=   216

 **** Warning!!: The largest alpha MO coefficient is  0.26110888D+02

 Fully direct method using O(ONN) memory.
 JobTyp=1 Pass  1:  I=   4 to  14 NPSUse= 28 ParTrn=T ParDer=T DoDerP=T.
 Spin components of T(2) and E(2):
     alpha-alpha T2 =       0.2325966891D-01 E2=     -0.9262632541D-01
     alpha-beta  T2 =       0.1423850529D+00 E2=     -0.5819332664D+00
     beta-beta   T2 =       0.2325966891D-01 E2=     -0.9262632541D-01
 ANorm=    0.1090368924D+01
 E2 =    -0.7671859172D+00 EUMP2 =    -0.23179836425328D+03
          IDoAtm=1111111
          Differentiating once with respect to electric field.
                with respect to dipole field.
          Differentiating once with respect to nuclear coordinates.
 Keep R1 ints in memory in symmetry-blocked form, NReq=530277007.
          There are     1 degrees of freedom in the 1st order CPHF.  IDoFFX=0 NUNeed=     1.
 LinEq1:  Iter=  0 NonCon=     1 RMS=3.93D-03 Max=4.82D-02 NDo=     1
 AX will form     1 AO Fock derivatives at one time.
 LinEq1:  Iter=  1 NonCon=     1 RMS=1.11D-03 Max=1.48D-02 NDo=     1
 LinEq1:  Iter=  2 NonCon=     1 RMS=4.68D-04 Max=6.77D-03 NDo=     1
 LinEq1:  Iter=  3 NonCon=     1 RMS=1.47D-04 Max=1.49D-03 NDo=     1
 LinEq1:  Iter=  4 NonCon=     1 RMS=6.42D-05 Max=7.20D-04 NDo=     1
 LinEq1:  Iter=  5 NonCon=     1 RMS=1.17D-05 Max=1.75D-04 NDo=     1
 LinEq1:  Iter=  6 NonCon=     1 RMS=3.58D-06 Max=3.04D-05 NDo=     1
 LinEq1:  Iter=  7 NonCon=     1 RMS=1.10D-06 Max=1.40D-05 NDo=     1
 LinEq1:  Iter=  8 NonCon=     1 RMS=2.60D-07 Max=3.99D-06 NDo=     1
 LinEq1:  Iter=  9 NonCon=     1 RMS=4.79D-08 Max=8.30D-07 NDo=     1
 LinEq1:  Iter= 10 NonCon=     1 RMS=1.11D-08 Max=1.65D-07 NDo=     1
 LinEq1:  Iter= 11 NonCon=     1 RMS=2.19D-09 Max=1.87D-08 NDo=     1
 LinEq1:  Iter= 12 NonCon=     1 RMS=4.44D-10 Max=5.63D-09 NDo=     1
 LinEq1:  Iter= 13 NonCon=     1 RMS=1.25D-10 Max=2.51D-09 NDo=     1
 LinEq1:  Iter= 14 NonCon=     0 RMS=2.96D-11 Max=4.28D-10 NDo=     1
 Linear equations converged to 1.000D-10 1.000D-09 after    14 iterations.
 End of Minotr F.D. properties file   721 does not exist.
 End of Minotr F.D. properties file   722 does not exist.
 End of Minotr F.D. properties file   788 does not exist.

 **********************************************************************

            Population analysis using the SCF density.

 **********************************************************************

 Orbital symmetries:
       Occupied  (A') (A') (A') (A') (A') (A') (A') (A") (A') (A")
                 (A') (A') (A") (A')
       Virtual   (A') (A") (A') (A') (A') (A') (A') (A") (A') (A")
                 (A') (A") (A') (A') (A') (A') (A") (A') (A") (A')
                 (A') (A") (A') (A") (A') (A') (A") (A') (A') (A')
                 (A") (A') (A") (A') (A') (A") (A') (A') (A') (A")
                 (A') (A") (A') (A") (A') (A') (A") (A') (A") (A')
                 (A') (A") (A') (A') (A") (A') (A") (A') (A") (A')
                 (A") (A') (A') (A") (A") (A') (A") (A') (A') (A")
                 (A') (A') (A') (A') (A") (A") (A') (A') (A") (A')
                 (A') (A") (A') (A') (A") (A') (A') (A") (A") (A')
                 (A") (A') (A') (A') (A") (A') (A") (A') (A") (A')
                 (A') (A') (A") (A") (A") (A') (A') (A') (A") (A')
                 (A") (A') (A') (A") (A') (A') (A') (A') (A") (A')
                 (A") (A') (A") (A') (A") (A') (A") (A') (A') (A')
                 (A') (A") (A') (A') (A") (A") (A') (A') (A') (A")
                 (A") (A') (A") (A") (A") (A') (A") (A') (A") (A')
                 (A') (A') (A") (A') (A") (A') (A') (A") (A') (A')
                 (A') (A") (A") (A') (A") (A') (A') (A') (A") (A")
                 (A') (A') (A') (A") (A') (A') (A") (A') (A') (A')
                 (A") (A') (A') (A") (A") (A") (A') (A') (A') (A")
                 (A') (A") (A') (A") (A') (A") (A') (A') (A") (A')
                 (A') (A") (A') (A") (A') (A") (A') (A') (A") (A')
                 (A") (A') (A') (A') (A') (A')
 The electronic state is 1-A'.
 Alpha  occ. eigenvalues --  -26.31326 -20.66337 -15.57829  -1.58124  -1.28603
 Alpha  occ. eigenvalues --   -1.18784  -0.72724  -0.67875  -0.67827  -0.67348
 Alpha  occ. eigenvalues --   -0.63557  -0.57550  -0.52012  -0.47168
 Alpha virt. eigenvalues --    0.01927   0.04070   0.04160   0.06457   0.10760
 Alpha virt. eigenvalues --    0.12942   0.13760   0.14535   0.14944   0.17439
 Alpha virt. eigenvalues --    0.19089   0.19887   0.20313   0.20760   0.23190
 Alpha virt. eigenvalues --    0.24266   0.24847   0.26411   0.27211   0.32217
 Alpha virt. eigenvalues --    0.33073   0.33957   0.37353   0.37705   0.37755
 Alpha virt. eigenvalues --    0.38156   0.38509   0.40788   0.42181   0.44359
 Alpha virt. eigenvalues --    0.44656   0.46427   0.53255   0.54149   0.56398
 Alpha virt. eigenvalues --    0.59356   0.63447   0.64152   0.67295   0.69844
 Alpha virt. eigenvalues --    0.72589   0.75524   0.79651   0.81034   0.82319
 Alpha virt. eigenvalues --    0.86859   0.87517   0.89291   0.89862   0.90348
 Alpha virt. eigenvalues --    0.91635   0.93695   0.98257   0.99342   0.99389
 Alpha virt. eigenvalues --    1.00409   1.00726   1.02405   1.03108   1.04441
 Alpha virt. eigenvalues --    1.05481   1.07985   1.09597   1.10472   1.11340
 Alpha virt. eigenvalues --    1.14430   1.15504   1.16503   1.22978   1.23407
 Alpha virt. eigenvalues --    1.23503   1.25811   1.27855   1.29418   1.30727
 Alpha virt. eigenvalues --    1.38399   1.39412   1.41302   1.41467   1.43325
 Alpha virt. eigenvalues --    1.51493   1.54157   1.60997   1.63698   1.64226
 Alpha virt. eigenvalues --    1.68471   1.70878   1.72839   1.80824   1.81005
 Alpha virt. eigenvalues --    1.85717   1.89249   1.92856   1.95550   2.04563
 Alpha virt. eigenvalues --    2.05917   2.08606   2.10326   2.13302   2.18628
 Alpha virt. eigenvalues --    2.19904   2.32969   2.33295   2.35617   2.37438
 Alpha virt. eigenvalues --    2.39126   2.42072   2.42808   2.43508   2.45121
 Alpha virt. eigenvalues --    2.47927   2.53621   2.53936   2.54694   2.67928
 Alpha virt. eigenvalues --    2.68913   2.82299   2.84571   2.87903   2.89733
 Alpha virt. eigenvalues --    2.96161   3.03322   3.03930   3.10072   3.17788
 Alpha virt. eigenvalues --    3.22826   3.30485   3.41684   3.46927   3.55068
 Alpha virt. eigenvalues --    3.64956   3.73124   3.78106   3.79785   3.83022
 Alpha virt. eigenvalues --    3.96770   3.97591   4.06982   4.14644   4.16653
 Alpha virt. eigenvalues --    4.18164   4.19722   4.19972   4.20474   4.31648
 Alpha virt. eigenvalues --    4.31973   4.34949   4.40889   4.43537   4.46347
 Alpha virt. eigenvalues --    4.52517   4.53687   4.53884   4.55366   4.56957
 Alpha virt. eigenvalues --    4.66625   4.72335   4.76822   4.77260   4.86521
 Alpha virt. eigenvalues --    4.91895   4.92622   4.94648   4.97199   5.04262
 Alpha virt. eigenvalues --    5.06230   5.09945   5.25775   5.29776   5.34413
 Alpha virt. eigenvalues --    5.45451   5.50225   5.55191   5.58920   5.60127
 Alpha virt. eigenvalues --    5.87680   5.93158   5.93273   5.93642   6.24683
 Alpha virt. eigenvalues --    6.31048   6.31367   6.41787   6.51302   6.67779
 Alpha virt. eigenvalues --    6.71187   6.73059   6.78753   6.91206   6.93604
 Alpha virt. eigenvalues --    6.95723   7.17160   7.19912   7.19934   7.31117
 Alpha virt. eigenvalues --    7.43418   7.68147   7.77123   7.77608   7.85161
 Alpha virt. eigenvalues --    8.10906   8.87495   8.89319   8.98341   9.01671
 Alpha virt. eigenvalues --    9.22786   9.30514   9.34515   9.35926   9.38236
 Alpha virt. eigenvalues --    9.50596   9.62255   9.93055  14.02458  15.15201
 Alpha virt. eigenvalues --   18.06080
          Condensed to atoms (all electrons):
               1          2          3          4          5          6
     1  O    7.994015  -0.017070   0.196475  -0.027993  -0.000534  -0.000534
     2  F   -0.017070   9.295236  -0.001784   0.000668   0.000043   0.000043
     3  H    0.196475  -0.001784   0.395971   0.024938   0.000230   0.000230
     4  N   -0.027993   0.000668   0.024938   6.239502   0.397990   0.397990
     5  H   -0.000534   0.000043   0.000230   0.397990   0.465486  -0.008470
     6  H   -0.000534   0.000043   0.000230   0.397990  -0.008470   0.465486
     7  H   -0.002460   0.001167   0.000953   0.393044  -0.008666  -0.008666
               7
     1  O   -0.002460
     2  F    0.001167
     3  H    0.000953
     4  N    0.393044
     5  H   -0.008666
     6  H   -0.008666
     7  H    0.469116
 Mulliken charges:
               1
     1  O   -0.141900
     2  F   -0.278304
     3  H    0.382988
     4  N   -0.426138
     5  H    0.153921
     6  H    0.153921
     7  H    0.155512
 Sum of Mulliken charges =  -0.00000
 Mulliken charges with hydrogens summed into heavy atoms:
               1
     1  O    0.241087
     2  F   -0.278304
     4  N    0.037216
 Electronic spatial extent (au):  <R**2>=            346.7758
 Charge=             -0.0000 electrons
 Dipole moment (field-independent basis, Debye):
    X=             -4.7487    Y=              1.1832    Z=             -0.0000  Tot=              4.8939
 Quadrupole moment (field-independent basis, Debye-Ang):
   XX=            -14.7439   YY=            -17.3255   ZZ=            -17.2020
   XY=             -0.6875   XZ=             -0.0000   YZ=              0.0000
 Traceless Quadrupole moment (field-independent basis, Debye-Ang):
   XX=              1.6799   YY=             -0.9017   ZZ=             -0.7782
   XY=             -0.6875   XZ=             -0.0000   YZ=              0.0000
 Octapole moment (field-independent basis, Debye-Ang**2):
  XXX=            -10.4745  YYY=             -1.5959  ZZZ=              0.0000  XYY=             -3.2512
  XXY=              2.1511  XXZ=              0.0000  XZZ=             -1.6714  YZZ=              0.3042
  YYZ=             -0.0000  XYZ=             -0.0000
 Hexadecapole moment (field-independent basis, Debye-Ang**3):
 XXXX=           -276.4285 YYYY=            -62.0377 ZZZZ=            -17.2328 XXXY=             32.4081
 XXXZ=             -0.0000 YYYX=             33.3681 YYYZ=             -0.0000 ZZZX=              0.0000
 ZZZY=             -0.0000 XXYY=            -52.0747 XXZZ=            -44.6728 YYZZ=            -12.3475
 XXYZ=              0.0000 YYXZ=             -0.0000 ZZXY=              7.6842
 N-N= 7.244698449047D+01 E-N=-6.944141935860D+02  KE= 2.305991861677D+02
 Symmetry A'   KE= 2.164480950532D+02
 Symmetry A"   KE= 1.415109111452D+01
 Calling FoFJK, ICntrl=  10002127 FMM=F ISym2X=1 I1Cent= 0 IOpClX= 0 NMat=1 NMatS=1 NMatT=0.
 ***** Axes restored to original set *****
 -------------------------------------------------------------------
 Center     Atomic                   Forces (Hartrees/Bohr)
 Number     Number              X              Y              Z
 -------------------------------------------------------------------
      1        8          -0.003292052    0.000000000    0.021328469
      2        9           0.010567920   -0.000000000   -0.039803204
      3        1          -0.001768220    0.000000000    0.016815274
      4        7          -0.018646246   -0.000000000    0.006037593
      5        1           0.003088499   -0.007224735   -0.005430195
      6        1           0.003088499    0.007224735   -0.005430195
      7        1           0.006961599    0.000000000    0.006482257
 -------------------------------------------------------------------
 Cartesian Forces:  Max     0.039803204 RMS     0.012158988

 GradGradGradGradGradGradGradGradGradGradGradGradGradGradGradGradGradGrad
 Berny optimization.
 FormGI is forming the generalized inverse of G from B-inverse, IUseBI=4.
 Internal  Forces:  Max     0.039803213 RMS     0.012763836
 Search for a local minimum.
 Step number   1 out of a maximum of   28
 All quantities printed in internal units (Hartrees-Bohrs-Radians)
 Mixed Optimization -- RFO/linear search
 Second derivative matrix not updated -- first step.
 The second derivative matrix:
                          R1        R2        R3        R4        R5
           R1           0.32377
           R2           0.00000   0.47688
           R3           0.00000   0.00000   0.04307
           R4           0.00000   0.00000   0.00000   0.47688
           R5           0.00000   0.00000   0.00000   0.00000   0.47688
           R6           0.00000   0.00000   0.00000   0.00000   0.00000
           A1           0.00000   0.00000   0.00000   0.00000   0.00000
           A2           0.00000   0.00000   0.00000   0.00000   0.00000
           A3           0.00000   0.00000   0.00000   0.00000   0.00000
           A4           0.00000   0.00000   0.00000   0.00000   0.00000
           A5           0.00000   0.00000   0.00000   0.00000   0.00000
           A6           0.00000   0.00000   0.00000   0.00000   0.00000
           A7           0.00000   0.00000   0.00000   0.00000   0.00000
           A8           0.00000   0.00000   0.00000   0.00000   0.00000
           A9           0.00000   0.00000   0.00000   0.00000   0.00000
           D1           0.00000   0.00000   0.00000   0.00000   0.00000
           D2           0.00000   0.00000   0.00000   0.00000   0.00000
           D3           0.00000   0.00000   0.00000   0.00000   0.00000
                          R6        A1        A2        A3        A4
           R6           0.47688
           A1           0.00000   0.16000
           A2           0.00000   0.00000   0.16000
           A3           0.00000   0.00000   0.00000   0.16000
           A4           0.00000   0.00000   0.00000   0.00000   0.16000
           A5           0.00000   0.00000   0.00000   0.00000   0.00000
           A6           0.00000   0.00000   0.00000   0.00000   0.00000
           A7           0.00000   0.00000   0.00000   0.00000   0.00000
           A8           0.00000   0.00000   0.00000   0.00000   0.00000
           A9           0.00000   0.00000   0.00000   0.00000   0.00000
           D1           0.00000   0.00000   0.00000   0.00000   0.00000
           D2           0.00000   0.00000   0.00000   0.00000   0.00000
           D3           0.00000   0.00000   0.00000   0.00000   0.00000
                          A5        A6        A7        A8        A9
           A5           0.16000
           A6           0.00000   0.16000
           A7           0.00000   0.00000   0.16000
           A8           0.00000   0.00000   0.00000   0.00230
           A9           0.00000   0.00000   0.00000   0.00000   0.00230
           D1           0.00000   0.00000   0.00000   0.00000   0.00000
           D2           0.00000   0.00000   0.00000   0.00000   0.00000
           D3           0.00000   0.00000   0.00000   0.00000   0.00000
                          D1        D2        D3
           D1           0.00230
           D2           0.00000   0.00230
           D3           0.00000   0.00000   0.00230
 ITU=  0
     Eigenvalues ---    0.00230   0.00230   0.00230   0.04307   0.09761
     Eigenvalues ---    0.10014   0.16000   0.16000   0.16000   0.16000
     Eigenvalues ---    0.32377   0.47688   0.47688   0.47688   0.47688
 RFO step:  Lambda=-1.14692236D-02 EMin= 2.30000000D-03
 Linear search not attempted -- first point.
 Iteration  1 RMS(Cart)=  0.11940564 RMS(Int)=  0.00735947
 Iteration  2 RMS(Cart)=  0.00587217 RMS(Int)=  0.00002263
 Iteration  3 RMS(Cart)=  0.00002357 RMS(Int)=  0.00002039
 Iteration  4 RMS(Cart)=  0.00000000 RMS(Int)=  0.00002039
 ClnCor:  largest displacement from symmetrization is 1.69D-11 for atom     7.
 Variable       Old X    -DE/DX   Delta X   Delta X   Delta X     New X
                                 (Linear)    (Quad)   (Total)
    R1        2.83459  -0.03980   0.00000  -0.11873  -0.11873   2.71586
    R2        1.88973  -0.01181   0.00000  -0.02418  -0.02418   1.86554
    R3        3.77945  -0.00574   0.00000  -0.10531  -0.10531   3.67414
    R4        1.88973   0.00941   0.00000   0.01927   0.01927   1.90899
    R5        1.88973   0.00941   0.00000   0.01927   0.01927   1.90899
    R6        1.88973   0.00944   0.00000   0.01933   0.01933   1.90906
    A1        1.83260  -0.02996   0.00000  -0.17470  -0.17470   1.65790
    A2        1.91986   0.00168   0.00000   0.00999   0.00996   1.92982
    A3        1.91986   0.00168   0.00000   0.00999   0.00996   1.92982
    A4        1.91986   0.00076   0.00000   0.00405   0.00401   1.92388
    A5        1.90131  -0.00138   0.00000  -0.00724  -0.00726   1.89405
    A6        1.90131  -0.00141   0.00000  -0.00863  -0.00867   1.89265
    A7        1.90131  -0.00141   0.00000  -0.00863  -0.00867   1.89265
    A8        3.22886   0.00024   0.00000   0.01512   0.01511   3.24397
    A9        3.14159   0.00000   0.00000   0.00000   0.00000   3.14159
    D1        2.10333  -0.00016   0.00000   0.00007   0.00008   2.10341
    D2       -2.10333   0.00016   0.00000  -0.00007  -0.00008  -2.10341
    D3        0.00000  -0.00000   0.00000   0.00000   0.00000   0.00000
         Item               Value     Threshold  Converged?
 Maximum Force            0.039803     0.000450     NO 
 RMS     Force            0.012764     0.000300     NO 
 Maximum Displacement     0.384257     0.001800     NO 
 RMS     Displacement     0.118898     0.001200     NO 
 Predicted change in Energy=-6.067515D-03
 GradGradGradGradGradGradGradGradGradGradGradGradGradGradGradGradGradGrad

                          Input orientation:                          
 ---------------------------------------------------------------------
 Center     Atomic      Atomic             Coordinates (Angstroms)
 Number     Number       Type             X           Y           Z
 ---------------------------------------------------------------------
      1          8           0       -0.006360    0.000000   -0.036124
      2          9           0        0.203340    0.000000    1.385666
      3          1           0        0.954045    0.000000   -0.264579
      4          7           0        2.789650    0.000000   -0.905476
      5          1           0        2.969380   -0.819957   -1.467491
      6          1           0        2.969380    0.819957   -1.467491
      7          1           0        3.431916    0.000000   -0.125695
 ---------------------------------------------------------------------
                    Distance matrix (angstroms):
                    1          2          3          4          5
     1  O    0.000000
     2  F    1.437171   0.000000
     3  H    0.987203   1.812972   0.000000
     4  N    2.928045   3.455190   1.944273   0.000000
     5  H    3.402378   4.057563   2.486143   1.010195   0.000000
     6  H    3.402378   4.057563   2.486143   1.010195   1.639915
     7  H    3.439443   3.564816   2.481760   1.010230   1.639112
                    6          7
     6  H    0.000000
     7  H    1.639112   0.000000
 Stoichiometry    FH4NO
 Framework group  CS[SG(FH2NO),X(H2)]
 Deg. of freedom    10
 Full point group                 CS      NOp   2
 Largest Abelian subgroup         CS      NOp   2
 Largest concise Abelian subgroup CS      NOp   2
                         Standard orientation:                         
 ---------------------------------------------------------------------
 Center     Atomic      Atomic             Coordinates (Angstroms)
 Number     Number       Type             X           Y           Z
 ---------------------------------------------------------------------
      1          8           0        0.961995    0.617317    0.000000
      2          9           0        1.405300   -0.749776    0.000000
      3          1           0        0.000000    0.395650    0.000000
      4          7           0       -1.929323    0.155005    0.000000
      5          1           0       -2.339878    0.578808    0.819957
      6          1           0       -2.339878    0.578808   -0.819957
      7          1           0       -2.158640   -0.828854    0.000000
 ---------------------------------------------------------------------
 Rotational constants (GHZ):          28.6512158           4.1227155           3.6751454
 Standard basis: Aug-CC-pVTZ (5D, 7F)
 There are   172 symmetry adapted cartesian basis functions of A'  symmetry.
 There are    93 symmetry adapted cartesian basis functions of A"  symmetry.
 There are   145 symmetry adapted basis functions of A'  symmetry.
 There are    85 symmetry adapted basis functions of A"  symmetry.
   230 basis functions,   324 primitive gaussians,   265 cartesian basis functions
    14 alpha electrons       14 beta electrons
       nuclear repulsion energy        75.1114499180 Hartrees.
 NAtoms=    7 NActive=    7 NUniq=    6 SFac= 1.36D+00 NAtFMM=   60 NAOKFM=F Big=F
 Integral buffers will be    131072 words long.
 Raffenetti 1 integral format.
 Two-electron integral symmetry is turned on.
 One-electron integrals computed using PRISM.
 NBasis=   230 RedAO= T EigKep=  9.98D-05  NBF=   145    85
 NBsUse=   230 1.00D-06 EigRej= -1.00D+00 NBFU=   145    85
 Initial guess from the checkpoint file:  "/tmp/Gau-25889.chk"
 B after Tr=     0.000000    0.000000    0.000000
         Rot=    0.997325    0.000000   -0.000000   -0.073091 Ang=  -8.38 deg.
 Initial guess orbital symmetries:
       Occupied  (A') (A') (A') (A') (A') (A') (A') (A") (A') (A")
                 (A') (A') (A") (A')
       Virtual   (A') (A") (A') (A') (A') (A') (A') (A") (A') (A")
                 (A') (A") (A') (A') (A') (A') (A") (A') (A") (A')
                 (A') (A") (A') (A") (A') (A') (A") (A') (A') (A')
                 (A") (A') (A") (A') (A') (A") (A') (A') (A') (A")
                 (A') (A") (A') (A") (A') (A') (A") (A') (A") (A')
                 (A') (A") (A') (A') (A") (A') (A") (A') (A") (A')
                 (A") (A') (A') (A") (A") (A') (A") (A') (A') (A")
                 (A') (A') (A') (A') (A") (A") (A') (A') (A") (A')
                 (A') (A") (A') (A') (A") (A') (A') (A") (A") (A')
                 (A") (A') (A') (A') (A") (A') (A") (A') (A") (A')
                 (A') (A') (A") (A") (A") (A') (A') (A') (A") (A')
                 (A") (A') (A') (A") (A') (A') (A') (A') (A") (A')
                 (A") (A') (A") (A') (A") (A') (A") (A') (A') (A')
                 (A') (A") (A') (A') (A") (A") (A') (A') (A') (A")
                 (A") (A') (A") (A") (A") (A') (A") (A') (A") (A')
                 (A') (A') (A") (A') (A") (A') (A') (A") (A') (A')
                 (A') (A") (A") (A') (A") (A') (A') (A') (A") (A")
                 (A') (A') (A') (A") (A') (A') (A") (A') (A') (A')
                 (A") (A') (A') (A") (A") (A") (A') (A') (A') (A")
                 (A') (A") (A') (A") (A') (A") (A') (A') (A") (A')
                 (A') (A") (A') (A") (A') (A") (A') (A') (A") (A')
                 (A") (A') (A') (A') (A') (A')
 ExpMin= 2.53D-02 ExpMax= 1.95D+04 ExpMxC= 6.65D+02 IAcc=3 IRadAn=         5 AccDes= 0.00D+00
 Harris functional with IExCor=  205 and IRadAn=       5 diagonalized for initial guess.
 HarFok:  IExCor=  205 AccDes= 0.00D+00 IRadAn=         5 IDoV= 1 UseB2=F ITyADJ=14
 ICtDFT=  3500011 ScaDFX=  1.000000  1.000000  1.000000  1.000000
 FoFCou: FMM=F IPFlag=           0 FMFlag=      100000 FMFlg1=           0
         NFxFlg=           0 DoJE=T BraDBF=F KetDBF=T FulRan=T
         wScrn=  0.000000 ICntrl=       500 IOpCl=  0 I1Cent=   200000004 NGrid=           0
         NMat0=    1 NMatS0=      1 NMatT0=    0 NMatD0=    1 NMtDS0=    0 NMtDT0=    0
 Petite list used in FoFCou.
 Keep R1 ints in memory in symmetry-blocked form, NReq=530275577.
 Requested convergence on RMS density matrix=1.00D-08 within 128 cycles.
 Requested convergence on MAX density matrix=1.00D-06.
 Requested convergence on             energy=1.00D-06.
 No special actions if energy rises.
 SCF Done:  E(RHF) =  -231.041013024     A.U. after   12 cycles
            NFock= 12  Conv=0.54D-08     -V/T= 2.0015
 ExpMin= 2.53D-02 ExpMax= 1.95D+04 ExpMxC= 6.65D+02 IAcc=3 IRadAn=         5 AccDes= 0.00D+00
 HarFok:  IExCor=  205 AccDes= 0.00D+00 IRadAn=         5 IDoV=-2 UseB2=F ITyADJ=14
 ICtDFT= 12500011 ScaDFX=  1.000000  1.000000  1.000000  1.000000
 Range of M.O.s used for correlation:     4   230
 NBasis=   230 NAE=    14 NBE=    14 NFC=     3 NFV=     0
 NROrb=    227 NOA=    11 NOB=    11 NVA=   216 NVB=   216

 **** Warning!!: The largest alpha MO coefficient is  0.26354946D+02

 Fully direct method using O(ONN) memory.
 JobTyp=1 Pass  1:  I=   4 to  14 NPSUse= 28 ParTrn=T ParDer=T DoDerP=T.
 Spin components of T(2) and E(2):
     alpha-alpha T2 =       0.2285671403D-01 E2=     -0.9250860907D-01
     alpha-beta  T2 =       0.1377469578D+00 E2=     -0.5778188413D+00
     beta-beta   T2 =       0.2285671403D-01 E2=     -0.9250860907D-01
 ANorm=    0.1087869655D+01
 E2 =    -0.7628360594D+00 EUMP2 =    -0.23180384908306D+03
          IDoAtm=1111111
          Differentiating once with respect to electric field.
                with respect to dipole field.
          Differentiating once with respect to nuclear coordinates.
 Keep R1 ints in memory in symmetry-blocked form, NReq=530277007.
          There are     1 degrees of freedom in the 1st order CPHF.  IDoFFX=0 NUNeed=     1.
 LinEq1:  Iter=  0 NonCon=     1 RMS=3.64D-03 Max=5.13D-02 NDo=     1
 AX will form     1 AO Fock derivatives at one time.
 LinEq1:  Iter=  1 NonCon=     1 RMS=9.68D-04 Max=1.23D-02 NDo=     1
 LinEq1:  Iter=  2 NonCon=     1 RMS=4.10D-04 Max=6.99D-03 NDo=     1
 LinEq1:  Iter=  3 NonCon=     1 RMS=1.23D-04 Max=1.36D-03 NDo=     1
 LinEq1:  Iter=  4 NonCon=     1 RMS=5.47D-05 Max=9.00D-04 NDo=     1
 LinEq1:  Iter=  5 NonCon=     1 RMS=1.03D-05 Max=1.30D-04 NDo=     1
 LinEq1:  Iter=  6 NonCon=     1 RMS=3.22D-06 Max=3.67D-05 NDo=     1
 LinEq1:  Iter=  7 NonCon=     1 RMS=1.10D-06 Max=1.77D-05 NDo=     1
 LinEq1:  Iter=  8 NonCon=     1 RMS=3.44D-07 Max=7.64D-06 NDo=     1
 LinEq1:  Iter=  9 NonCon=     1 RMS=8.19D-08 Max=9.46D-07 NDo=     1
 LinEq1:  Iter= 10 NonCon=     1 RMS=1.29D-08 Max=1.09D-07 NDo=     1
 LinEq1:  Iter= 11 NonCon=     1 RMS=2.49D-09 Max=3.39D-08 NDo=     1
 LinEq1:  Iter= 12 NonCon=     1 RMS=5.08D-10 Max=8.21D-09 NDo=     1
 LinEq1:  Iter= 13 NonCon=     1 RMS=9.24D-11 Max=1.35D-09 NDo=     1
 LinEq1:  Iter= 14 NonCon=     0 RMS=1.83D-11 Max=2.63D-10 NDo=     1
 Linear equations converged to 1.000D-10 1.000D-09 after    14 iterations.
 End of Minotr F.D. properties file   721 does not exist.
 End of Minotr F.D. properties file   722 does not exist.
 End of Minotr F.D. properties file   788 does not exist.
 Calling FoFJK, ICntrl=  10002127 FMM=F ISym2X=1 I1Cent= 0 IOpClX= 0 NMat=1 NMatS=1 NMatT=0.
 ***** Axes restored to original set *****
 -------------------------------------------------------------------
 Center     Atomic                   Forces (Hartrees/Bohr)
 Number     Number              X              Y              Z
 -------------------------------------------------------------------
      1        8           0.006897222   -0.000000000    0.005369714
      2        9          -0.003858858    0.000000000    0.000988165
      3        1           0.000813787   -0.000000000   -0.008133976
      4        7          -0.008737999   -0.000000000    0.003204307
      5        1           0.001683117   -0.000031893   -0.000568158
      6        1           0.001683117    0.000031893   -0.000568158
      7        1           0.001519613   -0.000000000   -0.000291894
 -------------------------------------------------------------------
 Cartesian Forces:  Max     0.008737999 RMS     0.003480727

 GradGradGradGradGradGradGradGradGradGradGradGradGradGradGradGradGradGrad
 Berny optimization.
 Using GEDIIS/GDIIS optimizer.
 FormGI is forming the generalized inverse of G from B-inverse, IUseBI=4.
 Internal  Forces:  Max     0.010759535 RMS     0.002930944
 Search for a local minimum.
 Step number   2 out of a maximum of   28
 All quantities printed in internal units (Hartrees-Bohrs-Radians)
 Mixed Optimization -- RFO/linear search
 Update second derivatives using D2CorX and points    1    2
 DE= -5.48D-03 DEPred=-6.07D-03 R= 9.04D-01
 TightC=F SS=  1.41D+00  RLast= 2.41D-01 DXNew= 5.0454D-01 7.2283D-01
 Trust test= 9.04D-01 RLast= 2.41D-01 DXMaxT set to 5.05D-01
 The second derivative matrix:
                          R1        R2        R3        R4        R5
           R1           0.31299
           R2          -0.00869   0.47288
           R3          -0.01137  -0.00362   0.04134
           R4           0.00522   0.00276   0.00282   0.47506
           R5           0.00522   0.00276   0.00282  -0.00183   0.47506
           R6           0.00555   0.00284   0.00284  -0.00190  -0.00190
           A1           0.02810   0.00291  -0.00691  -0.00404  -0.00404
           A2           0.00540   0.00163   0.00066  -0.00130  -0.00130
           A3           0.00540   0.00163   0.00066  -0.00130  -0.00130
           A4           0.00339   0.00097   0.00031  -0.00079  -0.00079
           A5          -0.00485  -0.00142  -0.00051   0.00114   0.00114
           A6          -0.00498  -0.00149  -0.00058   0.00119   0.00119
           A7          -0.00498  -0.00149  -0.00058   0.00119   0.00119
           A8          -0.00706  -0.00181  -0.00026   0.00154   0.00154
           A9          -0.00000  -0.00000  -0.00000   0.00000   0.00000
           D1          -0.00009  -0.00002  -0.00000   0.00002   0.00002
           D2           0.00009   0.00002   0.00000  -0.00002  -0.00002
           D3           0.00000   0.00000   0.00000  -0.00000  -0.00000
                          R6        A1        A2        A3        A4
           R6           0.47491
           A1          -0.00374   0.21682
           A2          -0.00130   0.00385   0.15977
           A3          -0.00130   0.00385  -0.00023   0.15977
           A4          -0.00079   0.00278  -0.00010  -0.00010   0.15997
           A5           0.00115  -0.00373   0.00017   0.00017   0.00006
           A6           0.00119  -0.00364   0.00020   0.00020   0.00008
           A7           0.00119  -0.00364   0.00020   0.00020   0.00008
           A8           0.00152  -0.00718   0.00001   0.00001  -0.00006
           A9           0.00000  -0.00000   0.00000   0.00000  -0.00000
           D1           0.00002  -0.00009   0.00000   0.00000  -0.00000
           D2          -0.00002   0.00009  -0.00000  -0.00000   0.00000
           D3          -0.00000   0.00000  -0.00000  -0.00000   0.00000
                          A5        A6        A7        A8        A9
           A5           0.15988
           A6          -0.00015   0.15982
           A7          -0.00015  -0.00018   0.15982
           A8           0.00004   0.00001   0.00001   0.00271
           A9           0.00000   0.00000   0.00000   0.00000   0.00230
           D1           0.00000   0.00000   0.00000   0.00001   0.00000
           D2          -0.00000  -0.00000  -0.00000  -0.00001  -0.00000
           D3          -0.00000  -0.00000  -0.00000  -0.00000  -0.00000
                          D1        D2        D3
           D1           0.00230
           D2          -0.00000   0.00230
           D3          -0.00000   0.00000   0.00230
 ITU=  1  0
 Use linear search instead of GDIIS.
     Eigenvalues ---    0.00230   0.00230   0.00231   0.04056   0.09682
     Eigenvalues ---    0.09929   0.15728   0.16000   0.16000   0.20946
     Eigenvalues ---    0.32197   0.46848   0.47688   0.47688   0.47698
 RFO step:  Lambda=-1.72541675D-03 EMin= 2.30000000D-03
 Quartic linear search produced a step of -0.08954.
 Iteration  1 RMS(Cart)=  0.10711913 RMS(Int)=  0.05712912
 Iteration  2 RMS(Cart)=  0.10903165 RMS(Int)=  0.01197274
 Iteration  3 RMS(Cart)=  0.02729737 RMS(Int)=  0.00219883
 Iteration  4 RMS(Cart)=  0.00031975 RMS(Int)=  0.00217616
 Iteration  5 RMS(Cart)=  0.00000043 RMS(Int)=  0.00217616
 ClnCor:  largest displacement from symmetrization is 3.62D-10 for atom     3.
 Variable       Old X    -DE/DX   Delta X   Delta X   Delta X     New X
                                 (Linear)    (Quad)   (Total)
    R1        2.71586   0.00041   0.01063  -0.02867  -0.01804   2.69782
    R2        1.86554  -0.00148   0.00217  -0.00879  -0.00679   1.85876
    R3        3.67414  -0.00422   0.00943  -0.12109  -0.11158   3.56256
    R4        1.90899   0.00064  -0.00173   0.00598   0.00425   1.91324
    R5        1.90899   0.00064  -0.00173   0.00598   0.00425   1.91324
    R6        1.90906   0.00074  -0.00173   0.00618   0.00445   1.91351
    A1        1.65790   0.01076   0.01564   0.01422   0.02987   1.68776
    A2        1.92982   0.00160  -0.00089   0.01160   0.00918   1.93901
    A3        1.92982   0.00160  -0.00089   0.01160   0.00918   1.93901
    A4        1.92388   0.00111  -0.00036   0.00734   0.00935   1.93323
    A5        1.89405  -0.00160   0.00065  -0.01100  -0.01435   1.87970
    A6        1.89265  -0.00143   0.00078  -0.01032  -0.00730   1.88534
    A7        1.89265  -0.00143   0.00078  -0.01032  -0.00730   1.88534
    A8        3.24397  -0.00205  -0.00135  -0.44291  -0.44295   2.80103
    A9        3.14159  -0.00000   0.00000  -0.00000   0.00000   3.14159
    D1        2.10341  -0.00019  -0.00001  -0.04574  -0.05060   2.05281
    D2       -2.10341   0.00019   0.00001   0.04574   0.05060  -2.05281
    D3        0.00000   0.00000   0.00000   0.00000   0.00000   0.00000
         Item               Value     Threshold  Converged?
 Maximum Force            0.010760     0.000450     NO 
 RMS     Force            0.002931     0.000300     NO 
 Maximum Displacement     0.715325     0.001800     NO 
 RMS     Displacement     0.240340     0.001200     NO 
 Predicted change in Energy=-1.087455D-03
 GradGradGradGradGradGradGradGradGradGradGradGradGradGradGradGradGradGrad

                          Input orientation:                          
 ---------------------------------------------------------------------
 Center     Atomic      Atomic             Coordinates (Angstroms)
 Number     Number       Type             X           Y           Z
 ---------------------------------------------------------------------
      1          8           0        0.004322    0.000000   -0.004601
      2          9           0        0.581873    0.000000    1.300981
      3          1           0        0.851267    0.000000   -0.504779
      4          7           0        2.701530    0.000000   -0.866171
      5          1           0        2.968489   -0.817519   -1.400436
      6          1           0        2.968489    0.817519   -1.400436
      7          1           0        3.235381    0.000000   -0.005746
 ---------------------------------------------------------------------
                    Distance matrix (angstroms):
                    1          2          3          4          5
     1  O    0.000000
     2  F    1.427624   0.000000
     3  H    0.983612   1.825745   0.000000
     4  N    2.831472   3.031418   1.885227   0.000000
     5  H    3.376830   3.696205   2.439912   1.012445   0.000000
     6  H    3.376830   3.696205   2.439912   1.012445   1.635039
     7  H    3.231059   2.957810   2.435783   1.012585   1.638515
                    6          7
     6  H    0.000000
     7  H    1.638515   0.000000
 Stoichiometry    FH4NO
 Framework group  CS[SG(FH2NO),X(H2)]
 Deg. of freedom    10
 Full point group                 CS      NOp   2
 Largest Abelian subgroup         CS      NOp   2
 Largest concise Abelian subgroup CS      NOp   2
                         Standard orientation:                         
 ---------------------------------------------------------------------
 Center     Atomic      Atomic             Coordinates (Angstroms)
 Number     Number       Type             X           Y           Z
 ---------------------------------------------------------------------
      1          8           0        0.983183    0.722986    0.000000
      2          9           0        1.191592   -0.689343    0.000000
      3          1           0        0.000000    0.693933    0.000000
      4          7           0       -1.757575    0.012017    0.000000
      5          1           0       -2.268481    0.321341    0.817519
      6          1           0       -2.268481    0.321341   -0.817519
      7          1           0       -1.749802   -1.000538    0.000000
 ---------------------------------------------------------------------
 Rotational constants (GHZ):          25.0077310           5.0703643           4.3125581
 Standard basis: Aug-CC-pVTZ (5D, 7F)
 There are   172 symmetry adapted cartesian basis functions of A'  symmetry.
 There are    93 symmetry adapted cartesian basis functions of A"  symmetry.
 There are   145 symmetry adapted basis functions of A'  symmetry.
 There are    85 symmetry adapted basis functions of A"  symmetry.
   230 basis functions,   324 primitive gaussians,   265 cartesian basis functions
    14 alpha electrons       14 beta electrons
       nuclear repulsion energy        77.6300575258 Hartrees.
 NAtoms=    7 NActive=    7 NUniq=    6 SFac= 1.36D+00 NAtFMM=   60 NAOKFM=F Big=F
 Integral buffers will be    131072 words long.
 Raffenetti 1 integral format.
 Two-electron integral symmetry is turned on.
 One-electron integrals computed using PRISM.
 NBasis=   230 RedAO= T EigKep=  9.72D-05  NBF=   145    85
 NBsUse=   230 1.00D-06 EigRej= -1.00D+00 NBFU=   145    85
 Initial guess from the checkpoint file:  "/tmp/Gau-25889.chk"
 B after Tr=    -0.000000   -0.000000   -0.000000
         Rot=    0.999673   -0.000000    0.000000   -0.025566 Ang=  -2.93 deg.
 Initial guess orbital symmetries:
       Occupied  (A') (A') (A') (A') (A') (A') (A') (A") (A") (A')
                 (A') (A') (A") (A')
       Virtual   (A') (A") (A') (A') (A') (A') (A') (A") (A') (A")
                 (A') (A") (A') (A') (A') (A') (A") (A') (A") (A')
                 (A') (A") (A') (A") (A') (A') (A") (A') (A') (A')
                 (A") (A') (A") (A') (A') (A") (A') (A') (A') (A")
                 (A') (A") (A') (A") (A') (A') (A") (A') (A") (A')
                 (A') (A") (A') (A') (A") (A") (A') (A') (A") (A")
                 (A') (A') (A") (A') (A") (A') (A') (A") (A") (A')
                 (A') (A') (A') (A") (A') (A") (A') (A') (A") (A')
                 (A') (A") (A') (A') (A") (A') (A") (A') (A") (A')
                 (A") (A') (A') (A') (A") (A') (A") (A') (A") (A')
                 (A') (A") (A') (A") (A") (A') (A') (A") (A') (A')
                 (A") (A') (A') (A") (A') (A') (A") (A') (A') (A')
                 (A") (A') (A") (A') (A") (A') (A") (A') (A') (A')
                 (A') (A") (A') (A") (A') (A") (A') (A') (A') (A")
                 (A") (A") (A") (A') (A') (A") (A') (A") (A') (A")
                 (A') (A') (A") (A') (A") (A') (A') (A") (A') (A')
                 (A") (A") (A') (A') (A") (A') (A') (A') (A") (A")
                 (A') (A') (A") (A') (A') (A') (A") (A') (A') (A')
                 (A") (A') (A') (A") (A") (A") (A') (A') (A') (A")
                 (A') (A") (A') (A") (A") (A') (A') (A") (A') (A')
                 (A') (A") (A') (A") (A') (A") (A') (A") (A') (A')
                 (A") (A') (A') (A') (A') (A')
 ExpMin= 2.53D-02 ExpMax= 1.95D+04 ExpMxC= 6.65D+02 IAcc=3 IRadAn=         5 AccDes= 0.00D+00
 Harris functional with IExCor=  205 and IRadAn=       5 diagonalized for initial guess.
 HarFok:  IExCor=  205 AccDes= 0.00D+00 IRadAn=         5 IDoV= 1 UseB2=F ITyADJ=14
 ICtDFT=  3500011 ScaDFX=  1.000000  1.000000  1.000000  1.000000
 FoFCou: FMM=F IPFlag=           0 FMFlag=      100000 FMFlg1=           0
         NFxFlg=           0 DoJE=T BraDBF=F KetDBF=T FulRan=T
         wScrn=  0.000000 ICntrl=       500 IOpCl=  0 I1Cent=   200000004 NGrid=           0
         NMat0=    1 NMatS0=      1 NMatT0=    0 NMatD0=    1 NMtDS0=    0 NMtDT0=    0
 Petite list used in FoFCou.
 Keep R1 ints in memory in symmetry-blocked form, NReq=530275577.
 Requested convergence on RMS density matrix=1.00D-08 within 128 cycles.
 Requested convergence on MAX density matrix=1.00D-06.
 Requested convergence on             energy=1.00D-06.
 No special actions if energy rises.
 SCF Done:  E(RHF) =  -231.041392485     A.U. after   12 cycles
            NFock= 12  Conv=0.36D-08     -V/T= 2.0014
 ExpMin= 2.53D-02 ExpMax= 1.95D+04 ExpMxC= 6.65D+02 IAcc=3 IRadAn=         5 AccDes= 0.00D+00
 HarFok:  IExCor=  205 AccDes= 0.00D+00 IRadAn=         5 IDoV=-2 UseB2=F ITyADJ=14
 ICtDFT= 12500011 ScaDFX=  1.000000  1.000000  1.000000  1.000000
 Range of M.O.s used for correlation:     4   230
 NBasis=   230 NAE=    14 NBE=    14 NFC=     3 NFV=     0
 NROrb=    227 NOA=    11 NOB=    11 NVA=   216 NVB=   216

 **** Warning!!: The largest alpha MO coefficient is  0.22370668D+02

 Fully direct method using O(ONN) memory.
 JobTyp=1 Pass  1:  I=   4 to  14 NPSUse= 28 ParTrn=T ParDer=T DoDerP=T.
 Spin components of T(2) and E(2):
     alpha-alpha T2 =       0.2281612091D-01 E2=     -0.9261568345D-01
     alpha-beta  T2 =       0.1370049753D+00 E2=     -0.5773413335D+00
     beta-beta   T2 =       0.2281612091D-01 E2=     -0.9261568345D-01
 ANorm=    0.1087491249D+01
 E2 =    -0.7625727004D+00 EUMP2 =    -0.23180396518531D+03
          IDoAtm=1111111
          Differentiating once with respect to electric field.
                with respect to dipole field.
          Differentiating once with respect to nuclear coordinates.
 Keep R1 ints in memory in symmetry-blocked form, NReq=530277007.
          There are     1 degrees of freedom in the 1st order CPHF.  IDoFFX=0 NUNeed=     1.
 LinEq1:  Iter=  0 NonCon=     1 RMS=3.59D-03 Max=4.03D-02 NDo=     1
 AX will form     1 AO Fock derivatives at one time.
 LinEq1:  Iter=  1 NonCon=     1 RMS=9.39D-04 Max=1.11D-02 NDo=     1
 LinEq1:  Iter=  2 NonCon=     1 RMS=3.92D-04 Max=6.16D-03 NDo=     1
 LinEq1:  Iter=  3 NonCon=     1 RMS=1.17D-04 Max=1.29D-03 NDo=     1
 LinEq1:  Iter=  4 NonCon=     1 RMS=5.21D-05 Max=8.57D-04 NDo=     1
 LinEq1:  Iter=  5 NonCon=     1 RMS=9.91D-06 Max=1.22D-04 NDo=     1
 LinEq1:  Iter=  6 NonCon=     1 RMS=3.01D-06 Max=3.26D-05 NDo=     1
 LinEq1:  Iter=  7 NonCon=     1 RMS=1.05D-06 Max=1.59D-05 NDo=     1
 LinEq1:  Iter=  8 NonCon=     1 RMS=3.25D-07 Max=5.68D-06 NDo=     1
 LinEq1:  Iter=  9 NonCon=     1 RMS=7.79D-08 Max=8.34D-07 NDo=     1
 LinEq1:  Iter= 10 NonCon=     1 RMS=1.27D-08 Max=1.05D-07 NDo=     1
 LinEq1:  Iter= 11 NonCon=     1 RMS=2.41D-09 Max=2.73D-08 NDo=     1
 LinEq1:  Iter= 12 NonCon=     1 RMS=4.88D-10 Max=5.42D-09 NDo=     1
 LinEq1:  Iter= 13 NonCon=     1 RMS=9.15D-11 Max=1.04D-09 NDo=     1
 LinEq1:  Iter= 14 NonCon=     0 RMS=1.89D-11 Max=2.26D-10 NDo=     1
 Linear equations converged to 1.000D-10 1.000D-09 after    14 iterations.
 End of Minotr F.D. properties file   721 does not exist.
 End of Minotr F.D. properties file   722 does not exist.
 End of Minotr F.D. properties file   788 does not exist.
 Calling FoFJK, ICntrl=  10002127 FMM=F ISym2X=1 I1Cent= 0 IOpClX= 0 NMat=1 NMatS=1 NMatT=0.
 ***** Axes restored to original set *****
 -------------------------------------------------------------------
 Center     Atomic                   Forces (Hartrees/Bohr)
 Number     Number              X              Y              Z
 -------------------------------------------------------------------
      1        8          -0.005171268   -0.000000000   -0.000948224
      2        9          -0.000142030    0.000000000    0.002823555
      3        1           0.007921630   -0.000000000    0.000582715
      4        7          -0.004665391    0.000000000   -0.003027233
      5        1           0.001571482    0.000809543    0.000584952
      6        1           0.001571482   -0.000809543    0.000584952
      7        1          -0.001085905   -0.000000000   -0.000600717
 -------------------------------------------------------------------
 Cartesian Forces:  Max     0.007921630 RMS     0.002564685

 GradGradGradGradGradGradGradGradGradGradGradGradGradGradGradGradGradGrad
 Berny optimization.
 Using GEDIIS/GDIIS optimizer.
 FormGI is forming the generalized inverse of G from B-inverse, IUseBI=4.
 Internal  Forces:  Max     0.005622166 RMS     0.002409800
 Search for a local minimum.
 Step number   3 out of a maximum of   28
 All quantities printed in internal units (Hartrees-Bohrs-Radians)
 Mixed Optimization -- RFO/linear search
 Update second derivatives using D2CorX and points    1    2    3
 DE= -1.16D-04 DEPred=-1.09D-03 R= 1.07D-01
 Trust test= 1.07D-01 RLast= 4.64D-01 DXMaxT set to 5.05D-01
 The second derivative matrix:
                          R1        R2        R3        R4        R5
           R1           0.27450
           R2          -0.01222   0.48269
           R3          -0.03711  -0.01300   0.02805
           R4           0.01644   0.00402   0.01028   0.47178
           R5           0.01644   0.00402   0.01028  -0.00510   0.47178
           R6           0.01564   0.00283   0.01034  -0.00487  -0.00487
           A1           0.03170   0.00860  -0.00636  -0.00521  -0.00521
           A2           0.01674   0.00793   0.00498  -0.00453  -0.00453
           A3           0.01674   0.00793   0.00498  -0.00453  -0.00453
           A4           0.00441  -0.00225   0.00344  -0.00118  -0.00118
           A5          -0.01793  -0.00696  -0.00676   0.00492   0.00492
           A6          -0.01089  -0.00370  -0.00361   0.00290   0.00290
           A7          -0.01089  -0.00370  -0.00361   0.00290   0.00290
           A8           0.00792   0.01381   0.00008  -0.00252  -0.00252
           A9          -0.00000  -0.00000   0.00000   0.00000   0.00000
           D1          -0.00204  -0.00148  -0.00047   0.00056   0.00056
           D2           0.00204   0.00148   0.00047  -0.00056  -0.00056
           D3           0.00000   0.00000  -0.00000  -0.00000  -0.00000
                          R6        A1        A2        A3        A4
           R6           0.47234
           A1          -0.00540   0.21566
           A2          -0.00481   0.00483   0.15900
           A3          -0.00481   0.00483  -0.00100   0.15900
           A4          -0.00077   0.00062  -0.00218  -0.00218   0.16100
           A5           0.00504  -0.00381   0.00198   0.00198   0.00191
           A6           0.00292  -0.00351   0.00117   0.00117   0.00082
           A7           0.00292  -0.00351   0.00117   0.00117   0.00082
           A8          -0.00374  -0.00142   0.00291   0.00291  -0.00514
           A9           0.00000  -0.00000  -0.00000  -0.00000   0.00000
           D1           0.00065  -0.00048  -0.00007  -0.00007   0.00048
           D2          -0.00065   0.00048   0.00007   0.00007  -0.00048
           D3          -0.00000   0.00000   0.00000   0.00000  -0.00000
                          A5        A6        A7        A8        A9
           A5           0.15702
           A6          -0.00157   0.15913
           A7          -0.00157  -0.00087   0.15913
           A8          -0.00086   0.00001   0.00001   0.01686
           A9           0.00000   0.00000   0.00000  -0.00000   0.00230
           D1          -0.00014  -0.00010  -0.00010  -0.00103   0.00000
           D2           0.00014   0.00010   0.00010   0.00103  -0.00000
           D3          -0.00000  -0.00000  -0.00000   0.00000  -0.00000
                          D1        D2        D3
           D1           0.00236
           D2          -0.00006   0.00236
           D3          -0.00000   0.00000   0.00230
 ITU=  0  1  0
 Use linear search instead of GDIIS.
     Eigenvalues ---    0.00230   0.00230   0.01417   0.01905   0.09458
     Eigenvalues ---    0.10122   0.14482   0.16000   0.16220   0.20118
     Eigenvalues ---    0.29932   0.46638   0.47688   0.47688   0.48545
 RFO step:  Lambda=-9.28127392D-04 EMin= 2.30000000D-03
 Quartic linear search produced a step of -0.43642.
 Iteration  1 RMS(Cart)=  0.11105679 RMS(Int)=  0.02049982
 Iteration  2 RMS(Cart)=  0.03932570 RMS(Int)=  0.00138638
 Iteration  3 RMS(Cart)=  0.00145115 RMS(Int)=  0.00092211
 Iteration  4 RMS(Cart)=  0.00000049 RMS(Int)=  0.00092211
 ClnCor:  largest displacement from symmetrization is 6.92D-09 for atom     3.
 Variable       Old X    -DE/DX   Delta X   Delta X   Delta X     New X
                                 (Linear)    (Quad)   (Total)
    R1        2.69782   0.00252   0.00787  -0.02833  -0.02045   2.67737
    R2        1.85876   0.00551   0.00296  -0.00428  -0.00131   1.85745
    R3        3.56256  -0.00208   0.04870  -0.16464  -0.11595   3.44661
    R4        1.91324  -0.00055  -0.00186   0.00621   0.00435   1.91760
    R5        1.91324  -0.00055  -0.00186   0.00621   0.00435   1.91760
    R6        1.91351  -0.00108  -0.00194   0.00588   0.00394   1.91745
    A1        1.68776   0.00343  -0.01303   0.02971   0.01667   1.70443
    A2        1.93901   0.00232  -0.00401   0.02063   0.01710   1.95610
    A3        1.93901   0.00232  -0.00401   0.02063   0.01710   1.95610
    A4        1.93323  -0.00210  -0.00408   0.00174  -0.00339   1.92984
    A5        1.87970  -0.00090   0.00626  -0.01548  -0.00751   1.87220
    A6        1.88534  -0.00089   0.00319  -0.01491  -0.01269   1.87265
    A7        1.88534  -0.00089   0.00319  -0.01491  -0.01269   1.87265
    A8        2.80103   0.00562   0.19331   0.08671   0.27948   3.08051
    A9        3.14159  -0.00000   0.00000  -0.00000   0.00000   3.14159
    D1        2.05281  -0.00062   0.02208   0.00385   0.02802   2.08083
    D2       -2.05281   0.00062  -0.02208  -0.00385  -0.02802  -2.08083
    D3        0.00000   0.00000   0.00000   0.00000   0.00000   0.00000
         Item               Value     Threshold  Converged?
 Maximum Force            0.005622     0.000450     NO 
 RMS     Force            0.002410     0.000300     NO 
 Maximum Displacement     0.445746     0.001800     NO 
 RMS     Displacement     0.148041     0.001200     NO 
 Predicted change in Energy=-1.067178D-03
 GradGradGradGradGradGradGradGradGradGradGradGradGradGradGradGradGradGrad

                          Input orientation:                          
 ---------------------------------------------------------------------
 Center     Atomic      Atomic             Coordinates (Angstroms)
 Number     Number       Type             X           Y           Z
 ---------------------------------------------------------------------
      1          8           0        0.044773    0.000000   -0.032606
      2          9           0        0.345995    0.000000    1.351804
      3          1           0        0.968812    0.000000   -0.367688
      4          7           0        2.718184    0.000000   -0.883631
      5          1           0        2.952351   -0.817127   -1.437874
      6          1           0        2.952351    0.817127   -1.437874
      7          1           0        3.328885    0.000000   -0.073322
 ---------------------------------------------------------------------
                    Distance matrix (angstroms):
                    1          2          3          4          5
     1  O    0.000000
     2  F    1.416801   0.000000
     3  H    0.982919   1.828813   0.000000
     4  N    2.805597   3.259518   1.823870   0.000000
     5  H    3.331139   3.904241   2.397378   1.014749   0.000000
     6  H    3.331139   3.904241   2.397378   1.014749   1.634254
     7  H    3.284365   3.305846   2.378360   1.014670   1.634465
                    6          7
     6  H    0.000000
     7  H    1.634465   0.000000
 Stoichiometry    FH4NO
 Framework group  CS[SG(FH2NO),X(H2)]
 Deg. of freedom    10
 Full point group                 CS      NOp   2
 Largest Abelian subgroup         CS      NOp   2
 Largest concise Abelian subgroup CS      NOp   2
                         Standard orientation:                         
 ---------------------------------------------------------------------
 Center     Atomic      Atomic             Coordinates (Angstroms)
 Number     Number       Type             X           Y           Z
 ---------------------------------------------------------------------
      1          8           0        0.980791    0.559948    0.000000
      2          9           0        1.261510   -0.828764    0.000000
      3          1           0        0.000000    0.495301    0.000000
      4          7           0       -1.809204    0.264474    0.000000
      5          1           0       -2.246421    0.677826    0.817127
      6          1           0       -2.246421    0.677826   -0.817127
      7          1           0       -2.042643   -0.722978    0.000000
 ---------------------------------------------------------------------
 Rotational constants (GHZ):          28.2483770           4.5869340           4.0308807
 Standard basis: Aug-CC-pVTZ (5D, 7F)
 There are   172 symmetry adapted cartesian basis functions of A'  symmetry.
 There are    93 symmetry adapted cartesian basis functions of A"  symmetry.
 There are   145 symmetry adapted basis functions of A'  symmetry.
 There are    85 symmetry adapted basis functions of A"  symmetry.
   230 basis functions,   324 primitive gaussians,   265 cartesian basis functions
    14 alpha electrons       14 beta electrons
       nuclear repulsion energy        76.9224576372 Hartrees.
 NAtoms=    7 NActive=    7 NUniq=    6 SFac= 1.36D+00 NAtFMM=   60 NAOKFM=F Big=F
 Integral buffers will be    131072 words long.
 Raffenetti 1 integral format.
 Two-electron integral symmetry is turned on.
 One-electron integrals computed using PRISM.
 NBasis=   230 RedAO= T EigKep=  9.56D-05  NBF=   145    85
 NBsUse=   230 1.00D-06 EigRej= -1.00D+00 NBFU=   145    85
 Initial guess from the checkpoint file:  "/tmp/Gau-25889.chk"
 B after Tr=    -0.000000   -0.000000   -0.000000
         Rot=    0.998312   -0.000000    0.000000    0.058074 Ang=   6.66 deg.
 Initial guess orbital symmetries:
       Occupied  (A') (A') (A') (A') (A') (A') (A') (A") (A') (A")
                 (A') (A') (A") (A')
       Virtual   (A') (A") (A') (A') (A') (A') (A') (A") (A') (A")
                 (A") (A') (A') (A') (A') (A") (A') (A') (A") (A')
                 (A') (A") (A') (A') (A') (A") (A") (A') (A') (A")
                 (A') (A') (A") (A') (A') (A") (A') (A') (A') (A")
                 (A") (A') (A") (A') (A') (A') (A') (A") (A') (A")
                 (A') (A') (A") (A") (A') (A") (A') (A") (A') (A")
                 (A') (A') (A") (A') (A') (A") (A') (A") (A') (A")
                 (A') (A") (A') (A') (A') (A') (A") (A') (A") (A')
                 (A') (A") (A') (A') (A") (A') (A") (A') (A") (A')
                 (A") (A') (A') (A') (A") (A') (A") (A') (A") (A')
                 (A') (A") (A") (A') (A') (A") (A') (A") (A') (A')
                 (A") (A') (A') (A") (A') (A') (A') (A") (A') (A")
                 (A') (A') (A") (A") (A') (A') (A") (A') (A') (A')
                 (A') (A") (A') (A") (A') (A") (A') (A') (A') (A")
                 (A") (A") (A") (A') (A') (A") (A') (A") (A') (A")
                 (A") (A') (A') (A") (A') (A') (A") (A') (A') (A')
                 (A") (A") (A') (A') (A") (A') (A') (A') (A") (A")
                 (A') (A') (A') (A") (A') (A') (A") (A') (A') (A')
                 (A") (A') (A") (A') (A") (A') (A") (A') (A") (A')
                 (A') (A") (A") (A') (A") (A') (A') (A') (A") (A')
                 (A') (A") (A') (A") (A') (A") (A') (A") (A') (A')
                 (A") (A') (A') (A') (A') (A')
 ExpMin= 2.53D-02 ExpMax= 1.95D+04 ExpMxC= 6.65D+02 IAcc=3 IRadAn=         5 AccDes= 0.00D+00
 Harris functional with IExCor=  205 and IRadAn=       5 diagonalized for initial guess.
 HarFok:  IExCor=  205 AccDes= 0.00D+00 IRadAn=         5 IDoV= 1 UseB2=F ITyADJ=14
 ICtDFT=  3500011 ScaDFX=  1.000000  1.000000  1.000000  1.000000
 FoFCou: FMM=F IPFlag=           0 FMFlag=      100000 FMFlg1=           0
         NFxFlg=           0 DoJE=T BraDBF=F KetDBF=T FulRan=T
         wScrn=  0.000000 ICntrl=       500 IOpCl=  0 I1Cent=   200000004 NGrid=           0
         NMat0=    1 NMatS0=      1 NMatT0=    0 NMatD0=    1 NMtDS0=    0 NMtDT0=    0
 Petite list used in FoFCou.
 Keep R1 ints in memory in symmetry-blocked form, NReq=530275577.
 Requested convergence on RMS density matrix=1.00D-08 within 128 cycles.
 Requested convergence on MAX density matrix=1.00D-06.
 Requested convergence on             energy=1.00D-06.
 No special actions if energy rises.
 SCF Done:  E(RHF) =  -231.043111024     A.U. after   11 cycles
            NFock= 11  Conv=0.77D-08     -V/T= 2.0013
 ExpMin= 2.53D-02 ExpMax= 1.95D+04 ExpMxC= 6.65D+02 IAcc=3 IRadAn=         5 AccDes= 0.00D+00
 HarFok:  IExCor=  205 AccDes= 0.00D+00 IRadAn=         5 IDoV=-2 UseB2=F ITyADJ=14
 ICtDFT= 12500011 ScaDFX=  1.000000  1.000000  1.000000  1.000000
 Range of M.O.s used for correlation:     4   230
 NBasis=   230 NAE=    14 NBE=    14 NFC=     3 NFV=     0
 NROrb=    227 NOA=    11 NOB=    11 NVA=   216 NVB=   216

 **** Warning!!: The largest alpha MO coefficient is  0.26064760D+02

 Fully direct method using O(ONN) memory.
 JobTyp=1 Pass  1:  I=   4 to  14 NPSUse= 28 ParTrn=T ParDer=T DoDerP=T.
 Spin components of T(2) and E(2):
     alpha-alpha T2 =       0.2273381731D-01 E2=     -0.9257792734D-01
     alpha-beta  T2 =       0.1361829535D+00 E2=     -0.5765893214D+00
     beta-beta   T2 =       0.2273381731D-01 E2=     -0.9257792734D-01
 ANorm=    0.1087037528D+01
 E2 =    -0.7617451760D+00 EUMP2 =    -0.23180485620032D+03
          IDoAtm=1111111
          Differentiating once with respect to electric field.
                with respect to dipole field.
          Differentiating once with respect to nuclear coordinates.
 Keep R1 ints in memory in symmetry-blocked form, NReq=530277007.
          There are     1 degrees of freedom in the 1st order CPHF.  IDoFFX=0 NUNeed=     1.
 LinEq1:  Iter=  0 NonCon=     1 RMS=3.55D-03 Max=3.95D-02 NDo=     1
 AX will form     1 AO Fock derivatives at one time.
 LinEq1:  Iter=  1 NonCon=     1 RMS=9.11D-04 Max=1.11D-02 NDo=     1
 LinEq1:  Iter=  2 NonCon=     1 RMS=3.79D-04 Max=5.06D-03 NDo=     1
 LinEq1:  Iter=  3 NonCon=     1 RMS=1.13D-04 Max=1.28D-03 NDo=     1
 LinEq1:  Iter=  4 NonCon=     1 RMS=5.00D-05 Max=8.02D-04 NDo=     1
 LinEq1:  Iter=  5 NonCon=     1 RMS=9.30D-06 Max=1.10D-04 NDo=     1
 LinEq1:  Iter=  6 NonCon=     1 RMS=2.88D-06 Max=2.80D-05 NDo=     1
 LinEq1:  Iter=  7 NonCon=     1 RMS=9.56D-07 Max=1.21D-05 NDo=     1
 LinEq1:  Iter=  8 NonCon=     1 RMS=2.90D-07 Max=5.44D-06 NDo=     1
 LinEq1:  Iter=  9 NonCon=     1 RMS=7.06D-08 Max=7.65D-07 NDo=     1
 LinEq1:  Iter= 10 NonCon=     1 RMS=1.17D-08 Max=1.08D-07 NDo=     1
 LinEq1:  Iter= 11 NonCon=     1 RMS=2.25D-09 Max=2.62D-08 NDo=     1
 LinEq1:  Iter= 12 NonCon=     1 RMS=4.39D-10 Max=4.65D-09 NDo=     1
 LinEq1:  Iter= 13 NonCon=     0 RMS=7.77D-11 Max=9.33D-10 NDo=     1
 Linear equations converged to 1.000D-10 1.000D-09 after    13 iterations.
 End of Minotr F.D. properties file   721 does not exist.
 End of Minotr F.D. properties file   722 does not exist.
 End of Minotr F.D. properties file   788 does not exist.
 Calling FoFJK, ICntrl=  10002127 FMM=F ISym2X=1 I1Cent= 0 IOpClX= 0 NMat=1 NMatS=1 NMatT=0.
 ***** Axes restored to original set *****
 -------------------------------------------------------------------
 Center     Atomic                   Forces (Hartrees/Bohr)
 Number     Number              X              Y              Z
 -------------------------------------------------------------------
      1        8          -0.008560614   -0.000000000   -0.006869338
      2        9           0.001713499   -0.000000000    0.010027808
      3        1           0.008007092    0.000000000   -0.002963224
      4        7          -0.000225255    0.000000000   -0.001140197
      5        1           0.000168011    0.001734694    0.001164599
      6        1           0.000168011   -0.001734694    0.001164599
      7        1          -0.001270745   -0.000000000   -0.001384247
 -------------------------------------------------------------------
 Cartesian Forces:  Max     0.010027808 RMS     0.003845395

 GradGradGradGradGradGradGradGradGradGradGradGradGradGradGradGradGradGrad
 Berny optimization.
 Using GEDIIS/GDIIS optimizer.
 FormGI is forming the generalized inverse of G from B-inverse, IUseBI=4.
 Internal  Forces:  Max     0.010162870 RMS     0.003128376
 Search for a local minimum.
 Step number   4 out of a maximum of   28
 All quantities printed in internal units (Hartrees-Bohrs-Radians)
 Mixed Optimization -- RFO/linear search
 Update second derivatives using D2CorX and points    1    2    3    4
 DE= -8.91D-04 DEPred=-1.07D-03 R= 8.35D-01
 TightC=F SS=  1.41D+00  RLast= 3.08D-01 DXNew= 8.4853D-01 9.2394D-01
 Trust test= 8.35D-01 RLast= 3.08D-01 DXMaxT set to 8.49D-01
 The second derivative matrix:
                          R1        R2        R3        R4        R5
           R1           0.39726
           R2           0.06795   0.52772
           R3          -0.02070   0.00351   0.02080
           R4          -0.01146  -0.01484   0.00761   0.47801
           R5          -0.01146  -0.01484   0.00761   0.00112   0.47801
           R6          -0.00982  -0.01402   0.00744   0.00088   0.00088
           A1           0.00292  -0.01218   0.00261  -0.00035  -0.00035
           A2           0.01383   0.00078   0.01065  -0.00458  -0.00458
           A3           0.01383   0.00078   0.01065  -0.00458  -0.00458
           A4          -0.00763  -0.00570  -0.00066   0.00188   0.00188
           A5          -0.00362   0.00056  -0.00689   0.00189   0.00189
           A6          -0.00941   0.00158  -0.00759   0.00305   0.00305
           A7          -0.00941   0.00158  -0.00759   0.00305   0.00305
           A8          -0.00902   0.00327   0.00081   0.00088   0.00088
           A9          -0.00000  -0.00000  -0.00000   0.00000   0.00000
           D1           0.00038  -0.00079  -0.00007   0.00001   0.00001
           D2          -0.00038   0.00079   0.00007  -0.00001  -0.00001
           D3           0.00000   0.00000  -0.00000  -0.00000  -0.00000
                          R6        A1        A2        A3        A4
           R6           0.47768
           A1          -0.00103   0.20446
           A2          -0.00464   0.00150   0.15503
           A3          -0.00464   0.00150  -0.00497   0.15503
           A4           0.00201  -0.00021   0.00020   0.00020   0.16029
           A5           0.00213   0.00225   0.00235   0.00235   0.00136
           A6           0.00291  -0.00249   0.00404   0.00404  -0.00106
           A7           0.00291  -0.00249   0.00404   0.00404  -0.00106
           A8          -0.00070  -0.00350   0.00228   0.00228  -0.00427
           A9           0.00000  -0.00000   0.00000   0.00000   0.00000
           D1           0.00015   0.00056  -0.00035  -0.00035   0.00064
           D2          -0.00015  -0.00056   0.00035   0.00035  -0.00064
           D3          -0.00000   0.00000   0.00000   0.00000  -0.00000
                          A5        A6        A7        A8        A9
           A5           0.15692
           A6          -0.00167   0.15705
           A7          -0.00167  -0.00295   0.15705
           A8          -0.00129   0.00053   0.00053   0.01945
           A9          -0.00000  -0.00000  -0.00000  -0.00000   0.00230
           D1          -0.00018   0.00012   0.00012  -0.00124   0.00000
           D2           0.00018  -0.00012  -0.00012   0.00124  -0.00000
           D3          -0.00000  -0.00000  -0.00000   0.00000  -0.00000
                          D1        D2        D3
           D1           0.00233
           D2          -0.00003   0.00233
           D3          -0.00000   0.00000   0.00230
 ITU=  1  0  1  0
 Use linear search instead of GDIIS.
     Eigenvalues ---    0.00230   0.00230   0.01541   0.01767   0.09346
     Eigenvalues ---    0.09753   0.14600   0.16000   0.16160   0.20405
     Eigenvalues ---    0.37092   0.47039   0.47688   0.47699   0.56832
 RFO step:  Lambda=-3.81333902D-04 EMin= 2.30000000D-03
 Quartic linear search produced a step of -0.02321.
 Iteration  1 RMS(Cart)=  0.01099620 RMS(Int)=  0.00005633
 Iteration  2 RMS(Cart)=  0.00006170 RMS(Int)=  0.00000434
 Iteration  3 RMS(Cart)=  0.00000000 RMS(Int)=  0.00000434
 ClnCor:  largest displacement from symmetrization is 7.85D-11 for atom     3.
 Variable       Old X    -DE/DX   Delta X   Delta X   Delta X     New X
                                 (Linear)    (Quad)   (Total)
    R1        2.67737   0.01016   0.00047   0.02022   0.02070   2.69806
    R2        1.85745   0.00751   0.00003   0.01166   0.01169   1.86914
    R3        3.44661  -0.00106   0.00269  -0.04308  -0.04039   3.40623
    R4        1.91760  -0.00199  -0.00010  -0.00237  -0.00247   1.91513
    R5        1.91760  -0.00199  -0.00010  -0.00237  -0.00247   1.91513
    R6        1.91745  -0.00187  -0.00009  -0.00218  -0.00227   1.91518
    A1        1.70443   0.00123  -0.00039   0.00727   0.00688   1.71132
    A2        1.95610   0.00081  -0.00040   0.00699   0.00659   1.96269
    A3        1.95610   0.00081  -0.00040   0.00699   0.00659   1.96269
    A4        1.92984  -0.00068   0.00008  -0.00374  -0.00367   1.92617
    A5        1.87220  -0.00040   0.00017  -0.00257  -0.00241   1.86979
    A6        1.87265  -0.00031   0.00029  -0.00427  -0.00398   1.86867
    A7        1.87265  -0.00031   0.00029  -0.00427  -0.00398   1.86867
    A8        3.08051   0.00013  -0.00649   0.01628   0.00979   3.09030
[...]
 3,-0.00041327,-0.00113469,-0.08942877,0.15123711,0.08963907,0.09525206
 ,-0.14224687,-0.08399014,0.00248741,-0.00054531,-0.00080037,-0.0000357
 1,0.00000543,0.00000925,-0.00386757,0.00141992,0.00070806,0.01994310,0
 .20009922,-0.12272440,-0.00969988,-0.01787049,0.01512384,0.00773499,0.
 00040723,0.00052741,-0.00021898,0.00003036,0.00002152,-0.00016609,-0.0
 0113057,-0.00146962,0.00082434,0.14376077,0.18750227,-0.14171230,0.017
 87051,-0.00395897,-0.01091729,-0.16097852,-0.18208297,-0.00057879,-0.0
 0009763,0.00039705,0.00005073,0.00000429,0.00013157,0.00114871,0.00041
 326,-0.00113470,-0.08942889,-0.15123689,0.08963913,0.01512386,0.010917
 34,-0.00419690,0.09525216,0.14224671,-0.08399019,0.00147986,0.,-0.0011
 6758,0.00024730,0.,-0.00041527,-0.00313910,0.,0.00246768,0.13583168,-0
 .00000005,0.27926115,-0.01656229,-0.00004026,-0.02156780,-0.01656234,0
 .00004023,-0.02156778,-0.10129512,0.,0.00024847,0.,0.,-0.00004665,0.,-
 0.00000001,-0.00032239,0.,-0.00000005,-0.01421104,-0.00000008,0.022130
 26,-0.00053967,0.00224698,-0.02213027,-0.00053965,-0.00224707,0.000000
 07,0.01541092,0.00157463,0.,-0.00026174,-0.00014448,0.,0.00050098,-0.0
 0241042,0.,-0.00107408,0.21312778,-0.00000018,0.17830021,0.01243144,-0
 .00994360,-0.00084595,0.01243147,0.00994361,-0.00084596,-0.23701040,0.
 00000016,-0.17577347,-0.81687056,0.00000002,0.02638133,0.38282334,0.,0
 .02059974,0.05698515,0.,0.03727967,-0.04126489,0.,0.03933923,0.,0.,-0.
 04259365,-0.11045508,0.,-0.03761596,0.00887319,0.,0.06084693,0.7610568
 4,-0.00000001,-0.42119151,-0.01616532,0.,0.10262620,-0.74545586,0.,-0.
 06475930,0.,0.,0.00335447,0.,0.,0.05571629,-0.27434955,0.,0.01520367,-
 0.04527192,0.,-0.02487535,0.31422114,0.,-0.00329714,-0.00109732,0.,0.0
 0085564,0.00060857,0.,-0.00088542,0.00408385,0.00000003,0.00353852,-0.
 02018078,0.,-0.00073102,0.,0.,-0.00015674,0.,0.00000002,0.00486310,0.,
 -0.00000061,-0.04540900,0.00207430,0.,0.00274684,-0.00127145,0.,0.0016
 3959,0.00624178,-0.00000002,0.01184891,0.00909541,0.00000009,-0.039071
 55,-0.00068794,-0.00000435,-0.00033886,0.00012034,0.00013356,-0.000271
 61,-0.00101282,-0.00171153,-0.00179250,0.00597854,-0.00587851,-0.00410
 432,-0.00452926,0.00015686,-0.00004679,-0.00044056,-0.00014021,-0.0000
 1782,-0.00008468,0.00024613,0.00024132,-0.00007809,-0.00577771,0.01816
 887,0.01482002,0.00620468,-0.01672305,0.00044554,0.00003031,-0.0000459
 3,0.00007674,0.00001690,0.00002042,-0.00098061,-0.00020842,0.00090010,
 -0.00591719,0.01904665,0.00964279,0.00633231,-0.01672463,-0.00842971,-
 0.00068797,0.00000435,-0.00033885,0.00012034,-0.00013356,-0.00027161,-
 0.00101286,0.00171151,-0.00179249,0.00597810,0.00587882,-0.00410436,0.
 00023400,-0.00082876,0.00031236,-0.00452887,-0.00015686,-0.00004679,0.
 00044057,0.00014020,-0.00001782,0.00008468,-0.00024614,0.00024132,0.00
 007809,0.00577826,0.01816899,-0.01482013,0.00082861,-0.00049370,-0.002
 89880,-0.00620483,-0.01672313,0.00044555,-0.00003030,-0.00004594,0.000
 07674,-0.00001690,0.00002042,-0.00098059,0.00020844,0.00090010,-0.0059
 1742,-0.01904693,0.00964216,0.00031245,0.00289895,-0.00213475,0.006332
 32,0.01672460,-0.00842903,0.00130181,0.,0.00091057,-0.00040419,0.,0.00
 038435,-0.00149384,0.,0.00544680,0.00462902,0.00000030,-0.00793136,-0.
 00010285,0.00013899,-0.00026916,-0.00010274,-0.00013924,-0.00026905,-0
 .00382720,0.,-0.00013664,0.,0.,0.00009233,0.,0.,0.00034281,0.,0.000000
 04,0.00509581,0.00000004,0.00042754,-0.00112884,0.00073800,-0.00042753
 ,-0.00112887,-0.00073786,-0.00000005,-0.00313660,-0.00098410,0.,-0.000
 84241,0.00023705,0.,-0.00003602,0.00006358,0.,-0.00068028,-0.00076955,
 0.00000019,0.00355124,-0.00013747,-0.00039101,0.00004710,-0.00013737,0
 .00039099,0.00004704,0.00172786,-0.00000017,-0.00208665,-0.00149242,0.
 ,-0.00014520,0.00028426,0.,-0.00007266,0.00008446,0.,0.00004309,0.0001
 4523,0.,-0.00009377,0.,0.,-0.00014793,-0.00010953,0.,-0.00016848,-0.00
 019516,0.,0.00003817,0.00074006,0.,-0.00024573,0.00001384,0.,0.0003054
 4,-0.00060087,0.,0.00036994,0.,0.,0.00019456,0.,-0.00000001,-0.0007593
 6,-0.00010938,0.,0.00051201,0.00001520,0.,0.00029548,-0.00045010,0.,-0
 .00152197,-0.00011777,0.,0.00009653,-0.00008121,0.,-0.00000736,0.00164
 877,0.,-0.00054073,-0.19789330,0.,-0.00005124,0.,0.,0.00013789,0.,-0.0
 0000006,-0.00019965,0.,-0.00000039,-0.25880039,-0.00059134,0.,-0.00056
 100,0.00028449,0.,-0.00046409,0.00073742,0.00000001,0.00243281,-0.2075
 8164,0.00000009,-0.51516294,-0.00011255,0.00003034,0.00000647,0.000034
 08,0.00001252,0.00000225,-0.00018963,-0.00042520,0.00017022,0.02128626
 ,-0.08277911,-0.04725464,-0.02384795,0.00005748,0.00004700,0.00000619,
 0.00000294,-0.00002986,0.00005756,0.00014223,-0.00001845,-0.00023194,-
 0.05200401,0.15582489,0.08343889,0.05460914,-0.15188237,-0.00007438,0.
 00007316,0.00008505,-0.00002028,0.00001717,0.00001074,0.00012013,-0.00
 030159,-0.00021712,-0.01586645,0.03034456,0.03737766,0.03214496,-0.064
 17320,-0.01345188,-0.00011258,-0.00003034,0.00000649,0.00003408,-0.000
 01252,0.00000225,-0.00018959,0.00042521,0.00017020,0.02128539,0.082779
 28,-0.04725514,0.00131915,0.00039251,-0.00024211,-0.02384695,-0.000057
 51,0.00004700,-0.00000619,-0.00000294,-0.00002986,-0.00005756,-0.00014
 216,-0.00001843,0.00023193,0.05200452,0.15582378,-0.08343899,-0.000392
 42,0.00174796,-0.00115904,-0.05460945,-0.15188122,-0.00007434,-0.00007
 315,0.00008505,-0.00002029,-0.00001717,0.00001074,0.00012009,0.0003015
 7,-0.00021712,-0.01586679,-0.03034487,0.03737675,-0.00024217,0.0011591
 9,-0.00615896,0.03214524,0.06417354,-0.01345105,0.00101081,0.,-0.00019
 112,-0.00023046,0.,0.00000211,-0.00142258,0.,0.00074458,0.15387186,0.0
 0000027,0.30166083,0.00151064,-0.00320029,-0.01606186,0.00151049,0.003
 19996,-0.01606174,-0.15625075,0.00000002,-0.00017371,0.,0.,-0.00003097
 ,0.,0.,0.00043140,0.,-0.00000011,-0.05273526,-0.00000002,0.02894472,-0
 .00568917,0.03519894,-0.02894469,-0.00568924,-0.03519909,0.00000006,0.
 06388695,0.00067470,0.,0.00012005,-0.00010705,0.,0.00027745,-0.0005872
 4,0.,-0.00128408,0.23976642,0.00000021,0.43900079,0.01517291,-0.020256
 69,-0.01764549,0.01517307,0.02025631,-0.01764541,-0.27009279,0.0000001
 7,-0.40282329,-0.05102335,0.,0.00178757,0.02492420,0.,0.00086506,0.003
 64123,0.,0.00228665,-0.00278122,0.,0.00238791,0.,0.,-0.00266708,-0.007
 04870,0.,-0.00265041,0.00054234,0.,0.00413286,0.04724757,0.,-0.0271113
 2,-0.00112153,0.,0.00656878,-0.04399150,0.,-0.00395249,0.,0.,0.0003913
 6,0.,0.00000004,0.00216940,-0.01763612,0.,0.00155356,-0.00271269,0.,-0
 .00159594,0.02005665,-0.00000002,-0.00176435,-0.00039608,0.,0.00033428
 ,0.00009089,0.,-0.00000197,0.00055964,-0.00000003,-0.00003349,-0.09180
 221,0.00000004,-0.00083634,0.,0.,-0.00007286,0.,-0.00000008,0.00292451
 ,0.00000001,0.00000070,-0.54075739,-0.00079596,0.,0.00035835,0.0003467
 2,0.,0.00036428,0.00068173,0.,0.00067286,0.10451252,-0.00000036,-0.287
 91687,0.00041616,-0.00002051,-0.00021443,0.00003731,0.00008166,-0.0000
 4142,-0.00129572,-0.00017861,-0.00011921,0.03008208,-0.11876964,-0.079
 37133,-0.03114788,0.00002704,0.00031580,0.00000227,-0.00002147,-0.0000
 0371,0.00016563,0.00008093,-0.00097762,-0.00053084,-0.07730913,0.24907
 466,0.17823846,0.09934498,-0.22515670,0.00005984,0.00016915,0.00004837
 ,-0.00012027,-0.00002948,-0.00007946,0.00037288,-0.00021636,0.00016308
 ,-0.06816413,0.23928266,0.12696174,0.07427324,-0.20771204,-0.11301772,
 0.00041617,0.00002052,-0.00021445,0.00003731,-0.00008166,-0.00004142,-
 0.00129578,0.00017859,-0.00011918,0.03008363,0.11876903,-0.07937102,0.
 00369322,-0.01775222,0.00687095,-0.03114954,-0.00002707,0.00031580,-0.
 00000227,0.00002146,-0.00000371,-0.00016562,-0.00008092,-0.00097759,0.
 00053085,0.07730842,0.24907612,-0.17823817,0.01775238,-0.00841356,-0.0
 4035997,-0.09934452,-0.22515825,0.00005982,-0.00016915,0.00004837,-0.0
 0012026,0.00002948,-0.00007946,0.00037292,0.00021636,0.00016307,-0.068
 16365,-0.23928223,0.12696303,0.00687084,0.04036000,-0.02173991,0.07427
 287,0.20771134,-0.11301886,-0.00030169,0.,-0.00000493,0.00009602,0.,0.
 00002238,-0.00010268,0.,0.00056404,0.03138205,-0.00000005,0.05399734,-
 0.00178516,-0.00437014,-0.01329252,-0.00178501,0.00437025,-0.01329255,
 -0.02750354,-0.00000001,-0.00001823,0.,0.,-0.00003191,0.,0.00000003,0.
 00042243,0.,0.00000005,0.04059132,0.00000006,0.00178973,-0.01483887,0.
 00886603,-0.00178973,-0.01483882,-0.00886579,-0.00000007,-0.01128593,0
 .00043693,0.,-0.00022327,-0.00022249,0.,-0.00009186,-0.00094165,0.0000
 0002,0.00080773,0.03151641,-0.00000008,0.03259659,-0.00139769,-0.01052
 349,0.00766391,-0.00139775,0.01052385,0.00766376,-0.02799375,-0.000000
 30,-0.04841685,4.55673685,0.,-1.12146857,-2.27431510,0.,-0.10731963,-0
 .00638436,0.,-0.02435222,-0.00300211,0.,-0.00206503,-0.00000002,0.,0.0
 0511772,0.00661428,0.,0.02701843,0.01230816,0.00000001,-0.01366650,-4.
 54542781,-0.00000002,2.30771906,0.00409828,0.,-0.02489460,4.50585858,0
 .,1.12343444,0.00000002,0.,-0.00233344,0.,-0.00000001,-1.08885483,2.26
 910182,0.,0.07851335,0.01486070,0.,-0.01184755,-2.26397406,0.,-0.04045
 783,-0.00489181,0.00000001,-0.00640876,0.00368418,0.,0.00495837,0.0291
 8769,0.,-0.01747610,0.01749465,-0.00000003,0.00105310,-0.00000001,0.,-
 0.00055868,0.,0.00000002,-0.03554138,0.,-0.00000002,0.04710975,-0.0015
 0532,0.,0.00131223,-0.00202477,0.,-0.00102740,-0.01776092,0.,-0.027265
 49,0.01383394,-0.00000006,0.03699650,0.00052286,-0.00063884,-0.0009697
 6,0.00060878,0.00020694,0.00040858,0.00342285,0.00948698,0.00397957,-0
 .01655366,-0.01360793,-0.00383009,0.00831765,-0.00037182,-0.00036711,-
 0.00000393,0.00007008,-0.00002852,0.00019568,0.00221088,0.00214450,0.0
 0119460,-0.00107451,-0.00683484,-0.00444414,0.00255069,0.00388506,-0.0
 0068445,0.00003116,0.00023205,-0.00013240,0.00000060,-0.00008685,0.000
 47976,0.00015872,-0.00183557,0.00313105,-0.00251816,0.00032022,-0.0005
 6117,0.00289325,-0.00046048,0.00052287,0.00063883,-0.00096976,0.000608
 78,-0.00020694,0.00040857,0.00342284,-0.00948697,0.00397957,-0.0165539
 9,0.01360787,-0.00383010,0.00164183,-0.00201195,-0.00067200,0.00831801
 ,0.00037184,-0.00036711,0.00000393,-0.00007009,-0.00002852,-0.00019568
 ,-0.00221088,0.00214451,-0.00119460,0.00107454,-0.00683566,0.00444422,
 0.00201199,0.00052168,-0.00038867,-0.00255071,0.00388581,-0.00068445,-
 0.00003116,0.00023205,-0.00013240,-0.00000060,-0.00008685,0.00047973,-
 0.00015873,-0.00183557,0.00313107,0.00251813,0.00032008,-0.00067201,0.
 00038871,0.00122069,-0.00056117,-0.00289321,-0.00046030,-0.00107858,0.
 ,-0.00070347,0.00038644,0.,0.00019664,-0.00056243,0.,-0.01047150,-0.01
 236708,0.00000008,0.01511726,0.00203968,-0.00137338,-0.00156080,0.0020
 3966,0.00137331,-0.00156078,0.00954231,0.,-0.00021971,0.,0.,-0.0001035
 3,0.,0.,-0.00099380,0.,-0.00000002,0.00160767,-0.00000001,-0.00000986,
 0.00067923,-0.00017689,0.00000987,0.00067929,0.00017686,0.,-0.00164915
 ,0.00147321,0.,0.00001153,-0.00052706,0.,-0.00030329,-0.00204896,0.,0.
 00472867,-0.00116958,0.00000010,-0.01065616,0.00164488,-0.00022417,0.0
 0060993,0.00164488,0.00022402,0.00060990,-0.00101735,0.00000005,0.0049
 9943,0.00939265,0.00000009,-0.00145190,-0.00522745,0.00000662,-0.00021
 095,0.00007907,-0.00000175,0.00065654,-0.00025492,-0.00000003,-0.00014
 219,-0.00000817,0.00000212,0.00001737,0.00016070,-0.00000642,0.0003841
 9,-0.00044076,0.00000788,-0.00034810,-0.01170150,-0.00000056,0.0054310
 2,0.00025296,0.00000077,0.00031927,0.01318335,-0.00000007,0.00202520,0
 .00000159,-0.00000036,0.00015078,-0.00000148,-0.00000031,-0.00338137,0
 .00600851,-0.00000013,-0.00033998,-0.00012006,0.00000016,0.00011377,-0
 .00700241,-0.00000003,-0.00063980,0.00252494,0.00000889,-0.00065965,-0
 .00013998,-0.00001118,-0.00050562,-0.00244917,0.00000250,0.00118889,-0
 .08294341,0.00000040,-0.00044483,0.00000166,-0.00000035,-0.00003840,-0
 .00000154,-0.00000034,0.00047421,-0.00000020,0.00000139,1.44976036,-0.
 00087580,-0.00000638,-0.00004309,-0.00004837,0.00000797,0.00005843,0.0
 0052505,-0.00000166,0.00007009,0.35917191,-0.00000147,1.55125101,-0.00
 020777,-0.00015461,-0.00010832,0.00009033,0.00000891,0.00004763,0.0002
 3930,0.00054265,0.00022087,0.14628780,0.43651402,0.27682344,-0.1729020
 6,0.00059408,0.00003300,-0.00008114,0.00002786,-0.00003192,-0.00016082
 ,-0.00148910,0.00032310,0.00056494,0.39926587,-0.87760512,-0.74123406,
 -0.41390289,0.87155518,0.00043049,-0.00000076,0.00000231,-0.00004166,0
 .00002486,-0.00014028,-0.00094924,0.00002384,0.00037881,0.25413275,-0.
 74561545,-0.20797272,-0.26234375,0.75099576,0.19262567,-0.00020733,0.0
 0014563,-0.00010848,0.00009034,0.00000243,0.00004787,0.00023930,-0.000
 54519,0.00022064,0.14628626,-0.43651509,0.27682392,0.01238008,0.009183
 97,-0.00253976,-0.17290018,-0.00059545,0.00003119,0.00007515,-0.000026
 03,-0.00002903,0.00016610,0.00148912,0.00032180,-0.00056380,-0.3992699
 3,-0.87760279,0.74123763,-0.00918377,-0.00347549,0.02185351,0.41390587
 ,0.87154736,0.00042856,0.00000757,-0.00000054,-0.00004078,-0.00003321,
 -0.00013861,-0.00094888,-0.00002226,0.00038051,0.25413284,0.74561734,-
 0.20797304,-0.00254047,-0.02185147,0.01443574,-0.26234462,-0.75100349,
 0.19262398,0.00011997,0.00000231,0.00001635,-0.00011780,-0.00000301,0.
 00037093,0.00023577,0.00000078,-0.00051644,-0.20956642,-0.00000002,-0.
 91242017,0.01411233,0.00632019,0.01131116,0.01411154,-0.00631980,0.011
 31335,0.18110462,0.00000098,-0.00005044,0.00000429,-0.00000148,0.00007
 341,-0.00000371,0.00000042,0.00008629,-0.00000095,0.00000246,0.3054565
 8,-0.00000203,-0.01382432,0.00920127,-0.02728174,0.01382238,0.00920696
 ,0.02728552,-0.00000044,-0.32397407,-0.00092502,-0.00000050,0.00020805
 ,0.00003509,0.00000051,0.00007060,0.00262519,0.,0.00003661,-0.86746114
 ,-0.00000034,-1.13539071,-0.01209939,0.01176679,0.00067047,-0.01209956
 ,-0.01176508,0.00067197,0.88992483,-0.00000139,1.13373303,-0.00081750,
 0.00000025,0.00018295,-0.00042999,0.00000683,-0.00022683,0.00031352,-0
 .00000220,0.00018811,-0.00012524,-0.00000023,-0.00006170,-0.00000845,0
 .00000270,-0.00010852,0.00017504,-0.00000621,0.00042137,-0.00029935,0.
 00000762,-0.00056771,0.00056420,-0.00000019,0.00021070,-0.00022030,0.0
 0000026,0.00002045,-0.00081451,-0.00000002,-0.00010459,0.00000166,-0.0
 0000051,0.00016989,-0.00000142,-0.00000015,-0.00022669,0.00051124,-0.0
 0000033,-0.00032071,0.00011582,0.00000044,0.00013081,-0.00076704,-0.00
 000011,-0.00005193,-0.00050799,0.00000791,-0.00059688,0.00038644,-0.00
 000993,0.00019822,0.00041304,0.00000219,0.00008380,0.26203897,0.000000
 28,0.00042130,0.00000149,-0.00000032,-0.00001735,-0.00000134,-0.000000
 26,-0.00127960,-0.00000019,0.00000090,0.40496756,0.00034737,-0.0000050
 9,0.00016616,0.00007157,0.00000633,0.00074480,-0.00299723,-0.00000130,
 -0.00190299,1.49173276,-0.00000081,2.28027837,0.00031453,-0.00000139,0
 .00003908,-0.00001588,-0.00000204,-0.00005979,-0.00037322,0.00004164,0
 .00009842,0.08183441,0.28217000,0.16095527,-0.09231515,-0.00015306,-0.
 00022638,-0.00003101,-0.00002657,-0.00005535,-0.00009558,-0.00055926,0
 .00071436,0.00047103,0.26340383,-0.54956393,-0.41875454,-0.27512006,0.
 55822987,-0.00019045,0.00001932,0.00007693,-0.00003085,0.00003996,-0.0
 0012197,0.00069870,-0.00020041,0.00023853,0.15322205,-0.43120224,-0.06
 461279,-0.16523346,0.42639297,0.04961153,0.00031476,-0.00000661,0.0000
 3878,-0.00001571,0.00001210,-0.00005951,-0.00037322,-0.00004385,0.0000
 9830,0.08183271,-0.28217062,0.16095551,0.00839155,0.00796490,0.0005046
 1,-0.09231306,0.00015196,-0.00022811,0.00002512,0.00002830,-0.00005273
 ,0.00010067,0.00055915,0.00071325,-0.00046991,-0.26340734,-0.54956267,
 0.41875733,-0.00796474,-0.00238502,0.00800027,0.27512256,0.55822307,-0
 .00019205,-0.00001417,0.00007383,-0.00003022,-0.00004627,-0.00011989,0
 .00069903,0.00020155,0.00024013,0.15322189,0.43120334,-0.06461296,0.00
 050386,-0.00799694,0.00847806,-0.16523413,-0.42640071,0.04960942,-0.00
 018150,0.00000223,0.00055019,-0.00032282,-0.00000285,0.00002493,0.0008
 0400,0.00000070,-0.00014055,-0.42599760,0.,-1.81106528,0.00216377,0.00
 449022,0.01102940,0.00216297,-0.00448989,0.01103164,0.42137119,0.00000
 081,0.00001654,0.00000436,-0.00000140,0.00012576,-0.00000373,0.0000004
 4,0.00001339,-0.00000093,0.00000245,0.69503471,-0.00000194,0.00087659,
 -0.00671356,-0.00304987,-0.00087848,-0.00670780,0.00305320,-0.00000042
 ,-0.68176904,-0.00022116,-0.00000036,-0.00019073,-0.00001509,0.0000003
 7,-0.00048740,0.00213538,0.00000003,0.00166616,-1.79786184,-0.00000026
 ,-2.15006061,0.00369662,0.00001407,0.00632972,0.00369644,-0.00001276,0
 .00633141,1.78856966,-0.00000109,2.13641145,-0.00065258,-0.00000064,0.
 00048121,-0.00044803,0.00000761,0.00036900,0.00040271,-0.00000242,0.00
 010096,-0.00029277,0.00000088,-0.00007621,-0.00000938,0.00000296,-0.00
 006111,0.00003647,-0.00000705,0.00001318,-0.00003966,0.00000862,-0.000
 18038,0.00002069,0.00000109,0.00033112,-0.00021163,-0.00000132,0.00002
 670,0.00010093,-0.00000027,-0.00039595,0.00000182,-0.00000056,0.000140
 81,-0.00000156,0.00000020,0.00010626,0.00038845,-0.00000033,-0.0002325
 8,-0.00005826,0.00000044,0.00014278,-0.00014345,-0.00000014,-0.0001294
 8,0.00111921,0.00000748,-0.00034049,0.00006601,-0.00000938,0.00028120,
 -0.00007538,0.00000206,-0.00079334,-0.53660598,0.00000037,0.00106243,0
 .00000190,-0.00000047,0.00008480,-0.00000195,-0.00000018,-0.00310463,-
 0.00000002,0.00000168,2.82808806,0.00064505,-0.00000425,-0.00011256,-0
 .00006551,0.00000522,0.00013381,0.00064640,-0.00000097,-0.00109581,-1.
 01746083,-0.00000152,0.66654995,-0.00063966,-0.00008799,0.00029147,0.0
 0000718,0.00001265,-0.00010381,0.00037953,0.00035106,0.00010341,0.2686
 9063,0.74885576,0.50284867,-0.26843227,-0.00030576,-0.00042474,0.00008
 566,-0.00006586,-0.00005434,-0.00006638,-0.00010959,0.00128915,0.00037
 943,0.73485831,-1.40419716,-1.30654648,-0.73858050,1.38703444,-0.00021
 629,-0.00043222,0.00001293,0.00006687,-0.00000978,-0.00007106,-0.00058
 963,0.00086443,0.00059515,0.49219213,-1.30097579,-0.33680631,-0.487779
 64,1.30105926,0.34405887,-0.00063911,0.00007948,0.00029105,0.00000735,
 -0.00000191,-0.00010358,0.00037922,-0.00035346,0.00010345,0.26868963,-
 0.74885711,0.50284869,-0.00290872,0.00254134,-0.00160764,-0.26843063,0
 .00030465,-0.00042756,-0.00009203,0.00006789,-0.00005025,0.00007250,0.
 00010910,0.00128763,-0.00037885,-0.73486249,-1.40419505,1.30654975,-0.
 00254097,0.00585072,0.00111462,0.73858352,1.38702765,-0.00021822,0.000
 43682,0.00001055,0.00006751,0.00000427,-0.00006911,-0.00058901,-0.0008
 6356,0.00059606,0.49219225,1.30097760,-0.33680503,-0.00160878,-0.00111
 261,-0.00447949,-0.48778020,-1.30106664,0.34405573,0.00038877,0.000003
 00,-0.00022609,0.00002119,-0.00000388,-0.00009732,-0.00059335,0.000000
 97,0.00039974,-0.00188412,-0.00000005,0.01053753,0.00290331,0.00166205
 ,-0.00206578,0.00290226,-0.00166168,-0.00206354,-0.00373808,0.00000077
 ,-0.00021915,0.00000441,-0.00000154,0.00001629,-0.00000418,0.00000069,
 0.00067671,-0.00000052,0.00000234,-0.01773844,-0.00000175,-0.00801000,
 0.01050192,-0.00162052,0.00800815,0.01050684,0.00162412,-0.00000040,-0
 .00374418,-0.00018744,-0.00000057,-0.00006049,-0.00007192,0.00000062,0
 .00003081,0.00031788,-0.00000001,0.00012388,0.03392907,-0.00000023,0.0
 0813594,-0.01375131,0.00620112,-0.00331008,-0.01375175,-0.00619935,-0.
 00330870,-0.00648453,-0.00000157,-0.00161134\\@


 IT WAS A GAME, A VERY INTERESTING GAME ONE COULD
 PLAY.  WHENEVER ONE SOLVED ONE OF THE LITTLE PROBLEMS,
 ONE COULD WRITE A PAPER ABOUT IT.  IT WAS VERY EASY IN
 THOSE DAYS FOR ANY SECOND-RATE PHYSICIST TO DO
 FIRST-RATE WORK.  THERE HAS NOT BEEN SUCH A GLORIOUS
 TIME SINCE.  IT IS VERY DIFFICULT NOW FOR A FIRST-RATE
 PHYSICIST TO DO SECOND-RATE WORK.
     P.A.M. DIRAC, ON THE EARLY DAYS OF QUANTUM MECHANICS
                   DIRECTIONS IN PHYSICS, 1978, P. 7
 Job cpu time:       4 days  3 hours 55 minutes 10.6 seconds.
 Elapsed time:       0 days  3 hours 37 minutes 19.2 seconds.
 File lengths (MBytes):  RWF=   8379 Int=      0 D2E=      0 Chk=     47 Scr=      1
 Normal termination of Gaussian 16 at Fri Jul  1 19:11:15 2022.
