 Entering Gaussian System, Link 0=g16
 Input=ofh_h2o_mp2_avt_opt_anharm.gjf
 Output=ofh_h2o_mp2_avt_opt_anharm.log
 Initial command:
 /sw/contrib/gaussian/g16/A03/g16/l1.exe "/gscratch/scrubbed/gds001/Gau-1675.inp" -scrdir="/gscratch/scrubbed/gds001/"
 Entering Link 1 = /sw/contrib/gaussian/g16/A03/g16/l1.exe PID=      1676.
  
 Copyright (c) 1988,1990,1992,1993,1995,1998,2003,2009,2016,
            Gaussian, Inc.  All Rights Reserved.
  
 This is part of the Gaussian(R) 16 program.  It is based on
 the Gaussian(R) 09 system (copyright 2009, Gaussian, Inc.),
 the Gaussian(R) 03 system (copyright 2003, Gaussian, Inc.),
 the Gaussian(R) 98 system (copyright 1998, Gaussian, Inc.),
 the Gaussian(R) 94 system (copyright 1995, Gaussian, Inc.),
 the Gaussian 92(TM) system (copyright 1992, Gaussian, Inc.),
 the Gaussian 90(TM) system (copyright 1990, Gaussian, Inc.),
 the Gaussian 88(TM) system (copyright 1988, Gaussian, Inc.),
 the Gaussian 86(TM) system (copyright 1986, Carnegie Mellon
 University), and the Gaussian 82(TM) system (copyright 1983,
 Carnegie Mellon University). Gaussian is a federally registered
 trademark of Gaussian, Inc.
  
 This software contains proprietary and confidential information,
 including trade secrets, belonging to Gaussian, Inc.
  
 This software is provided under written license and may be
 used, copied, transmitted, or stored only in accord with that
 written license.
  
 The following legend is applicable only to US Government
 contracts under FAR:
  
                    RESTRICTED RIGHTS LEGEND
  
 Use, reproduction and disclosure by the US Government is
 subject to restrictions as set forth in subparagraphs (a)
 and (c) of the Commercial Computer Software - Restricted
 Rights clause in FAR 52.227-19.
  
 Gaussian, Inc.
 340 Quinnipiac St., Bldg. 40, Wallingford CT 06492
  
  
 ---------------------------------------------------------------
 Warning -- This program may not be used in any manner that
 competes with the business of Gaussian, Inc. or will provide
 assistance to any competitor of Gaussian, Inc.  The licensee
 of this program is prohibited from giving any competitor of
 Gaussian, Inc. access to this program.  By using this program,
 the user acknowledges that Gaussian, Inc. is engaged in the
 business of creating and licensing software in the field of
 computational chemistry and represents and warrants to the
 licensee that it is not a competitor of Gaussian, Inc. and that
 it will not use this program in any manner prohibited above.
 ---------------------------------------------------------------
  

 Cite this work as:
 Gaussian 16, Revision A.03,
 M. J. Frisch, G. W. Trucks, H. B. Schlegel, G. E. Scuseria, 
 M. A. Robb, J. R. Cheeseman, G. Scalmani, V. Barone, 
 G. A. Petersson, H. Nakatsuji, X. Li, M. Caricato, A. V. Marenich, 
 J. Bloino, B. G. Janesko, R. Gomperts, B. Mennucci, H. P. Hratchian, 
 J. V. Ortiz, A. F. Izmaylov, J. L. Sonnenberg, D. Williams-Young, 
 F. Ding, F. Lipparini, F. Egidi, J. Goings, B. Peng, A. Petrone, 
 T. Henderson, D. Ranasinghe, V. G. Zakrzewski, J. Gao, N. Rega, 
 G. Zheng, W. Liang, M. Hada, M. Ehara, K. Toyota, R. Fukuda, 
 J. Hasegawa, M. Ishida, T. Nakajima, Y. Honda, O. Kitao, H. Nakai, 
 T. Vreven, K. Throssell, J. A. Montgomery, Jr., J. E. Peralta, 
 F. Ogliaro, M. J. Bearpark, J. J. Heyd, E. N. Brothers, K. N. Kudin, 
 V. N. Staroverov, T. A. Keith, R. Kobayashi, J. Normand, 
 K. Raghavachari, A. P. Rendell, J. C. Burant, S. S. Iyengar, 
 J. Tomasi, M. Cossi, J. M. Millam, M. Klene, C. Adamo, R. Cammi, 
 J. W. Ochterski, R. L. Martin, K. Morokuma, O. Farkas, 
 J. B. Foresman, and D. J. Fox, Gaussian, Inc., Wallingford CT, 2016.
 
 ******************************************
 Gaussian 16:  ES64L-G16RevA.03 25-Dec-2016
                20-Dec-2021 
 ******************************************
 %nprocshared=28
 Will use up to   28 processors via shared memory.
 %mem=41GB
 ----------------------------------------------
 # MP2/aug-cc-pVTZ opt freq=(vibrot,anharmonic)
 ----------------------------------------------
 1/18=20,19=15,38=1,80=1/1,3;
 2/9=110,12=2,17=6,18=5,40=1/2;
 3/5=16,6=1,7=10,11=9,25=1,30=1,71=1/1,2,3;
 4//1;
 5/5=2,38=5/2;
 8/6=4,10=1/1;
 9/15=2,16=-3/6;
 10/5=1/2;
 6/7=2,8=2,9=2,10=2/1;
 7/12=2/1,2,3,16;
 1/18=20,19=15,80=1/3(2);
 2/9=110/2;
 99//99;
 2/9=110/2;
 3/5=16,6=1,7=10,11=9,25=1,30=1,71=1/1,2,3;
 4/5=5,16=3,69=1/1;
 5/5=2,38=5/2;
 8/6=4,10=1/1;
 9/15=2,16=-3/6;
 10/5=1/2;
 7/12=2/1,2,3,16;
 1/18=20,19=15,80=1/3(-8);
 2/9=110/2;
 6/7=2,8=2,9=2,10=2/1;
 99//99;
 ----
 bleh
 ----
 Symbolic Z-matrix:
 Charge =  0 Multiplicity = 1
 O                    -1.83045  -0.00253   0.00001 
 O                     0.83733   0.75493  0. 
 H                    -0.12187   0.52268   0.00011 
 F                     1.34765  -0.60238   0.00001 
 H                    -2.03128  -0.56033   0.76399 
 H                    -2.03076  -0.56017  -0.76423 
 
 Add virtual bond connecting atoms H3         and O1         Dist= 3.38D+00.

 GradGradGradGradGradGradGradGradGradGradGradGradGradGradGradGradGradGrad
 Berny optimization.
 Initialization pass.
                           ----------------------------
                           !    Initial Parameters    !
                           ! (Angstroms and Degrees)  !
 --------------------------                            --------------------------
 ! Name  Definition              Value          Derivative Info.                !
 --------------------------------------------------------------------------------
 ! R1    R(1,3)                  1.7875         estimate D2E/DX2                !
 ! R2    R(1,5)                  0.967          estimate D2E/DX2                !
 ! R3    R(1,6)                  0.967          estimate D2E/DX2                !
 ! R4    R(2,3)                  0.9869         estimate D2E/DX2                !
 ! R5    R(2,4)                  1.4501         estimate D2E/DX2                !
 ! A1    A(3,1,5)              111.5894         estimate D2E/DX2                !
 ! A2    A(3,1,6)              111.5599         estimate D2E/DX2                !
 ! A3    A(5,1,6)              104.4012         estimate D2E/DX2                !
 ! A4    A(3,2,4)               96.9946         estimate D2E/DX2                !
 ! A5    L(1,3,2,4,-1)         176.5234         estimate D2E/DX2                !
 ! A6    L(1,3,2,4,-2)         179.9884         estimate D2E/DX2                !
 ! D1    D(5,1,2,4)             57.7653         estimate D2E/DX2                !
 ! D2    D(6,1,2,4)            -57.7756         estimate D2E/DX2                !
 ! D3    D(3,1,5,6)           -120.6392         estimate D2E/DX2                !
 --------------------------------------------------------------------------------
 Trust Radius=3.00D-01 FncErr=1.00D-07 GrdErr=1.00D-07 EigMax=2.50D+02 EigMin=1.00D-04
 Number of steps in this run=     24 maximum allowed number of steps=    100.
 GradGradGradGradGradGradGradGradGradGradGradGradGradGradGradGradGradGrad

                          Input orientation:                          
 ---------------------------------------------------------------------
 Center     Atomic      Atomic             Coordinates (Angstroms)
 Number     Number       Type             X           Y           Z
 ---------------------------------------------------------------------
      1          8           0       -1.830450   -0.002531    0.000010
      2          8           0        0.837329    0.754930   -0.000003
      3          1           0       -0.121871    0.522684    0.000106
      4          9           0        1.347653   -0.602375    0.000008
      5          1           0       -2.031276   -0.560333    0.763989
      6          1           0       -2.030756   -0.560173   -0.764225
 ---------------------------------------------------------------------
                    Distance matrix (angstroms):
                    1          2          3          4          5
     1  O    0.000000
     2  O    2.773228   0.000000
     3  H    1.787482   0.986916   0.000000
     4  F    3.234216   1.450072   1.850745   0.000000
     5  H    0.967025   3.246921   2.324278   3.464476   0.000000
     6  H    0.967028   3.246451   2.323924   3.464027   1.528214
                    6
     6  H    0.000000
 Stoichiometry    FH3O2
 Framework group  C1[X(FH3O2)]
 Deg. of freedom    12
 Full point group                 C1      NOp   1
 Largest Abelian subgroup         C1      NOp   1
 Largest concise Abelian subgroup C1      NOp   1
                         Standard orientation:                         
 ---------------------------------------------------------------------
 Center     Atomic      Atomic             Coordinates (Angstroms)
 Number     Number       Type             X           Y           Z
 ---------------------------------------------------------------------
      1          8           0        1.830450   -0.002531   -0.000010
      2          8           0       -0.837329    0.754930    0.000003
      3          1           0        0.121871    0.522684   -0.000106
      4          9           0       -1.347653   -0.602375   -0.000008
      5          1           0        2.031276   -0.560333   -0.763989
      6          1           0        2.030756   -0.560173    0.764225
 ---------------------------------------------------------------------
 Rotational constants (GHZ):          28.0855571           4.6640360           4.0757312
 Standard basis: Aug-CC-pVTZ (5D, 7F)
 There are   240 symmetry adapted cartesian basis functions of A   symmetry.
 There are   207 symmetry adapted basis functions of A   symmetry.
   207 basis functions,   297 primitive gaussians,   240 cartesian basis functions
    14 alpha electrons       14 beta electrons
       nuclear repulsion energy        74.4137081822 Hartrees.
 NAtoms=    6 NActive=    6 NUniq=    6 SFac= 1.00D+00 NAtFMM=   60 NAOKFM=F Big=F
 Integral buffers will be    131072 words long.
 Raffenetti 1 integral format.
 Two-electron integral symmetry is turned on.
 One-electron integrals computed using PRISM.
 NBasis=   207 RedAO= T EigKep=  2.51D-04  NBF=   207
 NBsUse=   207 1.00D-06 EigRej= -1.00D+00 NBFU=   207
 ExpMin= 2.53D-02 ExpMax= 1.95D+04 ExpMxC= 6.65D+02 IAcc=3 IRadAn=         5 AccDes= 0.00D+00
 Harris functional with IExCor=  205 and IRadAn=       5 diagonalized for initial guess.
 HarFok:  IExCor=  205 AccDes= 0.00D+00 IRadAn=         5 IDoV= 1 UseB2=F ITyADJ=14
 ICtDFT=  3500011 ScaDFX=  1.000000  1.000000  1.000000  1.000000
 FoFCou: FMM=F IPFlag=           0 FMFlag=      100000 FMFlg1=           0
         NFxFlg=           0 DoJE=T BraDBF=F KetDBF=T FulRan=T
         wScrn=  0.000000 ICntrl=       500 IOpCl=  0 I1Cent=   200000004 NGrid=           0
         NMat0=    1 NMatS0=      1 NMatT0=    0 NMatD0=    1 NMtDS0=    0 NMtDT0=    0
 Petite list used in FoFCou.
 Keep R1 ints in memory in canonical form, NReq=245602853.
 Requested convergence on RMS density matrix=1.00D-08 within 128 cycles.
 Requested convergence on MAX density matrix=1.00D-06.
 Requested convergence on             energy=1.00D-06.
 No special actions if energy rises.
 SCF Done:  E(RHF) =  -250.876017204     A.U. after   13 cycles
            NFock= 13  Conv=0.34D-08     -V/T= 2.0016
 ExpMin= 2.53D-02 ExpMax= 1.95D+04 ExpMxC= 6.65D+02 IAcc=3 IRadAn=         5 AccDes= 0.00D+00
 HarFok:  IExCor=  205 AccDes= 0.00D+00 IRadAn=         5 IDoV=-2 UseB2=F ITyADJ=14
 ICtDFT= 12500011 ScaDFX=  1.000000  1.000000  1.000000  1.000000
 Range of M.O.s used for correlation:     4   207
 NBasis=   207 NAE=    14 NBE=    14 NFC=     3 NFV=     0
 NROrb=    204 NOA=    11 NOB=    11 NVA=   193 NVB=   193

 **** Warning!!: The largest alpha MO coefficient is  0.16646943D+02

 Fully direct method using O(ONN) memory.
 JobTyp=1 Pass  1:  I=   4 to  14 NPSUse= 28 ParTrn=T ParDer=T DoDerP=T.
 Spin components of T(2) and E(2):
     alpha-alpha T2 =       0.2318737371D-01 E2=     -0.9856736558D-01
     alpha-beta  T2 =       0.1351855433D+00 E2=     -0.5952633246D+00
     beta-beta   T2 =       0.2318737371D-01 E2=     -0.9856736558D-01
 ANorm=    0.1086995994D+01
 E2 =    -0.7923980558D+00 EUMP2 =    -0.25166841525971D+03
          IDoAtm=111111
          Differentiating once with respect to electric field.
                with respect to dipole field.
          Differentiating once with respect to nuclear coordinates.
 Keep R1 ints in memory in canonical form, NReq=245607996.
          There are     1 degrees of freedom in the 1st order CPHF.  IDoFFX=0 NUNeed=     1.
 LinEq1:  Iter=  0 NonCon=     1 RMS=4.05D-03 Max=4.27D-02 NDo=     1
 AX will form     1 AO Fock derivatives at one time.
 LinEq1:  Iter=  1 NonCon=     1 RMS=9.72D-04 Max=1.26D-02 NDo=     1
 LinEq1:  Iter=  2 NonCon=     1 RMS=4.66D-04 Max=5.11D-03 NDo=     1
 LinEq1:  Iter=  3 NonCon=     1 RMS=9.08D-05 Max=1.01D-03 NDo=     1
 LinEq1:  Iter=  4 NonCon=     1 RMS=3.54D-05 Max=4.53D-04 NDo=     1
 LinEq1:  Iter=  5 NonCon=     1 RMS=1.05D-05 Max=1.02D-04 NDo=     1
 LinEq1:  Iter=  6 NonCon=     1 RMS=3.33D-06 Max=5.07D-05 NDo=     1
 LinEq1:  Iter=  7 NonCon=     1 RMS=1.29D-06 Max=1.42D-05 NDo=     1
 LinEq1:  Iter=  8 NonCon=     1 RMS=4.37D-07 Max=6.72D-06 NDo=     1
 LinEq1:  Iter=  9 NonCon=     1 RMS=9.93D-08 Max=9.50D-07 NDo=     1
 LinEq1:  Iter= 10 NonCon=     1 RMS=1.56D-08 Max=1.31D-07 NDo=     1
 LinEq1:  Iter= 11 NonCon=     1 RMS=3.03D-09 Max=3.66D-08 NDo=     1
 LinEq1:  Iter= 12 NonCon=     1 RMS=6.93D-10 Max=8.16D-09 NDo=     1
 LinEq1:  Iter= 13 NonCon=     1 RMS=1.19D-10 Max=1.11D-09 NDo=     1
 LinEq1:  Iter= 14 NonCon=     0 RMS=2.14D-11 Max=1.74D-10 NDo=     1
 Linear equations converged to 1.000D-10 1.000D-09 after    14 iterations.
 End of Minotr F.D. properties file   721 does not exist.
 End of Minotr F.D. properties file   722 does not exist.
 End of Minotr F.D. properties file   788 does not exist.

 **********************************************************************

            Population analysis using the SCF density.

 **********************************************************************

 Orbital symmetries:
       Occupied  (A) (A) (A) (A) (A) (A) (A) (A) (A) (A) (A) (A)
                 (A) (A)
       Virtual   (A) (A) (A) (A) (A) (A) (A) (A) (A) (A) (A) (A)
                 (A) (A) (A) (A) (A) (A) (A) (A) (A) (A) (A) (A)
                 (A) (A) (A) (A) (A) (A) (A) (A) (A) (A) (A) (A)
                 (A) (A) (A) (A) (A) (A) (A) (A) (A) (A) (A) (A)
                 (A) (A) (A) (A) (A) (A) (A) (A) (A) (A) (A) (A)
                 (A) (A) (A) (A) (A) (A) (A) (A) (A) (A) (A) (A)
                 (A) (A) (A) (A) (A) (A) (A) (A) (A) (A) (A) (A)
                 (A) (A) (A) (A) (A) (A) (A) (A) (A) (A) (A) (A)
                 (A) (A) (A) (A) (A) (A) (A) (A) (A) (A) (A) (A)
                 (A) (A) (A) (A) (A) (A) (A) (A) (A) (A) (A) (A)
                 (A) (A) (A) (A) (A) (A) (A) (A) (A) (A) (A) (A)
                 (A) (A) (A) (A) (A) (A) (A) (A) (A) (A) (A) (A)
                 (A) (A) (A) (A) (A) (A) (A) (A) (A) (A) (A) (A)
                 (A) (A) (A) (A) (A) (A) (A) (A) (A) (A) (A) (A)
                 (A) (A) (A) (A) (A) (A) (A) (A) (A) (A) (A) (A)
                 (A) (A) (A) (A) (A) (A) (A) (A) (A) (A) (A) (A)
                 (A)
 The electronic state is 1-A.
 Alpha  occ. eigenvalues --  -26.31919 -20.66306 -20.61413  -1.61045  -1.39810
 Alpha  occ. eigenvalues --   -1.28559  -0.75829  -0.75008  -0.69142  -0.65602
 Alpha  occ. eigenvalues --   -0.63547  -0.58516  -0.54974  -0.51819
 Alpha virt. eigenvalues --    0.01914   0.04164   0.06074   0.10326   0.12938
 Alpha virt. eigenvalues --    0.14828   0.15920   0.16368   0.17221   0.21160
 Alpha virt. eigenvalues --    0.21323   0.21828   0.22624   0.24241   0.25575
 Alpha virt. eigenvalues --    0.25755   0.27226   0.28384   0.35405   0.35859
 Alpha virt. eigenvalues --    0.37238   0.39188   0.40555   0.43566   0.44304
 Alpha virt. eigenvalues --    0.44338   0.47476   0.57111   0.58913   0.61490
 Alpha virt. eigenvalues --    0.65743   0.69542   0.71206   0.73280   0.76885
 Alpha virt. eigenvalues --    0.77581   0.80286   0.83178   0.83749   0.84672
 Alpha virt. eigenvalues --    0.87766   0.90401   0.91135   0.94419   0.96775
 Alpha virt. eigenvalues --    0.97414   0.97745   0.98930   1.00771   1.01349
 Alpha virt. eigenvalues --    1.01479   1.04100   1.09567   1.10122   1.10605
 Alpha virt. eigenvalues --    1.15066   1.17233   1.17295   1.21700   1.22834
 Alpha virt. eigenvalues --    1.23817   1.29242   1.30871   1.32082   1.41897
 Alpha virt. eigenvalues --    1.43151   1.44502   1.46208   1.54893   1.57629
 Alpha virt. eigenvalues --    1.61995   1.64369   1.68143   1.73650   1.80458
 Alpha virt. eigenvalues --    1.80714   1.83497   2.03873   2.06672   2.08527
 Alpha virt. eigenvalues --    2.12642   2.18574   2.25764   2.25915   2.31514
 Alpha virt. eigenvalues --    2.33734   2.41612   2.41968   2.44820   2.45655
 Alpha virt. eigenvalues --    2.48877   2.50350   2.55931   2.58720   2.59539
 Alpha virt. eigenvalues --    2.65631   2.67023   2.67620   2.72753   2.79189
 Alpha virt. eigenvalues --    2.80089   2.83772   2.87173   2.89584   2.93874
 Alpha virt. eigenvalues --    2.98477   2.98947   3.08210   3.08727   3.18078
 Alpha virt. eigenvalues --    3.19479   3.27820   3.33849   3.39808   3.55471
 Alpha virt. eigenvalues --    3.71639   3.78648   3.79631   3.86050   3.89080
 Alpha virt. eigenvalues --    4.03712   4.08842   4.16684   4.18823   4.22224
 Alpha virt. eigenvalues --    4.27683   4.28558   4.37090   4.44758   4.45958
 Alpha virt. eigenvalues --    4.48301   4.49540   4.59062   4.60992   4.72919
 Alpha virt. eigenvalues --    4.80912   4.87099   4.92601   5.11679   5.12152
 Alpha virt. eigenvalues --    5.13775   5.20617   5.25733   5.31282   5.33562
 Alpha virt. eigenvalues --    5.39710   5.43191   5.56405   5.70306   5.77268
 Alpha virt. eigenvalues --    6.06274   6.31643   6.32921   6.49583   6.69385
 Alpha virt. eigenvalues --    6.71602   6.75663   6.78166   6.90683   6.94741
 Alpha virt. eigenvalues --    7.13410   7.14672   7.23003   7.25503   7.26513
 Alpha virt. eigenvalues --    7.33282   7.35629   7.37755   7.38638   7.44390
 Alpha virt. eigenvalues --    7.47169   7.61848   7.73287   7.82509   7.90296
 Alpha virt. eigenvalues --    7.98039   8.30785   8.83264   8.88312   8.89808
 Alpha virt. eigenvalues --    8.98255   9.04529   9.21958   9.33025   9.36788
 Alpha virt. eigenvalues --    9.38002   9.40709   9.54380   9.66647   9.98449
 Alpha virt. eigenvalues --   14.31292  15.20671  16.29651
          Condensed to atoms (all electrons):
               1          2          3          4          5          6
     1  O    7.936629  -0.045533  -0.002259   0.003989   0.265660   0.265660
     2  O   -0.045533   8.044764   0.199088  -0.063373  -0.000007  -0.000006
     3  H   -0.002259   0.199088   0.419414   0.000326   0.003372   0.003377
     4  F    0.003989  -0.063373   0.000326   9.329398   0.001054   0.001056
     5  H    0.265660  -0.000007   0.003372   0.001054   0.479421   0.023078
     6  H    0.265660  -0.000006   0.003377   0.001056   0.023078   0.479407
 Mulliken charges:
               1
     1  O   -0.424146
     2  O   -0.134933
     3  H    0.376681
     4  F   -0.272452
     5  H    0.227422
     6  H    0.227428
 Sum of Mulliken charges =  -0.00000
 Mulliken charges with hydrogens summed into heavy atoms:
               1
     1  O    0.030704
     2  O    0.241748
     4  F   -0.272452
 Electronic spatial extent (au):  <R**2>=            275.2296
 Charge=             -0.0000 electrons
 Dipole moment (field-independent basis, Debye):
    X=              3.6727    Y=             -1.4958    Z=              0.0002  Tot=              3.9657
 Quadrupole moment (field-independent basis, Debye-Ang):
   XX=            -16.4302   YY=            -17.0849   ZZ=            -15.2594
   XY=             -3.8459   XZ=             -0.0003   YZ=             -0.0001
 Traceless Quadrupole moment (field-independent basis, Debye-Ang):
   XX=             -0.1720   YY=             -0.8267   ZZ=              0.9987
   XY=             -3.8459   XZ=             -0.0003   YZ=             -0.0001
 Octapole moment (field-independent basis, Debye-Ang**2):
  XXX=              5.3313  YYY=             -3.0397  ZZZ=              0.0010  XYY=              2.1675
  XXY=             -9.7678  XXZ=             -0.0025  XZZ=              4.6108  YZZ=             -2.6704
  YYZ=             -0.0002  XYZ=              0.0005
 Hexadecapole moment (field-independent basis, Debye-Ang**3):
 XXXX=           -217.8556 YYYY=            -42.7674 ZZZZ=            -13.5769 XXXY=            -18.2178
 XXXZ=             -0.0099 YYYX=              1.1616 YYYZ=              0.0002 ZZZX=              0.0010
 ZZZY=             -0.0005 XXYY=            -42.2841 XXZZ=            -29.8567 YYZZ=             -9.5806
 XXYZ=              0.0022 YYXZ=             -0.0008 ZZXY=             -2.4949
 N-N= 7.441370818223D+01 E-N=-7.469823080501D+02  KE= 2.504726242046D+02
 Calling FoFJK, ICntrl=  10002127 FMM=F ISym2X=0 I1Cent= 0 IOpClX= 0 NMat=1 NMatS=1 NMatT=0.
 ***** Axes restored to original set *****
 -------------------------------------------------------------------
 Center     Atomic                   Forces (Hartrees/Bohr)
 Number     Number              X              Y              Z
 -------------------------------------------------------------------
      1        8          -0.001257778   -0.005031147   -0.000004271
      2        8           0.000310531   -0.010296286    0.000000535
      3        1           0.003062263    0.000752019    0.000001248
      4        9          -0.003793655    0.009556886   -0.000000231
      5        1           0.000841774    0.002509667   -0.002989512
      6        1           0.000836865    0.002508860    0.002992231
 -------------------------------------------------------------------
 Cartesian Forces:  Max     0.010296286 RMS     0.003948035

 GradGradGradGradGradGradGradGradGradGradGradGradGradGradGradGradGradGrad
 Berny optimization.
 FormGI is forming the generalized inverse of G from B-inverse, IUseBI=4.
 Internal  Forces:  Max     0.010280605 RMS     0.003282024
 Search for a local minimum.
 Step number   1 out of a maximum of   24
 All quantities printed in internal units (Hartrees-Bohrs-Radians)
 Mixed Optimization -- RFO/linear search
 Second derivative matrix not updated -- first step.
 The second derivative matrix:
                          R1        R2        R3        R4        R5
           R1           0.06259
           R2           0.00000   0.53989
           R3           0.00000   0.00000   0.53989
           R4           0.00000   0.00000   0.00000   0.50065
           R5           0.00000   0.00000   0.00000   0.00000   0.38236
           A1           0.00000   0.00000   0.00000   0.00000   0.00000
           A2           0.00000   0.00000   0.00000   0.00000   0.00000
           A3           0.00000   0.00000   0.00000   0.00000   0.00000
           A4           0.00000   0.00000   0.00000   0.00000   0.00000
           A5           0.00000   0.00000   0.00000   0.00000   0.00000
           A6           0.00000   0.00000   0.00000   0.00000   0.00000
           D1           0.00000   0.00000   0.00000   0.00000   0.00000
           D2           0.00000   0.00000   0.00000   0.00000   0.00000
           D3           0.00000   0.00000   0.00000   0.00000   0.00000
                          A1        A2        A3        A4        A5
           A1           0.16000
           A2           0.00000   0.16000
           A3           0.00000   0.00000   0.16000
           A4           0.00000   0.00000   0.00000   0.16000
           A5           0.00000   0.00000   0.00000   0.00000   0.01201
           A6           0.00000   0.00000   0.00000   0.00000   0.00000
           D1           0.00000   0.00000   0.00000   0.00000   0.00000
           D2           0.00000   0.00000   0.00000   0.00000   0.00000
           D3           0.00000   0.00000   0.00000   0.00000   0.00000
                          A6        D1        D2        D3
           A6           0.01201
           D1           0.00000   0.00230
           D2           0.00000   0.00000   0.00230
           D3           0.00000   0.00000   0.00000   0.01465
 ITU=  0
     Eigenvalues ---    0.00230   0.01175   0.01201   0.04828   0.06259
     Eigenvalues ---    0.12978   0.16000   0.16000   0.38236   0.50064
     Eigenvalues ---    0.53989   0.53989
 RFO step:  Lambda=-3.74763183D-04 EMin= 2.30000000D-03
 Linear search not attempted -- first point.
 Iteration  1 RMS(Cart)=  0.02036450 RMS(Int)=  0.00017127
 Iteration  2 RMS(Cart)=  0.00015585 RMS(Int)=  0.00000604
 Iteration  3 RMS(Cart)=  0.00000002 RMS(Int)=  0.00000604
 Variable       Old X    -DE/DX   Delta X   Delta X   Delta X     New X
                                 (Linear)    (Quad)   (Total)
    R1        3.37785  -0.00040   0.00000  -0.00633  -0.00633   3.37152
    R2        1.82741  -0.00398   0.00000  -0.00737  -0.00737   1.82004
    R3        1.82742  -0.00398   0.00000  -0.00738  -0.00738   1.82004
    R4        1.86500  -0.00356   0.00000  -0.00710  -0.00710   1.85790
    R5        2.74024  -0.01028   0.00000  -0.02686  -0.02686   2.71338
    A1        1.94760  -0.00001   0.00000   0.00063   0.00063   1.94823
    A2        1.94709  -0.00007   0.00000   0.00049   0.00049   1.94757
    A3        1.82214   0.00031   0.00000   0.00318   0.00317   1.82531
    A4        1.69288  -0.00051   0.00000  -0.00321  -0.00321   1.68967
    A5        3.08091  -0.00036   0.00000  -0.02625  -0.02625   3.05466
    A6        3.14139  -0.00000   0.00000  -0.00001  -0.00001   3.14138
    D1        1.00819   0.00013   0.00000  -0.00061  -0.00059   1.00760
    D2       -1.00838  -0.00013   0.00000   0.00077   0.00076  -1.00762
    D3       -2.10555  -0.00010   0.00000  -0.00287  -0.00287  -2.10842
         Item               Value     Threshold  Converged?
 Maximum Force            0.010281     0.000450     NO 
 RMS     Force            0.003282     0.000300     NO 
 Maximum Displacement     0.061040     0.001800     NO 
 RMS     Displacement     0.020369     0.001200     NO 
 Predicted change in Energy=-1.876961D-04
 GradGradGradGradGradGradGradGradGradGradGradGradGradGradGradGradGradGrad

                          Input orientation:                          
 ---------------------------------------------------------------------
 Center     Atomic      Atomic             Coordinates (Angstroms)
 Number     Number       Type             X           Y           Z
 ---------------------------------------------------------------------
      1          8           0       -1.822720   -0.005865    0.000020
      2          8           0        0.836809    0.750143    0.000004
      3          1           0       -0.122456    0.534719    0.000124
      4          9           0        1.315352   -0.603623   -0.000044
      5          1           0       -2.018514   -0.561643    0.761848
      6          1           0       -2.017842   -0.561529   -0.762066
 ---------------------------------------------------------------------
                    Distance matrix (angstroms):
                    1          2          3          4          5
     1  O    0.000000
     2  O    2.764895   0.000000
     3  H    1.784133   0.983157   0.000000
     4  F    3.194497   1.435857   1.833880   0.000000
     5  H    0.963123   3.233273   2.318893   3.420073   0.000000
     6  H    0.963124   3.232687   2.318444   3.419449   1.523914
                    6
     6  H    0.000000
 Stoichiometry    FH3O2
 Framework group  C1[X(FH3O2)]
 Deg. of freedom    12
 Full point group                 C1      NOp   1
 Largest Abelian subgroup         C1      NOp   1
 Largest concise Abelian subgroup C1      NOp   1
                         Standard orientation:                         
 ---------------------------------------------------------------------
 Center     Atomic      Atomic             Coordinates (Angstroms)
 Number     Number       Type             X           Y           Z
 ---------------------------------------------------------------------
      1          8           0        1.815295    0.002763   -0.000030
      2          8           0       -0.846817    0.749623   -0.000015
      3          1           0        0.113183    0.537499   -0.000135
      4          9           0       -1.320703   -0.605780    0.000034
      5          1           0        2.012998   -0.552338   -0.761859
      6          1           0        2.012326   -0.552226    0.762055
 ---------------------------------------------------------------------
 Rotational constants (GHZ):          28.1736076           4.7580054           4.1487722
 Standard basis: Aug-CC-pVTZ (5D, 7F)
 There are   240 symmetry adapted cartesian basis functions of A   symmetry.
 There are   207 symmetry adapted basis functions of A   symmetry.
   207 basis functions,   297 primitive gaussians,   240 cartesian basis functions
    14 alpha electrons       14 beta electrons
       nuclear repulsion energy        74.9859642268 Hartrees.
 NAtoms=    6 NActive=    6 NUniq=    6 SFac= 1.00D+00 NAtFMM=   60 NAOKFM=F Big=F
 Integral buffers will be    131072 words long.
 Raffenetti 1 integral format.
 Two-electron integral symmetry is turned on.
 One-electron integrals computed using PRISM.
 NBasis=   207 RedAO= T EigKep=  2.48D-04  NBF=   207
 NBsUse=   207 1.00D-06 EigRej= -1.00D+00 NBFU=   207
 Initial guess from the checkpoint file:  "/gscratch/scrubbed/gds001/Gau-1676.chk"
 B after Tr=    -0.000000   -0.000000    0.000000
         Rot=    0.999996    0.000015   -0.000006   -0.002882 Ang=   0.33 deg.
 ExpMin= 2.53D-02 ExpMax= 1.95D+04 ExpMxC= 6.65D+02 IAcc=3 IRadAn=         5 AccDes= 0.00D+00
 Harris functional with IExCor=  205 and IRadAn=       5 diagonalized for initial guess.
 HarFok:  IExCor=  205 AccDes= 0.00D+00 IRadAn=         5 IDoV= 1 UseB2=F ITyADJ=14
 ICtDFT=  3500011 ScaDFX=  1.000000  1.000000  1.000000  1.000000
 FoFCou: FMM=F IPFlag=           0 FMFlag=      100000 FMFlg1=           0
         NFxFlg=           0 DoJE=T BraDBF=F KetDBF=T FulRan=T
         wScrn=  0.000000 ICntrl=       500 IOpCl=  0 I1Cent=   200000004 NGrid=           0
         NMat0=    1 NMatS0=      1 NMatT0=    0 NMatD0=    1 NMtDS0=    0 NMtDT0=    0
 Petite list used in FoFCou.
 Keep R1 ints in memory in canonical form, NReq=245603205.
 Requested convergence on RMS density matrix=1.00D-08 within 128 cycles.
 Requested convergence on MAX density matrix=1.00D-06.
 Requested convergence on             energy=1.00D-06.
 No special actions if energy rises.
 SCF Done:  E(RHF) =  -250.877803456     A.U. after   11 cycles
            NFock= 11  Conv=0.24D-08     -V/T= 2.0014
 ExpMin= 2.53D-02 ExpMax= 1.95D+04 ExpMxC= 6.65D+02 IAcc=3 IRadAn=         5 AccDes= 0.00D+00
 HarFok:  IExCor=  205 AccDes= 0.00D+00 IRadAn=         5 IDoV=-2 UseB2=F ITyADJ=14
 ICtDFT= 12500011 ScaDFX=  1.000000  1.000000  1.000000  1.000000
 Range of M.O.s used for correlation:     4   207
 NBasis=   207 NAE=    14 NBE=    14 NFC=     3 NFV=     0
 NROrb=    204 NOA=    11 NOB=    11 NVA=   193 NVB=   193

 **** Warning!!: The largest alpha MO coefficient is  0.16833343D+02

 Fully direct method using O(ONN) memory.
 JobTyp=1 Pass  1:  I=   4 to  14 NPSUse= 28 ParTrn=T ParDer=T DoDerP=T.
 Spin components of T(2) and E(2):
     alpha-alpha T2 =       0.2303363527D-01 E2=     -0.9845324778D-01
     alpha-beta  T2 =       0.1338360650D+00 E2=     -0.5939186644D+00
     beta-beta   T2 =       0.2303363527D-01 E2=     -0.9845324778D-01
 ANorm=    0.1086233555D+01
 E2 =    -0.7908251599D+00 EUMP2 =    -0.25166862861578D+03
          IDoAtm=111111
          Differentiating once with respect to electric field.
                with respect to dipole field.
          Differentiating once with respect to nuclear coordinates.
 Keep R1 ints in memory in canonical form, NReq=245608304.
          There are     1 degrees of freedom in the 1st order CPHF.  IDoFFX=0 NUNeed=     1.
 LinEq1:  Iter=  0 NonCon=     1 RMS=3.96D-03 Max=5.13D-02 NDo=     1
 AX will form     1 AO Fock derivatives at one time.
 LinEq1:  Iter=  1 NonCon=     1 RMS=9.25D-04 Max=1.20D-02 NDo=     1
 LinEq1:  Iter=  2 NonCon=     1 RMS=4.43D-04 Max=5.07D-03 NDo=     1
 LinEq1:  Iter=  3 NonCon=     1 RMS=8.56D-05 Max=9.42D-04 NDo=     1
 LinEq1:  Iter=  4 NonCon=     1 RMS=3.29D-05 Max=4.19D-04 NDo=     1
 LinEq1:  Iter=  5 NonCon=     1 RMS=9.98D-06 Max=9.98D-05 NDo=     1
 LinEq1:  Iter=  6 NonCon=     1 RMS=3.14D-06 Max=4.67D-05 NDo=     1
 LinEq1:  Iter=  7 NonCon=     1 RMS=1.22D-06 Max=1.40D-05 NDo=     1
 LinEq1:  Iter=  8 NonCon=     1 RMS=4.14D-07 Max=5.48D-06 NDo=     1
 LinEq1:  Iter=  9 NonCon=     1 RMS=9.31D-08 Max=8.95D-07 NDo=     1
 LinEq1:  Iter= 10 NonCon=     1 RMS=1.46D-08 Max=1.24D-07 NDo=     1
 LinEq1:  Iter= 11 NonCon=     1 RMS=2.78D-09 Max=2.71D-08 NDo=     1
 LinEq1:  Iter= 12 NonCon=     1 RMS=6.22D-10 Max=7.26D-09 NDo=     1
 LinEq1:  Iter= 13 NonCon=     1 RMS=1.07D-10 Max=1.06D-09 NDo=     1
 LinEq1:  Iter= 14 NonCon=     0 RMS=1.87D-11 Max=1.74D-10 NDo=     1
 Linear equations converged to 1.000D-10 1.000D-09 after    14 iterations.
 End of Minotr F.D. properties file   721 does not exist.
 End of Minotr F.D. properties file   722 does not exist.
 End of Minotr F.D. properties file   788 does not exist.
 Calling FoFJK, ICntrl=  10002127 FMM=F ISym2X=0 I1Cent= 0 IOpClX= 0 NMat=1 NMatS=1 NMatT=0.
 ***** Axes restored to original set *****
 -------------------------------------------------------------------
 Center     Atomic                   Forces (Hartrees/Bohr)
 Number     Number              X              Y              Z
 -------------------------------------------------------------------
      1        8          -0.000028157   -0.000663633   -0.000003384
      2        8          -0.000263408   -0.002877508   -0.000000094
      3        1           0.000087845    0.001089010    0.000002458
      4        9           0.000088556    0.001803456   -0.000000221
      5        1           0.000059583    0.000324831   -0.000075909
      6        1           0.000055580    0.000323844    0.000077150
 -------------------------------------------------------------------
 Cartesian Forces:  Max     0.002877508 RMS     0.000865170

 GradGradGradGradGradGradGradGradGradGradGradGradGradGradGradGradGradGrad
 Berny optimization.
 Using GEDIIS/GDIIS optimizer.
 FormGI is forming the generalized inverse of G from B-inverse, IUseBI=4.
 Internal  Forces:  Max     0.001857451 RMS     0.000688960
 Search for a local minimum.
 Step number   2 out of a maximum of   24
 All quantities printed in internal units (Hartrees-Bohrs-Radians)
 Mixed Optimization -- En-DIIS/RFO-DIIS
 Update second derivatives using D2CorX and points    1    2
 DE= -2.13D-04 DEPred=-1.88D-04 R= 1.14D+00
 TightC=F SS=  1.41D+00  RLast= 4.05D-02 DXNew= 5.0454D-01 1.2149D-01
 Trust test= 1.14D+00 RLast= 4.05D-02 DXMaxT set to 3.00D-01
 The second derivative matrix:
                          R1        R2        R3        R4        R5
           R1           0.06248
           R2          -0.00057   0.54000
           R3          -0.00057   0.00011   0.54000
           R4          -0.00068  -0.00189  -0.00188   0.49728
           R5          -0.00244  -0.01112  -0.01111  -0.01451   0.32736
           A1           0.00011   0.00109   0.00109   0.00097   0.00281
           A2           0.00010   0.00103   0.00103   0.00091   0.00260
           A3           0.00047   0.00459   0.00459   0.00414   0.01205
           A4           0.00178   0.02158   0.02159   0.01802   0.04843
           A5          -0.00003   0.00018   0.00018  -0.00001  -0.00049
           A6          -0.00000  -0.00001  -0.00001  -0.00001  -0.00002
           D1          -0.00001  -0.00011  -0.00011  -0.00010  -0.00027
           D2           0.00001   0.00012   0.00012   0.00010   0.00028
           D3          -0.00002  -0.00022  -0.00022  -0.00021  -0.00063
                          A1        A2        A3        A4        A5
           A1           0.15997
           A2          -0.00002   0.15998
           A3          -0.00014  -0.00011   0.15933
           A4           0.00015   0.00023   0.00018   0.17652
           A5           0.00009   0.00008   0.00036   0.00182   0.01204
           A6           0.00000   0.00000   0.00000  -0.00000  -0.00000
           D1           0.00000  -0.00000   0.00000  -0.00006  -0.00001
           D2          -0.00000   0.00000  -0.00000   0.00007   0.00001
           D3           0.00001   0.00001   0.00005   0.00009  -0.00002
                          A6        D1        D2        D3
           A6           0.01201
           D1           0.00000   0.00230
           D2          -0.00000  -0.00000   0.00230
           D3          -0.00000  -0.00000   0.00000   0.01464
 ITU=  1  0
 Use linear search instead of GDIIS.
     Eigenvalues ---    0.00230   0.01176   0.01201   0.04786   0.06241
     Eigenvalues ---    0.12905   0.15800   0.16022   0.34120   0.49916
     Eigenvalues ---    0.53989   0.54334
 RFO step:  Lambda=-3.23251949D-05 EMin= 2.29999940D-03
 Quartic linear search produced a step of  0.14163.
 Iteration  1 RMS(Cart)=  0.00707787 RMS(Int)=  0.00004124
 Iteration  2 RMS(Cart)=  0.00004128 RMS(Int)=  0.00000198
 Iteration  3 RMS(Cart)=  0.00000000 RMS(Int)=  0.00000198
 Variable       Old X    -DE/DX   Delta X   Delta X   Delta X     New X
                                 (Linear)    (Quad)   (Total)
    R1        3.37152  -0.00008  -0.00090  -0.00096  -0.00186   3.36967
    R2        1.82004  -0.00026  -0.00104  -0.00013  -0.00117   1.81887
    R3        1.82004  -0.00026  -0.00104  -0.00012  -0.00117   1.81887
    R4        1.85790  -0.00041  -0.00101  -0.00052  -0.00152   1.85637
    R5        2.71338  -0.00167  -0.00380  -0.00342  -0.00723   2.70615
    A1        1.94823  -0.00001   0.00009   0.00058   0.00066   1.94889
    A2        1.94757  -0.00005   0.00007   0.00046   0.00052   1.94810
    A3        1.82531   0.00024   0.00045   0.00274   0.00319   1.82850
    A4        1.68967   0.00186  -0.00045   0.01345   0.01300   1.70267
    A5        3.05466  -0.00005  -0.00372   0.00223  -0.00149   3.05317
    A6        3.14138  -0.00000  -0.00000  -0.00005  -0.00005   3.14132
    D1        1.00760   0.00013  -0.00008   0.00237   0.00229   1.00989
    D2       -1.00762  -0.00012   0.00011  -0.00217  -0.00207  -1.00969
    D3       -2.10842  -0.00008  -0.00041  -0.00256  -0.00296  -2.11138
         Item               Value     Threshold  Converged?
 Maximum Force            0.001857     0.000450     NO 
 RMS     Force            0.000689     0.000300     NO 
 Maximum Displacement     0.020557     0.001800     NO 
 RMS     Displacement     0.007058     0.001200     NO 
 Predicted change in Energy=-1.972251D-05
 GradGradGradGradGradGradGradGradGradGradGradGradGradGradGradGradGradGrad

                          Input orientation:                          
 ---------------------------------------------------------------------
 Center     Atomic      Atomic             Coordinates (Angstroms)
 Number     Number       Type             X           Y           Z
 ---------------------------------------------------------------------
      1          8           0       -1.824079   -0.006208    0.000026
      2          8           0        0.834797    0.745250    0.000011
      3          1           0       -0.124215    0.532387    0.000161
      4          9           0        1.326230   -0.599820   -0.000113
      5          1           0       -2.021478   -0.559723    0.762305
      6          1           0       -2.020626   -0.559683   -0.762505
 ---------------------------------------------------------------------
                    Distance matrix (angstroms):
                    1          2          3          4          5
     1  O    0.000000
     2  O    2.763026   0.000000
     3  H    1.783150   0.982351   0.000000
     4  F    3.205749   1.432034   1.840023   0.000000
     5  H    0.962504   3.231462   2.318011   3.433662   0.000000
     6  H    0.962506   3.230746   2.317467   3.432827   1.524809
                    6
     6  H    0.000000
 Stoichiometry    FH3O2
 Framework group  C1[X(FH3O2)]
 Deg. of freedom    12
 Full point group                 C1      NOp   1
 Largest Abelian subgroup         C1      NOp   1
 Largest concise Abelian subgroup C1      NOp   1
                         Standard orientation:                         
 ---------------------------------------------------------------------
 Center     Atomic      Atomic             Coordinates (Angstroms)
 Number     Number       Type             X           Y           Z
 ---------------------------------------------------------------------
      1          8           0        1.818922    0.000375   -0.000053
      2          8           0       -0.841590    0.746023   -0.000038
      3          1           0        0.117884    0.535255   -0.000188
      4          9           0       -1.330083   -0.600118    0.000086
      5          1           0        2.017529   -0.552707   -0.762332
      6          1           0        2.016677   -0.552669    0.762477
 ---------------------------------------------------------------------
 Rotational constants (GHZ):          28.5161118           4.7323738           4.1366459
 Standard basis: Aug-CC-pVTZ (5D, 7F)
 There are   240 symmetry adapted cartesian basis functions of A   symmetry.
 There are   207 symmetry adapted basis functions of A   symmetry.
   207 basis functions,   297 primitive gaussians,   240 cartesian basis functions
    14 alpha electrons       14 beta electrons
       nuclear repulsion energy        75.0156190757 Hartrees.
 NAtoms=    6 NActive=    6 NUniq=    6 SFac= 1.00D+00 NAtFMM=   60 NAOKFM=F Big=F
 Integral buffers will be    131072 words long.
 Raffenetti 1 integral format.
 Two-electron integral symmetry is turned on.
 One-electron integrals computed using PRISM.
 NBasis=   207 RedAO= T EigKep=  2.47D-04  NBF=   207
 NBsUse=   207 1.00D-06 EigRej= -1.00D+00 NBFU=   207
 Initial guess from the checkpoint file:  "/gscratch/scrubbed/gds001/Gau-1676.chk"
 B after Tr=     0.000000   -0.000000   -0.000000
         Rot=    0.999999    0.000019   -0.000007    0.001234 Ang=   0.14 deg.
 ExpMin= 2.53D-02 ExpMax= 1.95D+04 ExpMxC= 6.65D+02 IAcc=3 IRadAn=         5 AccDes= 0.00D+00
 Harris functional with IExCor=  205 and IRadAn=       5 diagonalized for initial guess.
 HarFok:  IExCor=  205 AccDes= 0.00D+00 IRadAn=         5 IDoV= 1 UseB2=F ITyADJ=14
 ICtDFT=  3500011 ScaDFX=  1.000000  1.000000  1.000000  1.000000
 FoFCou: FMM=F IPFlag=           0 FMFlag=      100000 FMFlg1=           0
         NFxFlg=           0 DoJE=T BraDBF=F KetDBF=T FulRan=T
         wScrn=  0.000000 ICntrl=       500 IOpCl=  0 I1Cent=   200000004 NGrid=           0
         NMat0=    1 NMatS0=      1 NMatT0=    0 NMatD0=    1 NMtDS0=    0 NMtDT0=    0
 Petite list used in FoFCou.
 Keep R1 ints in memory in canonical form, NReq=245603205.
 Requested convergence on RMS density matrix=1.00D-08 within 128 cycles.
 Requested convergence on MAX density matrix=1.00D-06.
 Requested convergence on             energy=1.00D-06.
 No special actions if energy rises.
 SCF Done:  E(RHF) =  -250.878259470     A.U. after   10 cycles
            NFock= 10  Conv=0.38D-08     -V/T= 2.0014
 ExpMin= 2.53D-02 ExpMax= 1.95D+04 ExpMxC= 6.65D+02 IAcc=3 IRadAn=         5 AccDes= 0.00D+00
 HarFok:  IExCor=  205 AccDes= 0.00D+00 IRadAn=         5 IDoV=-2 UseB2=F ITyADJ=14
 ICtDFT= 12500011 ScaDFX=  1.000000  1.000000  1.000000  1.000000
 Range of M.O.s used for correlation:     4   207
 NBasis=   207 NAE=    14 NBE=    14 NFC=     3 NFV=     0
 NROrb=    204 NOA=    11 NOB=    11 NVA=   193 NVB=   193

 **** Warning!!: The largest alpha MO coefficient is  0.16860056D+02

 Fully direct method using O(ONN) memory.
 JobTyp=1 Pass  1:  I=   4 to  14 NPSUse= 28 ParTrn=T ParDer=T DoDerP=T.
 Spin components of T(2) and E(2):
     alpha-alpha T2 =       0.2299300459D-01 E2=     -0.9841362733D-01
     alpha-beta  T2 =       0.1334988307D+00 E2=     -0.5935574794D+00
     beta-beta   T2 =       0.2299300459D-01 E2=     -0.9841362733D-01
 ANorm=    0.1086040902D+01
 E2 =    -0.7903847340D+00 EUMP2 =    -0.25166864420386D+03
          IDoAtm=111111
          Differentiating once with respect to electric field.
                with respect to dipole field.
          Differentiating once with respect to nuclear coordinates.
 Keep R1 ints in memory in canonical form, NReq=245608216.
          There are     1 degrees of freedom in the 1st order CPHF.  IDoFFX=0 NUNeed=     1.
 LinEq1:  Iter=  0 NonCon=     1 RMS=3.94D-03 Max=4.97D-02 NDo=     1
 AX will form     1 AO Fock derivatives at one time.
 LinEq1:  Iter=  1 NonCon=     1 RMS=9.09D-04 Max=1.18D-02 NDo=     1
 LinEq1:  Iter=  2 NonCon=     1 RMS=4.34D-04 Max=4.99D-03 NDo=     1
 LinEq1:  Iter=  3 NonCon=     1 RMS=8.37D-05 Max=9.19D-04 NDo=     1
 LinEq1:  Iter=  4 NonCon=     1 RMS=3.20D-05 Max=4.06D-04 NDo=     1
 LinEq1:  Iter=  5 NonCon=     1 RMS=9.78D-06 Max=9.80D-05 NDo=     1
 LinEq1:  Iter=  6 NonCon=     1 RMS=3.06D-06 Max=4.56D-05 NDo=     1
 LinEq1:  Iter=  7 NonCon=     1 RMS=1.18D-06 Max=1.31D-05 NDo=     1
 LinEq1:  Iter=  8 NonCon=     1 RMS=4.00D-07 Max=5.19D-06 NDo=     1
 LinEq1:  Iter=  9 NonCon=     1 RMS=9.03D-08 Max=8.65D-07 NDo=     1
 LinEq1:  Iter= 10 NonCon=     1 RMS=1.43D-08 Max=1.23D-07 NDo=     1
 LinEq1:  Iter= 11 NonCon=     1 RMS=2.72D-09 Max=2.48D-08 NDo=     1
 LinEq1:  Iter= 12 NonCon=     1 RMS=6.06D-10 Max=6.65D-09 NDo=     1
 LinEq1:  Iter= 13 NonCon=     1 RMS=1.05D-10 Max=1.02D-09 NDo=     1
 LinEq1:  Iter= 14 NonCon=     0 RMS=1.83D-11 Max=1.69D-10 NDo=     1
 Linear equations converged to 1.000D-10 1.000D-09 after    14 iterations.
 End of Minotr F.D. properties file   721 does not exist.
 End of Minotr F.D. properties file   722 does not exist.
 End of Minotr F.D. properties file   788 does not exist.
 Calling FoFJK, ICntrl=  10002127 FMM=F ISym2X=0 I1Cent= 0 IOpClX= 0 NMat=1 NMatS=1 NMatT=0.
 ***** Axes restored to original set *****
 -------------------------------------------------------------------
 Center     Atomic                   Forces (Hartrees/Bohr)
 Number     Number              X              Y              Z
 -------------------------------------------------------------------
      1        8           0.000249355    0.000244996   -0.000003723
      2        8           0.000421809    0.000362204   -0.000000163
      3        1          -0.000146100   -0.000369673    0.000002787
      4        9          -0.000269093    0.000047274   -0.000000163
      5        1          -0.000125802   -0.000141878    0.000198301
      6        1          -0.000130169   -0.000142923   -0.000197039
 -------------------------------------------------------------------
 Cartesian Forces:  Max     0.000421809 RMS     0.000212846

 GradGradGradGradGradGradGradGradGradGradGradGradGradGradGradGradGradGrad
 Berny optimization.
 Using GEDIIS/GDIIS optimizer.
 FormGI is forming the generalized inverse of G from B-inverse, IUseBI=4.
 Internal  Forces:  Max     0.000640078 RMS     0.000214843
 Search for a local minimum.
 Step number   3 out of a maximum of   24
 All quantities printed in internal units (Hartrees-Bohrs-Radians)
 Mixed Optimization -- En-DIIS/RFO-DIIS
 Swapping is turned off.
 Update second derivatives using D2CorX and points    1    2    3
 DE= -1.56D-05 DEPred=-1.97D-05 R= 7.90D-01
 TightC=F SS=  1.41D+00  RLast= 1.62D-02 DXNew= 5.0454D-01 4.8472D-02
 Trust test= 7.90D-01 RLast= 1.62D-02 DXMaxT set to 3.00D-01
 The second derivative matrix:
                          R1        R2        R3        R4        R5
           R1           0.06256
           R2           0.00019   0.54669
           R3           0.00019   0.00681   0.54671
           R4           0.00002   0.00455   0.00456   0.50336
           R5          -0.00246  -0.00633  -0.00630  -0.01184   0.29309
           A1           0.00057   0.00423   0.00423   0.00435   0.01207
           A2           0.00051   0.00385   0.00385   0.00393   0.01069
           A3           0.00076   0.00589   0.00588   0.00589   0.02260
           A4          -0.00002   0.00538   0.00537   0.00255   0.03669
           A5           0.00021   0.00193   0.00193   0.00181   0.00342
           A6          -0.00000  -0.00001  -0.00001  -0.00001  -0.00004
           D1          -0.00025  -0.00189  -0.00189  -0.00195  -0.00453
           D2           0.00026   0.00190   0.00190   0.00197   0.00457
           D3          -0.00013  -0.00087  -0.00087  -0.00093  -0.00294
                          A1        A2        A3        A4        A5
           A1           0.16014
           A2           0.00017   0.16019
           A3          -0.00131  -0.00111   0.15712
           A4          -0.00732  -0.00647  -0.00304   0.21390
           A5           0.00041   0.00039   0.00002  -0.00238   0.01231
           A6           0.00000   0.00000   0.00000   0.00002  -0.00000
           D1          -0.00027  -0.00026   0.00042   0.00414  -0.00026
           D2           0.00027   0.00026  -0.00042  -0.00416   0.00026
           D3           0.00005   0.00003   0.00040   0.00165  -0.00006
                          A6        D1        D2        D3
           A6           0.01201
           D1           0.00000   0.00253
           D2          -0.00000  -0.00023   0.00253
           D3          -0.00000   0.00003  -0.00003   0.01462
 ITU=  1  1  0
     Eigenvalues ---    0.00230   0.01188   0.01201   0.04638   0.06254
     Eigenvalues ---    0.12968   0.15989   0.19991   0.30757   0.50312
     Eigenvalues ---    0.53989   0.55491
 En-DIIS/RFO-DIIS/Sim-DIIS IScMMF=       -3 using points:     3    2
 RFO step:  Lambda=-2.61360852D-06.
 DidBck=F Rises=F RFO-DIIS coefs:    0.86910    0.13090
 Iteration  1 RMS(Cart)=  0.00119246 RMS(Int)=  0.00000146
 Iteration  2 RMS(Cart)=  0.00000183 RMS(Int)=  0.00000049
 Iteration  3 RMS(Cart)=  0.00000000 RMS(Int)=  0.00000049
 Variable       Old X    -DE/DX   Delta X   Delta X   Delta X     New X
                                 (Linear)    (Quad)   (Total)
    R1        3.36967   0.00002   0.00024   0.00002   0.00026   3.36993
    R2        1.81887   0.00026   0.00015   0.00033   0.00048   1.81935
    R3        1.81887   0.00026   0.00015   0.00033   0.00048   1.81936
    R4        1.85637   0.00024   0.00020   0.00026   0.00046   1.85683
    R5        2.70615  -0.00014   0.00095  -0.00109  -0.00015   2.70600
    A1        1.94889   0.00009  -0.00009   0.00082   0.00073   1.94962
    A2        1.94810   0.00005  -0.00007   0.00077   0.00070   1.94880
    A3        1.82850  -0.00004  -0.00042   0.00062   0.00020   1.82870
    A4        1.70267  -0.00064  -0.00170  -0.00124  -0.00294   1.69973
    A5        3.05317   0.00004   0.00020   0.00257   0.00277   3.05594
    A6        3.14132  -0.00000   0.00001  -0.00005  -0.00004   3.14129
    D1        1.00989   0.00002  -0.00030   0.00130   0.00100   1.01089
    D2       -1.00969  -0.00002   0.00027  -0.00102  -0.00075  -1.01044
    D3       -2.11138  -0.00008   0.00039  -0.00176  -0.00137  -2.11275
         Item               Value     Threshold  Converged?
 Maximum Force            0.000640     0.000450     NO 
 RMS     Force            0.000215     0.000300     YES
 Maximum Displacement     0.002374     0.001800     NO 
 RMS     Displacement     0.001192     0.001200     YES
 Predicted change in Energy=-1.307036D-06
 GradGradGradGradGradGradGradGradGradGradGradGradGradGradGradGradGradGrad

                          Input orientation:                          
 ---------------------------------------------------------------------
 Center     Atomic      Atomic             Coordinates (Angstroms)
 Number     Number       Type             X           Y           Z
 ---------------------------------------------------------------------
      1          8           0       -1.823664   -0.006499    0.000015
      2          8           0        0.835434    0.746133    0.000034
      3          1           0       -0.123347    0.531131    0.000195
      4          9           0        1.325813   -0.599239   -0.000174
      5          1           0       -2.022279   -0.559639    0.762572
      6          1           0       -2.021329   -0.559685   -0.762758
 ---------------------------------------------------------------------
                    Distance matrix (angstroms):
                    1          2          3          4          5
     1  O    0.000000
     2  O    2.763559   0.000000
     3  H    1.783290   0.982592   0.000000
     4  F    3.204769   1.431956   1.837879   0.000000
     5  H    0.962759   3.233114   2.318823   3.434104   0.000000
     6  H    0.962762   3.232354   2.318257   3.433141   1.525331
                    6
     6  H    0.000000
 Stoichiometry    FH3O2
 Framework group  C1[X(FH3O2)]
 Deg. of freedom    12
 Full point group                 C1      NOp   1
 Largest Abelian subgroup         C1      NOp   1
 Largest concise Abelian subgroup C1      NOp   1
                         Standard orientation:                         
 ---------------------------------------------------------------------
 Center     Atomic      Atomic             Coordinates (Angstroms)
 Number     Number       Type             X           Y           Z
 ---------------------------------------------------------------------
      1          8           0        1.818651    0.000705   -0.000057
      2          8           0       -0.842468    0.746157   -0.000076
      3          1           0        0.116890    0.533744   -0.000237
      4          9           0       -1.329214   -0.600533    0.000132
      5          1           0        2.018759   -0.551897   -0.762614
      6          1           0        2.017809   -0.551945    0.762717
 ---------------------------------------------------------------------
 Rotational constants (GHZ):          28.4997179           4.7335239           4.1372336
 Standard basis: Aug-CC-pVTZ (5D, 7F)
 There are   240 symmetry adapted cartesian basis functions of A   symmetry.
 There are   207 symmetry adapted basis functions of A   symmetry.
   207 basis functions,   297 primitive gaussians,   240 cartesian basis functions
    14 alpha electrons       14 beta electrons
       nuclear repulsion energy        75.0158746027 Hartrees.
 NAtoms=    6 NActive=    6 NUniq=    6 SFac= 1.00D+00 NAtFMM=   60 NAOKFM=F Big=F
 Integral buffers will be    131072 words long.
 Raffenetti 1 integral format.
 Two-electron integral symmetry is turned on.
 One-electron integrals computed using PRISM.
 NBasis=   207 RedAO= T EigKep=  2.47D-04  NBF=   207
 NBsUse=   207 1.00D-06 EigRej= -1.00D+00 NBFU=   207
 Initial guess from the checkpoint file:  "/gscratch/scrubbed/gds001/Gau-1676.chk"
 B after Tr=     0.000000    0.000000   -0.000000
         Rot=    1.000000    0.000021   -0.000003   -0.000182 Ang=   0.02 deg.
 Keep R1 ints in memory in canonical form, NReq=245603205.
 Requested convergence on RMS density matrix=1.00D-08 within 128 cycles.
 Requested convergence on MAX density matrix=1.00D-06.
 Requested convergence on             energy=1.00D-06.
 No special actions if energy rises.
 SCF Done:  E(RHF) =  -250.878228066     A.U. after    9 cycles
            NFock=  9  Conv=0.31D-08     -V/T= 2.0014
 ExpMin= 2.53D-02 ExpMax= 1.95D+04 ExpMxC= 6.65D+02 IAcc=3 IRadAn=         5 AccDes= 0.00D+00
 HarFok:  IExCor=  205 AccDes= 0.00D+00 IRadAn=         5 IDoV=-2 UseB2=F ITyADJ=14
 ICtDFT= 12500011 ScaDFX=  1.000000  1.000000  1.000000  1.000000
 Range of M.O.s used for correlation:     4   207
 NBasis=   207 NAE=    14 NBE=    14 NFC=     3 NFV=     0
 NROrb=    204 NOA=    11 NOB=    11 NVA=   193 NVB=   193

 **** Warning!!: The largest alpha MO coefficient is  0.16852417D+02

 Fully direct method using O(ONN) memory.
 JobTyp=1 Pass  1:  I=   4 to  14 NPSUse= 28 ParTrn=T ParDer=T DoDerP=T.
 Spin components of T(2) and E(2):
     alpha-alpha T2 =       0.2299613505D-01 E2=     -0.9841893654D-01
     alpha-beta  T2 =       0.1335141700D+00 E2=     -0.5935795619D+00
     beta-beta   T2 =       0.2299613505D-01 E2=     -0.9841893654D-01
 ANorm=    0.1086050846D+01
 E2 =    -0.7904174350D+00 EUMP2 =    -0.25166864550140D+03
          IDoAtm=111111
          Differentiating once with respect to electric field.
                with respect to dipole field.
          Differentiating once with respect to nuclear coordinates.
 Keep R1 ints in memory in canonical form, NReq=245608216.
          There are     1 degrees of freedom in the 1st order CPHF.  IDoFFX=0 NUNeed=     1.
 LinEq1:  Iter=  0 NonCon=     1 RMS=3.94D-03 Max=4.97D-02 NDo=     1
 AX will form     1 AO Fock derivatives at one time.
 LinEq1:  Iter=  1 NonCon=     1 RMS=9.10D-04 Max=1.18D-02 NDo=     1
 LinEq1:  Iter=  2 NonCon=     1 RMS=4.35D-04 Max=5.01D-03 NDo=     1
 LinEq1:  Iter=  3 NonCon=     1 RMS=8.38D-05 Max=9.19D-04 NDo=     1
 LinEq1:  Iter=  4 NonCon=     1 RMS=3.21D-05 Max=4.07D-04 NDo=     1
 LinEq1:  Iter=  5 NonCon=     1 RMS=9.79D-06 Max=9.77D-05 NDo=     1
 LinEq1:  Iter=  6 NonCon=     1 RMS=3.07D-06 Max=4.57D-05 NDo=     1
 LinEq1:  Iter=  7 NonCon=     1 RMS=1.19D-06 Max=1.33D-05 NDo=     1
 LinEq1:  Iter=  8 NonCon=     1 RMS=4.02D-07 Max=5.20D-06 NDo=     1
 LinEq1:  Iter=  9 NonCon=     1 RMS=9.06D-08 Max=8.69D-07 NDo=     1
 LinEq1:  Iter= 10 NonCon=     1 RMS=1.43D-08 Max=1.23D-07 NDo=     1
 LinEq1:  Iter= 11 NonCon=     1 RMS=2.72D-09 Max=2.48D-08 NDo=     1
 LinEq1:  Iter= 12 NonCon=     1 RMS=6.06D-10 Max=6.65D-09 NDo=     1
 LinEq1:  Iter= 13 NonCon=     1 RMS=1.04D-10 Max=1.02D-09 NDo=     1
 LinEq1:  Iter= 14 NonCon=     0 RMS=1.83D-11 Max=1.69D-10 NDo=     1
 Linear equations converged to 1.000D-10 1.000D-09 after    14 iterations.
 End of Minotr F.D. properties file   721 does not exist.
 End of Minotr F.D. properties file   722 does not exist.
 End of Minotr F.D. properties file   788 does not exist.
 Calling FoFJK, ICntrl=  10002127 FMM=F ISym2X=0 I1Cent= 0 IOpClX= 0 NMat=1 NMatS=1 NMatT=0.
 ***** Axes restored to original set *****
 -------------------------------------------------------------------
 Center     Atomic                   Forces (Hartrees/Bohr)
 Number     Number              X              Y              Z
 -------------------------------------------------------------------
      1        8           0.000178422   -0.000013983   -0.000003761
      2        8          -0.000045200    0.000073743    0.000000141
      3        1          -0.000038243    0.000074692    0.000002367
      4        9           0.000061071   -0.000105823   -0.000000223
      5        1          -0.000075775   -0.000013885   -0.000029019
      6        1          -0.000080276   -0.000014745    0.000030496
 -------------------------------------------------------------------
 Cartesian Forces:  Max     0.000178422 RMS     0.000064923

 GradGradGradGradGradGradGradGradGradGradGradGradGradGradGradGradGradGrad
 Berny optimization.
 Using GEDIIS/GDIIS optimizer.
 FormGI is forming the generalized inverse of G from B-inverse, IUseBI=4.
 Internal  Forces:  Max     0.000120330 RMS     0.000054070
 Search for a local minimum.
 Step number   4 out of a maximum of   24
 All quantities printed in internal units (Hartrees-Bohrs-Radians)
 Mixed Optimization -- En-DIIS/RFO-DIIS
 Swapping is turned off.
 Update second derivatives using D2CorX and points    1    2    3    4
 DE= -1.30D-06 DEPred=-1.31D-06 R= 9.93D-01
 TightC=F SS=  1.41D+00  RLast= 4.65D-03 DXNew= 5.0454D-01 1.3942D-02
 Trust test= 9.93D-01 RLast= 4.65D-03 DXMaxT set to 3.00D-01
 The second derivative matrix:
                          R1        R2        R3        R4        R5
           R1           0.06267
           R2           0.00097   0.54538
           R3           0.00097   0.00548   0.54536
           R4           0.00065   0.00311   0.00311   0.50184
           R5          -0.00424  -0.01410  -0.01406  -0.01700   0.34041
           A1          -0.00027  -0.01216  -0.01219  -0.00959   0.02939
           A2          -0.00031  -0.01181  -0.01184  -0.00938   0.02793
           A3           0.00072   0.00200   0.00199   0.00262   0.01911
           A4          -0.00259  -0.00216  -0.00214  -0.00157   0.07601
           A5           0.00029   0.00089   0.00089   0.00090   0.00074
           A6          -0.00000   0.00001   0.00001   0.00000  -0.00004
           D1           0.00007   0.00257   0.00257   0.00171  -0.00819
           D2          -0.00008  -0.00261  -0.00262  -0.00174   0.00829
           D3          -0.00002   0.00162   0.00162   0.00119  -0.00467
                          A1        A2        A3        A4        A5
           A1           0.14966
           A2          -0.00967   0.15095
           A3          -0.00615  -0.00572   0.15563
           A4           0.02669   0.02673  -0.00334   0.24038
           A5          -0.00248  -0.00238  -0.00064  -0.00413   0.01210
           A6           0.00004   0.00004   0.00001  -0.00001   0.00000
           D1           0.00052   0.00044   0.00142  -0.00317   0.00044
           D2          -0.00056  -0.00048  -0.00144   0.00328  -0.00045
           D3           0.00200   0.00187   0.00116  -0.00263   0.00037
                          A6        D1        D2        D3
           A6           0.01201
           D1          -0.00001   0.00273
           D2           0.00001  -0.00042   0.00272
           D3          -0.00001  -0.00020   0.00020   0.01427
 ITU=  1  1  1  0
     Eigenvalues ---    0.00230   0.01184   0.01201   0.04007   0.06260
     Eigenvalues ---    0.12599   0.15415   0.20349   0.38100   0.50339
     Eigenvalues ---    0.53989   0.55523
 En-DIIS/RFO-DIIS/Sim-DIIS IScMMF=       -3 using points:     4    3    2
 RFO step:  Lambda=-2.91765012D-07.
 DidBck=F Rises=F RFO-DIIS coefs:    1.17217   -0.16458   -0.00759
 Iteration  1 RMS(Cart)=  0.00043491 RMS(Int)=  0.00000045
 Iteration  2 RMS(Cart)=  0.00000025 RMS(Int)=  0.00000034
 Variable       Old X    -DE/DX   Delta X   Delta X   Delta X     New X
                                 (Linear)    (Quad)   (Total)
    R1        3.36993  -0.00001   0.00003  -0.00015  -0.00012   3.36981
    R2        1.81935   0.00000   0.00007  -0.00003   0.00005   1.81940
    R3        1.81936   0.00000   0.00007  -0.00003   0.00005   1.81940
    R4        1.85683   0.00001   0.00007  -0.00001   0.00006   1.85689
    R5        2.70600   0.00012  -0.00008   0.00031   0.00023   2.70623
    A1        1.94962   0.00010   0.00013   0.00080   0.00093   1.95055
    A2        1.94880   0.00005   0.00012   0.00077   0.00090   1.94970
    A3        1.82870  -0.00007   0.00006  -0.00020  -0.00014   1.82856
    A4        1.69973   0.00006  -0.00041   0.00036  -0.00005   1.69968
    A5        3.05594  -0.00001   0.00047  -0.00076  -0.00030   3.05564
    A6        3.14129  -0.00000  -0.00001  -0.00001  -0.00002   3.14127
    D1        1.01089   0.00000   0.00019   0.00039   0.00058   1.01147
    D2       -1.01044  -0.00000  -0.00015  -0.00015  -0.00030  -1.01074
    D3       -2.11275  -0.00008  -0.00026  -0.00124  -0.00150  -2.11425
         Item               Value     Threshold  Converged?
 Maximum Force            0.000120     0.000450     YES
 RMS     Force            0.000054     0.000300     YES
 Maximum Displacement     0.000920     0.001800     YES
 RMS     Displacement     0.000435     0.001200     YES
 Predicted change in Energy=-1.459070D-07
 Optimization completed.
    -- Stationary point found.
                           ----------------------------
                           !   Optimized Parameters   !
                           ! (Angstroms and Degrees)  !
 --------------------------                            --------------------------
 ! Name  Definition              Value          Derivative Info.                !
 --------------------------------------------------------------------------------
 ! R1    R(1,3)                  1.7833         -DE/DX =    0.0                 !
 ! R2    R(1,5)                  0.9628         -DE/DX =    0.0                 !
 ! R3    R(1,6)                  0.9628         -DE/DX =    0.0                 !
 ! R4    R(2,3)                  0.9826         -DE/DX =    0.0                 !
 ! R5    R(2,4)                  1.432          -DE/DX =    0.0001              !
 ! A1    A(3,1,5)              111.7052         -DE/DX =    0.0001              !
 ! A2    A(3,1,6)              111.6579         -DE/DX =    0.0001              !
 ! A3    A(5,1,6)              104.7767         -DE/DX =   -0.0001              !
 ! A4    A(3,2,4)               97.3872         -DE/DX =    0.0001              !
 ! A5    L(1,3,2,4,-1)         175.0926         -DE/DX =    0.0                 !
 ! A6    L(1,3,2,4,-2)         179.9824         -DE/DX =    0.0                 !
 ! D1    D(5,1,2,4)             57.9198         -DE/DX =    0.0                 !
 ! D2    D(6,1,2,4)            -57.8939         -DE/DX =    0.0                 !
 ! D3    D(3,1,5,6)           -121.0518         -DE/DX =   -0.0001              !
 --------------------------------------------------------------------------------
 GradGradGradGradGradGradGradGradGradGradGradGradGradGradGradGradGradGrad

                          Input orientation:                          
 ---------------------------------------------------------------------
 Center     Atomic      Atomic             Coordinates (Angstroms)
 Number     Number       Type             X           Y           Z
 ---------------------------------------------------------------------
      1          8           0       -1.823664   -0.006499    0.000015
      2          8           0        0.835434    0.746133    0.000034
      3          1           0       -0.123347    0.531131    0.000195
      4          9           0        1.325813   -0.599239   -0.000174
      5          1           0       -2.022279   -0.559639    0.762572
      6          1           0       -2.021329   -0.559685   -0.762758
 ---------------------------------------------------------------------
                    Distance matrix (angstroms):
                    1          2          3          4          5
     1  O    0.000000
     2  O    2.763559   0.000000
     3  H    1.783290   0.982592   0.000000
     4  F    3.204769   1.431956   1.837879   0.000000
     5  H    0.962759   3.233114   2.318823   3.434104   0.000000
     6  H    0.962762   3.232354   2.318257   3.433141   1.525331
                    6
     6  H    0.000000
 Stoichiometry    FH3O2
 Framework group  C1[X(FH3O2)]
 Deg. of freedom    12
 Full point group                 C1      NOp   1
 Largest Abelian subgroup         C1      NOp   1
 Largest concise Abelian subgroup C1      NOp   1
                         Standard orientation:                         
 ---------------------------------------------------------------------
 Center     Atomic      Atomic             Coordinates (Angstroms)
 Number     Number       Type             X           Y           Z
 ---------------------------------------------------------------------
      1          8           0        1.818651    0.000705   -0.000057
      2          8           0       -0.842468    0.746157   -0.000076
      3          1           0        0.116890    0.533744   -0.000237
      4          9           0       -1.329214   -0.600533    0.000132
      5          1           0        2.018759   -0.551897   -0.762614
      6          1           0        2.017809   -0.551945    0.762717
 ---------------------------------------------------------------------
 Rotational constants (GHZ):          28.4997179           4.7335239           4.1372336

 **********************************************************************

            Population analysis using the SCF density.

 **********************************************************************

 Orbital symmetries:
       Occupied  (A) (A) (A) (A) (A) (A) (A) (A) (A) (A) (A) (A)
                 (A) (A)
       Virtual   (A) (A) (A) (A) (A) (A) (A) (A) (A) (A) (A) (A)
                 (A) (A) (A) (A) (A) (A) (A) (A) (A) (A) (A) (A)
                 (A) (A) (A) (A) (A) (A) (A) (A) (A) (A) (A) (A)
                 (A) (A) (A) (A) (A) (A) (A) (A) (A) (A) (A) (A)
                 (A) (A) (A) (A) (A) (A) (A) (A) (A) (A) (A) (A)
                 (A) (A) (A) (A) (A) (A) (A) (A) (A) (A) (A) (A)
                 (A) (A) (A) (A) (A) (A) (A) (A) (A) (A) (A) (A)
                 (A) (A) (A) (A) (A) (A) (A) (A) (A) (A) (A) (A)
                 (A) (A) (A) (A) (A) (A) (A) (A) (A) (A) (A) (A)
                 (A) (A) (A) (A) (A) (A) (A) (A) (A) (A) (A) (A)
                 (A) (A) (A) (A) (A) (A) (A) (A) (A) (A) (A) (A)
                 (A) (A) (A) (A) (A) (A) (A) (A) (A) (A) (A) (A)
                 (A) (A) (A) (A) (A) (A) (A) (A) (A) (A) (A) (A)
                 (A) (A) (A) (A) (A) (A) (A) (A) (A) (A) (A) (A)
                 (A) (A) (A) (A) (A) (A) (A) (A) (A) (A) (A) (A)
                 (A) (A) (A) (A) (A) (A) (A) (A) (A) (A) (A) (A)
                 (A)
 The electronic state is 1-A.
 Alpha  occ. eigenvalues --  -26.32027 -20.65939 -20.61277  -1.61875  -1.39960
 Alpha  occ. eigenvalues --   -1.28303  -0.76094  -0.75428  -0.69577  -0.66080
 Alpha  occ. eigenvalues --   -0.63675  -0.58367  -0.54886  -0.51458
 Alpha virt. eigenvalues --    0.01943   0.04173   0.06078   0.10456   0.13064
 Alpha virt. eigenvalues --    0.14927   0.15914   0.16373   0.17244   0.21180
 Alpha virt. eigenvalues --    0.21534   0.22128   0.22710   0.24454   0.25736
 Alpha virt. eigenvalues --    0.25812   0.27329   0.28433   0.35534   0.35891
 Alpha virt. eigenvalues --    0.37317   0.39393   0.40595   0.43560   0.44430
 Alpha virt. eigenvalues --    0.44521   0.47603   0.57200   0.58989   0.61379
 Alpha virt. eigenvalues --    0.65858   0.69472   0.71125   0.73385   0.76962
 Alpha virt. eigenvalues --    0.77815   0.80602   0.83222   0.83848   0.85032
 Alpha virt. eigenvalues --    0.87876   0.90232   0.91174   0.94493   0.96711
 Alpha virt. eigenvalues --    0.97731   0.97859   0.99192   1.00864   1.01507
 Alpha virt. eigenvalues --    1.01585   1.04331   1.09702   1.10015   1.10510
 Alpha virt. eigenvalues --    1.15348   1.17358   1.17846   1.22006   1.23026
 Alpha virt. eigenvalues --    1.23792   1.29061   1.31288   1.32310   1.42201
 Alpha virt. eigenvalues --    1.43277   1.44751   1.46419   1.55080   1.58342
 Alpha virt. eigenvalues --    1.62158   1.64326   1.68434   1.73944   1.80058
 Alpha virt. eigenvalues --    1.80897   1.84207   2.04051   2.06282   2.09084
 Alpha virt. eigenvalues --    2.13128   2.19240   2.25905   2.25918   2.31784
 Alpha virt. eigenvalues --    2.34155   2.41640   2.42014   2.45131   2.45797
 Alpha virt. eigenvalues --    2.49272   2.50304   2.56327   2.58564   2.59853
 Alpha virt. eigenvalues --    2.65475   2.67616   2.68414   2.73006   2.79405
 Alpha virt. eigenvalues --    2.79913   2.84024   2.88052   2.90567   2.94092
 Alpha virt. eigenvalues --    2.98898   2.99535   3.08572   3.09021   3.19569
 Alpha virt. eigenvalues --    3.20326   3.28736   3.35177   3.41072   3.54713
 Alpha virt. eigenvalues --    3.74084   3.79282   3.80904   3.86500   3.90500
 Alpha virt. eigenvalues --    4.04276   4.09574   4.17274   4.19555   4.22805
 Alpha virt. eigenvalues --    4.28152   4.29545   4.37666   4.45063   4.46311
 Alpha virt. eigenvalues --    4.49315   4.51265   4.60257   4.61516   4.73499
 Alpha virt. eigenvalues --    4.82026   4.87490   4.91868   5.12703   5.12926
 Alpha virt. eigenvalues --    5.14954   5.22370   5.26434   5.33177   5.33846
 Alpha virt. eigenvalues --    5.38939   5.45166   5.57752   5.71814   5.78451
 Alpha virt. eigenvalues --    6.08512   6.32111   6.34220   6.49706   6.69943
 Alpha virt. eigenvalues --    6.72139   6.76040   6.78671   6.91014   6.97959
 Alpha virt. eigenvalues --    7.14717   7.15665   7.23936   7.25383   7.28107
 Alpha virt. eigenvalues --    7.33617   7.35644   7.38821   7.40896   7.45688
 Alpha virt. eigenvalues --    7.47654   7.63024   7.75384   7.85239   7.91250
 Alpha virt. eigenvalues --    8.00447   8.32225   8.84837   8.88662   8.89856
 Alpha virt. eigenvalues --    8.98604   9.05060   9.21956   9.33459   9.36855
 Alpha virt. eigenvalues --    9.38513   9.42519   9.55908   9.68216  10.00902
 Alpha virt. eigenvalues --   14.48373  15.21641  16.41900
          Condensed to atoms (all electrons):
               1          2          3          4          5          6
     1  O    7.925656  -0.046494  -0.003045   0.004765   0.266374   0.266365
     2  O   -0.046494   8.059978   0.200359  -0.076572   0.000225   0.000226
     3  H   -0.003045   0.200359   0.425137  -0.001047   0.003495   0.003503
     4  F    0.004765  -0.076572  -0.001047   9.336416   0.001085   0.001088
     5  H    0.266374   0.000225   0.003495   0.001085   0.484449   0.021641
     6  H    0.266365   0.000226   0.003503   0.001088   0.021641   0.484429
 Mulliken charges:
               1
     1  O   -0.413620
     2  O   -0.137723
     3  H    0.371598
     4  F   -0.265734
     5  H    0.222732
     6  H    0.222748
 Sum of Mulliken charges =  -0.00000
 Mulliken charges with hydrogens summed into heavy atoms:
               1
     1  O    0.031859
     2  O    0.233875
     4  F   -0.265734
 Electronic spatial extent (au):  <R**2>=            271.7735
 Charge=             -0.0000 electrons
 Dipole moment (field-independent basis, Debye):
    X=              3.6266    Y=             -1.5021    Z=             -0.0001  Tot=              3.9254
 Quadrupole moment (field-independent basis, Debye-Ang):
   XX=            -16.4010   YY=            -17.1032   ZZ=            -15.2352
   XY=             -3.7399   XZ=             -0.0014   YZ=             -0.0005
 Traceless Quadrupole moment (field-independent basis, Debye-Ang):
   XX=             -0.1546   YY=             -0.8568   ZZ=              1.0113
   XY=             -3.7399   XZ=             -0.0014   YZ=             -0.0005
 Octapole moment (field-independent basis, Debye-Ang**2):
  XXX=              5.0934  YYY=             -3.0498  ZZZ=              0.0009  XYY=              2.1179
  XXY=             -9.6722  XXZ=             -0.0065  XZZ=              4.5786  YZZ=             -2.6531
  YYZ=              0.0001  XYZ=              0.0001
 Hexadecapole moment (field-independent basis, Debye-Ang**3):
 XXXX=           -214.8108 YYYY=            -42.2742 ZZZZ=            -13.5220 XXXY=            -17.6472
 XXXZ=             -0.0181 YYYX=              1.2372 YYYZ=              0.0016 ZZZX=              0.0030
 ZZZY=              0.0020 XXYY=            -41.9122 XXZZ=            -29.4500 YYZZ=             -9.5149
 XXYZ=              0.0037 YYXZ=              0.0008 ZZXY=             -2.4147
 N-N= 7.501587460269D+01 E-N=-7.482159349553D+02  KE= 2.505266577098D+02
 1\1\GINC-N2130\FOpt\RMP2-FC\Aug-CC-pVTZ\F1H3O2\GDS001\20-Dec-2021\0\\#
  MP2/aug-cc-pVTZ opt freq=(vibrot,anharmonic)\\bleh\\0,1\O,-1.82366358
 44,-0.0064988573,0.0000151814\O,0.8354343783,0.7461327976,0.0000344298
 \H,-0.1233465071,0.5311308518,0.0001953312\F,1.3258128642,-0.599239288
 8,-0.0001737245\H,-2.0222788973,-0.559638898,0.7625722216\H,-2.0213292
 538,-0.5596846052,-0.7627584395\\Version=ES64L-G16RevA.03\State=1-A\HF
 =-250.8782281\MP2=-251.6686455\RMSD=3.101e-09\RMSF=6.492e-05\Dipole=-1
 .3216735,-0.6805349,0.0000293\PG=C01 [X(F1H3O2)]\\@


 WHEN ALL ELSE FAILS, TRY THE BOSS'S SUGGESTION.
 Job cpu time:       0 days  0 hours 47 minutes 33.1 seconds.
 Elapsed time:       0 days  0 hours  2 minutes 27.7 seconds.
 File lengths (MBytes):  RWF=     80 Int=      0 D2E=      0 Chk=     12 Scr=      8
 Normal termination of Gaussian 16 at Mon Dec 20 12:19:21 2021.
 Link1:  Proceeding to internal job step number  2.
 ----------------------------------------------------------------------
 #N Geom=AllCheck Guess=TCheck SCRF=Check GenChk RMP2(FC)/Aug-CC-pVTZ F
 req
 ----------------------------------------------------------------------
 1/10=4,29=7,30=1,38=21,40=1,80=1/1,6,3;
 2/12=2,40=1/2;
 3/5=16,6=1,7=10,11=1,14=-4,25=1,30=1,70=2,71=2,116=1,140=1/1,2,3;
 4/5=101,69=2/1;
 5/5=2,38=6,98=1/2;
 8/6=3,8=1,10=1,19=11,30=-1/1;
 9/15=3,16=-3/6;
 11/6=1,8=1,15=11,17=12,24=-1,27=1,28=-2,29=300,32=6,42=3/1,2,10;
 10/6=2,21=1,60=-2/2;
 8/6=4,8=1,10=1,19=11,30=-1/11,4;
 10/5=1,20=4,60=-2/2;
 11/12=2,14=11,16=1,17=2,28=-2,42=3/2,10,12;
 6/7=2,8=2,9=2,10=2,22=-1/1;
 7/10=1,12=2,25=1,44=2,70=1,71=2/1,2,3,16;
 1/38=20,80=1/6(3);
 7/8=1,25=202,44=-1,70=1,71=1,92=10/16,17;
 1/10=4,30=1,38=20,80=1/3;
 99//99;
 3/5=16,6=1,7=10,11=1,14=-2,25=1,30=1,70=5,71=2,116=1,140=1/1,2,3;
 4/5=5,16=3,69=2/1;
 5/5=2,38=5,98=1/2;
 8/6=3,8=1,10=1,19=11,30=-1/1;
 9/15=3,16=-3/6;
 11/6=1,8=1,15=11,17=12,24=-1,27=1,28=-2,29=300,32=6,42=3/1,2,10;
 10/6=2,21=1,60=-2/2;
 8/6=4,8=1,10=1,19=11,30=-1/11,4;
 10/5=1,20=4,60=-2/2;
 11/12=2,14=11,16=1,17=2,28=-2,42=3/2,10,12;
 6/7=2,8=2,9=2,10=2,22=-1/1;
 7/7=1,10=1,12=2,25=1,44=2,70=1,71=1/1,2,3,16;
 1/38=20,80=1/6(-12);
 7/8=1,25=202,44=-1,70=1,71=1,92=10/16,17;
 1/10=4,30=1,38=20,80=1/3;
 99//99;
 Structure from the checkpoint file:  "/gscratch/scrubbed/gds001/Gau-1676.chk"
 ----
 bleh
 ----
 Charge =  0 Multiplicity = 1
 Redundant internal coordinates found in file.  (old form).
 O,0,-1.8236635844,-0.0064988573,0.0000151814
 O,0,0.8354343783,0.7461327976,0.0000344298
 H,0,-0.1233465071,0.5311308518,0.0001953312
 F,0,1.3258128642,-0.5992392888,-0.0001737245
 H,0,-2.0222788973,-0.559638898,0.7625722216
 H,0,-2.0213292538,-0.5596846052,-0.7627584395
 Recover connectivity data from disk.
 Numerical evaluation of third derivatives.
 Nuclear step= 0.010000 Angstroms, electric field step= 0.000333 atomic units, NStep=1.

 GradGradGradGradGradGradGradGradGradGradGradGradGradGradGradGradGradGrad
 Berny optimization.
 Initialization pass.
                           ----------------------------
                           !    Initial Parameters    !
                           ! (Angstroms and Degrees)  !
 --------------------------                            --------------------------
 ! Name  Definition              Value          Derivative Info.                !
 --------------------------------------------------------------------------------
 ! R1    R(1,3)                  1.7833         calculate D2E/DX2 analytically  !
 ! R2    R(1,5)                  0.9628         calculate D2E/DX2 analytically  !
 ! R3    R(1,6)                  0.9628         calculate D2E/DX2 analytically  !
 ! R4    R(2,3)                  0.9826         calculate D2E/DX2 analytically  !
 ! R5    R(2,4)                  1.432          calculate D2E/DX2 analytically  !
 ! A1    A(3,1,5)              111.7052         calculate D2E/DX2 analytically  !
 ! A2    A(3,1,6)              111.6579         calculate D2E/DX2 analytically  !
 ! A3    A(5,1,6)              104.7767         calculate D2E/DX2 analytically  !
 ! A4    A(3,2,4)               97.3872         calculate D2E/DX2 analytically  !
 ! A5    L(1,3,2,4,-1)         175.0926         calculate D2E/DX2 analytically  !
 ! A6    L(1,3,2,4,-2)         179.9824         calculate D2E/DX2 analytically  !
 ! D1    D(5,1,2,4)             57.9198         calculate D2E/DX2 analytically  !
 ! D2    D(6,1,2,4)            -57.8939         calculate D2E/DX2 analytically  !
 ! D3    D(3,1,5,6)           -121.0518         calculate D2E/DX2 analytically  !
 --------------------------------------------------------------------------------
 Trust Radius=3.00D-01 FncErr=1.00D-07 GrdErr=1.00D-07 EigMax=2.50D+02 EigMin=1.00D-04
 Number of steps in this run=      2 maximum allowed number of steps=      2.
 GradGradGradGradGradGradGradGradGradGradGradGradGradGradGradGradGradGrad

[...]
 0.00140749,0.00052812,-0.00000381,0.00323599,-0.00040593,-0.00000078,-
 0.00192962,0.00016124,0.00000046,0.00000015,0.00004205,0.00000178,-0.0
 0000384,-0.00411139,-0.00000080,-0.00000061,0.00160579,-0.00000156,0.0
 0000450,0.00254996,-0.14184868,0.04716916,-0.13753755,0.00070672,0.000
 03567,0.00044556,-0.00061102,0.00059971,-0.00095115,0.00005627,-0.0001
 1421,0.00002481,0.16022947,0.04757605,0.13983752,-0.30007826,0.0004156
 7,0.00010533,-0.00012883,-0.00020105,0.00011292,0.00026436,-0.00006159
 ,-0.00005498,-0.00000730,-0.04754450,-0.13490492,-0.13750764,-0.270638
 01,0.32743049,-0.00070645,-0.00032299,0.00068217,0.00100238,0.00109552
 ,-0.00147023,0.00007995,-0.00007791,-0.00004320,0.13760286,0.28494002,
 -0.36136996,-0.14147518,0.04650556,0.13638962,0.00069786,0.00003446,-0
 .00044416,-0.00059859,0.00060198,0.00094978,0.00005568,-0.00011328,-0.
 00002469,-0.01853276,-0.00018458,-0.00047111,0.15985299,0.04683399,0.1
 3921564,0.29896559,0.00041430,0.00010504,0.00012705,-0.00019649,0.0001
 1472,-0.00025902,-0.00006180,-0.00005490,0.00000711,-0.00014583,-0.005
 09587,-0.01499663,-0.04684416,-0.13428464,0.13635672,0.26952304,0.3263
 4990,0.00070545,0.00032122,0.00068000,-0.00099905,-0.00108729,-0.00146
 375,-0.00007914,0.00007713,-0.00004319,0.00041547,0.01501000,0.0347707
 3,-0.13639944,-0.28384410,-0.36029370,0.02735908,-0.00996871,-0.015741
 75,0.00003616,0.00002978,-0.02969432,-0.00692847,-0.00192313,0.0000018
 8,-0.01146949,-0.00255329,0.00039557,0.00000013,0.00018247,-0.00941302
 ,0.00000056,-0.00000013,0.00106048,0.00000938,0.00000205,0.00166789,-0
 .00409150,-0.00102787,-0.00000182,0.01975153,0.00698987,0.00000108,-0.
 01753869,-0.00062185,0.00011513,-0.00000015,0.00777040,-0.00262993,-0.
 00000109,-0.00532033,0.00207079,-0.00000135,-0.00000069,-0.00078454,-0
 .00001191,-0.00000166,-0.00144548,0.00000129,0.00000245,0.00234991,-0.
 00026608,-0.00041431,-0.00000048,-0.00054126,-0.00444726,-0.00001096,0
 .00095831,-0.00163102,0.00001221,-0.00002933,0.00022742,-0.00005613,0.
 00000026,-0.00604075,0.01142921,-0.00000102,-0.00075659,0.00069136,-0.
 00000034,0.00658109,-0.01206342,0.00000016,0.00000043,0.00009990,0.000
 00189,-0.00000025,-0.00129549,-0.00000154,-0.00000117,-0.00024810,-0.0
 0000074,0.00000122,0.00147019,-0.00803684,0.00668329,-0.00491091,-0.00
 040629,-0.00008611,-0.00014663,0.00045970,-0.00009838,0.00050541,-0.00
 006069,-0.00000561,-0.00000560,0.00717957,0.00647505,0.00764882,-0.013
 17994,0.00000556,0.00010918,0.00005948,0.00005714,-0.00012382,-0.00009
 430,-0.00004424,-0.00000054,-0.00003147,-0.00610130,-0.00707345,-0.004
 23184,-0.01158429,0.01467351,-0.00019536,-0.00011591,0.00000626,0.0004
 9757,0.00011527,0.00006452,-0.00002826,0.00000591,-0.00001324,0.004256
 79,0.01241224,-0.01409507,-0.00803619,0.00665073,0.00487517,-0.0004060
 0,-0.00008568,0.00014656,0.00046065,-0.00009883,-0.00050566,-0.0000609
 4,-0.00000556,0.00000583,0.00086456,-0.00039221,-0.00029890,0.00717792
 ,0.00644138,0.00763835,0.01314994,0.00000545,0.00010897,-0.00005928,0.
 00005778,-0.00012354,0.00009454,-0.00004426,-0.00000047,0.00003124,-0.
 00039189,-0.00056019,-0.00083322,-0.00606846,-0.00706312,0.00419631,0.
 01155491,0.01464498,0.00019411,0.00011564,0.00000631,-0.00049658,-0.00
 011531,0.00006368,0.00002823,-0.00000603,-0.00001323,0.00030093,0.0008
 3398,-0.00063599,-0.00422301,-0.01238322,-0.01406576,0.40832772,-0.327
 87511,-0.41264841,0.00022742,-0.00133024,-0.79695178,-0.00002090,0.000
 59851,-0.00000636,-0.00024722,0.00111751,0.00029679,-0.00000390,0.0009
 7785,-0.00394573,0.00000253,-0.00000127,-0.00160023,0.00000884,-0.0000
 0037,0.00037235,0.00119233,-0.00072707,0.00000970,-0.00124772,-0.00178
 063,0.00000044,0.00217756,-0.00611465,0.00224473,0.00000589,-0.0013216
 0,-0.00044637,0.00000191,0.00598813,0.00129672,-0.00000499,0.00000228,
 0.00456080,-0.00001248,0.00000103,0.00057053,0.00000349,0.00000076,-0.
 00297047,-0.00067320,0.00003736,0.00000071,-0.00016556,-0.00054970,-0.
 00000877,0.00082832,-0.00033261,0.00001008,-0.00013462,0.00100432,-0.0
 0069251,0.00000055,-0.00160527,0.00346117,-0.00000094,0.00039017,0.000
 12135,-0.00000058,0.00097034,-0.00306104,0.00000060,0.00000055,0.00002
 790,0.00000338,0.00000017,-0.00011979,-0.00000298,-0.00000167,-0.00009
 249,-0.00000142,0.00000140,0.00013901,-0.20393465,0.16402616,-0.114571
 12,0.00084007,0.00011808,0.00077100,-0.00147294,0.00088870,-0.00172633
 ,0.00007169,-0.00037933,-0.00007709,0.18778418,0.16597890,0.20506675,-
 0.35518547,0.00067302,0.00031608,-0.00041595,-0.00193190,-0.00160615,0
 .00136149,-0.00006226,0.00008553,0.00001678,-0.15260402,-0.18939452,-0
 .10307391,-0.31302040,0.39620791,0.00016243,0.00002284,0.00038846,-0.0
 0007908,0.00065609,-0.00103373,0.00004501,-0.00010278,0.00002268,0.109
 25672,0.33334600,-0.37803460,-0.20489131,0.16394015,0.11433965,0.00084
 133,0.00011690,-0.00077404,-0.00147756,0.00089202,0.00173024,0.0000733
 7,-0.00038022,0.00007750,0.01671165,-0.01205374,-0.00631118,0.18874251
 ,0.16588904,0.20573265,0.35651318,0.00067749,0.00031806,0.00041663,-0.
 00193871,-0.00161028,-0.00136498,-0.00006313,0.00008550,-0.00001723,-0
 .01204958,-0.01446769,-0.02090176,-0.15251512,-0.19005825,0.10284835,0
 .31434908,0.39775542,-0.00015581,-0.00001977,0.00038867,0.00006843,-0.
 00066298,-0.00103464,-0.00004561,0.00010234,0.00002270,0.00634681,0.02
 087715,-0.01755072,-0.10906217,-0.33464584,-0.37958143,0.03527596,-0.0
 1489962,-0.05260724,0.00010236,-0.00000099,-0.13919616,-0.00138349,0.0
 0029621,0.00000030,-0.98906751,0.00054756,-0.00000439,-0.00000029,-0.2
 6132014,0.02577751,0.00000356,-0.00000032,-0.00184963,0.00025382,0.000
 02952,0.36706459,-0.00063260,0.00090709,0.00000375,0.96359082,0.224590
 23,-0.00023753,-0.95308338,-0.00558171,0.00357350,-0.00000016,0.271675
 82,-0.02056951,-0.00002492,-0.23428386,0.01600438,-0.00000429,0.000001
 08,0.02137730,-0.00024678,-0.00001671,-0.34608115,0.00023209,0.0000208
 3,0.32005128,0.00062522,-0.00054518,-0.00000047,0.02513696,0.03543966,
 -0.00001919,-0.00261153,-0.03000483,0.00001724,-0.02267442,-0.00004817
 ,-0.00004451,-0.00000004,-0.01070573,-0.00552019,-0.00000504,0.0155787
 9,0.00228022,-0.00000316,-0.00480863,0.00339075,0.00000019,0.00000048,
 -0.00019993,-0.00000808,-0.00001332,-0.01910301,0.00000455,0.00000471,
 0.00615235,0.00000273,0.00000836,0.01315536,-0.01691425,0.00715129,-0.
 01656550,0.00086030,0.00037092,0.00053742,-0.00363194,-0.00090112,-0.0
 0614726,-0.00023800,-0.00000827,0.00002231,0.02261235,0.01002036,0.024
 54094,-0.04991550,0.00002661,0.00015786,0.00046900,-0.00339371,-0.0006
 4338,-0.00090840,-0.00004038,-0.00005305,0.00003827,-0.00628904,-0.022
 84504,-0.02347484,-0.04753960,0.05991744,0.00028347,-0.00012462,-0.000
 01534,-0.00004678,0.00042520,-0.00075527,0.00013870,-0.00000221,-0.000
 00231,0.02262943,0.04877949,-0.06457830,-0.01697083,0.00709022,0.01645
 955,0.00086292,0.00037177,-0.00053808,-0.00363138,-0.00090430,0.006149
 00,-0.00023822,-0.00000799,-0.00002169,-0.00268846,-0.00032384,0.00047
 002,0.02266597,0.00996158,0.02454169,0.04991700,0.00002723,0.00015872,
 -0.00046824,-0.00339854,-0.00064521,0.00090636,-0.00004064,-0.00005323
 ,-0.00003850,-0.00032377,-0.00115732,-0.00153826,-0.00622585,-0.022844
 65,0.02337303,0.04753935,0.05995100,-0.00028273,0.00012542,-0.00001547
 ,0.00004391,-0.00042566,-0.00074451,-0.00013901,0.00000208,-0.00000245
 ,-0.00047640,0.00153715,0.00543378,-0.02251880,-0.04877835,-0.06462234
 ,-0.00021946,0.00027298,-0.00010208,0.00000020,0.00000082,-0.00033221,
 0.00047489,0.00027371,0.00000068,-0.03295946,-0.00034081,0.00021069,-0
 .00000046,-0.11461701,0.25393659,-0.00000029,-0.00000061,0.00019850,-0
 .00000791,0.00005361,-0.04341323,-0.00103854,-0.00061540,0.00000026,0.
 03321470,0.00645295,0.00000033,-0.02975930,-0.00026301,-0.00000065,0.0
 0000049,0.00661138,-0.00736736,-0.00000362,-0.01350041,0.00889335,0.00
 000012,0.00000035,0.00026051,-0.00001460,-0.00000482,-0.00588847,-0.00
 000017,0.00000641,0.00418406,0.00062848,-0.00002660,-0.00000057,-0.000
 88211,0.10834854,0.00000818,-0.00224139,0.00713040,0.00001441,0.002614
 94,0.00017142,-0.00023493,0.00000032,0.10761946,-0.24656040,-0.0000496
 3,0.00765127,-0.00157368,-0.00000207,-0.11530975,0.24813248,0.00000018
 ,0.00000041,-0.00023963,0.00002188,-0.00004854,0.04917054,-0.00000018,
 -0.00000320,0.00146986,-0.00002201,0.00005159,-0.05047741,0.00007741,0
 .00004775,0.00008848,0.00007594,0.00007798,-0.00006280,-0.00008786,0.0
 0001084,-0.00006289,-0.00005977,-0.00006616,0.00009256,0.00000190,0.00
 007979,0.00006403,0.00003532,0.00005625,-0.00010974,-0.00003181,0.0000
 0550,0.00002411,-0.00002123,-0.00007120,0.00011818,0.00001596,-0.00008
 840,-0.00007503,-0.00000335,-0.00003357,0.00005686,0.00001088,0.000020
 82,-0.00003369,-0.00004692,0.00001824,-0.00001293,0.00005978,-0.000040
 41,0.00003828,-0.00003826,0.00001814,-0.00005559,0.00007722,0.00004756
 ,-0.00008904,0.00007605,0.00007835,0.00006250,-0.00008763,0.00001080,0
 .00006314,-0.00006017,-0.00006624,-0.00009243,-0.00000762,0.00001806,0
 .00001786,0.00000215,0.00007963,0.00006295,-0.00003649,0.00005621,-0.0
 0010978,0.00003207,0.00000609,0.00002423,0.00002136,-0.00007138,0.0001
 1835,-0.00001622,0.00001798,-0.00002155,0.00001679,-0.00008854,-0.0000
 7420,0.00000315,0.00003260,0.00005597,-0.00001092,-0.00002061,-0.00003
 367,0.00004668,-0.00001831,-0.00001302,-0.00005979,0.00004021,0.000038
 37,-0.00001709,-0.00001638,0.00000707,0.00003797,-0.00001752,-0.000054
 72,-0.01825216,0.00122784,-0.00734902,-0.00000132,-0.00000202,-0.00743
 968,-0.00392987,-0.00018061,-0.00000034,-1.05194435,-0.00298584,-0.000
 01773,-0.00000068,-0.31611969,0.14004813,0.00000145,-0.00000005,-0.000
 62158,0.00017534,0.00007483,0.04142241,0.01105622,-0.00344836,0.000005
 75,0.99096521,0.20480957,-0.00017352,-0.94654294,-0.00404650,0.0016019
 6,0.00000222,0.35886023,-0.10012223,-0.00007372,-0.29493966,0.09504083
 ,-0.00000205,0.00000193,0.00406077,-0.00017212,-0.00004654,-0.08337345
 ,0.00015780,0.00006202,0.07534813,0.00153161,-0.00059102,-0.00000064,0
 .06477080,0.11332542,-0.00000354,-0.05040909,-0.06101098,0.00001595,-0
 .01552386,-0.00012187,0.00002557,0.00000038,-0.04208584,-0.04048923,-0
 .00000113,0.09365111,0.00098982,-0.00001843,-0.05161344,0.03927384,-0.
 00000038,0.00000042,-0.00007058,-0.00000325,-0.00002813,0.04243785,0.0
 0001516,0.00000821,0.00425688,-0.00001175,0.00001943,-0.04660360,0.004
 79582,0.00150174,0.00198525,0.00006856,0.00048406,-0.00009635,-0.00253
 445,0.00056544,-0.00118114,-0.00018437,0.00008526,0.00008397,-0.002032
 34,0.00296656,0.00286754,-0.00462448,-0.00023720,0.00029052,0.00009302
 ,-0.00003789,0.00124501,-0.00044564,-0.00005493,0.00010001,-0.00009013
 ,-0.00260374,-0.00339239,-0.00096454,-0.00389479,0.00203695,0.00020609
 ,0.00037951,0.00006717,0.00058667,0.00005891,-0.00014652,-0.00000325,-
 0.00018586,-0.00001027,-0.00030899,0.00435434,-0.00225571,0.00479839,0
 .00149041,-0.00198870,0.00006964,0.00048648,0.00009662,-0.00253495,0.0
 0057146,0.00118156,-0.00018511,0.00008477,-0.00008375,-0.00011322,-0.0
 0003280,0.00048401,-0.00203475,0.00295980,0.00287168,0.00462460,-0.000
 23689,0.00029053,-0.00009295,-0.00003478,0.00124461,0.00044666,-0.0000
 5505,0.00009998,0.00009019,-0.00003276,-0.00111069,-0.00071212,-0.0026
 0033,-0.00339612,0.00096685,0.00389451,0.00203414,-0.00020572,-0.00037
 899,0.00006758,-0.00059186,-0.00005764,-0.00014582,0.00000322,0.000185
 61,-0.00001026,-0.00048275,0.00071289,0.00030836,0.00031027,-0.0043563
 9,-0.00225401,-0.06170543,-0.23486963,-0.61519607,0.00028008,-0.000170
 43,-0.52936812,-0.00179271,-0.00058270,-0.00000291,-0.01003827,-0.0006
 2755,-0.00011676,-0.00000131,-0.00420819,-0.00045779,0.00000031,-0.000
 00070,-0.00053315,0.00000466,0.00000710,0.00008770,0.00325612,0.002773
 47,0.00000657,0.00963371,0.00394564,0.00000674,-0.00754602,0.00029996,
 0.00012431,0.00000104,0.00554685,0.00045465,-0.00000307,-0.00530157,-0
 .00239604,-0.00000171,0.00000095,0.00231698,-0.00000817,-0.00000430,-0
 .00020992,-0.00000400,0.00000426,-0.00003914,0.00008058,0.00001960,-0.
 00000028,0.00072381,0.00060305,-0.00001081,-0.00071460,-0.00079427,0.0
 0001310,-0.00003725,0.00002489,0.00024646,0.00000079,-0.00099845,0.000
 31450,-0.00000346,0.00117002,0.00025265,-0.00000052,0.00009359,-0.0005
 3612,0.00000024,0.00000042,0.00008568,0.00000303,-0.00000242,0.0002027
 1,-0.00000149,-0.00000168,0.00002623,-0.00000192,0.00000389,-0.0002395
 8,0.03024734,0.11650102,-0.15724573,0.00073682,0.00014338,-0.00000086,
 -0.00231480,0.00012423,0.00020136,-0.00002613,-0.00014493,-0.00001418,
 -0.02306190,0.11784380,0.30744612,-0.42347612,0.00012069,-0.00009753,-
 0.00003722,-0.00129328,0.00078171,0.00007350,0.00003907,-0.00013868,-0
 .00005191,-0.09866949,-0.26331945,-0.10664544,-0.28488209,0.26359216,-
 0.00023292,-0.00016642,0.00022661,0.00074930,0.00024100,-0.00104746,-0
 .00003230,0.00002220,-0.00003749,0.13160592,0.35414983,-0.24762465,0.0
 2991409,0.11615825,0.15696226,0.00073665,0.00014367,-0.00000003,-0.002
 31442,0.00012480,-0.00020057,-0.00002640,-0.00014511,0.00001432,-0.005
 58133,-0.01804079,-0.02544455,-0.02272860,0.11732853,0.30749592,0.4236
 4603,0.00012181,-0.00009707,0.00003734,-0.00129428,0.00078272,-0.00007
 389,0.00003896,-0.00013881,0.00005171,-0.01795420,-0.04467217,-0.06936
 453,-0.09824082,-0.26337058,0.10636653,0.28505185,0.26390645,0.0002363
 2,0.00016736,0.00022604,-0.00075711,-0.00024154,-0.00104668,0.00003220
 ,-0.00002291,-0.00003753,0.02545350,0.06934192,-0.01510918,-0.13133144
 ,-0.35429668,-0.24793910,0.00613869,-0.01109942,-0.00336375,0.00001433
 ,0.00000375,0.04026203,-0.01604247,-0.00750680,0.00000051,5.58164961,-
 0.01016847,-0.00471886,-0.00000050,1.55497832,-0.80568646,0.00000315,0
 .00000122,0.00217185,-0.00114574,-0.00024782,-1.24799965,0.03048671,0.
 02165866,-0.00001313,-5.57359694,-1.50164567,0.00115799,5.52408173,0.0
 2355412,-0.00043361,-0.00000091,-1.54289400,0.79222961,0.00024736,1.49
 172884,-0.77306681,-0.00000500,-0.00000411,-0.02640173,0.00114699,0.00
 024144,1.24994682,-0.00115101,-0.00023400,-1.22468238,0.00064286,-0.00
 118372,-0.00000075,0.00998169,-0.04092301,-0.00001659,0.00427726,0.030
 61976,0.00001510,-0.01462616,0.00638693,0.00299616,0.00000041,-0.00529
 135,0.01857914,-0.00000128,-0.01474826,-0.01351100,-0.00000003,0.01175
 724,-0.00833802,0.00000074,0.00000105,-0.00042861,0.00000046,0.0000075
 3,-0.00326460,-0.00000422,-0.00000912,-0.00244427,0.00000234,0.0000007
 0,0.00615360,-0.01060703,-0.00094032,-0.01089456,-0.00099461,-0.001120
 87,-0.00084164,0.00737369,-0.00150076,0.00831350,-0.00013771,0.0009482
 5,0.00006878,0.00342126,-0.00433500,0.00276477,0.00433639,0.00035747,-
 0.00020211,-0.00019623,0.00150296,-0.00260959,0.00072282,-0.00013506,0
 .00013715,0.00002590,0.00179112,-0.00149401,-0.00469658,0.00531660,-0.
 00780809,-0.00134266,-0.00059550,-0.00042672,0.00722223,0.00187825,0.0
 0179558,-0.00002494,0.00038238,-0.00000799,0.00109761,-0.00593632,0.00
 623861,-0.01061878,-0.00092841,0.01089359,-0.00099728,-0.00112030,0.00
 084283,0.00737755,-0.00150796,-0.00831958,-0.00013794,0.00094719,-0.00
 006809,0.00094441,0.00081851,-0.00225566,0.00343203,-0.00433816,0.0027
 5530,-0.00433912,0.00035636,-0.00020133,0.00019675,0.00150348,-0.00260
 862,-0.00072612,-0.00013521,0.00013655,-0.00002606,0.00082258,0.001403
 77,-0.00104542,0.00179096,-0.00148569,0.00468336,-0.00531850,-0.007795
 44,0.00134044,0.00059484,-0.00042769,-0.00721187,-0.00188159,0.0017859
 8,0.00002485,-0.00038218,-0.00000811,0.00225631,0.00104744,0.00020860,
 -0.00109309,0.00593998,0.00623666,-1.00506540,0.93984122,1.30356975,-0
 .00256234,0.00172019,3.66345448,0.00104729,0.00029423,0.00000148,0.012
 93177,0.00010389,-0.00022427,-0.00000016,0.00361964,-0.00299547,-0.000
 00061,-0.00000055,0.00000701,0.00000127,0.00000546,-0.00255453,-0.0006
 5808,0.00009897,-0.00000084,-0.01428655,-0.00377266,0.00000971,0.01689
 292,0.00111007,-0.00050528,0.00000115,-0.00346689,0.00202550,-0.000001
 64,0.00426555,-0.00271207,0.00000103,-0.00000011,-0.00070576,-0.000004
 42,-0.00000275,0.00313898,-0.00000888,0.00000206,-0.00496486,0.0002454
 4,0.00007692,-0.00000070,-0.00015770,-0.00036213,-0.00001055,-0.000074
 96,0.00007043,0.00001284,0.00007031,-0.00037239,0.00026627,-0.00000002
 ,-0.00051813,0.00102771,-0.00000347,0.00042202,0.00006471,-0.00000040,
 0.00028697,-0.00101484,0.00000029,0.00000037,-0.00005812,0.00000287,-0
 .00000242,-0.00018277,-0.00000145,-0.00000155,0.00004747,-0.00000183,0
 .00000379,0.00016047,0.50127225,-0.47108221,0.64768014,0.00023182,0.00
 020508,-0.00012355,-0.00093485,-0.00098850,0.00042739,-0.00004141,0.00
 009082,0.00001964,-0.53437177,-0.47131901,-0.65125319,1.82342327,0.000
 03587,0.00008330,0.00005191,-0.00050753,0.00056333,-0.00028747,-0.0000
 3607,-0.00017204,-0.00003904,0.47292256,0.62012048,0.61969701,1.740029
 67,-1.83014238,0.00058156,0.00028715,-0.00020470,-0.00171757,-0.000745
 13,0.00124247,0.00007235,-0.00016426,0.00001639,-0.63336892,-1.7812836
 2,1.87072881,0.50315851,-0.46922912,-0.64511774,0.00023337,0.00020619,
 0.00012373,-0.00093849,-0.00099066,-0.00042796,-0.00004169,0.00009070,
 -0.00001951,0.03384395,-0.00109583,0.01473556,-0.53625565,-0.46936377,
 -0.65185325,-1.82514442,0.00003528,0.00008323,-0.00005171,-0.00050635,
 0.00056381,0.00028867,-0.00003612,-0.00017181,0.00003885,-0.00114775,0
 .03065812,0.04187619,0.47101872,0.62071989,-0.61713538,-1.74174957,-1.
 83255521,-0.00058275,-0.00028728,-0.00020401,0.00171904,0.00074512,0.0
 0124170,-0.00007211,0.00016435,0.00001657,-0.01463471,-0.04186505,-0.0
 4164060,0.63070592,1.78299241,1.87314153,-1.11675410,1.06508129,1.4855
 4913,-0.00336408,-0.00040547,3.58314752,0.00075458,0.00068049,0.000002
 17,-0.00035381,-0.00010458,-0.00000807,-0.00000004,-0.00009893,-0.0000
 0148,-0.00000071,-0.00000086,0.00055661,0.00000371,0.00000607,-0.00042
 332,0.00073912,-0.00140730,-0.00000011,0.00068396,0.00015887,0.0000067
 3,-0.00160963,0.00117321,-0.00206827,0.00000224,-0.00020701,-0.0001570
 3,-0.00000242,0.00021608,0.00084118,0.00000098,0.00000126,-0.00239100,
 -0.00000697,-0.00000346,0.00024940,-0.00000621,0.00000307,-0.00021522,
 0.00006641,-0.00005094,-0.00000066,-0.00011123,-0.00008728,-0.00001023
 ,0.00007120,0.00027292,0.00001257,-0.00002483,-0.00008952,0.00046893,-
 0.00000022,0.00015969,0.00002654,-0.00000355,-0.00019884,-0.00014482,-
 0.00000034,-0.00008185,0.00003286,0.00000038,0.00000038,0.00000783,0.0
 0000302,-0.00000233,0.00015144,-0.00000161,-0.00000166,-0.00005859,-0.
 00000195,0.00000378,-0.00012253,0.55691101,-0.53347760,0.68135510,-0.0
 0048756,0.00006558,-0.00021297,0.00005839,-0.00072749,0.00047604,-0.00
 000067,0.00010524,-0.00000563,-0.55320027,-0.53435409,-0.74206680,1.90
 888928,-0.00026673,0.00007011,0.00041250,0.00061550,0.00076421,-0.0011
 0332,-0.00002647,-0.00019175,0.00000585,0.53087404,0.73671116,0.683859
 64,1.91236547,-1.79046842,0.00003153,-0.00000143,-0.00026747,-0.000358
 15,-0.00008875,0.00120855,-0.00000629,-0.00004577,0.00001088,-0.682562
 35,-1.91021102,1.78543219,0.55828296,-0.53082595,-0.67799242,-0.000485
 94,0.00006634,0.00021347,0.00005695,-0.00072773,-0.00047641,-0.0000008
 8,0.00010527,0.00000579,-0.00328090,0.00315775,-0.00096439,-0.55457220
 ,-0.53170632,-0.74187492,-1.90848578,-0.00026751,0.00006992,-0.0004117
 3,0.00061568,0.00076472,0.00110278,-0.00002639,-0.00019176,-0.00000602
 ,0.00316023,0.00471307,-0.00201850,0.52822430,0.73651897,-0.68049621,-
 1.91196080,-1.79085254,-0.00003345,0.00000119,-0.00026668,0.00035934,0
 .00008752,0.00120686,0.00000655,0.00004610,0.00001100,0.00094982,0.002
 00673,0.00408427,0.67921395,1.90981924,1.78581709\\@


 YOU CAN LEAD A BOY TO COLLEGE....
 BUT YOU CANNOT MAKE HIM THINK....
           ELBERT HUBBARD
 Job cpu time:       2 days 13 hours  3 minutes 55.3 seconds.
 Elapsed time:       0 days  2 hours 13 minutes 17.2 seconds.
 File lengths (MBytes):  RWF=   6380 Int=      0 D2E=      0 Chk=     52 Scr=      8
 Normal termination of Gaussian 16 at Mon Dec 20 14:33:05 2021.
