 Entering Gaussian System, Link 0=g16
 Input=ofh_h2o_mp2_avdz_opt_anharm.gjf
 Output=ofh_h2o_mp2_avdz_opt_anharm.log
 Initial command:
 /sw/contrib/gaussian/g16/A03/g16/l1.exe "/gscratch/scrubbed/gds001/Gau-9596.inp" -scrdir="/gscratch/scrubbed/gds001/"
 Entering Link 1 = /sw/contrib/gaussian/g16/A03/g16/l1.exe PID=      9597.
  
 Copyright (c) 1988,1990,1992,1993,1995,1998,2003,2009,2016,
            Gaussian, Inc.  All Rights Reserved.
  
 This is part of the Gaussian(R) 16 program.  It is based on
 the Gaussian(R) 09 system (copyright 2009, Gaussian, Inc.),
 the Gaussian(R) 03 system (copyright 2003, Gaussian, Inc.),
 the Gaussian(R) 98 system (copyright 1998, Gaussian, Inc.),
 the Gaussian(R) 94 system (copyright 1995, Gaussian, Inc.),
 the Gaussian 92(TM) system (copyright 1992, Gaussian, Inc.),
 the Gaussian 90(TM) system (copyright 1990, Gaussian, Inc.),
 the Gaussian 88(TM) system (copyright 1988, Gaussian, Inc.),
 the Gaussian 86(TM) system (copyright 1986, Carnegie Mellon
 University), and the Gaussian 82(TM) system (copyright 1983,
 Carnegie Mellon University). Gaussian is a federally registered
 trademark of Gaussian, Inc.
  
 This software contains proprietary and confidential information,
 including trade secrets, belonging to Gaussian, Inc.
  
 This software is provided under written license and may be
 used, copied, transmitted, or stored only in accord with that
 written license.
  
 The following legend is applicable only to US Government
 contracts under FAR:
  
                    RESTRICTED RIGHTS LEGEND
  
 Use, reproduction and disclosure by the US Government is
 subject to restrictions as set forth in subparagraphs (a)
 and (c) of the Commercial Computer Software - Restricted
 Rights clause in FAR 52.227-19.
  
 Gaussian, Inc.
 340 Quinnipiac St., Bldg. 40, Wallingford CT 06492
  
  
 ---------------------------------------------------------------
 Warning -- This program may not be used in any manner that
 competes with the business of Gaussian, Inc. or will provide
 assistance to any competitor of Gaussian, Inc.  The licensee
 of this program is prohibited from giving any competitor of
 Gaussian, Inc. access to this program.  By using this program,
 the user acknowledges that Gaussian, Inc. is engaged in the
 business of creating and licensing software in the field of
 computational chemistry and represents and warrants to the
 licensee that it is not a competitor of Gaussian, Inc. and that
 it will not use this program in any manner prohibited above.
 ---------------------------------------------------------------
  

 Cite this work as:
 Gaussian 16, Revision A.03,
 M. J. Frisch, G. W. Trucks, H. B. Schlegel, G. E. Scuseria, 
 M. A. Robb, J. R. Cheeseman, G. Scalmani, V. Barone, 
 G. A. Petersson, H. Nakatsuji, X. Li, M. Caricato, A. V. Marenich, 
 J. Bloino, B. G. Janesko, R. Gomperts, B. Mennucci, H. P. Hratchian, 
 J. V. Ortiz, A. F. Izmaylov, J. L. Sonnenberg, D. Williams-Young, 
 F. Ding, F. Lipparini, F. Egidi, J. Goings, B. Peng, A. Petrone, 
 T. Henderson, D. Ranasinghe, V. G. Zakrzewski, J. Gao, N. Rega, 
 G. Zheng, W. Liang, M. Hada, M. Ehara, K. Toyota, R. Fukuda, 
 J. Hasegawa, M. Ishida, T. Nakajima, Y. Honda, O. Kitao, H. Nakai, 
 T. Vreven, K. Throssell, J. A. Montgomery, Jr., J. E. Peralta, 
 F. Ogliaro, M. J. Bearpark, J. J. Heyd, E. N. Brothers, K. N. Kudin, 
 V. N. Staroverov, T. A. Keith, R. Kobayashi, J. Normand, 
 K. Raghavachari, A. P. Rendell, J. C. Burant, S. S. Iyengar, 
 J. Tomasi, M. Cossi, J. M. Millam, M. Klene, C. Adamo, R. Cammi, 
 J. W. Ochterski, R. L. Martin, K. Morokuma, O. Farkas, 
 J. B. Foresman, and D. J. Fox, Gaussian, Inc., Wallingford CT, 2016.
 
 ******************************************
 Gaussian 16:  ES64L-G16RevA.03 25-Dec-2016
                17-Dec-2021 
 ******************************************
 %nprocshared=28
 Will use up to   28 processors via shared memory.
 %mem=41GB
 --------------------------------------------------------------
 # MP2/aug-cc-pVDZ opt=(MaxCycles=100) freq=(vibrot,anharmonic)
 --------------------------------------------------------------
 1/6=100,18=20,19=15,38=1,80=1/1,3;
 2/9=110,12=2,17=6,18=5,40=1/2;
 3/5=16,7=10,11=9,25=1,30=1,71=1/1,2,3;
 4//1;
 5/5=2,38=5/2;
 8/6=4,10=1/1;
 9/15=2,16=-3/6;
 10/5=1/2;
 6/7=2,8=2,9=2,10=2/1;
 7/12=2/1,2,3,16;
 1/6=100,18=20,19=15,80=1/3(2);
 2/9=110/2;
 99//99;
 2/9=110/2;
 3/5=16,7=10,11=9,25=1,30=1,71=1/1,2,3;
 4/5=5,16=3,69=1/1;
 5/5=2,38=5/2;
 8/6=4,10=1/1;
 9/15=2,16=-3/6;
 10/5=1/2;
 7/12=2/1,2,3,16;
 1/6=100,18=20,19=15,80=1/3(-8);
 2/9=110/2;
 6/7=2,8=2,9=2,10=2/1;
 99//99;
 ----
 bleh
 ----
 Symbolic Z-matrix:
 Charge =  0 Multiplicity = 1
 O                    -0.02712   3.59894  -0.08838 
 O                    -0.38583   5.74712  -1.60667 
 H                    -0.24984   4.95144  -1.04342 
 F                    -1.72571   5.81958  -2.04304 
 H                     0.75912   3.24775   0.36584 
 H                    -0.71321   2.94863   0.14564 
 
 Add virtual bond connecting atoms H3         and O1         Dist= 3.16D+00.

 GradGradGradGradGradGradGradGradGradGradGradGradGradGradGradGradGradGrad
 Berny optimization.
 Initialization pass.
                           ----------------------------
                           !    Initial Parameters    !
                           ! (Angstroms and Degrees)  !
 --------------------------                            --------------------------
 ! Name  Definition              Value          Derivative Info.                !
 --------------------------------------------------------------------------------
 ! R1    R(1,3)                  1.6706         estimate D2E/DX2                !
 ! R2    R(1,5)                  0.9736         estimate D2E/DX2                !
 ! R3    R(1,6)                  0.9739         estimate D2E/DX2                !
 ! R4    R(2,3)                  0.9843         estimate D2E/DX2                !
 ! R5    R(2,4)                  1.411          estimate D2E/DX2                !
 ! A1    A(3,1,5)              131.7912         estimate D2E/DX2                !
 ! A2    A(3,1,6)              125.7366         estimate D2E/DX2                !
 ! A3    A(5,1,6)              102.4722         estimate D2E/DX2                !
 ! A4    A(3,2,4)              110.4674         estimate D2E/DX2                !
 ! A5    L(1,3,2,4,-1)         179.7125         estimate D2E/DX2                !
 ! A6    L(1,3,2,4,-2)         179.9965         estimate D2E/DX2                !
 ! D1    D(5,1,2,4)            179.6758         estimate D2E/DX2                !
 ! D2    D(6,1,2,4)             -0.2887         estimate D2E/DX2                !
 ! D3    D(3,1,5,6)           -179.97           estimate D2E/DX2                !
 --------------------------------------------------------------------------------
 Trust Radius=3.00D-01 FncErr=1.00D-07 GrdErr=1.00D-07 EigMax=2.50D+02 EigMin=1.00D-04
 Number of steps in this run=    100 maximum allowed number of steps=    100.
 GradGradGradGradGradGradGradGradGradGradGradGradGradGradGradGradGradGrad

                          Input orientation:                          
 ---------------------------------------------------------------------
 Center     Atomic      Atomic             Coordinates (Angstroms)
 Number     Number       Type             X           Y           Z
 ---------------------------------------------------------------------
      1          8           0       -0.027118    3.598941   -0.088377
      2          8           0       -0.385828    5.747122   -1.606668
      3          1           0       -0.249841    4.951439   -1.043421
      4          9           0       -1.725708    5.819585   -2.043037
      5          1           0        0.759124    3.247751    0.365843
      6          1           0       -0.713214    2.948635    0.145642
 ---------------------------------------------------------------------
                    Distance matrix (angstroms):
                    1          2          3          4          5
     1  O    0.000000
     2  O    2.654912   0.000000
     3  H    1.670618   0.984302   0.000000
     4  F    3.411328   1.411009   1.982698   0.000000
     5  H    0.973564   3.383573   2.430347   4.311777   0.000000
     6  H    0.973854   3.318027   2.374829   3.749375   1.518466
                    6
     6  H    0.000000
 Stoichiometry    FH3O2
 Framework group  C1[X(FH3O2)]
 Deg. of freedom    12
 Full point group                 C1      NOp   1
 Largest Abelian subgroup         C1      NOp   1
 Largest concise Abelian subgroup C1      NOp   1
                         Standard orientation:                         
 ---------------------------------------------------------------------
 Center     Atomic      Atomic             Coordinates (Angstroms)
 Number     Number       Type             X           Y           Z
 ---------------------------------------------------------------------
      1          8           0       -1.832455   -0.111675    0.000020
      2          8           0        0.707005    0.662727   -0.000531
      3          1           0       -0.235395    0.378594   -0.000304
      4          9           0        1.560991   -0.460507    0.000437
      5          1           0       -2.665703    0.391825    0.003671
      6          1           0       -2.144222   -1.034271   -0.003210
 ---------------------------------------------------------------------
 Rotational constants (GHZ):          40.1077482           4.2440630           3.8379468
 Standard basis: Aug-CC-pVDZ (5D, 7F)
 There are   102 symmetry adapted cartesian basis functions of A   symmetry.
 There are    96 symmetry adapted basis functions of A   symmetry.
    96 basis functions,   162 primitive gaussians,   102 cartesian basis functions
    14 alpha electrons       14 beta electrons
       nuclear repulsion energy        74.5512704535 Hartrees.
 NAtoms=    6 NActive=    6 NUniq=    6 SFac= 1.00D+00 NAtFMM=   60 NAOKFM=F Big=F
 Integral buffers will be    131072 words long.
 Raffenetti 1 integral format.
 Two-electron integral symmetry is turned on.
 One-electron integrals computed using PRISM.
 NBasis=    96 RedAO= T EigKep=  1.66D-03  NBF=    96
 NBsUse=    96 1.00D-06 EigRej= -1.00D+00 NBFU=    96
 ExpMin= 2.97D-02 ExpMax= 1.47D+04 ExpMxC= 5.03D+02 IAcc=3 IRadAn=         5 AccDes= 0.00D+00
 Harris functional with IExCor=  205 and IRadAn=       5 diagonalized for initial guess.
 HarFok:  IExCor=  205 AccDes= 0.00D+00 IRadAn=         5 IDoV= 1 UseB2=F ITyADJ=14
 ICtDFT=  3500011 ScaDFX=  1.000000  1.000000  1.000000  1.000000
 FoFCou: FMM=F IPFlag=           0 FMFlag=      100000 FMFlg1=           0
         NFxFlg=           0 DoJE=T BraDBF=F KetDBF=T FulRan=T
         wScrn=  0.000000 ICntrl=       500 IOpCl=  0 I1Cent=   200000004 NGrid=           0
         NMat0=    1 NMatS0=      1 NMatT0=    0 NMatD0=    1 NMtDS0=    0 NMtDT0=    0
 Petite list used in FoFCou.
 Keep R1 ints in memory in canonical form, NReq=16744856.
 Requested convergence on RMS density matrix=1.00D-08 within 128 cycles.
 Requested convergence on MAX density matrix=1.00D-06.
 Requested convergence on             energy=1.00D-06.
 No special actions if energy rises.
 SCF Done:  E(RHF) =  -250.806803166     A.U. after   13 cycles
            NFock= 13  Conv=0.54D-08     -V/T= 2.0014
 ExpMin= 2.97D-02 ExpMax= 1.47D+04 ExpMxC= 5.03D+02 IAcc=3 IRadAn=         5 AccDes= 0.00D+00
 HarFok:  IExCor=  205 AccDes= 0.00D+00 IRadAn=         5 IDoV=-2 UseB2=F ITyADJ=14
 ICtDFT= 12500011 ScaDFX=  1.000000  1.000000  1.000000  1.000000
 Range of M.O.s used for correlation:     4    96
 NBasis=    96 NAE=    14 NBE=    14 NFC=     3 NFV=     0
 NROrb=     93 NOA=    11 NOB=    11 NVA=    82 NVB=    82
 Fully direct method using O(ONN) memory.
 JobTyp=1 Pass  1:  I=   4 to  14 NPSUse= 28 ParTrn=T ParDer=T DoDerP=T.
 Spin components of T(2) and E(2):
     alpha-alpha T2 =       0.2176463360D-01 E2=     -0.8345593759D-01
     alpha-beta  T2 =       0.1229634008D+00 E2=     -0.4729101416D+00
     beta-beta   T2 =       0.2176463360D-01 E2=     -0.8345593759D-01
 ANorm=    0.1080042901D+01
 E2 =    -0.6398220168D+00 EUMP2 =    -0.25144662518280D+03
          IDoAtm=111111
          Differentiating once with respect to electric field.
                with respect to dipole field.
          Differentiating once with respect to nuclear coordinates.
 Keep R1 ints in memory in canonical form, NReq=16748097.
          There are     1 degrees of freedom in the 1st order CPHF.  IDoFFX=0 NUNeed=     1.
 LinEq1:  Iter=  0 NonCon=     1 RMS=6.29D-03 Max=6.10D-02 NDo=     1
 AX will form     1 AO Fock derivatives at one time.
 LinEq1:  Iter=  1 NonCon=     1 RMS=1.47D-03 Max=1.12D-02 NDo=     1
 LinEq1:  Iter=  2 NonCon=     1 RMS=5.80D-04 Max=5.23D-03 NDo=     1
 LinEq1:  Iter=  3 NonCon=     1 RMS=1.92D-04 Max=1.67D-03 NDo=     1
 LinEq1:  Iter=  4 NonCon=     1 RMS=5.69D-05 Max=5.02D-04 NDo=     1
 LinEq1:  Iter=  5 NonCon=     1 RMS=1.54D-05 Max=1.39D-04 NDo=     1
 LinEq1:  Iter=  6 NonCon=     1 RMS=5.73D-06 Max=4.93D-05 NDo=     1
 LinEq1:  Iter=  7 NonCon=     1 RMS=1.09D-06 Max=1.05D-05 NDo=     1
 LinEq1:  Iter=  8 NonCon=     1 RMS=2.53D-07 Max=1.83D-06 NDo=     1
 LinEq1:  Iter=  9 NonCon=     1 RMS=5.01D-08 Max=5.16D-07 NDo=     1
 LinEq1:  Iter= 10 NonCon=     1 RMS=1.03D-08 Max=8.22D-08 NDo=     1
 LinEq1:  Iter= 11 NonCon=     1 RMS=2.12D-09 Max=1.80D-08 NDo=     1
 LinEq1:  Iter= 12 NonCon=     1 RMS=4.54D-10 Max=3.63D-09 NDo=     1
 LinEq1:  Iter= 13 NonCon=     0 RMS=8.14D-11 Max=5.28D-10 NDo=     1
 Linear equations converged to 1.000D-10 1.000D-09 after    13 iterations.
 End of Minotr F.D. properties file   721 does not exist.
 End of Minotr F.D. properties file   722 does not exist.
 End of Minotr F.D. properties file   788 does not exist.

 **********************************************************************

            Population analysis using the SCF density.

 **********************************************************************

 Orbital symmetries:
       Occupied  (A) (A) (A) (A) (A) (A) (A) (A) (A) (A) (A) (A)
                 (A) (A)
       Virtual   (A) (A) (A) (A) (A) (A) (A) (A) (A) (A) (A) (A)
                 (A) (A) (A) (A) (A) (A) (A) (A) (A) (A) (A) (A)
                 (A) (A) (A) (A) (A) (A) (A) (A) (A) (A) (A) (A)
                 (A) (A) (A) (A) (A) (A) (A) (A) (A) (A) (A) (A)
                 (A) (A) (A) (A) (A) (A) (A) (A) (A) (A) (A) (A)
                 (A) (A) (A) (A) (A) (A) (A) (A) (A) (A) (A) (A)
                 (A) (A) (A) (A) (A) (A) (A) (A) (A) (A)
 The electronic state is 1-A.
 Alpha  occ. eigenvalues --  -26.32937 -20.64850 -20.62955  -1.62263  -1.40476
 Alpha  occ. eigenvalues --   -1.27435  -0.76111  -0.75654  -0.69197  -0.66741
 Alpha  occ. eigenvalues --   -0.64566  -0.56291  -0.54753  -0.49823
 Alpha virt. eigenvalues --    0.01898   0.04719   0.07610   0.13894   0.16289
 Alpha virt. eigenvalues --    0.16656   0.20843   0.21174   0.24420   0.25554
 Alpha virt. eigenvalues --    0.25921   0.26907   0.30017   0.30876   0.31022
 Alpha virt. eigenvalues --    0.33955   0.36527   0.37812   0.41073   0.44803
 Alpha virt. eigenvalues --    0.52275   0.52528   0.53630   0.55374   0.57304
 Alpha virt. eigenvalues --    0.64026   0.64080   0.81822   0.82768   0.88425
 Alpha virt. eigenvalues --    0.92194   1.05549   1.09813   1.10036   1.10834
 Alpha virt. eigenvalues --    1.15796   1.22643   1.30256   1.32756   1.36594
 Alpha virt. eigenvalues --    1.40315   1.45260   1.48511   1.51766   1.58823
 Alpha virt. eigenvalues --    1.59215   1.62599   1.65773   1.70083   1.85324
 Alpha virt. eigenvalues --    1.89844   1.93878   1.99747   2.04761   2.06005
 Alpha virt. eigenvalues --    2.18544   2.23810   2.37387   2.41497   2.45411
 Alpha virt. eigenvalues --    2.53264   2.61138   2.82649   2.89577   2.91382
 Alpha virt. eigenvalues --    3.21825   3.41361   3.57752   3.64842   3.66462
 Alpha virt. eigenvalues --    3.69023   3.69337   3.76656   4.01538   4.22612
 Alpha virt. eigenvalues --    4.28196   4.32747   4.89240   4.92237   5.02398
 Alpha virt. eigenvalues --    5.05141   5.15300
          Condensed to atoms (all electrons):
               1          2          3          4          5          6
     1  O    7.845852  -0.047121  -0.040304  -0.001826   0.354223   0.356983
     2  O   -0.047121   7.935088   0.233515  -0.084870   0.000216  -0.000847
     3  H   -0.040304   0.233515   0.434496  -0.080089  -0.002014   0.000393
     4  F   -0.001826  -0.084870  -0.080089   9.520176   0.000157  -0.000512
     5  H    0.354223   0.000216  -0.002014   0.000157   0.479925  -0.036866
     6  H    0.356983  -0.000847   0.000393  -0.000512  -0.036866   0.482388
 Mulliken charges:
               1
     1  O   -0.467806
     2  O   -0.035980
     3  H    0.454002
     4  F   -0.353036
     5  H    0.204359
     6  H    0.198461
 Sum of Mulliken charges =  -0.00000
 Mulliken charges with hydrogens summed into heavy atoms:
               1
     1  O   -0.064986
     2  O    0.418022
     4  F   -0.353036
 Electronic spatial extent (au):  <R**2>=            287.7985
 Charge=             -0.0000 electrons
 Dipole moment (field-independent basis, Debye):
    X=             -5.2425    Y=             -0.8480    Z=              0.0008  Tot=              5.3106
 Quadrupole moment (field-independent basis, Debye-Ang):
   XX=             -9.5277   YY=            -15.6515   ZZ=            -18.7791
   XY=              0.6873   XZ=             -0.0068   YZ=              0.0142
 Traceless Quadrupole moment (field-independent basis, Debye-Ang):
   XX=              5.1251   YY=             -0.9987   ZZ=             -4.1263
   XY=              0.6873   XZ=             -0.0068   YZ=              0.0142
 Octapole moment (field-independent basis, Debye-Ang**2):
  XXX=            -31.0383  YYY=             -4.6394  ZZZ=              0.0026  XYY=             -5.7620
  XXY=             -2.1241  XXZ=              0.0299  XZZ=              2.2752  YZZ=             -0.8693
  YYZ=             -0.0070  XYZ=             -0.0300
 Hexadecapole moment (field-independent basis, Debye-Ang**3):
 XXXX=           -156.8719 YYYY=            -34.0158 ZZZZ=            -14.5558 XXXY=             -1.9223
 XXXZ=             -0.0993 YYYX=              1.2312 YYYZ=              0.0158 ZZZX=             -0.0004
 ZZZY=              0.0073 XXYY=            -34.7994 XXZZ=            -46.9168 YYZZ=             -9.0660
 XXYZ=              0.0712 YYXZ=              0.0153 ZZXY=             -1.0690
 N-N= 7.455127045354D+01 E-N=-7.470855111513D+02  KE= 2.504504050725D+02
 Calling FoFJK, ICntrl=  10002127 FMM=F ISym2X=0 I1Cent= 0 IOpClX= 0 NMat=1 NMatS=1 NMatT=0.
 ***** Axes restored to original set *****
 -------------------------------------------------------------------
 Center     Atomic                   Forces (Hartrees/Bohr)
 Number     Number              X              Y              Z
 -------------------------------------------------------------------
      1        8           0.002876333   -0.017724497    0.012503860
      2        8           0.039693997    0.023679957   -0.004067373
      3        1          -0.024964629   -0.005146093   -0.003858732
      4        9          -0.016244139   -0.013546501    0.004202288
      5        1          -0.002881278    0.005795864   -0.004639202
      6        1           0.001519716    0.006941270   -0.004140841
 -------------------------------------------------------------------
 Cartesian Forces:  Max     0.039693997 RMS     0.014705199

 GradGradGradGradGradGradGradGradGradGradGradGradGradGradGradGradGradGrad
 Berny optimization.
 FormGI is forming the generalized inverse of G from B-inverse, IUseBI=4.
 Internal  Forces:  Max     0.044988647 RMS     0.013115031
 Search for a local minimum.
 Step number   1 out of a maximum of  100
 All quantities printed in internal units (Hartrees-Bohrs-Radians)
 Mixed Optimization -- RFO/linear search
 Second derivative matrix not updated -- first step.
 The second derivative matrix:
                          R1        R2        R3        R4        R5
           R1           0.07857
           R2           0.00000   0.52655
           R3           0.00000   0.00000   0.52597
           R4           0.00000   0.00000   0.00000   0.50558
           R5           0.00000   0.00000   0.00000   0.00000   0.43844
           A1           0.00000   0.00000   0.00000   0.00000   0.00000
           A2           0.00000   0.00000   0.00000   0.00000   0.00000
           A3           0.00000   0.00000   0.00000   0.00000   0.00000
           A4           0.00000   0.00000   0.00000   0.00000   0.00000
           A5           0.00000   0.00000   0.00000   0.00000   0.00000
           A6           0.00000   0.00000   0.00000   0.00000   0.00000
           D1           0.00000   0.00000   0.00000   0.00000   0.00000
           D2           0.00000   0.00000   0.00000   0.00000   0.00000
           D3           0.00000   0.00000   0.00000   0.00000   0.00000
                          A1        A2        A3        A4        A5
           A1           0.16000
           A2           0.00000   0.16000
           A3           0.00000   0.00000   0.16000
           A4           0.00000   0.00000   0.00000   0.16000
           A5           0.00000   0.00000   0.00000   0.00000   0.01236
           A6           0.00000   0.00000   0.00000   0.00000   0.00000
           D1           0.00000   0.00000   0.00000   0.00000   0.00000
           D2           0.00000   0.00000   0.00000   0.00000   0.00000
           D3           0.00000   0.00000   0.00000   0.00000   0.00000
                          A6        D1        D2        D3
           A6           0.01236
           D1           0.00000   0.00230
           D2           0.00000   0.00000   0.00230
           D3           0.00000   0.00000   0.00000   0.01378
 ITU=  0
     Eigenvalues ---    0.00230   0.00856   0.01236   0.01253   0.07857
     Eigenvalues ---    0.16000   0.16000   0.16000   0.43844   0.50558
     Eigenvalues ---    0.52597   0.52655
 RFO step:  Lambda=-1.31289197D-02 EMin= 2.30000000D-03
 Linear search not attempted -- first point.
 Iteration  1 RMS(Cart)=  0.07775071 RMS(Int)=  0.01827189
 Iteration  2 RMS(Cart)=  0.04064218 RMS(Int)=  0.00116531
 Iteration  3 RMS(Cart)=  0.00091419 RMS(Int)=  0.00000038
 Iteration  4 RMS(Cart)=  0.00000015 RMS(Int)=  0.00000038
 Variable       Old X    -DE/DX   Delta X   Delta X   Delta X     New X
                                 (Linear)    (Quad)   (Total)
    R1        3.15701   0.00637   0.00000   0.06945   0.06945   3.22646
    R2        1.83977  -0.00658   0.00000  -0.01220  -0.01220   1.82757
    R3        1.84032  -0.00670   0.00000  -0.01243  -0.01243   1.82789
    R4        1.86006   0.00487   0.00000   0.00940   0.00940   1.86946
    R5        2.66642   0.01343   0.00000   0.02974   0.02974   2.69616
    A1        2.30019  -0.00257   0.00000  -0.01486  -0.01486   2.28533
    A2        2.19452  -0.00310   0.00000  -0.01791  -0.01791   2.17661
    A3        1.78848   0.00567   0.00000   0.03277   0.03277   1.82125
    A4        1.92802  -0.04499   0.00000  -0.25986  -0.25986   1.66816
    A5        3.13657   0.00166   0.00000   0.06495   0.06495   3.20152
    A6        3.14153  -0.00000   0.00000  -0.00010  -0.00010   3.14143
    D1        3.13593  -0.00000   0.00000  -0.00013  -0.00012   3.13581
    D2       -0.00504  -0.00001   0.00000  -0.00031  -0.00032  -0.00535
    D3       -3.14107   0.00000   0.00000   0.00006   0.00006  -3.14101
         Item               Value     Threshold  Converged?
 Maximum Force            0.044989     0.000450     NO 
 RMS     Force            0.013115     0.000300     NO 
 Maximum Displacement     0.292308     0.001800     NO 
 RMS     Displacement     0.116084     0.001200     NO 
 Predicted change in Energy=-7.086067D-03
 GradGradGradGradGradGradGradGradGradGradGradGradGradGradGradGradGradGrad

                          Input orientation:                          
 ---------------------------------------------------------------------
 Center     Atomic      Atomic             Coordinates (Angstroms)
 Number     Number       Type             X           Y           Z
 ---------------------------------------------------------------------
      1          8           0       -0.048996    3.606989   -0.100017
      2          8           0       -0.317651    5.810811   -1.628684
      3          1           0       -0.255388    4.994483   -1.073349
      4          9           0       -1.703498    5.664902   -1.934864
      5          1           0        0.733091    3.259495    0.350415
      6          1           0       -0.750141    2.976793    0.116481
 ---------------------------------------------------------------------
                    Distance matrix (angstroms):
                    1          2          3          4          5
     1  O    0.000000
     2  O    2.695520   0.000000
     3  H    1.707370   0.989275   0.000000
     4  F    3.215439   1.426747   1.813476   0.000000
     5  H    0.967110   3.395601   2.452423   4.116486   0.000000
     6  H    0.967276   3.356234   2.394066   3.513238   1.527948
                    6
     6  H    0.000000
 Stoichiometry    FH3O2
 Framework group  C1[X(FH3O2)]
 Deg. of freedom    12
 Full point group                 C1      NOp   1
 Largest Abelian subgroup         C1      NOp   1
 Largest concise Abelian subgroup C1      NOp   1
                         Standard orientation:                         
 ---------------------------------------------------------------------
 Center     Atomic      Atomic             Coordinates (Angstroms)
 Number     Number       Type             X           Y           Z
 ---------------------------------------------------------------------
      1          8           0       -1.774316   -0.094983   -0.000013
      2          8           0        0.789682    0.736727   -0.000503
      3          1           0       -0.139066    0.396004   -0.000221
      4          9           0        1.408963   -0.548612    0.000447
      5          1           0       -2.591343    0.422468    0.003885
      6          1           0       -2.073188   -1.014921   -0.003555
 ---------------------------------------------------------------------
 Rotational constants (GHZ):          31.8107452           4.6584050           4.0633635
 Standard basis: Aug-CC-pVDZ (5D, 7F)
 There are   102 symmetry adapted cartesian basis functions of A   symmetry.
 There are    96 symmetry adapted basis functions of A   symmetry.
    96 basis functions,   162 primitive gaussians,   102 cartesian basis functions
    14 alpha electrons       14 beta electrons
       nuclear repulsion energy        75.0611293498 Hartrees.
 NAtoms=    6 NActive=    6 NUniq=    6 SFac= 1.00D+00 NAtFMM=   60 NAOKFM=F Big=F
 Integral buffers will be    131072 words long.
 Raffenetti 1 integral format.
 Two-electron integral symmetry is turned on.
 One-electron integrals computed using PRISM.
 NBasis=    96 RedAO= T EigKep=  1.69D-03  NBF=    96
 NBsUse=    96 1.00D-06 EigRej= -1.00D+00 NBFU=    96
 Initial guess from the checkpoint file:  "/gscratch/scrubbed/gds001/Gau-9597.chk"
 B after Tr=     0.000000    0.000000   -0.000000
         Rot=    0.999874   -0.000080    0.000015    0.015869 Ang=  -1.82 deg.
 ExpMin= 2.97D-02 ExpMax= 1.47D+04 ExpMxC= 5.03D+02 IAcc=3 IRadAn=         5 AccDes= 0.00D+00
 Harris functional with IExCor=  205 and IRadAn=       5 diagonalized for initial guess.
 HarFok:  IExCor=  205 AccDes= 0.00D+00 IRadAn=         5 IDoV= 1 UseB2=F ITyADJ=14
 ICtDFT=  3500011 ScaDFX=  1.000000  1.000000  1.000000  1.000000
 FoFCou: FMM=F IPFlag=           0 FMFlag=      100000 FMFlg1=           0
         NFxFlg=           0 DoJE=T BraDBF=F KetDBF=T FulRan=T
         wScrn=  0.000000 ICntrl=       500 IOpCl=  0 I1Cent=   200000004 NGrid=           0
         NMat0=    1 NMatS0=      1 NMatT0=    0 NMatD0=    1 NMtDS0=    0 NMtDT0=    0
 Petite list used in FoFCou.
 Keep R1 ints in memory in canonical form, NReq=16745731.
 Requested convergence on RMS density matrix=1.00D-08 within 128 cycles.
 Requested convergence on MAX density matrix=1.00D-06.
 Requested convergence on             energy=1.00D-06.
 No special actions if energy rises.
 SCF Done:  E(RHF) =  -250.811830748     A.U. after   14 cycles
            NFock= 14  Conv=0.17D-08     -V/T= 2.0014
 ExpMin= 2.97D-02 ExpMax= 1.47D+04 ExpMxC= 5.03D+02 IAcc=3 IRadAn=         5 AccDes= 0.00D+00
 HarFok:  IExCor=  205 AccDes= 0.00D+00 IRadAn=         5 IDoV=-2 UseB2=F ITyADJ=14
 ICtDFT= 12500011 ScaDFX=  1.000000  1.000000  1.000000  1.000000
 Range of M.O.s used for correlation:     4    96
 NBasis=    96 NAE=    14 NBE=    14 NFC=     3 NFV=     0
 NROrb=     93 NOA=    11 NOB=    11 NVA=    82 NVB=    82
 Fully direct method using O(ONN) memory.
 JobTyp=1 Pass  1:  I=   4 to  14 NPSUse= 28 ParTrn=T ParDer=T DoDerP=T.
 Spin components of T(2) and E(2):
     alpha-alpha T2 =       0.2183543847D-01 E2=     -0.8351327210D-01
     alpha-beta  T2 =       0.1237093798D+00 E2=     -0.4736692363D+00
     beta-beta   T2 =       0.2183543847D-01 E2=     -0.8351327210D-01
 ANorm=    0.1080453727D+01
 E2 =    -0.6406957805D+00 EUMP2 =    -0.25145252652878D+03
          IDoAtm=111111
          Differentiating once with respect to electric field.
                with respect to dipole field.
          Differentiating once with respect to nuclear coordinates.
 Keep R1 ints in memory in canonical form, NReq=16749021.
          There are     1 degrees of freedom in the 1st order CPHF.  IDoFFX=0 NUNeed=     1.
 LinEq1:  Iter=  0 NonCon=     1 RMS=6.47D-03 Max=5.99D-02 NDo=     1
 AX will form     1 AO Fock derivatives at one time.
 LinEq1:  Iter=  1 NonCon=     1 RMS=1.61D-03 Max=1.26D-02 NDo=     1
 LinEq1:  Iter=  2 NonCon=     1 RMS=6.79D-04 Max=7.10D-03 NDo=     1
 LinEq1:  Iter=  3 NonCon=     1 RMS=2.11D-04 Max=1.72D-03 NDo=     1
 LinEq1:  Iter=  4 NonCon=     1 RMS=6.66D-05 Max=4.69D-04 NDo=     1
 LinEq1:  Iter=  5 NonCon=     1 RMS=1.79D-05 Max=1.62D-04 NDo=     1
 LinEq1:  Iter=  6 NonCon=     1 RMS=7.00D-06 Max=6.28D-05 NDo=     1
 LinEq1:  Iter=  7 NonCon=     1 RMS=1.52D-06 Max=1.56D-05 NDo=     1
 LinEq1:  Iter=  8 NonCon=     1 RMS=4.41D-07 Max=5.35D-06 NDo=     1
 LinEq1:  Iter=  9 NonCon=     1 RMS=1.04D-07 Max=8.19D-07 NDo=     1
 LinEq1:  Iter= 10 NonCon=     1 RMS=1.34D-08 Max=8.36D-08 NDo=     1
 LinEq1:  Iter= 11 NonCon=     1 RMS=2.70D-09 Max=3.07D-08 NDo=     1
 LinEq1:  Iter= 12 NonCon=     1 RMS=5.41D-10 Max=4.62D-09 NDo=     1
 LinEq1:  Iter= 13 NonCon=     0 RMS=8.23D-11 Max=5.97D-10 NDo=     1
 Linear equations converged to 1.000D-10 1.000D-09 after    13 iterations.
 End of Minotr F.D. properties file   721 does not exist.
 End of Minotr F.D. properties file   722 does not exist.
 End of Minotr F.D. properties file   788 does not exist.
 Calling FoFJK, ICntrl=  10002127 FMM=F ISym2X=0 I1Cent= 0 IOpClX= 0 NMat=1 NMatS=1 NMatT=0.
 ***** Axes restored to original set *****
 -------------------------------------------------------------------
 Center     Atomic                   Forces (Hartrees/Bohr)
 Number     Number              X              Y              Z
 -------------------------------------------------------------------
      1        8           0.000218353   -0.007449509    0.004974162
      2        8           0.010294145   -0.003968719    0.005602562
      3        1           0.006022930    0.006270558   -0.002384068
      4        9          -0.016087067    0.001127749   -0.005412392
      5        1          -0.000055542    0.002101285   -0.001403998
      6        1          -0.000392818    0.001918637   -0.001376267
 -------------------------------------------------------------------
 Cartesian Forces:  Max     0.016087067 RMS     0.005850699

 GradGradGradGradGradGradGradGradGradGradGradGradGradGradGradGradGradGrad
 Berny optimization.
 Using GEDIIS/GDIIS optimizer.
 FormGI is forming the generalized inverse of G from B-inverse, IUseBI=4.
 Internal  Forces:  Max     0.016672072 RMS     0.005343260
 Search for a local minimum.
 Step number   2 out of a maximum of  100
 All quantities printed in internal units (Hartrees-Bohrs-Radians)
 Mixed Optimization -- RFO/linear search
 Update second derivatives using D2CorX and points    1    2
 DE= -5.90D-03 DEPred=-7.09D-03 R= 8.33D-01
 TightC=F SS=  1.41D+00  RLast= 2.82D-01 DXNew= 5.0454D-01 8.4565D-01
 Trust test= 8.33D-01 RLast= 2.82D-01 DXMaxT set to 5.05D-01
 The second derivative matrix:
                          R1        R2        R3        R4        R5
           R1           0.07648
           R2           0.00208   0.52492
           R3           0.00208  -0.00158   0.52443
           R4          -0.00103   0.00010   0.00001   0.50700
           R5          -0.00641   0.00806   0.00825  -0.00666   0.42508
           A1           0.00087  -0.00082  -0.00081   0.00033   0.00285
           A2           0.00099  -0.00086  -0.00085   0.00023   0.00351
           A3          -0.00186   0.00168   0.00167  -0.00056  -0.00636
           A4           0.01011  -0.00327  -0.00257  -0.00921   0.05676
           A5           0.00027  -0.00096  -0.00103   0.00156  -0.00174
           A6           0.00000  -0.00000  -0.00000   0.00000   0.00000
           D1           0.00000  -0.00000  -0.00000   0.00000  -0.00000
           D2          -0.00000   0.00000   0.00000  -0.00000   0.00000
           D3           0.00000  -0.00000  -0.00000   0.00000  -0.00000
                          A1        A2        A3        A4        A5
           A1           0.15964
           A2          -0.00040   0.15956
           A3           0.00075   0.00084   0.15841
           A4          -0.00345  -0.00292   0.00637   0.21555
           A5          -0.00019  -0.00032   0.00051  -0.01182   0.01338
           A6          -0.00000  -0.00000   0.00000  -0.00001   0.00000
           D1          -0.00000  -0.00000   0.00000  -0.00001   0.00000
           D2           0.00000   0.00000  -0.00000   0.00002  -0.00000
           D3          -0.00000  -0.00000   0.00000  -0.00001   0.00000
                          A6        D1        D2        D3
           A6           0.01236
           D1           0.00000   0.00230
           D2          -0.00000  -0.00000   0.00230
           D3           0.00000   0.00000  -0.00000   0.01378
 ITU=  1  0
 Use linear search instead of GDIIS.
     Eigenvalues ---    0.00230   0.00862   0.01256   0.01265   0.07528
     Eigenvalues ---    0.15580   0.16000   0.20433   0.43739   0.50823
     Eigenvalues ---    0.52450   0.52629
 RFO step:  Lambda=-1.25173981D-03 EMin= 2.30000017D-03
 Quartic linear search produced a step of -0.10363.
 Iteration  1 RMS(Cart)=  0.06658209 RMS(Int)=  0.00281980
 Iteration  2 RMS(Cart)=  0.00477124 RMS(Int)=  0.00000506
 Iteration  3 RMS(Cart)=  0.00000412 RMS(Int)=  0.00000385
 Iteration  4 RMS(Cart)=  0.00000000 RMS(Int)=  0.00000385
 Variable       Old X    -DE/DX   Delta X   Delta X   Delta X     New X
                                 (Linear)    (Quad)   (Total)
    R1        3.22646   0.00401  -0.00720   0.06124   0.05405   3.28051
    R2        1.82757  -0.00145   0.00126  -0.00505  -0.00378   1.82379
    R3        1.82789  -0.00127   0.00129  -0.00479  -0.00350   1.82438
    R4        1.86946  -0.00209  -0.00097  -0.00170  -0.00268   1.86678
    R5        2.69616   0.01667  -0.00308   0.04029   0.03721   2.73337
    A1        2.28533  -0.00128   0.00154  -0.01041  -0.00887   2.27646
    A2        2.17661  -0.00121   0.00186  -0.01067  -0.00882   2.16779
    A3        1.82125   0.00249  -0.00340   0.02108   0.01769   1.83894
    A4        1.66816   0.00910   0.02693  -0.00662   0.02031   1.68847
    A5        3.20152  -0.00232  -0.00673  -0.12905  -0.13578   3.06574
    A6        3.14143  -0.00000   0.00001  -0.00018  -0.00017   3.14126
    D1        3.13581  -0.00000   0.00001  -0.00080  -0.00080   3.13501
    D2       -0.00535   0.00000   0.00003  -0.00036  -0.00032  -0.00567
    D3       -3.14101  -0.00000  -0.00001   0.00012   0.00010  -3.14090
         Item               Value     Threshold  Converged?
 Maximum Force            0.016672     0.000450     NO 
 RMS     Force            0.005343     0.000300     NO 
 Maximum Displacement     0.145847     0.001800     NO 
 RMS     Displacement     0.068571     0.001200     NO 
 Predicted change in Energy=-7.274395D-04
 GradGradGradGradGradGradGradGradGradGradGradGradGradGradGradGradGradGrad

                          Input orientation:                          
 ---------------------------------------------------------------------
 Center     Atomic      Atomic             Coordinates (Angstroms)
 Number     Number       Type             X           Y           Z
 ---------------------------------------------------------------------
      1          8           0       -0.044956    3.607534   -0.099200
      2          8           0       -0.326401    5.830889   -1.644146
      3          1           0       -0.178209    5.035252   -1.077697
      4          9           0       -1.731046    5.598429   -1.899339
      5          1           0        0.715864    3.233661    0.362111
      6          1           0       -0.777835    3.007708    0.088252
 ---------------------------------------------------------------------
                    Distance matrix (angstroms):
                    1          2          3          4          5
     1  O    0.000000
     2  O    2.722017   0.000000
     3  H    1.735970   0.987858   0.000000
     4  F    3.169709   1.446439   1.844875   0.000000
     5  H    0.965109   3.443396   2.473488   4.085786   0.000000
     6  H    0.965423   3.342955   2.414524   3.401612   1.535314
                    6
     6  H    0.000000
 Stoichiometry    FH3O2
 Framework group  C1[X(FH3O2)]
 Deg. of freedom    12
 Full point group                 C1      NOp   1
 Largest Abelian subgroup         C1      NOp   1
 Largest concise Abelian subgroup C1      NOp   1
                         Standard orientation:                         
 ---------------------------------------------------------------------
 Center     Atomic      Atomic             Coordinates (Angstroms)
 Number     Number       Type             X           Y           Z
 ---------------------------------------------------------------------
      1          8           0       -1.765478   -0.086234   -0.000040
      2          8           0        0.822335    0.757922   -0.000518
      3          1           0       -0.130527    0.497312   -0.000206
      4          9           0        1.365090   -0.582825    0.000485
      5          1           0       -2.601904    0.395232    0.004286
      6          1           0       -2.008227   -1.020631   -0.003985
 ---------------------------------------------------------------------
 Rotational constants (GHZ):          29.4149176           4.7529981           4.0918252
 Standard basis: Aug-CC-pVDZ (5D, 7F)
 There are   102 symmetry adapted cartesian basis functions of A   symmetry.
 There are    96 symmetry adapted basis functions of A   symmetry.
    96 basis functions,   162 primitive gaussians,   102 cartesian basis functions
    14 alpha electrons       14 beta electrons
       nuclear repulsion energy        74.7197937667 Hartrees.
 NAtoms=    6 NActive=    6 NUniq=    6 SFac= 1.00D+00 NAtFMM=   60 NAOKFM=F Big=F
 Integral buffers will be    131072 words long.
 Raffenetti 1 integral format.
 Two-electron integral symmetry is turned on.
 One-electron integrals computed using PRISM.
 NBasis=    96 RedAO= T EigKep=  1.73D-03  NBF=    96
 NBsUse=    96 1.00D-06 EigRej= -1.00D+00 NBFU=    96
 Initial guess from the checkpoint file:  "/gscratch/scrubbed/gds001/Gau-9597.chk"
 B after Tr=    -0.000000   -0.000000    0.000000
         Rot=    0.999987   -0.000039    0.000010    0.005135 Ang=  -0.59 deg.
 ExpMin= 2.97D-02 ExpMax= 1.47D+04 ExpMxC= 5.03D+02 IAcc=3 IRadAn=         5 AccDes= 0.00D+00
 Harris functional with IExCor=  205 and IRadAn=       5 diagonalized for initial guess.
 HarFok:  IExCor=  205 AccDes= 0.00D+00 IRadAn=         5 IDoV= 1 UseB2=F ITyADJ=14
 ICtDFT=  3500011 ScaDFX=  1.000000  1.000000  1.000000  1.000000
 FoFCou: FMM=F IPFlag=           0 FMFlag=      100000 FMFlg1=           0
         NFxFlg=           0 DoJE=T BraDBF=F KetDBF=T FulRan=T
         wScrn=  0.000000 ICntrl=       500 IOpCl=  0 I1Cent=   200000004 NGrid=           0
         NMat0=    1 NMatS0=      1 NMatT0=    0 NMatD0=    1 NMtDS0=    0 NMtDT0=    0
 Petite list used in FoFCou.
 Keep R1 ints in memory in canonical form, NReq=16745964.
 Requested convergence on RMS density matrix=1.00D-08 within 128 cycles.
 Requested convergence on MAX density matrix=1.00D-06.
 Requested convergence on             energy=1.00D-06.
 No special actions if energy rises.
 SCF Done:  E(RHF) =  -250.811381202     A.U. after   12 cycles
            NFock= 12  Conv=0.96D-08     -V/T= 2.0016
 ExpMin= 2.97D-02 ExpMax= 1.47D+04 ExpMxC= 5.03D+02 IAcc=3 IRadAn=         5 AccDes= 0.00D+00
 HarFok:  IExCor=  205 AccDes= 0.00D+00 IRadAn=         5 IDoV=-2 UseB2=F ITyADJ=14
 ICtDFT= 12500011 ScaDFX=  1.000000  1.000000  1.000000  1.000000
 Range of M.O.s used for correlation:     4    96
 NBasis=    96 NAE=    14 NBE=    14 NFC=     3 NFV=     0
 NROrb=     93 NOA=    11 NOB=    11 NVA=    82 NVB=    82
 Fully direct method using O(ONN) memory.
 JobTyp=1 Pass  1:  I=   4 to  14 NPSUse= 28 ParTrn=T ParDer=T DoDerP=T.
 Spin components of T(2) and E(2):
     alpha-alpha T2 =       0.2194333607D-01 E2=     -0.8355165955D-01
     alpha-beta  T2 =       0.1249931497D+00 E2=     -0.4748896379D+00
     beta-beta   T2 =       0.2194333607D-01 E2=     -0.8355165955D-01
 ANorm=    0.1081147456D+01
 E2 =    -0.6419929570D+00 EUMP2 =    -0.25145337415939D+03
          IDoAtm=111111
          Differentiating once with respect to electric field.
                with respect to dipole field.
          Differentiating once with respect to nuclear coordinates.
 Keep R1 ints in memory in canonical form, NReq=16749122.
          There are     1 degrees of freedom in the 1st order CPHF.  IDoFFX=0 NUNeed=     1.
 LinEq1:  Iter=  0 NonCon=     1 RMS=6.60D-03 Max=5.99D-02 NDo=     1
 AX will form     1 AO Fock derivatives at one time.
 LinEq1:  Iter=  1 NonCon=     1 RMS=1.69D-03 Max=1.33D-02 NDo=     1
 LinEq1:  Iter=  2 NonCon=     1 RMS=7.15D-04 Max=6.58D-03 NDo=     1
 LinEq1:  Iter=  3 NonCon=     1 RMS=2.20D-04 Max=1.75D-03 NDo=     1
 LinEq1:  Iter=  4 NonCon=     1 RMS=7.06D-05 Max=5.15D-04 NDo=     1
 LinEq1:  Iter=  5 NonCon=     1 RMS=1.90D-05 Max=1.86D-04 NDo=     1
 LinEq1:  Iter=  6 NonCon=     1 RMS=7.22D-06 Max=6.54D-05 NDo=     1
 LinEq1:  Iter=  7 NonCon=     1 RMS=1.57D-06 Max=1.52D-05 NDo=     1
 LinEq1:  Iter=  8 NonCon=     1 RMS=4.54D-07 Max=5.14D-06 NDo=     1
 LinEq1:  Iter=  9 NonCon=     1 RMS=1.08D-07 Max=9.04D-07 NDo=     1
 LinEq1:  Iter= 10 NonCon=     1 RMS=1.48D-08 Max=9.12D-08 NDo=     1
 LinEq1:  Iter= 11 NonCon=     1 RMS=3.11D-09 Max=3.30D-08 NDo=     1
 LinEq1:  Iter= 12 NonCon=     1 RMS=6.23D-10 Max=5.43D-09 NDo=     1
 LinEq1:  Iter= 13 NonCon=     0 RMS=9.50D-11 Max=6.64D-10 NDo=     1
 Linear equations converged to 1.000D-10 1.000D-09 after    13 iterations.
 End of Minotr F.D. properties file   721 does not exist.
 End of Minotr F.D. properties file   722 does not exist.
 End of Minotr F.D. properties file   788 does not exist.
 Calling FoFJK, ICntrl=  10002127 FMM=F ISym2X=0 I1Cent= 0 IOpClX= 0 NMat=1 NMatS=1 NMatT=0.
 ***** Axes restored to original set *****
 -------------------------------------------------------------------
 Center     Atomic                   Forces (Hartrees/Bohr)
 Number     Number              X              Y              Z
 -------------------------------------------------------------------
      1        8           0.000717306   -0.002735401    0.002012255
      2        8           0.001672908   -0.001032887    0.001166752
      3        1          -0.000023357    0.003154175   -0.002083763
      4        9          -0.002040702   -0.000132983   -0.000505517
      5        1           0.000217493    0.000214898   -0.000082730
      6        1          -0.000543649    0.000532198   -0.000506996
 -------------------------------------------------------------------
 Cartesian Forces:  Max     0.003154175 RMS     0.001432523

 GradGradGradGradGradGradGradGradGradGradGradGradGradGradGradGradGradGrad
 Berny optimization.
 Using GEDIIS/GDIIS optimizer.
 FormGI is forming the generalized inverse of G from B-inverse, IUseBI=4.
 Internal  Forces:  Max     0.002467094 RMS     0.001004204
 Search for a local minimum.
 Step number   3 out of a maximum of  100
 All quantities printed in internal units (Hartrees-Bohrs-Radians)
 Mixed Optimization -- RFO/linear search
 Update second derivatives using D2CorX and points    1    2    3
 DE= -8.48D-04 DEPred=-7.27D-04 R= 1.17D+00
 TightC=F SS=  1.41D+00  RLast= 1.54D-01 DXNew= 8.4853D-01 4.6144D-01
 Trust test= 1.17D+00 RLast= 1.54D-01 DXMaxT set to 5.05D-01
 The second derivative matrix:
                          R1        R2        R3        R4        R5
           R1           0.06555
           R2           0.00489   0.52586
           R3           0.00477  -0.00084   0.52501
           R4           0.00363  -0.00164  -0.00161   0.50522
           R5          -0.03578   0.00475   0.00610   0.00924   0.41849
           A1           0.00272   0.00014  -0.00003  -0.00092  -0.00162
           A2           0.00477  -0.00201  -0.00193  -0.00133   0.01486
           A3          -0.00749   0.00188   0.00197   0.00224  -0.01323
           A4           0.00188  -0.00424  -0.00317  -0.00498   0.05662
           A5           0.00341  -0.00054  -0.00075  -0.00014  -0.00151
           A6           0.00001  -0.00000  -0.00000  -0.00000   0.00002
           D1           0.00000   0.00000   0.00000   0.00000  -0.00002
           D2           0.00000   0.00000   0.00000  -0.00000   0.00000
           D3          -0.00001   0.00001   0.00001   0.00000  -0.00005
                          A1        A2        A3        A4        A5
           A1           0.16057
           A2          -0.00119   0.15828
           A3           0.00063   0.00292   0.15646
           A4          -0.00485   0.00033   0.00452   0.21793
           A5           0.00035  -0.00154   0.00120  -0.01207   0.01342
           A6          -0.00000  -0.00000   0.00000  -0.00000  -0.00000
           D1           0.00000  -0.00000  -0.00000  -0.00002   0.00000
           D2           0.00000   0.00000  -0.00000   0.00002  -0.00000
           D3           0.00001   0.00000  -0.00001  -0.00002   0.00001
                          A6        D1        D2        D3
           A6           0.01236
           D1          -0.00000   0.00230
           D2          -0.00000  -0.00000   0.00230
           D3           0.00000   0.00000   0.00000   0.01378
 ITU=  1  1  0
 Use linear search instead of GDIIS.
     Eigenvalues ---    0.00230   0.00858   0.01235   0.01258   0.06031
     Eigenvalues ---    0.15327   0.16077   0.20574   0.43662   0.50609
     Eigenvalues ---    0.52521   0.52642
 RFO step:  Lambda=-9.98451582D-05 EMin= 2.30000334D-03
 Quartic linear search produced a step of  0.30053.
 Iteration  1 RMS(Cart)=  0.03685279 RMS(Int)=  0.00085527
 Iteration  2 RMS(Cart)=  0.00119411 RMS(Int)=  0.00000154
 Iteration  3 RMS(Cart)=  0.00000040 RMS(Int)=  0.00000152
 Variable       Old X    -DE/DX   Delta X   Delta X   Delta X     New X
                                 (Linear)    (Quad)   (Total)
    R1        3.28051   0.00247   0.01624   0.03325   0.04949   3.33000
    R2        1.82379   0.00005  -0.00114   0.00050  -0.00064   1.82315
    R3        1.82438  -0.00002  -0.00105   0.00026  -0.00079   1.82359
    R4        1.86678  -0.00126  -0.00080  -0.00237  -0.00317   1.86361
    R5        2.73337   0.00209   0.01118  -0.00088   0.01030   2.74368
    A1        2.27646   0.00018  -0.00267   0.00285   0.00019   2.27664
    A2        2.16779  -0.00092  -0.00265  -0.00649  -0.00914   2.15865
    A3        1.83894   0.00075   0.00532   0.00364   0.00895   1.84789
    A4        1.68847   0.00067   0.00610  -0.00962  -0.00352   1.68496
    A5        3.06574  -0.00041  -0.04081  -0.01963  -0.06044   3.00530
    A6        3.14126  -0.00000  -0.00005  -0.00014  -0.00020   3.14106
    D1        3.13501  -0.00000  -0.00024  -0.00033  -0.00057   3.13444
    D2       -0.00567   0.00000  -0.00010   0.00004  -0.00006  -0.00573
    D3       -3.14090   0.00000   0.00003   0.00031   0.00034  -3.14057
         Item               Value     Threshold  Converged?
 Maximum Force            0.002467     0.000450     NO 
 RMS     Force            0.001004     0.000300     NO 
 Maximum Displacement     0.074900     0.001800     NO 
 RMS     Displacement     0.037337     0.001200     NO 
 Predicted change in Energy=-8.538174D-05
 GradGradGradGradGradGradGradGradGradGradGradGradGradGradGradGradGradGrad

                          Input orientation:                          
 ---------------------------------------------------------------------
 Center     Atomic      Atomic             Coordinates (Angstroms)
 Number     Number       Type             X           Y           Z
 ---------------------------------------------------------------------
      1          8           0       -0.043148    3.606312   -0.097796
      2          8           0       -0.331272    5.845383   -1.654937
      3          1           0       -0.144821    5.062024   -1.085606
      4          9           0       -1.737445    5.558793   -1.875233
      5          1           0        0.706397    3.218120    0.369400
      6          1           0       -0.792296    3.022840    0.074153
 ---------------------------------------------------------------------
                    Distance matrix (angstroms):
                    1          2          3          4          5
     1  O    0.000000
     2  O    2.742470   0.000000
     3  H    1.762159   0.986181   0.000000
     4  F    3.137213   1.451891   1.845736   0.000000
     5  H    0.964771   3.475228   2.498319   4.060726   0.000000
     6  H    0.965002   3.342012   2.433627   3.335336   1.539931
                    6
     6  H    0.000000
 Stoichiometry    FH3O2
 Framework group  C1[X(FH3O2)]
 Deg. of freedom    12
 Full point group                 C1      NOp   1
 Largest Abelian subgroup         C1      NOp   1
 Largest concise Abelian subgroup C1      NOp   1
                         Standard orientation:                         
 ---------------------------------------------------------------------
 Center     Atomic      Atomic             Coordinates (Angstroms)
 Number     Number       Type             X           Y           Z
 ---------------------------------------------------------------------
      1          8           0       -1.760675   -0.077249   -0.000079
      2          8           0        0.848910    0.766083   -0.000524
      3          1           0       -0.112377    0.545905   -0.000140
      4          9           0        1.332167   -0.603022    0.000507
      5          1           0       -2.605712    0.388233    0.004552
      6          1           0       -1.977298   -1.017615   -0.004150
 ---------------------------------------------------------------------
 Rotational constants (GHZ):          28.3132239           4.8136042           4.1141505
 Standard basis: Aug-CC-pVDZ (5D, 7F)
 There are   102 symmetry adapted cartesian basis functions of A   symmetry.
 There are    96 symmetry adapted basis functions of A   symmetry.
    96 basis functions,   162 primitive gaussians,   102 cartesian basis functions
    14 alpha electrons       14 beta electrons
       nuclear repulsion energy        74.6451277875 Hartrees.
 NAtoms=    6 NActive=    6 NUniq=    6 SFac= 1.00D+00 NAtFMM=   60 NAOKFM=F Big=F
 Integral buffers will be    131072 words long.
 Raffenetti 1 integral format.
 Two-electron integral symmetry is turned on.
 One-electron integrals computed using PRISM.
 NBasis=    96 RedAO= T EigKep=  1.74D-03  NBF=    96
 NBsUse=    96 1.00D-06 EigRej= -1.00D+00 NBFU=    96
 Initial guess from the checkpoint file:  "/gscratch/scrubbed/gds001/Gau-9597.chk"
 B after Tr=     0.000000    0.000000   -0.000000
         Rot=    0.999989   -0.000019    0.000007    0.004648 Ang=  -0.53 deg.
 ExpMin= 2.97D-02 ExpMax= 1.47D+04 ExpMxC= 5.03D+02 IAcc=3 IRadAn=         5 AccDes= 0.00D+00
 Harris functional with IExCor=  205 and IRadAn=       5 diagonalized for initial guess.
 HarFok:  IExCor=  205 AccDes= 0.00D+00 IRadAn=         5 IDoV= 1 UseB2=F ITyADJ=14
 ICtDFT=  3500011 ScaDFX=  1.000000  1.000000  1.000000  1.000000
 FoFCou: FMM=F IPFlag=           0 FMFlag=      100000 FMFlg1=           0
         NFxFlg=           0 DoJE=T BraDBF=F KetDBF=T FulRan=T
         wScrn=  0.000000 ICntrl=       500 IOpCl=  0 I1Cent=   200000004 NGrid=           0
         NMat0=    1 NMatS0=      1 NMatT0=    0 NMatD0=    1 NMtDS0=    0 NMtDT0=    0
 Petite list used in FoFCou.
 Keep R1 ints in memory in canonical form, NReq=16745876.
 Requested convergence on RMS density matrix=1.00D-08 within 128 cycles.
 Requested convergence on MAX density matrix=1.00D-06.
 Requested convergence on             energy=1.00D-06.
 No special actions if energy rises.
 SCF Done:  E(RHF) =  -250.811189992     A.U. after   12 cycles
            NFock= 12  Conv=0.53D-08     -V/T= 2.0017
 ExpMin= 2.97D-02 ExpMax= 1.47D+04 ExpMxC= 5.03D+02 IAcc=3 IRadAn=         5 AccDes= 0.00D+00
 HarFok:  IExCor=  205 AccDes= 0.00D+00 IRadAn=         5 IDoV=-2 UseB2=F ITyADJ=14
 ICtDFT= 12500011 ScaDFX=  1.000000  1.000000  1.000000  1.000000
 Range of M.O.s used for correlation:     4    96
 NBasis=    96 NAE=    14 NBE=    14 NFC=     3 NFV=     0
 NROrb=     93 NOA=    11 NOB=    11 NVA=    82 NVB=    82
 Fully direct method using O(ONN) memory.
 JobTyp=1 Pass  1:  I=   4 to  14 NPSUse= 28 ParTrn=T ParDer=T DoDerP=T.
 Spin components of T(2) and E(2):
     alpha-alpha T2 =       0.2197018169D-01 E2=     -0.8354205303D-01
     alpha-beta  T2 =       0.1253824534D+00 E2=     -0.4752177224D+00
     beta-beta   T2 =       0.2197018169D-01 E2=     -0.8354205303D-01
 ANorm=    0.1081352309D+01
 E2 =    -0.6423018285D+00 EUMP2 =    -0.25145349182088D+03
          IDoAtm=111111
          Differentiating once with respect to electric field.
                with respect to dipole field.
          Differentiating once with respect to nuclear coordinates.
 Keep R1 ints in memory in canonical form, NReq=16749386.
          There are     1 degrees of freedom in the 1st order CPHF.  IDoFFX=0 NUNeed=     1.
 LinEq1:  Iter=  0 NonCon=     1 RMS=6.64D-03 Max=5.99D-02 NDo=     1
 AX will form     1 AO Fock derivatives at one time.
 LinEq1:  Iter=  1 NonCon=     1 RMS=1.71D-03 Max=1.35D-02 NDo=     1
 LinEq1:  Iter=  2 NonCon=     1 RMS=7.26D-04 Max=7.12D-03 NDo=     1
 LinEq1:  Iter=  3 NonCon=     1 RMS=2.23D-04 Max=1.75D-03 NDo=     1
 LinEq1:  Iter=  4 NonCon=     1 RMS=7.20D-05 Max=4.98D-04 NDo=     1
 LinEq1:  Iter=  5 NonCon=     1 RMS=1.94D-05 Max=1.95D-04 NDo=     1
 LinEq1:  Iter=  6 NonCon=     1 RMS=7.37D-06 Max=6.65D-05 NDo=     1
 LinEq1:  Iter=  7 NonCon=     1 RMS=1.62D-06 Max=1.66D-05 NDo=     1
 LinEq1:  Iter=  8 NonCon=     1 RMS=4.65D-07 Max=5.66D-06 NDo=     1
 LinEq1:  Iter=  9 NonCon=     1 RMS=1.10D-07 Max=8.97D-07 NDo=     1
 LinEq1:  Iter= 10 NonCon=     1 RMS=1.52D-08 Max=1.05D-07 NDo=     1
 LinEq1:  Iter= 11 NonCon=     1 RMS=3.23D-09 Max=3.74D-08 NDo=     1
 LinEq1:  Iter= 12 NonCon=     1 RMS=6.46D-10 Max=5.66D-09 NDo=     1
 LinEq1:  Iter= 13 NonCon=     0 RMS=9.89D-11 Max=6.80D-10 NDo=     1
 Linear equations converged to 1.000D-10 1.000D-09 after    13 iterations.
 End of Minotr F.D. properties file   721 does not exist.
 End of Minotr F.D. properties file   722 does not exist.
 End of Minotr F.D. properties file   788 does not exist.
 Calling FoFJK, ICntrl=  10002127 FMM=F ISym2X=0 I1Cent= 0 IOpClX= 0 NMat=1 NMatS=1 NMatT=0.
 ***** Axes restored to original set *****
 -------------------------------------------------------------------
 Center     Atomic                   Forces (Hartrees/Bohr)
 Number     Number              X              Y              Z
 -------------------------------------------------------------------
      1        8           0.001080197   -0.000657079    0.000748490
      2        8          -0.001160424   -0.000778689    0.000174024
      3        1          -0.000531003    0.001514350   -0.001149759
      4        9           0.001109424    0.000365863    0.000082701
      5        1          -0.000275910   -0.000501640    0.000249597
      6        1          -0.000222283    0.000057194   -0.000105054
 -------------------------------------------------------------------
 Cartesian Forces:  Max     0.001514350 RMS     0.000740289

 GradGradGradGradGradGradGradGradGradGradGradGradGradGradGradGradGradGrad
 Berny optimization.
 Using GEDIIS/GDIIS optimizer.
 FormGI is forming the generalized inverse of G from B-inverse, IUseBI=4.
 Internal  Forces:  Max     0.001444151 RMS     0.000607469
 Search for a local minimum.
 Step number   4 out of a maximum of  100
 All quantities printed in internal units (Hartrees-Bohrs-Radians)
 Mixed Optimization -- En-DIIS/RFO-DIIS
 Update second derivatives using D2CorX and points    1    2    3    4
 DE= -1.18D-04 DEPred=-8.54D-05 R= 1.38D+00
 TightC=F SS=  1.41D+00  RLast= 8.00D-02 DXNew= 8.4853D-01 2.3992D-01
 Trust test= 1.38D+00 RLast= 8.00D-02 DXMaxT set to 5.05D-01
 The second derivative matrix:
                          R1        R2        R3        R4        R5
           R1           0.04364
           R2           0.00533   0.52651
           R3           0.00534  -0.00016   0.52574
           R4           0.01212  -0.00163  -0.00154   0.50259
           R5          -0.04633  -0.00175  -0.00130   0.00786   0.50357
           A1          -0.00241   0.00196   0.00210   0.00281  -0.02929
           A2           0.01338  -0.00238  -0.00239  -0.00488   0.02198
           A3          -0.01097   0.00041   0.00029   0.00207   0.00731
           A4          -0.00360  -0.00355  -0.00259  -0.00282   0.04872
           A5           0.00671   0.00021   0.00012  -0.00066  -0.01145
           A6           0.00002  -0.00000  -0.00000  -0.00001   0.00001
           D1           0.00001   0.00000   0.00000  -0.00000  -0.00002
           D2          -0.00001   0.00000   0.00001   0.00000  -0.00003
           D3          -0.00005   0.00001   0.00001   0.00002  -0.00015
                          A1        A2        A3        A4        A5
           A1           0.16642
           A2          -0.00004   0.15500
           A3          -0.00639   0.00504   0.16135
           A4          -0.00563   0.00235   0.00329   0.21214
           A5           0.00445  -0.00323  -0.00122  -0.01019   0.01437
           A6           0.00001  -0.00001   0.00000   0.00000  -0.00000
           D1           0.00001  -0.00001  -0.00000  -0.00001   0.00000
           D2           0.00001   0.00000  -0.00001   0.00002   0.00000
           D3           0.00002   0.00002  -0.00003  -0.00003   0.00002
                          A6        D1        D2        D3
           A6           0.01236
           D1          -0.00000   0.00230
           D2           0.00000   0.00000   0.00230
           D3           0.00000   0.00000   0.00000   0.01378
 ITU=  1  1  1  0
 Use linear search instead of GDIIS.
     Eigenvalues ---    0.00230   0.00859   0.01201   0.01259   0.03679
     Eigenvalues ---    0.15355   0.16845   0.20470   0.50139   0.51927
     Eigenvalues ---    0.52618   0.52901
 RFO step:  Lambda=-4.69113165D-05 EMin= 2.30000820D-03
 Quartic linear search produced a step of  0.41801.
 Iteration  1 RMS(Cart)=  0.01281466 RMS(Int)=  0.00003733
 Iteration  2 RMS(Cart)=  0.00004488 RMS(Int)=  0.00000045
 Iteration  3 RMS(Cart)=  0.00000000 RMS(Int)=  0.00000045
 Variable       Old X    -DE/DX   Delta X   Delta X   Delta X     New X
                                 (Linear)    (Quad)   (Total)
    R1        3.33000   0.00144   0.02069   0.02071   0.04140   3.37140
    R2        1.82315   0.00011  -0.00027   0.00001  -0.00026   1.82289
    R3        1.82359   0.00012  -0.00033   0.00008  -0.00025   1.82334
    R4        1.86361  -0.00047  -0.00132  -0.00076  -0.00209   1.86152
    R5        2.74368  -0.00116   0.00431  -0.00246   0.00185   2.74552
    A1        2.27664   0.00088   0.00008   0.00659   0.00667   2.28331
    A2        2.15865  -0.00064  -0.00382  -0.00457  -0.00839   2.15026
    A3        1.84789  -0.00024   0.00374  -0.00202   0.00172   1.84961
    A4        1.68496   0.00046  -0.00147   0.00362   0.00215   1.68711
    A5        3.00530   0.00018  -0.02526   0.01535  -0.00991   2.99539
    A6        3.14106  -0.00000  -0.00008  -0.00001  -0.00009   3.14097
    D1        3.13444  -0.00000  -0.00024   0.00018  -0.00006   3.13438
    D2       -0.00573   0.00000  -0.00002   0.00057   0.00055  -0.00518
    D3       -3.14057   0.00000   0.00014   0.00042   0.00056  -3.14001
         Item               Value     Threshold  Converged?
 Maximum Force            0.001444     0.000450     NO 
 RMS     Force            0.000607     0.000300     NO 
 Maximum Displacement     0.022177     0.001800     NO 
 RMS     Displacement     0.012794     0.001200     NO 
 Predicted change in Energy=-3.352201D-05
 GradGradGradGradGradGradGradGradGradGradGradGradGradGradGradGradGradGrad

                          Input orientation:                          
 ---------------------------------------------------------------------
 Center     Atomic      Atomic             Coordinates (Angstroms)
 Number     Number       Type             X           Y           Z
 ---------------------------------------------------------------------
      1          8           0       -0.038762    3.599826   -0.092111
      2          8           0       -0.335352    5.853577   -1.661603
      3          1           0       -0.140461    5.073760   -1.092148
      4          9           0       -1.741669    5.558465   -1.876092
      5          1           0        0.706509    3.206385    0.377242
      6          1           0       -0.792848    3.021460    0.074694
 ---------------------------------------------------------------------
                    Distance matrix (angstroms):
                    1          2          3          4          5
     1  O    0.000000
     2  O    2.762365   0.000000
     3  H    1.784068   0.985076   0.000000
     4  F    3.149404   1.452868   1.847531   0.000000
     5  H    0.964633   3.499998   2.522608   4.074723   0.000000
     6  H    0.964871   3.353344   2.449298   3.337996   1.540716
                    6
     6  H    0.000000
 Stoichiometry    FH3O2
 Framework group  C1[X(FH3O2)]
 Deg. of freedom    12
 Full point group                 C1      NOp   1
 Largest Abelian subgroup         C1      NOp   1
 Largest concise Abelian subgroup C1      NOp   1
                         Standard orientation:                         
 ---------------------------------------------------------------------
 Center     Atomic      Atomic             Coordinates (Angstroms)
 Number     Number       Type             X           Y           Z
 ---------------------------------------------------------------------
      1          8           0       -1.771345   -0.074663   -0.000129
      2          8           0        0.859732    0.766821   -0.000491
      3          1           0       -0.102597    0.556350   -0.000085
      4          9           0        1.332763   -0.606884    0.000483
      5          1           0       -2.619379    0.385049    0.004511
      6          1           0       -1.979978   -1.016701   -0.003819
 ---------------------------------------------------------------------
 Rotational constants (GHZ):          28.1437975           4.7678365           4.0771332
 Standard basis: Aug-CC-pVDZ (5D, 7F)
 There are   102 symmetry adapted cartesian basis functions of A   symmetry.
 There are    96 symmetry adapted basis functions of A   symmetry.
    96 basis functions,   162 primitive gaussians,   102 cartesian basis functions
    14 alpha electrons       14 beta electrons
       nuclear repulsion energy        74.4438852465 Hartrees.
 NAtoms=    6 NActive=    6 NUniq=    6 SFac= 1.00D+00 NAtFMM=   60 NAOKFM=F Big=F
 Integral buffers will be    131072 words long.
 Raffenetti 1 integral format.
 Two-electron integral symmetry is turned on.
 One-electron integrals computed using PRISM.
 NBasis=    96 RedAO= T EigKep=  1.74D-03  NBF=    96
 NBsUse=    96 1.00D-06 EigRej= -1.00D+00 NBFU=    96
 Initial guess from the checkpoint file:  "/gscratch/scrubbed/gds001/Gau-9597.chk"
 B after Tr=     0.000000    0.000000   -0.000000
         Rot=    0.999999   -0.000004    0.000001    0.001080 Ang=  -0.12 deg.
 ExpMin= 2.97D-02 ExpMax= 1.47D+04 ExpMxC= 5.03D+02 IAcc=3 IRadAn=         5 AccDes= 0.00D+00
 Harris functional with IExCor=  205 and IRadAn=       5 diagonalized for initial guess.
 HarFok:  IExCor=  205 AccDes= 0.00D+00 IRadAn=         5 IDoV= 1 UseB2=F ITyADJ=14
 ICtDFT=  3500011 ScaDFX=  1.000000  1.000000  1.000000  1.000000
 FoFCou: FMM=F IPFlag=           0 FMFlag=      100000 FMFlg1=           0
         NFxFlg=           0 DoJE=T BraDBF=F KetDBF=T FulRan=T
         wScrn=  0.000000 ICntrl=       500 IOpCl=  0 I1Cent=   200000004 NGrid=           0
         NMat0=    1 NMatS0=      1 NMatT0=    0 NMatD0=    1 NMtDS0=    0 NMtDT0=    0
 Petite list used in FoFCou.
 Keep R1 ints in memory in canonical form, NReq=16745744.
 Requested convergence on RMS density matrix=1.00D-08 within 128 cycles.
 Requested convergence on MAX density matrix=1.00D-06.
 Requested convergence on             energy=1.00D-06.
 No special actions if energy rises.
 SCF Done:  E(RHF) =  -250.811271470     A.U. after   11 cycles
            NFock= 11  Conv=0.43D-08     -V/T= 2.0017
 ExpMin= 2.97D-02 ExpMax= 1.47D+04 ExpMxC= 5.03D+02 IAcc=3 IRadAn=         5 AccDes= 0.00D+00
 HarFok:  IExCor=  205 AccDes= 0.00D+00 IRadAn=         5 IDoV=-2 UseB2=F ITyADJ=14
 ICtDFT= 12500011 ScaDFX=  1.000000  1.000000  1.000000  1.000000
 Range of M.O.s used for correlation:     4    96
 NBasis=    96 NAE=    14 NBE=    14 NFC=     3 NFV=     0
 NROrb=     93 NOA=    11 NOB=    11 NVA=    82 NVB=    82
 Fully direct method using O(ONN) memory.
 JobTyp=1 Pass  1:  I=   4 to  14 NPSUse= 28 ParTrn=T ParDer=T DoDerP=T.
 Spin components of T(2) and E(2):
     alpha-alpha T2 =       0.2196958967D-01 E2=     -0.8351046918D-01
     alpha-beta  T2 =       0.1254746939D+00 E2=     -0.4752500538D+00
     beta-beta   T2 =       0.2196958967D-01 E2=     -0.8351046918D-01
 ANorm=    0.1081394412D+01
 E2 =    -0.6422709922D+00 EUMP2 =    -0.25145354246176D+03
          IDoAtm=111111
          Differentiating once with respect to electric field.
                with respect to dipole field.
          Differentiating once with respect to nuclear coordinates.
 Keep R1 ints in memory in canonical form, NReq=16749298.
          There are     1 degrees of freedom in the 1st order CPHF.  IDoFFX=0 NUNeed=     1.
 LinEq1:  Iter=  0 NonCon=     1 RMS=6.64D-03 Max=5.99D-02 NDo=     1
 AX will form     1 AO Fock derivatives at one time.
 LinEq1:  Iter=  1 NonCon=     1 RMS=1.71D-03 Max=1.34D-02 NDo=     1
 LinEq1:  Iter=  2 NonCon=     1 RMS=7.25D-04 Max=7.47D-03 NDo=     1
 LinEq1:  Iter=  3 NonCon=     1 RMS=2.23D-04 Max=1.75D-03 NDo=     1
 LinEq1:  Iter=  4 NonCon=     1 RMS=7.22D-05 Max=4.99D-04 NDo=     1
 LinEq1:  Iter=  5 NonCon=     1 RMS=1.96D-05 Max=1.96D-04 NDo=     1
 LinEq1:  Iter=  6 NonCon=     1 RMS=7.41D-06 Max=6.66D-05 NDo=     1
 LinEq1:  Iter=  7 NonCon=     1 RMS=1.62D-06 Max=1.67D-05 NDo=     1
 LinEq1:  Iter=  8 NonCon=     1 RMS=4.65D-07 Max=5.63D-06 NDo=     1
 LinEq1:  Iter=  9 NonCon=     1 RMS=1.10D-07 Max=8.97D-07 NDo=     1
 LinEq1:  Iter= 10 NonCon=     1 RMS=1.52D-08 Max=1.06D-07 NDo=     1
 LinEq1:  Iter= 11 NonCon=     1 RMS=3.25D-09 Max=3.75D-08 NDo=     1
 LinEq1:  Iter= 12 NonCon=     1 RMS=6.48D-10 Max=5.67D-09 NDo=     1
 LinEq1:  Iter= 13 NonCon=     0 RMS=9.90D-11 Max=6.80D-10 NDo=     1
 Linear equations converged to 1.000D-10 1.000D-09 after    13 iterations.
 End of Minotr F.D. properties file   721 does not exist.
 End of Minotr F.D. properties file   722 does not exist.
 End of Minotr F.D. properties file   788 does not exist.
 Calling FoFJK, ICntrl=  10002127 FMM=F ISym2X=0 I1Cent= 0 IOpClX= 0 NMat=1 NMatS=1 NMatT=0.
 ***** Axes restored to original set *****
 -------------------------------------------------------------------
 Center     Atomic                   Forces (Hartrees/Bohr)
 Number     Number              X              Y              Z
 -------------------------------------------------------------------
      1        8           0.001019688    0.000320951    0.000089347
      2        8          -0.001675090   -0.000478283   -0.000173492
      3        1          -0.000705780    0.000603973   -0.000601180
      4        9           0.001862216    0.000366671    0.000300679
      5        1          -0.000358971   -0.000676308    0.000340149
      6        1          -0.000142062   -0.000137005    0.000044497
 -------------------------------------------------------------------
 Cartesian Forces:  Max     0.001862216 RMS     0.000740700

 GradGradGradGradGradGradGradGradGradGradGradGradGradGradGradGradGradGrad
 Berny optimization.
 Using GEDIIS/GDIIS optimizer.
 FormGI is forming the generalized inverse of G from B-inverse, IUseBI=4.
 Internal  Forces:  Max     0.001921419 RMS     0.000643349
 Search for a local minimum.
 Step number   5 out of a maximum of  100
 All quantities printed in internal units (Hartrees-Bohrs-Radians)
 Mixed Optimization -- En-DIIS/RFO-DIIS
 Swapping is turned off.
 Update second derivatives using D2CorX and points    1    2    3    4    5
 DE= -5.06D-05 DEPred=-3.35D-05 R= 1.51D+00
 TightC=F SS=  1.41D+00  RLast= 4.41D-02 DXNew= 8.4853D-01 1.3225D-01
 Trust test= 1.51D+00 RLast= 4.41D-02 DXMaxT set to 5.05D-01
 The second derivative matrix:
                          R1        R2        R3        R4        R5
           R1           0.02831
           R2           0.00176   0.52630
           R3           0.00104  -0.00031   0.52569
           R4           0.01645  -0.00070  -0.00019   0.50231
           R5          -0.00589   0.00097  -0.00027  -0.00924   0.51054
           A1          -0.02285   0.00056   0.00111   0.01110  -0.02741
           A2           0.02326  -0.00117  -0.00106  -0.00829   0.01107
           A3          -0.00040   0.00061  -0.00005  -0.00281   0.01634
           A4          -0.00219  -0.00500  -0.00476  -0.00528   0.07638
           A5           0.00311  -0.00011  -0.00001   0.00111  -0.01291
           A6           0.00001   0.00000   0.00000  -0.00000  -0.00003
           D1           0.00002   0.00000   0.00000  -0.00001  -0.00001
           D2          -0.00004   0.00000   0.00001   0.00001  -0.00005
           D3          -0.00016   0.00001   0.00001   0.00007  -0.00015
                          A1        A2        A3        A4        A5
           A1           0.16096
           A2           0.00717   0.15020
           A3          -0.00813   0.00263   0.16550
           A4          -0.01618   0.00450   0.01168   0.21773
           A5           0.00459  -0.00231  -0.00228  -0.01311   0.01466
           A6           0.00002  -0.00001  -0.00001  -0.00001   0.00000
           D1           0.00000  -0.00001   0.00000  -0.00001   0.00000
           D2           0.00001   0.00001  -0.00002   0.00000   0.00001
           D3          -0.00001   0.00006  -0.00004  -0.00008   0.00002
                          A6        D1        D2        D3
           A6           0.01236
           D1          -0.00000   0.00230
           D2           0.00000  -0.00000   0.00230
           D3           0.00000   0.00000   0.00000   0.01378
 ITU=  1  1  1  1  0
     Eigenvalues ---    0.00230   0.00861   0.01174   0.01260   0.02070
     Eigenvalues ---    0.15105   0.16619   0.20338   0.49935   0.52554
     Eigenvalues ---    0.52647   0.53776
 En-DIIS/RFO-DIIS/Sim-DIIS IScMMF=       -3 using points:     5    4
 RFO step:  Lambda=-5.54784046D-05.
 DidBck=F Rises=F RFO-DIIS coefs:    2.06094   -1.06094
 Iteration  1 RMS(Cart)=  0.01491635 RMS(Int)=  0.00003489
 Iteration  2 RMS(Cart)=  0.00003332 RMS(Int)=  0.00000154
 Iteration  3 RMS(Cart)=  0.00000000 RMS(Int)=  0.00000154
 Variable       Old X    -DE/DX   Delta X   Delta X   Delta X     New X
                                 (Linear)    (Quad)   (Total)
    R1        3.37140   0.00070   0.04392   0.00118   0.04511   3.41650
    R2        1.82289   0.00016  -0.00028   0.00042   0.00015   1.82304
    R3        1.82334   0.00020  -0.00026   0.00052   0.00026   1.82360
    R4        1.86152  -0.00020  -0.00221  -0.00015  -0.00237   1.85916
    R5        2.74552  -0.00192   0.00196  -0.00462  -0.00266   2.74286
    A1        2.28331   0.00098   0.00708   0.00578   0.01286   2.29617
    A2        2.15026  -0.00047  -0.00890  -0.00181  -0.01071   2.13955
    A3        1.84961  -0.00051   0.00182  -0.00397  -0.00215   1.84746
    A4        1.68711  -0.00008   0.00228  -0.00012   0.00216   1.68927
    A5        2.99539   0.00021  -0.01051   0.00887  -0.00164   2.99375
    A6        3.14097  -0.00000  -0.00010   0.00009  -0.00001   3.14096
    D1        3.13438  -0.00000  -0.00006   0.00004  -0.00002   3.13436
    D2       -0.00518   0.00000   0.00058   0.00051   0.00109  -0.00409
    D3       -3.14001   0.00000   0.00059   0.00041   0.00101  -3.13900
         Item               Value     Threshold  Converged?
 Maximum Force            0.001921     0.000450     NO 
 RMS     Force            0.000643     0.000300     NO 
 Maximum Displacement     0.027040     0.001800     NO 
 RMS     Displacement     0.014908     0.001200     NO 
 Predicted change in Energy=-2.780402D-05
 GradGradGradGradGradGradGradGradGradGradGradGradGradGradGradGradGradGrad

                          Input orientation:                          
 ---------------------------------------------------------------------
 Center     Atomic      Atomic             Coordinates (Angstroms)
 Number     Number       Type             X           Y           Z
 ---------------------------------------------------------------------
      1          8           0       -0.032437    3.592391   -0.085113
      2          8           0       -0.340508    5.862111   -1.668961
      3          1           0       -0.141249    5.084804   -1.099755
      4          9           0       -1.745215    5.564194   -1.880583
      5          1           0        0.707438    3.192077    0.387117
      6          1           0       -0.790612    3.017897    0.077276
 ---------------------------------------------------------------------
                    Distance matrix (angstroms):
                    1          2          3          4          5
     1  O    0.000000
     2  O    2.784801   0.000000
     3  H    1.807937   0.983823   0.000000
     4  F    3.169436   1.451461   1.847217   0.000000
     5  H    0.964711   3.529127   2.552151   4.096939   0.000000
     6  H    0.965009   3.367713   2.465598   3.350836   1.539641
                    6
     6  H    0.000000
 Stoichiometry    FH3O2
 Framework group  C1[X(FH3O2)]
 Deg. of freedom    12
 Full point group                 C1      NOp   1
 Largest Abelian subgroup         C1      NOp   1
 Largest concise Abelian subgroup C1      NOp   1
                         Standard orientation:                         
 ---------------------------------------------------------------------
 Center     Atomic      Atomic             Coordinates (Angstroms)
 Number     Number       Type             X           Y           Z
 ---------------------------------------------------------------------
      1          8           0       -1.785687   -0.072093   -0.000218
      2          8           0        0.870098    0.765713   -0.000420
      3          1           0       -0.092151    0.560812   -0.000057
      4          9           0        1.338072   -0.608236    0.000431
      5          1           0       -2.637886    0.380019    0.004396
      6          1           0       -1.987899   -1.015673   -0.003120
 ---------------------------------------------------------------------
 Rotational constants (GHZ):          28.1489274           4.7015042           4.0286342
 Standard basis: Aug-CC-pVDZ (5D, 7F)
 There are   102 symmetry adapted cartesian basis functions of A   symmetry.
 There are    96 symmetry adapted basis functions of A   symmetry.
    96 basis functions,   162 primitive gaussians,   102 cartesian basis functions
    14 alpha electrons       14 beta electrons
       nuclear repulsion energy        74.2368838792 Hartrees.
 NAtoms=    6 NActive=    6 NUniq=    6 SFac= 1.00D+00 NAtFMM=   60 NAOKFM=F Big=F
 Integral buffers will be    131072 words long.
 Raffenetti 1 integral format.
 Two-electron integral symmetry is turned on.
 One-electron integrals computed using PRISM.
 NBasis=    96 RedAO= T EigKep=  1.75D-03  NBF=    96
 NBsUse=    96 1.00D-06 EigRej= -1.00D+00 NBFU=    96
 Initial guess from the checkpoint file:  "/gscratch/scrubbed/gds001/Gau-9597.chk"
 B after Tr=    -0.000000   -0.000000    0.000000
         Rot=    1.000000   -0.000003    0.000001    0.000734 Ang=  -0.08 deg.
 ExpMin= 2.97D-02 ExpMax= 1.47D+04 ExpMxC= 5.03D+02 IAcc=3 IRadAn=         5 AccDes= 0.00D+00
 Harris functional with IExCor=  205 and IRadAn=       5 diagonalized for initial guess.
 HarFok:  IExCor=  205 AccDes= 0.00D+00 IRadAn=         5 IDoV= 1 UseB2=F ITyADJ=14
 ICtDFT=  3500011 ScaDFX=  1.000000  1.000000  1.000000  1.000000
 FoFCou: FMM=F IPFlag=           0 FMFlag=      100000 FMFlg1=           0
         NFxFlg=           0 DoJE=T BraDBF=F KetDBF=T FulRan=T
         wScrn=  0.000000 ICntrl=       500 IOpCl=  0 I1Cent=   200000004 NGrid=           0
         NMat0=    1 NMatS0=      1 NMatT0=    0 NMatD0=    1 NMtDS0=    0 NMtDT0=    0
 Petite list used in FoFCou.
 Keep R1 ints in memory in canonical form, NReq=16745480.
 Requested convergence on RMS density matrix=1.00D-08 within 128 cycles.
 Requested convergence on MAX density matrix=1.00D-06.
 Requested convergence on             energy=1.00D-06.
 No special actions if energy rises.
 SCF Done:  E(RHF) =  -250.811526271     A.U. after   11 cycles
            NFock= 11  Conv=0.52D-08     -V/T= 2.0017
 ExpMin= 2.97D-02 ExpMax= 1.47D+04 ExpMxC= 5.03D+02 IAcc=3 IRadAn=         5 AccDes= 0.00D+00
 HarFok:  IExCor=  205 AccDes= 0.00D+00 IRadAn=         5 IDoV=-2 UseB2=F ITyADJ=14
 ICtDFT= 12500011 ScaDFX=  1.000000  1.000000  1.000000  1.000000
 Range of M.O.s used for correlation:     4    96
 NBasis=    96 NAE=    14 NBE=    14 NFC=     3 NFV=     0
 NROrb=     93 NOA=    11 NOB=    11 NVA=    82 NVB=    82
 Fully direct method using O(ONN) memory.
 JobTyp=1 Pass  1:  I=   4 to  14 NPSUse= 28 ParTrn=T ParDer=T DoDerP=T.
 Spin components of T(2) and E(2):
     alpha-alpha T2 =       0.2195395878D-01 E2=     -0.8346466153D-01
     alpha-beta  T2 =       0.1254118135D+00 E2=     -0.4751232577D+00
     beta-beta   T2 =       0.2195395878D-01 E2=     -0.8346466153D-01
 ANorm=    0.1081350882D+01
 E2 =    -0.6420525808D+00 EUMP2 =    -0.25145357885136D+03
          IDoAtm=111111
          Differentiating once with respect to electric field.
                with respect to dipole field.
          Differentiating once with respect to nuclear coordinates.
 Keep R1 ints in memory in canonical form, NReq=16748858.
          There are     1 degrees of freedom in the 1st order CPHF.  IDoFFX=0 NUNeed=     1.
[...]
 2,0.00253460,0.00461364,-0.00001056,-0.00307394,-0.00179902,-0.0026460
 4,0.00053727,-0.00262981,-0.00010021,0.00002038,-0.00019704,0.00039562
 ,-0.00737851,-0.00079071,0.00069325,0.00472654,0.00074902,-0.00095933,
 0.00262949,0.00033617,0.04227972,-0.16319893,-0.12293077,0.00032271,-0
 .00053349,0.00013560,-0.00051480,0.00121565,-0.00016486,-0.00012060,0.
 00004338,-0.00007782,-0.05928196,-0.18435108,0.22771731,0.31494673,-0.
 00052536,0.00062065,-0.00028303,0.00049137,0.00020570,0.00050822,0.000
 06865,-0.00011080,-0.00002693,0.17754015,-0.22078787,-0.14098933,0.304
 59792,0.05800738,-0.00025451,0.00028309,0.00052769,0.00063512,-0.00171
 013,-0.00111615,-0.00000009,0.00009026,0.00006115,0.15362447,-0.320140
 20,-0.06101491,0.33975281,0.22880315,-0.23807851,0.00061626,0.00025010
 ,-0.00048871,-0.00150156,-0.00102739,0.00101408,0.00006054,0.00003232,
 0.00004849,0.01731493,0.00677627,-0.01301566,-0.35624298,0.24917444,-0
 .04091115,-0.05845120,-0.00016772,0.00025866,-0.00044547,0.00099801,0.
 00080511,-0.00001137,-0.00010351,-0.00007264,0.00002904,-0.01506676,-0
 .00764498,0.01687906,-0.23483445,0.04756499,-0.21972695,-0.04709679,0.
 02841684,0.00005489,-0.00048656,0.00059218,-0.00027420,0.00053473,-0.0
 0071927,0.00001257,0.00005346,-0.00015859,-0.03058662,0.00499522,0.003
 53484,0.25052031,0.04199994,-0.03166602,-0.01419242,-0.00774910,-0.009
 96762,0.02229706,-0.01701468,0.00564934,0.00066012,0.00121472,-0.00095
 820,-0.00246968,0.00151806,-0.00399257,0.00383861,-0.00076593,-0.00890
 695,-0.00107168,0.00344899,-0.00161578,-0.00481630,0.00292132,-0.00576
 129,-0.00062353,0.00133430,-0.00038498,-0.00174669,-0.00440035,0.00119
 842,0.00153578,0.00110563,-0.00292246,0.00224334,-0.00496064,0.0120285
 4,-0.01138238,0.00360199,-0.00883088,-0.00030053,0.00253805,-0.0020489
 7,0.00140796,-0.01066343,0.00442672,-0.00199886,0.00868686,-0.00379195
 ,0.00003315,0.00017554,-0.00013803,0.00359233,0.00334103,0.00481899,0.
 00062877,0.00039074,0.00088382,-0.00424560,-0.00015879,-0.00023179,-0.
 00008263,0.00429126,0.00109851,0.00465329,-0.00016881,-0.00023182,-0.0
 0019662,-0.00396784,-0.00055607,-0.00001216,0.00034530,-0.00005631,0.0
 0446292,0.00343524,0.00327530,0.00109306,0.00052123,0.00102854,-0.0055
 5961,-0.00440060,-0.00420867,-0.00021522,-0.00507408,-0.00841800,0.000
 05046,-0.00001737,-0.00004582,-0.00018587,0.00029063,-0.00011048,-0.00
 000266,-0.00000913,0.00003282,0.00062669,-0.00626157,0.01400211,0.0135
 1930,0.00007952,-0.00006043,0.00018229,-0.00000918,-0.00015345,-0.0002
 1882,0.00000987,-0.00003034,0.00005751,0.00582443,-0.01330644,-0.00899
 373,0.01247519,0.00081195,0.00003548,0.00032687,-0.00028419,-0.0001519
 7,-0.00019023,0.00061327,-0.00001500,0.00002537,-0.00003029,0.00822889
 ,-0.01259279,-0.00141962,0.01433790,0.01009861,-0.01239785,-0.00008656
 ,0.00032457,-0.00008361,0.00039154,-0.00042835,0.00011809,-0.00000599,
 0.00001331,-0.00001703,-0.00027340,0.00035694,0.00089634,-0.01436348,0
 .01154575,0.00311234,-0.00250394,0.00014108,-0.00016713,0.00017651,-0.
 00035795,0.00011007,-0.00014604,0.00005066,-0.00004848,0.00004131,-0.0
 0101447,-0.00045144,-0.00004440,-0.01036508,-0.00255536,-0.01191896,-0
 .00179285,-0.00274023,-0.00013185,0.00014141,-0.00004078,0.00024432,0.
 00012119,-0.00022761,0.00000983,0.00000119,-0.00000856,0.00031260,-0.0
 0094750,0.00030889,0.01148406,0.00247656,0.00270828,-0.40222714,-0.132
 31299,-0.44527935,0.55542395,-0.30074275,0.02730165,-0.00129913,0.0006
 3918,0.00012434,-0.00112591,0.00031438,0.00065267,-0.00043182,-0.00110
 954,-0.00090327,0.00024888,-0.00002372,-0.00126057,-0.00111357,-0.0010
 5576,-0.00095803,0.00471152,-0.00196750,0.00108412,0.00086776,0.000058
 37,0.00003520,-0.00388582,0.00194827,-0.00169329,0.00478986,-0.0001375
 5,-0.00222392,0.00096662,0.00055218,0.00573515,-0.00039055,-0.00021135
 ,0.00402941,0.00010896,0.00121640,0.00049743,-0.00065877,-0.00277333,-
 0.00332745,-0.00040642,0.00016500,-0.00055482,0.00095567,0.00063998,0.
 00104367,0.00011202,0.00013963,0.00021818,-0.00082173,-0.00037421,-0.0
 0026217,-0.00038904,0.00131113,0.00065812,0.00141623,-0.00036060,0.000
 36746,-0.00063609,-0.00086287,-0.00054995,-0.00035225,0.00030144,-0.00
 058517,0.00079158,0.00055714,0.00076332,0.00040606,0.00000387,0.000417
 75,-0.00087459,-0.00085857,-0.00068801,-0.00828287,-0.13466653,-0.2273
 5743,-0.00014591,0.00022236,0.00008644,0.00023953,-0.00081264,-0.00057
 513,0.00005885,0.00004007,0.00001923,0.01564906,-0.16925584,0.36914308
 ,0.36421384,-0.00030125,0.00088022,-0.00064445,0.00062018,-0.00125007,
 0.00140044,-0.00002450,-0.00007929,-0.00001124,0.15892580,-0.35317995,
 -0.24455187,0.34554606,0.04699414,-0.00040662,-0.00004546,0.00095297,0
 .00087089,-0.00247803,-0.00179391,0.00010336,0.00031344,0.00004019,0.2
 2014895,-0.34453114,-0.05216238,0.40750404,0.26814284,-0.32872017,0.00
 074750,-0.00012554,-0.00030062,-0.00204501,-0.00168990,0.00129730,0.00
 010164,0.00024647,0.00000997,-0.00751866,0.01003561,0.02383527,-0.3987
 8951,0.29968038,0.07743905,-0.06744010,-0.00040196,0.00093617,-0.00065
 892,0.00109737,-0.00093534,0.00100392,-0.00005725,-0.00013416,0.000007
 36,-0.02370906,-0.01551400,0.00119513,-0.27660949,-0.06179171,-0.31037
 817,-0.04486970,-0.07647945,0.00049531,-0.00024049,0.00000487,-0.00173
 751,-0.00050899,0.00017677,0.00006418,0.00015401,0.00005194,0.00767793
 ,-0.02042744,0.00596900,0.30387825,0.06589260,0.07027688,-0.09164898,-
 0.00651052,-0.04321004,0.07556743,-0.04800549,-0.03395560,-0.00157480,
 0.00155527,0.00038156,0.18706447,0.00082692,-0.00216921,0.00099974,0.1
 5173886,-0.57800057,0.00065760,0.00192706,-0.00221568,-0.27043780,0.54
 393427,-0.19630144,0.01522967,-0.00512549,-0.00854852,-0.17208604,-0.1
 3431218,0.25768275,0.15155927,-0.00056136,0.00268899,0.00706039,-0.161
 90840,0.56314898,-0.54393333,0.14941323,-0.55391408,-0.01026723,0.0012
 3087,0.00982197,0.26804162,-0.50862496,0.19980778,-0.25513136,0.514361
 02,-0.21239441,-0.00022244,-0.00021840,0.00080734,-0.01396938,-0.01774
 862,0.01206634,0.00670003,0.01339685,-0.00476102,0.00741778,-0.0001115
 9,-0.00001418,-0.00043413,0.00919687,0.01567312,-0.00093500,-0.0133962
 9,-0.00585006,-0.01251083,0.00432236,-0.00952349,0.00076676,-0.0005710
 8,0.00040721,0.00195297,-0.03541336,-0.00239402,0.00529532,0.02177294,
 0.00509687,-0.00782328,0.01370142,-0.00289992,0.00926358,-0.03156910,-
 0.02268338,0.00025863,-0.00031964,-0.00011577,0.00090239,-0.00011939,-
 0.00011123,0.00003540,-0.00002789,-0.00010326,-0.01342376,-0.03218422,
 0.04510368,0.05129847,-0.00004837,0.00062388,-0.00064120,-0.00173376,-
 0.00217900,0.00543788,0.00018999,-0.00015536,0.00020576,0.03389589,-0.
 04146967,-0.02925136,0.05702201,0.01905667,0.00008744,-0.00040598,0.00
 062461,0.00342005,-0.00093860,-0.00363066,-0.00015441,0.00010983,-0.00
 009071,0.02801732,-0.05776925,-0.01678810,0.06895295,0.04186823,-0.045
 52443,0.00030712,-0.00018533,0.00014688,-0.00230533,-0.00022093,0.0022
 2923,0.00003859,0.00001654,-0.00008852,0.00296376,-0.00011953,-0.00211
 904,-0.06995709,0.03854076,-0.00239925,-0.01091898,-0.00053421,0.00072
 381,-0.00035180,0.00515447,-0.00389483,0.00010601,0.00005782,-0.000130
 04,0.00030432,-0.00185986,-0.00192353,0.00198198,-0.04135898,0.0076238
 4,-0.03747320,-0.01160339,0.00688542,-0.00002579,-0.00048971,0.0004787
 5,-0.00271824,0.00167758,0.00129845,-0.00013497,0.00006871,-0.00011943
 ,-0.00500368,0.00146834,0.00082819,0.04535588,0.00887847,-0.00937139,-
 0.00034160,0.00007957,0.00013828,-0.00004227,-0.00008201,-0.00035454,0
 .00025545,-0.00016872,0.00016161,0.07700391,0.00012830,0.00022465,0.00
 014713,0.09889232,0.02211893,0.00005004,-0.00023335,0.00033040,0.10974
 169,0.10405395,0.06358672,0.00018237,0.00021243,-0.00020569,-0.0037088
 8,-0.00873250,0.00579246,0.00603942,0.00004681,-0.00075799,0.00045030,
 -0.00805692,0.01285563,-0.01726588,0.00835999,-0.01703503,-0.00014363,
 0.00066257,-0.00015155,0.00553854,-0.01812980,0.00821641,-0.00038615,0
 .01855174,-0.00356759,-0.00015602,-0.00014026,0.00014452,-0.07345503,-
 0.09020142,-0.11556095,-0.00246858,-0.00040640,-0.00497640,0.07596470,
 -0.00023653,0.00014229,-0.00044182,-0.09056787,-0.03524187,-0.08639267
 ,0.00009557,0.00494960,-0.00115839,0.09062503,0.03017839,0.00018073,-0
 .00031841,0.00012282,-0.11542305,-0.08592468,-0.07211278,-0.00516519,-
 0.00180004,-0.00439211,0.12037738,0.08784972,0.07634935,-0.00000218,-0
 .00001248,-0.00003079,-0.00003512,-0.00003118,-0.00001681,0.00000837,0
 .00001337,0.00000811,-0.00000022,0.00005617,-0.00001345,0.00003897,0.0
 0005308,0.00011896,-0.00007848,-0.00011166,0.00003504,-0.00003384,0.00
 000134,0.00000456,0.00004720,0.00012597,-0.00003233,0.00006786,-0.0000
 4023,-0.00012392,-0.00004841,0.00001614,0.00006679,0.00001960,-0.00009
 432,-0.00003654,-0.00001332,0.00003557,-0.00009379,-0.00001568,0.00008
 048,0.00009220,0.00007189,-0.00001240,-0.00001279,0.00006195,0.0000294
 5,-0.00002737,-0.00006037,-0.00005551,-0.00000643,-0.00005270,0.000043
 16,-0.00004047,0.00011516,0.00002763,0.00004358,-0.00000981,-0.0000284
 9,-0.00001407,-0.00005422,-0.00007124,0.00013379,0.00000487,0.00001287
 ,0.00000760,-0.00012821,0.00006318,-0.00001676,0.00002668,-0.00000292,
 0.00000393,0.00012554,0.00001436,-0.00000231,-0.00002547,-0.00001624,-
 0.00012624,0.00000354,-0.00004494,-0.00001393,-0.00003838,-0.00005227,
 0.00001576,-0.00002210,0.00002830,-0.00001138,0.00003115,0.00006267,-0
 .00005947,-0.00001896,0.00000967,-0.00001586,0.00004476,-0.00000342,0.
 00008488,-0.00963878,0.00189207,-0.01099541,-0.00344238,0.00373010,-0.
 01331520,-0.00002516,0.00107669,-0.00016755,0.04636938,0.00202755,-0.0
 0390831,0.00398525,0.27069385,-0.60266821,-0.00052405,0.00276448,-0.00
 192014,-0.09590267,0.58830695,-0.30162969,0.00531591,-0.00353444,0.003
 81745,-0.05397668,-0.18844496,0.10795936,0.05981671,-0.00223669,0.0027
 6926,-0.00263816,-0.28079864,0.57716858,-0.60711791,0.22283280,-0.5822
 9065,0.00332695,-0.00429523,0.00924915,0.14262444,-0.48894893,0.282954
 33,-0.10387846,0.53208132,-0.25700644,0.00018558,-0.00033682,0.0003068
 9,0.00750335,-0.08367876,-0.01188577,-0.01084351,0.05834011,-0.0408794
 2,0.00322085,-0.00022929,0.00002412,-0.00028551,0.00830184,0.02939823,
 0.01511023,-0.03362961,0.00069352,-0.04179377,0.02544528,-0.03013807,0
 .00026632,-0.00042273,0.00054424,-0.04640994,-0.10258463,0.02046707,-0
 .00635936,0.07588683,-0.03262903,0.05259892,0.02684345,0.01186858,-0.0
 0190648,-0.00208040,0.00133170,0.00007105,0.00002067,0.00013668,0.0000
 4639,0.00127158,-0.00117410,-0.00014262,-0.00003421,-0.00006042,0.0021
 9909,-0.00259793,0.00769442,-0.00048777,0.00039588,-0.00009919,0.00045
 289,0.00047050,0.00098075,0.00231915,0.00015170,0.00003630,0.00013882,
 0.00166953,-0.00770245,-0.00129535,0.00243669,0.00507001,-0.00016177,-
 0.00060368,0.00016183,0.00010388,0.00032711,-0.00163894,-0.00008026,0.
 00016108,-0.00004104,0.00088720,-0.00214817,-0.00336035,0.00606893,0.0
 0298288,-0.00184611,0.00005804,-0.00061834,0.00021645,-0.00035882,0.00
 059085,-0.00001940,0.00007636,0.00014598,-0.00003552,-0.00026744,-0.00
 008967,0.00054630,-0.00557707,0.00114427,0.00441592,-0.00430391,0.0003
 3039,0.00010888,0.00048336,0.00230571,0.00067854,0.00063746,0.00007848
 ,-0.00001409,0.00013824,-0.00084716,-0.00090983,-0.00017304,-0.0030116
 9,-0.00427941,0.00166851,-0.00421332,0.00037195,0.00001749,-0.00015496
 ,-0.00003342,-0.00164287,0.00146081,-0.00092907,-0.00006035,-0.0000354
 9,-0.00020979,-0.00112106,-0.00027492,-0.00019151,0.00113828,0.0032178
 9,0.00099184,-0.40251243,-0.14367591,-0.62061844,0.22784679,-0.1529378
 4,-0.18904074,-0.00040590,0.00052642,-0.00003090,0.00025176,0.00055622
 ,-0.00123277,0.00097606,0.00256568,-0.00909066,-0.00004084,0.00093402,
 -0.00094251,-0.00043751,0.00663136,-0.00321604,0.00174325,-0.00182127,
 -0.00061040,-0.00044431,-0.00159291,0.00005068,0.00007744,-0.00051073,
 0.00123514,-0.00008575,-0.00269904,0.00963791,-0.00707929,0.00081126,-
 0.01172854,-0.00110706,-0.00175807,0.00200606,0.00046581,-0.00566350,0
 .00270573,0.00039883,0.00526533,-0.00193811,0.00003114,-0.00007362,0.0
 0009479,0.00028794,-0.00093375,0.00035282,-0.00002686,0.00095405,-0.00
 052614,-0.00029724,0.00005953,0.00017576,0.00000176,0.00021892,0.00011
 851,0.00034913,-0.00034882,0.00014465,-0.00046218,0.00008081,-0.000219
 62,0.00004521,-0.00016818,0.00009901,-0.00007951,-0.00112676,0.0006144
 0,-0.00003739,0.00120580,-0.00039451,0.00006080,0.00004212,-0.00031490
 ,-0.00894980,-0.11114187,-0.04257625,0.00009789,-0.00064667,0.00011830
 ,-0.00093685,0.00208625,-0.00031430,0.00005679,-0.00005978,0.00011657,
 0.03526541,-0.22300010,0.46888125,0.33348202,-0.00041910,0.00042409,-0
 .00033960,0.00167706,-0.00008259,0.00141708,-0.00005694,-0.00008553,0.
 00001215,0.17589214,-0.42519532,-0.08589022,0.26043265,0.14479184,0.00
 011150,-0.00014378,0.00033621,0.00010821,-0.00066072,-0.00049125,-0.00
 004443,0.00008036,-0.00008022,0.04832722,-0.28757742,-0.13350302,0.410
 09374,0.25618623,-0.18472403,0.00021260,0.00005144,-0.00004346,-0.0004
 1266,-0.00064180,0.00108286,-0.00005175,0.00004934,-0.00010569,-0.0255
 3344,0.04590694,0.03738774,-0.38430848,0.36657098,0.15155904,-0.181436
 26,-0.00019289,0.00014290,-0.00049563,0.00127469,0.00079344,0.00120135
 ,0.00002944,-0.00013375,0.00003485,-0.06613007,-0.04394189,0.02786890,
 -0.30155215,-0.10841974,-0.14085388,-0.10650259,0.04308634,-0.00002938
 ,-0.00067339,0.00050220,0.00009007,0.00135463,-0.00188792,0.00006215,-
 0.00001120,0.00007626,-0.00567153,-0.04699423,-0.01105356,0.14640258,0
 .15282678,-0.03072332,0.02820269,-0.01060716,-0.00172415,-0.01047045,0
 .00189902,0.02540607,0.00374370,-0.00140806,-0.00023170,-0.81532999,0.
 00029048,-0.01054385,0.00595874,-1.29836728,3.16135452,-0.00087051,0.0
 0378634,0.00180410,1.04090263,-3.31636229,1.32872881,-0.02350105,0.001
 96796,0.00592164,0.80017379,1.28231011,-1.05385750,-0.77413228,0.00066
 492,0.01488102,-0.01551264,1.30747231,-3.14064428,3.32010955,-1.286064
 46,3.12308792,0.00641671,-0.01385345,-0.01530899,-1.06330357,3.2879134
 1,-1.34704214,1.05256036,-3.27555353,1.35681010,-0.00043887,0.00312990
 ,-0.00103038,0.01191354,0.01404307,0.01411125,-0.00528900,-0.01781954,
 0.00384270,-0.00591150,-0.00096228,0.00396430,-0.00292794,-0.00672737,
 -0.00817435,-0.00674743,0.00829816,0.00104106,0.00907770,-0.00023121,0
 .00246515,0.00050625,0.00230940,-0.00077148,0.02190727,0.01982849,0.01
 736297,-0.00596167,-0.02434171,-0.00155375,-0.01622293,0.00133903,-0.0
 1443514,0.00410681,0.00278104,0.00346883,0.00007069,-0.00030394,0.0005
 3586,-0.00204254,0.00335753,-0.00188938,-0.00003586,-0.00001967,-0.000
 02664,-0.00239211,0.00203131,-0.00282321,0.00582269,-0.00052433,-0.000
 66979,-0.00063576,0.00040562,-0.00157489,-0.00524250,0.00047912,0.0002
 8204,0.00035216,-0.00439478,0.00298236,0.00628207,0.00040451,-0.014137
 82,0.00026045,0.00219807,-0.00107316,-0.00196407,-0.00508066,0.0093550
 6,-0.00047753,-0.00048881,-0.00033262,-0.00305428,0.00155241,0.0059229
 4,-0.01211329,0.00413632,0.00234206,-0.00057174,0.00202757,-0.00082172
 ,0.00479108,-0.00761075,0.00237318,-0.00023831,-0.00035762,-0.00020228
 ,0.00029301,0.00200307,-0.00104665,0.00783926,0.00858272,-0.00375414,0
 .00476012,-0.00044526,-0.00132226,-0.00015041,-0.00691737,0.00320917,-
 0.00234164,0.00039866,0.00042179,0.00051264,-0.00142018,0.00180349,0.0
 0141448,-0.00019857,-0.00035805,-0.00186408,0.00545417,0.00300811,0.00
 046492,0.00046357,0.00021940,0.00330125,0.00037899,-0.00226028,-0.0002
 2311,-0.00025255,-0.00026999,0.00096561,-0.00184899,0.00026559,-0.0026
 4459,-0.00419519,-0.00096283,2.02588489,0.15538002,1.48082575,-2.17724
 113,1.02447908,0.50734084,-0.00002027,-0.00032960,0.00018695,-0.001676
 77,-0.00026565,0.00016326,-0.00042703,-0.00296698,0.00595976,0.0001627
 5,-0.00050969,0.00032983,0.00193096,-0.00690717,0.00274113,-0.00105445
 ,0.00062554,-0.00044904,0.00168519,0.00303153,-0.00266369,-0.00289097,
 0.00002382,0.00049724,-0.00048867,0.00288868,-0.00678532,0.00732155,-0
 .00356012,0.00783896,-0.00022194,0.00028216,-0.00127736,-0.00261031,0.
 00750493,-0.00328047,0.00374567,-0.00928705,0.00350538,0.00015737,-0.0
 0008958,0.00021236,0.00020654,0.00021756,0.00037094,-0.00000404,0.0001
 9701,-0.00011336,-0.00020309,0.00011845,0.00007864,0.00012870,0.000314
 27,-0.00001066,0.00035744,-0.00000969,0.00024832,-0.00009645,-0.000298
 76,-0.00012677,0.00013429,-0.00013732,0.00024092,0.00033501,0.00023282
 ,0.00020146,-0.00003608,0.00016876,-0.00008123,-0.00035456,-0.00027973
 ,-0.00019582,0.06704312,1.07954202,0.83430163,-0.00012362,0.00026354,-
 0.00010006,0.00134083,-0.00052621,0.00041831,-0.00017235,-0.00013417,-
 0.00005517,-0.04251988,1.14996948,-1.53443198,-1.64360106,0.00001003,0
 .00026962,-0.00003754,-0.00015738,-0.00066420,0.00059889,0.00000703,-0
 .00007144,0.00001813,-1.13099148,1.50671797,0.86462210,-1.59785458,-0.
 53861501,0.00017993,-0.00043760,0.00009673,-0.00071022,0.00180249,0.00
 012223,-0.00005874,0.00002310,-0.00001203,-0.89538193,1.63421362,0.540
 38978,-2.09201069,-1.23512840,1.34298925,-0.00007108,-0.00027999,0.000
 29911,0.00092344,0.00097682,-0.00121837,0.00001558,0.00000990,-0.00002
 349,-0.02556809,-0.01883767,0.03134886,2.11671084,-1.30522612,0.052867
 07,0.61990898,0.00008361,0.00040332,-0.00022458,0.00007013,-0.00113500
 ,0.00099751,-0.00003326,-0.00011808,-0.00000267,0.05184630,0.02818002,
 -0.03774703,1.25325934,-0.08019733,1.31254393,0.57374033,0.03198079,-0
 .00002252,0.00003406,-0.00008871,0.00011336,0.00048292,0.00101146,-0.0
 0005663,-0.00013306,-0.00015329,0.06081722,0.00880796,-0.00198170,-1.3
 7339536,-0.58293221,-0.03076855,1.96633664,0.26856043,1.65755622,-2.19
 503113,1.07734109,0.38742375,0.00035337,-0.00034086,-0.00011904,0.0001
 8166,-0.00002921,0.00037202,0.00002794,-0.00001267,0.00001708,-0.00023
 597,-0.00037090,0.00038366,-0.00008662,0.00007320,0.00010929,-0.002147
 98,0.00002815,0.00032636,-0.00018860,-0.00004475,0.00032545,0.00038693
 ,-0.00137062,-0.00141657,-0.00212698,0.00006626,-0.00028224,0.00002625
 ,0.00039778,0.00015560,0.00085195,-0.00033670,-0.00119501,0.00028421,-
 0.00011716,-0.00002269,-0.00045693,0.00069065,-0.00021729,0.00026014,0
 .00014122,0.00007190,-0.00006860,-0.00009133,-0.00007030,-0.00006006,-
 0.00007675,0.00001357,0.00009243,0.00011577,0.00016196,0.00014838,-0.0
 0004556,0.00015172,-0.00010761,-0.00003497,-0.00006989,-0.00003622,0.0
 0010513,-0.00009917,0.00008127,0.00018126,0.00019892,-0.00008762,-0.00
 016554,-0.00003135,-0.00000190,-0.00009049,-0.00001707,0.00008562,0.00
 016673,0.00003653,0.17154809,1.14482730,0.84018745,0.00011690,-0.00002
 058,-0.00007504,0.00058565,0.00065900,0.00004616,-0.00013524,-0.000102
 02,-0.00005175,-0.17646114,1.14631129,-1.68010038,-1.72689449,0.000199
 22,-0.00012883,0.00013736,-0.00051287,0.00089253,0.00014595,-0.0000090
 7,-0.00006978,-0.00006028,-1.14635950,1.67602104,0.84101061,-1.7271851
 8,-0.49620456,0.00024147,0.00004867,-0.00047618,-0.00058708,0.00085980
 ,0.00105901,-0.00004567,-0.00005681,-0.00007282,-0.83556640,1.72391938
 ,0.49491244,-2.13635026,-1.41321625,1.35456445,-0.00039475,0.00019855,
 0.00014248,0.00142406,0.00032434,-0.00073896,-0.00008865,-0.00003835,-
 0.00002562,0.00434574,0.00037092,-0.00505293,2.13106387,-1.41358767,0.
 02342675,0.65150405,0.00013361,-0.00012977,0.00024170,0.00016667,0.000
 72057,-0.00034652,-0.00006921,-0.00007482,-0.00003168,0.00099580,0.003
 38541,0.00241413,1.41236080,-0.02732813,1.35332326,0.65037042,0.109393
 26,-0.00023240,0.00013289,0.00003723,0.00039412,0.00064076,0.00039305,
 -0.00005511,-0.00011446,-0.00011418,-0.00454043,0.00275207,0.00078210,
 -1.34888943,-0.65378167,-0.11049146\\@


 NOTHING PUZZLES ME MORE THAN TIME AND SPACE; AND YET NOTHING TROUBLES ME LESS
                                                          -- CHARLES LAMB (1810)
 Job cpu time:       0 days  5 hours 33 minutes 11.3 seconds.
 Elapsed time:       0 days  0 hours 12 minutes 20.6 seconds.
 File lengths (MBytes):  RWF=    652 Int=      0 D2E=      0 Chk=     44 Scr=      8
 Normal termination of Gaussian 16 at Fri Dec 17 14:55:14 2021.
