 Entering Gaussian System, Link 0=g16
 Input=foh_nh3_mp2_avdz_opt_anharm.gjf
 Output=foh_nh3_mp2_avdz_opt_anharm.log
 Initial command:
 /sw/contrib/gaussian/g16/A03/g16/l1.exe "/tmp/Gau-13975.inp" -scrdir="/tmp/"
 Entering Link 1 = /sw/contrib/gaussian/g16/A03/g16/l1.exe PID=     13976.
  
 Copyright (c) 1988,1990,1992,1993,1995,1998,2003,2009,2016,
            Gaussian, Inc.  All Rights Reserved.
  
 This is part of the Gaussian(R) 16 program.  It is based on
 the Gaussian(R) 09 system (copyright 2009, Gaussian, Inc.),
 the Gaussian(R) 03 system (copyright 2003, Gaussian, Inc.),
 the Gaussian(R) 98 system (copyright 1998, Gaussian, Inc.),
 the Gaussian(R) 94 system (copyright 1995, Gaussian, Inc.),
 the Gaussian 92(TM) system (copyright 1992, Gaussian, Inc.),
 the Gaussian 90(TM) system (copyright 1990, Gaussian, Inc.),
 the Gaussian 88(TM) system (copyright 1988, Gaussian, Inc.),
 the Gaussian 86(TM) system (copyright 1986, Carnegie Mellon
 University), and the Gaussian 82(TM) system (copyright 1983,
 Carnegie Mellon University). Gaussian is a federally registered
 trademark of Gaussian, Inc.
  
 This software contains proprietary and confidential information,
 including trade secrets, belonging to Gaussian, Inc.
  
 This software is provided under written license and may be
 used, copied, transmitted, or stored only in accord with that
 written license.
  
 The following legend is applicable only to US Government
 contracts under FAR:
  
                    RESTRICTED RIGHTS LEGEND
  
 Use, reproduction and disclosure by the US Government is
 subject to restrictions as set forth in subparagraphs (a)
 and (c) of the Commercial Computer Software - Restricted
 Rights clause in FAR 52.227-19.
  
 Gaussian, Inc.
 340 Quinnipiac St., Bldg. 40, Wallingford CT 06492
  
  
 ---------------------------------------------------------------
 Warning -- This program may not be used in any manner that
 competes with the business of Gaussian, Inc. or will provide
 assistance to any competitor of Gaussian, Inc.  The licensee
 of this program is prohibited from giving any competitor of
 Gaussian, Inc. access to this program.  By using this program,
 the user acknowledges that Gaussian, Inc. is engaged in the
 business of creating and licensing software in the field of
 computational chemistry and represents and warrants to the
 licensee that it is not a competitor of Gaussian, Inc. and that
 it will not use this program in any manner prohibited above.
 ---------------------------------------------------------------
  

 Cite this work as:
 Gaussian 16, Revision A.03,
 M. J. Frisch, G. W. Trucks, H. B. Schlegel, G. E. Scuseria, 
 M. A. Robb, J. R. Cheeseman, G. Scalmani, V. Barone, 
 G. A. Petersson, H. Nakatsuji, X. Li, M. Caricato, A. V. Marenich, 
 J. Bloino, B. G. Janesko, R. Gomperts, B. Mennucci, H. P. Hratchian, 
 J. V. Ortiz, A. F. Izmaylov, J. L. Sonnenberg, D. Williams-Young, 
 F. Ding, F. Lipparini, F. Egidi, J. Goings, B. Peng, A. Petrone, 
 T. Henderson, D. Ranasinghe, V. G. Zakrzewski, J. Gao, N. Rega, 
 G. Zheng, W. Liang, M. Hada, M. Ehara, K. Toyota, R. Fukuda, 
 J. Hasegawa, M. Ishida, T. Nakajima, Y. Honda, O. Kitao, H. Nakai, 
 T. Vreven, K. Throssell, J. A. Montgomery, Jr., J. E. Peralta, 
 F. Ogliaro, M. J. Bearpark, J. J. Heyd, E. N. Brothers, K. N. Kudin, 
 V. N. Staroverov, T. A. Keith, R. Kobayashi, J. Normand, 
 K. Raghavachari, A. P. Rendell, J. C. Burant, S. S. Iyengar, 
 J. Tomasi, M. Cossi, J. M. Millam, M. Klene, C. Adamo, R. Cammi, 
 J. W. Ochterski, R. L. Martin, K. Morokuma, O. Farkas, 
 J. B. Foresman, and D. J. Fox, Gaussian, Inc., Wallingford CT, 2016.
 
 ******************************************
 Gaussian 16:  ES64L-G16RevA.03 25-Dec-2016
                 1-Jul-2022 
 ******************************************
 %nprocshared=28
 Will use up to   28 processors via shared memory.
 %mem=41GB
 ----------------------------------------------
 # MP2/aug-cc-pVDZ opt freq=(vibrot,anharmonic)
 ----------------------------------------------
 1/18=20,19=15,38=1,80=1/1,3;
 2/9=110,12=2,17=6,18=5,40=1/2;
 3/5=16,7=10,11=9,25=1,30=1,71=1/1,2,3;
 4//1;
 5/5=2,38=5/2;
 8/6=4,10=1/1;
 9/15=2,16=-3/6;
 10/5=1/2;
 6/7=2,8=2,9=2,10=2/1;
 7/12=2/1,2,3,16;
 1/18=20,19=15,80=1/3(2);
 2/9=110/2;
 99//99;
 2/9=110/2;
 3/5=16,7=10,11=9,25=1,30=1,71=1/1,2,3;
 4/5=5,16=3,69=1/1;
 5/5=2,38=5/2;
 8/6=4,10=1/1;
 9/15=2,16=-3/6;
 10/5=1/2;
 7/12=2/1,2,3,16;
 1/18=20,19=15,80=1/3(-8);
 2/9=110/2;
 6/7=2,8=2,9=2,10=2/1;
 99//99;
 ----
 blah
 ----
 Symbolic Z-matrix:
 Charge =  0 Multiplicity = 1
 O
 F                    1    R1
 H                    1    R2       2    A2
 X                    3     1.       1     90.      2     0.       0
 N                    3    R3       4    A3       1     180.     0
 H                    5    R4       3    A4       4    D1       0
 H                    5    R4       3    A4       4    -D1      0
 H                    5    R5       3    A5       4     0.       0
       Variables:
  R1                    1.5                      
  R2                    1.                       
  A2                  105.                       
  R3                    2.                       
  A3                   95.                       
  R4                    1.                       
  A4                  110.                       
  D1                  120.                       
  R5                    1.                       
  A5                  110.                       
 
 Add virtual bond connecting atoms N4         and H3         Dist= 3.78D+00.

 GradGradGradGradGradGradGradGradGradGradGradGradGradGradGradGradGradGrad
 Berny optimization.
 Initialization pass.
                           ----------------------------
                           !    Initial Parameters    !
                           ! (Angstroms and Degrees)  !
 --------------------------                            --------------------------
 ! Name  Definition              Value          Derivative Info.                !
 --------------------------------------------------------------------------------
 ! R1    R(1,2)                  1.5            estimate D2E/DX2                !
 ! R2    R(1,3)                  1.0            estimate D2E/DX2                !
 ! R3    R(3,4)                  2.0            estimate D2E/DX2                !
 ! R4    R(4,5)                  1.0            estimate D2E/DX2                !
 ! R5    R(4,6)                  1.0            estimate D2E/DX2                !
 ! R6    R(4,7)                  1.0            estimate D2E/DX2                !
 ! A1    A(2,1,3)              105.0            estimate D2E/DX2                !
 ! A2    A(3,4,5)              110.0            estimate D2E/DX2                !
 ! A3    A(3,4,6)              110.0            estimate D2E/DX2                !
 ! A4    A(3,4,7)              110.0            estimate D2E/DX2                !
 ! A5    A(5,4,6)              108.9373         estimate D2E/DX2                !
 ! A6    A(5,4,7)              108.9373         estimate D2E/DX2                !
 ! A7    A(6,4,7)              108.9373         estimate D2E/DX2                !
 ! A8    L(1,3,4,2,-1)         185.0            estimate D2E/DX2                !
 ! A9    L(1,3,4,2,-2)         180.0            estimate D2E/DX2                !
 ! D1    D(2,1,4,5)            120.512          estimate D2E/DX2                !
 ! D2    D(2,1,4,6)           -120.512          estimate D2E/DX2                !
 ! D3    D(2,1,4,7)              0.0            estimate D2E/DX2                !
 --------------------------------------------------------------------------------
 Trust Radius=3.00D-01 FncErr=1.00D-07 GrdErr=1.00D-07 EigMax=2.50D+02 EigMin=1.00D-04
 Number of steps in this run=     28 maximum allowed number of steps=    100.
 GradGradGradGradGradGradGradGradGradGradGradGradGradGradGradGradGradGrad

                          Input orientation:                          
 ---------------------------------------------------------------------
 Center     Atomic      Atomic             Coordinates (Angstroms)
 Number     Number       Type             X           Y           Z
 ---------------------------------------------------------------------
      1          8           0        0.000000    0.000000    0.000000
      2          9           0        0.000000    0.000000    1.500000
      3          1           0        0.965926    0.000000   -0.258819
      4          7           0        2.845311    0.000000   -0.942859
      5          1           0        3.006008   -0.813798   -1.501348
      6          1           0        3.006008    0.813798   -1.501348
      7          1           0        3.488099    0.000000   -0.176815
 ---------------------------------------------------------------------
                    Distance matrix (angstroms):
                    1          2          3          4          5
     1  O    0.000000
     2  F    1.500000   0.000000
     3  H    1.000000   2.006603   0.000000
     4  N    2.997462   3.750114   2.000000   0.000000
     5  H    3.457224   4.325094   2.523506   1.000000   0.000000
     6  H    3.457224   4.325094   2.523506   1.000000   1.627595
     7  H    3.492577   3.870212   2.523506   1.000000   1.627595
                    6          7
     6  H    0.000000
     7  H    1.627595   0.000000
 Stoichiometry    FH4NO
 Framework group  CS[SG(FH2NO),X(H2)]
 Deg. of freedom    10
 Full point group                 CS      NOp   2
 Largest Abelian subgroup         CS      NOp   2
 Largest concise Abelian subgroup CS      NOp   2
                         Standard orientation:                         
 ---------------------------------------------------------------------
 Center     Atomic      Atomic             Coordinates (Angstroms)
 Number     Number       Type             X           Y           Z
 ---------------------------------------------------------------------
      1          8           0        0.999188    0.440889    0.000000
      2          9           0        1.445487   -0.991179    0.000000
      3          1           0        0.000000    0.400592    0.000000
      4          7           0       -1.997795    0.494474    0.000000
      5          1           0       -2.317383    0.979858    0.813798
      6          1           0       -2.317383    0.979858   -0.813798
      7          1           0       -2.383549   -0.428127    0.000000
 ---------------------------------------------------------------------
 Rotational constants (GHZ):          30.9226337           3.5990193           3.2796619
 Standard basis: Aug-CC-pVDZ (5D, 7F)
 There are    77 symmetry adapted cartesian basis functions of A'  symmetry.
 There are    34 symmetry adapted cartesian basis functions of A"  symmetry.
 There are    71 symmetry adapted basis functions of A'  symmetry.
 There are    34 symmetry adapted basis functions of A"  symmetry.
   105 basis functions,   173 primitive gaussians,   111 cartesian basis functions
    14 alpha electrons       14 beta electrons
       nuclear repulsion energy        72.4469844905 Hartrees.
 NAtoms=    7 NActive=    7 NUniq=    6 SFac= 1.36D+00 NAtFMM=   60 NAOKFM=F Big=F
 Integral buffers will be    131072 words long.
 Raffenetti 1 integral format.
 Two-electron integral symmetry is turned on.
 One-electron integrals computed using PRISM.
 NBasis=   105 RedAO= T EigKep=  1.81D-03  NBF=    71    34
 NBsUse=   105 1.00D-06 EigRej= -1.00D+00 NBFU=    71    34
 ExpMin= 2.97D-02 ExpMax= 1.47D+04 ExpMxC= 5.03D+02 IAcc=3 IRadAn=         5 AccDes= 0.00D+00
 Harris functional with IExCor=  205 and IRadAn=       5 diagonalized for initial guess.
 HarFok:  IExCor=  205 AccDes= 0.00D+00 IRadAn=         5 IDoV= 1 UseB2=F ITyADJ=14
 ICtDFT=  3500011 ScaDFX=  1.000000  1.000000  1.000000  1.000000
 FoFCou: FMM=F IPFlag=           0 FMFlag=      100000 FMFlg1=           0
         NFxFlg=           0 DoJE=T BraDBF=F KetDBF=T FulRan=T
         wScrn=  0.000000 ICntrl=       500 IOpCl=  0 I1Cent=   200000004 NGrid=           0
         NMat0=    1 NMatS0=      1 NMatT0=    0 NMatD0=    1 NMtDS0=    0 NMtDT0=    0
 Petite list used in FoFCou.
 Initial guess orbital symmetries:
       Occupied  (A') (A') (A') (A') (A') (A') (A') (A") (A') (A')
                 (A") (A') (A') (A")
       Virtual   (A') (A') (A') (A") (A') (A') (A') (A") (A') (A')
                 (A') (A") (A') (A") (A') (A') (A") (A') (A") (A')
                 (A') (A') (A') (A") (A') (A") (A') (A") (A') (A')
                 (A") (A') (A") (A') (A') (A") (A') (A') (A') (A")
                 (A') (A") (A") (A') (A') (A') (A') (A") (A') (A")
                 (A') (A') (A") (A') (A') (A') (A") (A') (A") (A")
                 (A") (A') (A') (A') (A") (A') (A") (A') (A') (A')
                 (A") (A') (A') (A') (A') (A") (A') (A') (A') (A")
                 (A') (A") (A') (A") (A') (A') (A") (A') (A") (A')
                 (A')
 The electronic state of the initial guess is 1-A'.
 Keep R1 ints in memory in symmetry-blocked form, NReq=23381707.
 Requested convergence on RMS density matrix=1.00D-08 within 128 cycles.
 Requested convergence on MAX density matrix=1.00D-06.
 Requested convergence on             energy=1.00D-06.
 No special actions if energy rises.
 SCF Done:  E(RHF) =  -230.971607229     A.U. after   13 cycles
            NFock= 13  Conv=0.69D-08     -V/T= 2.0021
 ExpMin= 2.97D-02 ExpMax= 1.47D+04 ExpMxC= 5.03D+02 IAcc=3 IRadAn=         5 AccDes= 0.00D+00
 HarFok:  IExCor=  205 AccDes= 0.00D+00 IRadAn=         5 IDoV=-2 UseB2=F ITyADJ=14
 ICtDFT= 12500011 ScaDFX=  1.000000  1.000000  1.000000  1.000000
 Range of M.O.s used for correlation:     4   105
 NBasis=   105 NAE=    14 NBE=    14 NFC=     3 NFV=     0
 NROrb=    102 NOA=    11 NOB=    11 NVA=    91 NVB=    91
 Fully direct method using O(ONN) memory.
 JobTyp=1 Pass  1:  I=   4 to  14 NPSUse= 28 ParTrn=T ParDer=T DoDerP=T.
 Spin components of T(2) and E(2):
     alpha-alpha T2 =       0.2206107708D-01 E2=     -0.7895179109D-01
     alpha-beta  T2 =       0.1324063022D+00 E2=     -0.4682864321D+00
     beta-beta   T2 =       0.2206107708D-01 E2=     -0.7895179109D-01
 ANorm=    0.1084678965D+01
 E2 =    -0.6261900143D+00 EUMP2 =    -0.23159779724287D+03
          IDoAtm=1111111
          Differentiating once with respect to electric field.
                with respect to dipole field.
          Differentiating once with respect to nuclear coordinates.
 Keep R1 ints in memory in symmetry-blocked form, NReq=23382762.
          There are     1 degrees of freedom in the 1st order CPHF.  IDoFFX=0 NUNeed=     1.
 LinEq1:  Iter=  0 NonCon=     1 RMS=6.39D-03 Max=5.84D-02 NDo=     1
 AX will form     1 AO Fock derivatives at one time.
 LinEq1:  Iter=  1 NonCon=     1 RMS=1.76D-03 Max=1.70D-02 NDo=     1
 LinEq1:  Iter=  2 NonCon=     1 RMS=7.54D-04 Max=8.68D-03 NDo=     1
 LinEq1:  Iter=  3 NonCon=     1 RMS=2.15D-04 Max=2.07D-03 NDo=     1
 LinEq1:  Iter=  4 NonCon=     1 RMS=6.94D-05 Max=5.44D-04 NDo=     1
 LinEq1:  Iter=  5 NonCon=     1 RMS=1.18D-05 Max=1.23D-04 NDo=     1
 LinEq1:  Iter=  6 NonCon=     1 RMS=3.55D-06 Max=3.51D-05 NDo=     1
 LinEq1:  Iter=  7 NonCon=     1 RMS=1.21D-06 Max=1.38D-05 NDo=     1
 LinEq1:  Iter=  8 NonCon=     1 RMS=2.83D-07 Max=2.05D-06 NDo=     1
 LinEq1:  Iter=  9 NonCon=     1 RMS=5.94D-08 Max=7.22D-07 NDo=     1
 LinEq1:  Iter= 10 NonCon=     1 RMS=1.30D-08 Max=1.56D-07 NDo=     1
 LinEq1:  Iter= 11 NonCon=     1 RMS=2.77D-09 Max=2.86D-08 NDo=     1
 LinEq1:  Iter= 12 NonCon=     1 RMS=6.37D-10 Max=6.31D-09 NDo=     1
 LinEq1:  Iter= 13 NonCon=     1 RMS=1.22D-10 Max=1.08D-09 NDo=     1
 LinEq1:  Iter= 14 NonCon=     0 RMS=2.67D-11 Max=1.82D-10 NDo=     1
 Linear equations converged to 1.000D-10 1.000D-09 after    14 iterations.
 End of Minotr F.D. properties file   721 does not exist.
 End of Minotr F.D. properties file   722 does not exist.
 End of Minotr F.D. properties file   788 does not exist.

 **********************************************************************

            Population analysis using the SCF density.

 **********************************************************************

 Orbital symmetries:
       Occupied  (A') (A') (A') (A') (A') (A') (A') (A") (A') (A")
                 (A') (A') (A") (A')
       Virtual   (A') (A") (A') (A') (A') (A') (A') (A") (A') (A")
                 (A') (A') (A") (A') (A') (A') (A") (A') (A") (A')
                 (A') (A') (A") (A") (A') (A') (A") (A') (A') (A')
                 (A") (A') (A") (A') (A') (A") (A') (A') (A') (A")
                 (A') (A") (A') (A") (A') (A') (A') (A") (A') (A")
                 (A') (A') (A") (A') (A') (A") (A') (A') (A") (A")
                 (A") (A') (A') (A') (A") (A') (A') (A') (A") (A')
                 (A") (A') (A') (A') (A') (A") (A') (A') (A') (A")
                 (A') (A") (A') (A") (A') (A') (A") (A') (A") (A')
                 (A')
 The electronic state is 1-A'.
 Alpha  occ. eigenvalues --  -26.32611 -20.67420 -15.58837  -1.58718  -1.29115
 Alpha  occ. eigenvalues --   -1.18985  -0.72918  -0.67884  -0.67836  -0.67370
 Alpha  occ. eigenvalues --   -0.63756  -0.57692  -0.52038  -0.47143
 Alpha virt. eigenvalues --    0.02410   0.05010   0.05092   0.07699   0.11511
 Alpha virt. eigenvalues --    0.16215   0.17831   0.18051   0.18546   0.22333
 Alpha virt. eigenvalues --    0.22605   0.25426   0.26883   0.27204   0.28818
 Alpha virt. eigenvalues --    0.29336   0.31206   0.31646   0.34274   0.39625
 Alpha virt. eigenvalues --    0.39995   0.43897   0.50401   0.50886   0.51120
 Alpha virt. eigenvalues --    0.51568   0.52673   0.53891   0.56340   0.60935
 Alpha virt. eigenvalues --    0.66621   0.67373   0.71475   0.72877   0.80899
 Alpha virt. eigenvalues --    0.89073   0.91629   0.93093   0.96097   1.05199
 Alpha virt. eigenvalues --    1.11204   1.13901   1.20904   1.21927   1.22331
 Alpha virt. eigenvalues --    1.28255   1.36630   1.43188   1.50429   1.52119
 Alpha virt. eigenvalues --    1.52233   1.59582   1.62819   1.64928   1.77077
 Alpha virt. eigenvalues --    1.81467   1.82535   1.85996   1.90597   1.94059
 Alpha virt. eigenvalues --    1.99691   2.03873   2.07592   2.14063   2.18415
 Alpha virt. eigenvalues --    2.28948   2.36069   2.37629   2.38260   2.41084
 Alpha virt. eigenvalues --    2.41393   2.45214   2.67204   2.78927   2.82904
 Alpha virt. eigenvalues --    2.88839   2.89420   3.16766   3.40282   3.52635
 Alpha virt. eigenvalues --    3.53260   3.57841   3.67794   3.69557   4.11508
 Alpha virt. eigenvalues --    4.21330   4.89752   4.92147   5.01672   5.04642
 Alpha virt. eigenvalues --    5.13553
          Condensed to atoms (all electrons):
               1          2          3          4          5          6
     1  O    7.927640   0.009215   0.203144  -0.032347  -0.001746  -0.001746
     2  F    0.009215   9.387604  -0.067227   0.000849  -0.000263  -0.000263
     3  H    0.203144  -0.067227   0.418814  -0.002310  -0.008020  -0.008020
     4  N   -0.032347   0.000849  -0.002310   5.981102   0.407171   0.407171
     5  H   -0.001746  -0.000263  -0.008020   0.407171   0.745393  -0.091119
     6  H   -0.001746  -0.000263  -0.008020   0.407171  -0.091119   0.745393
     7  H   -0.004030   0.000692  -0.004675   0.405479  -0.092292  -0.092292
               7
     1  O   -0.004030
     2  F    0.000692
     3  H   -0.004675
     4  N    0.405479
     5  H   -0.092292
     6  H   -0.092292
     7  H    0.739314
 Mulliken charges:
               1
     1  O   -0.100129
     2  F   -0.330607
     3  H    0.468296
     4  N   -0.167114
     5  H    0.040876
     6  H    0.040876
     7  H    0.047804
 Sum of Mulliken charges =  -0.00000
 Mulliken charges with hydrogens summed into heavy atoms:
               1
     1  O    0.368167
     2  F   -0.330607
     4  N   -0.037559
 Electronic spatial extent (au):  <R**2>=            346.9316
 Charge=             -0.0000 electrons
 Dipole moment (field-independent basis, Debye):
    X=             -4.7771    Y=              1.1974    Z=              0.0000  Tot=              4.9249
 Quadrupole moment (field-independent basis, Debye-Ang):
   XX=            -14.8548   YY=            -17.3013   ZZ=            -17.3249
   XY=             -0.7068   XZ=             -0.0000   YZ=              0.0000
 Traceless Quadrupole moment (field-independent basis, Debye-Ang):
   XX=              1.6389   YY=             -0.8076   ZZ=             -0.8312
   XY=             -0.7068   XZ=             -0.0000   YZ=              0.0000
 Octapole moment (field-independent basis, Debye-Ang**2):
  XXX=            -10.7225  YYY=             -1.6679  ZZZ=              0.0000  XYY=             -3.1332
  XXY=              2.0935  XXZ=             -0.0000  XZZ=             -1.7755  YZZ=              0.3093
  YYZ=              0.0000  XYZ=              0.0000
 Hexadecapole moment (field-independent basis, Debye-Ang**3):
 XXXX=           -278.1044 YYYY=            -61.8587 ZZZZ=            -17.3419 XXXY=             32.4364
 XXXZ=              0.0000 YYYX=             33.2412 YYYZ=             -0.0000 ZZZX=              0.0000
 ZZZY=             -0.0000 XXYY=            -52.0643 XXZZ=            -44.9697 YYZZ=            -12.4153
 XXYZ=              0.0000 YYXZ=             -0.0000 ZZXY=              7.7842
 N-N= 7.244698449047D+01 E-N=-6.940806816803D+02  KE= 2.304899898475D+02
 Symmetry A'   KE= 2.164196629143D+02
 Symmetry A"   KE= 1.407032693312D+01
 Calling FoFJK, ICntrl=  10002127 FMM=F ISym2X=1 I1Cent= 0 IOpClX= 0 NMat=1 NMatS=1 NMatT=0.
 ***** Axes restored to original set *****
 -------------------------------------------------------------------
 Center     Atomic                   Forces (Hartrees/Bohr)
 Number     Number              X              Y              Z
 -------------------------------------------------------------------
      1        8          -0.006767599   -0.000000000    0.012295370
      2        9           0.010589178    0.000000000   -0.030078479
      3        1           0.001460537    0.000000000    0.016311967
      4        7          -0.025133554   -0.000000000    0.008324749
      5        1           0.004314407   -0.012382982   -0.009051506
      6        1           0.004314407    0.012382982   -0.009051506
      7        1           0.011222624    0.000000000    0.011249406
 -------------------------------------------------------------------
 Cartesian Forces:  Max     0.030078479 RMS     0.011838785

 GradGradGradGradGradGradGradGradGradGradGradGradGradGradGradGradGradGrad
 Berny optimization.
 FormGI is forming the generalized inverse of G from B-inverse, IUseBI=4.
 Internal  Forces:  Max     0.030078487 RMS     0.012183474
 Search for a local minimum.
 Step number   1 out of a maximum of   28
 All quantities printed in internal units (Hartrees-Bohrs-Radians)
 Mixed Optimization -- RFO/linear search
 Second derivative matrix not updated -- first step.
 The second derivative matrix:
                          R1        R2        R3        R4        R5
           R1           0.32377
           R2           0.00000   0.47688
           R3           0.00000   0.00000   0.04307
           R4           0.00000   0.00000   0.00000   0.47688
           R5           0.00000   0.00000   0.00000   0.00000   0.47688
           R6           0.00000   0.00000   0.00000   0.00000   0.00000
           A1           0.00000   0.00000   0.00000   0.00000   0.00000
           A2           0.00000   0.00000   0.00000   0.00000   0.00000
           A3           0.00000   0.00000   0.00000   0.00000   0.00000
           A4           0.00000   0.00000   0.00000   0.00000   0.00000
           A5           0.00000   0.00000   0.00000   0.00000   0.00000
           A6           0.00000   0.00000   0.00000   0.00000   0.00000
           A7           0.00000   0.00000   0.00000   0.00000   0.00000
           A8           0.00000   0.00000   0.00000   0.00000   0.00000
           A9           0.00000   0.00000   0.00000   0.00000   0.00000
           D1           0.00000   0.00000   0.00000   0.00000   0.00000
           D2           0.00000   0.00000   0.00000   0.00000   0.00000
           D3           0.00000   0.00000   0.00000   0.00000   0.00000
                          R6        A1        A2        A3        A4
           R6           0.47688
           A1           0.00000   0.16000
           A2           0.00000   0.00000   0.16000
           A3           0.00000   0.00000   0.00000   0.16000
           A4           0.00000   0.00000   0.00000   0.00000   0.16000
           A5           0.00000   0.00000   0.00000   0.00000   0.00000
           A6           0.00000   0.00000   0.00000   0.00000   0.00000
           A7           0.00000   0.00000   0.00000   0.00000   0.00000
           A8           0.00000   0.00000   0.00000   0.00000   0.00000
           A9           0.00000   0.00000   0.00000   0.00000   0.00000
           D1           0.00000   0.00000   0.00000   0.00000   0.00000
           D2           0.00000   0.00000   0.00000   0.00000   0.00000
           D3           0.00000   0.00000   0.00000   0.00000   0.00000
                          A5        A6        A7        A8        A9
           A5           0.16000
           A6           0.00000   0.16000
           A7           0.00000   0.00000   0.16000
           A8           0.00000   0.00000   0.00000   0.00230
           A9           0.00000   0.00000   0.00000   0.00000   0.00230
           D1           0.00000   0.00000   0.00000   0.00000   0.00000
           D2           0.00000   0.00000   0.00000   0.00000   0.00000
           D3           0.00000   0.00000   0.00000   0.00000   0.00000
                          D1        D2        D3
           D1           0.00230
           D2           0.00000   0.00230
           D3           0.00000   0.00000   0.00230
 ITU=  0
     Eigenvalues ---    0.00230   0.00230   0.00230   0.04307   0.09761
     Eigenvalues ---    0.10014   0.16000   0.16000   0.16000   0.16000
     Eigenvalues ---    0.32377   0.47688   0.47688   0.47688   0.47688
 RFO step:  Lambda=-1.03574179D-02 EMin= 2.30000000D-03
 Linear search not attempted -- first point.
 Iteration  1 RMS(Cart)=  0.10444935 RMS(Int)=  0.00550600
 Iteration  2 RMS(Cart)=  0.00430456 RMS(Int)=  0.00003925
 Iteration  3 RMS(Cart)=  0.00001107 RMS(Int)=  0.00003895
 Iteration  4 RMS(Cart)=  0.00000000 RMS(Int)=  0.00003895
 ClnCor:  largest displacement from symmetrization is 1.52D-12 for atom     6.
 Variable       Old X    -DE/DX   Delta X   Delta X   Delta X     New X
                                 (Linear)    (Quad)   (Total)
    R1        2.83459  -0.03008   0.00000  -0.09002  -0.09002   2.74457
    R2        1.88973  -0.00829   0.00000  -0.01702  -0.01702   1.87270
    R3        3.77945  -0.00547   0.00000  -0.10233  -0.10233   3.67713
    R4        1.88973   0.01583   0.00000   0.03248   0.03248   1.92221
    R5        1.88973   0.01583   0.00000   0.03248   0.03248   1.92221
    R6        1.88973   0.01583   0.00000   0.03249   0.03249   1.92222
    A1        1.83260  -0.03002   0.00000  -0.17619  -0.17619   1.65640
    A2        1.91986   0.00188   0.00000   0.01124   0.01120   1.93107
    A3        1.91986   0.00188   0.00000   0.01124   0.01120   1.93107
    A4        1.91986   0.00093   0.00000   0.00507   0.00500   1.92486
    A5        1.90131  -0.00155   0.00000  -0.00829  -0.00828   1.89304
    A6        1.90131  -0.00162   0.00000  -0.00989  -0.00996   1.89135
    A7        1.90131  -0.00162   0.00000  -0.00989  -0.00996   1.89135
    A8        3.22886   0.00060   0.00000   0.04485   0.04483   3.27369
    A9        3.14159  -0.00000   0.00000  -0.00000   0.00000   3.14159
    D1        2.10333  -0.00013   0.00000   0.00295   0.00302   2.10635
    D2       -2.10333   0.00013   0.00000  -0.00295  -0.00302  -2.10635
    D3        0.00000   0.00000   0.00000   0.00000   0.00000   0.00000
         Item               Value     Threshold  Converged?
 Maximum Force            0.030078     0.000450     NO 
 RMS     Force            0.012183     0.000300     NO 
 Maximum Displacement     0.333273     0.001800     NO 
 RMS     Displacement     0.104757     0.001200     NO 
 Predicted change in Energy=-5.466836D-03
 GradGradGradGradGradGradGradGradGradGradGradGradGradGradGradGradGradGrad

                          Input orientation:                          
 ---------------------------------------------------------------------
 Center     Atomic      Atomic             Coordinates (Angstroms)
 Number     Number       Type             X           Y           Z
 ---------------------------------------------------------------------
      1          8           0       -0.007274    0.000000   -0.041838
      2          9           0        0.176361    0.000000    1.398869
      3          1           0        0.961451    0.000000   -0.250730
      4          7           0        2.792984    0.000000   -0.907865
      5          1           0        2.970342   -0.825332   -1.475353
      6          1           0        2.970342    0.825332   -1.475353
      7          1           0        3.447146    0.000000   -0.128920
 ---------------------------------------------------------------------
                    Distance matrix (angstroms):
                    1          2          3          4          5
     1  O    0.000000
     2  F    1.452363   0.000000
     3  H    0.990992   1.826894   0.000000
     4  N    2.931117   3.488229   1.945852   0.000000
     5  H    3.406220   4.092512   2.493294   1.017188   0.000000
     6  H    3.406220   4.092512   2.493294   1.017188   1.650664
     7  H    3.455518   3.610011   2.488678   1.017194   1.649665
                    6          7
     6  H    0.000000
     7  H    1.649665   0.000000
 Stoichiometry    FH4NO
 Framework group  CS[SG(FH2NO),X(H2)]
 Deg. of freedom    10
 Full point group                 CS      NOp   2
 Largest Abelian subgroup         CS      NOp   2
 Largest concise Abelian subgroup CS      NOp   2
                         Standard orientation:                         
 ---------------------------------------------------------------------
 Center     Atomic      Atomic             Coordinates (Angstroms)
 Number     Number       Type             X           Y           Z
 ---------------------------------------------------------------------
      1          8           0        0.965550    0.601574   -0.000000
      2          9           0        1.412322   -0.780364   -0.000000
      3          1           0        0.000000    0.378467   -0.000000
      4          7           0       -1.937081    0.193925    0.000000
      5          1           0       -2.339027    0.632032    0.825332
      6          1           0       -2.339027    0.632032   -0.825332
      7          1           0       -2.197678   -0.789321    0.000000
 ---------------------------------------------------------------------
 Rotational constants (GHZ):          28.5558504           4.0615093           3.6258235
 Standard basis: Aug-CC-pVDZ (5D, 7F)
 There are    77 symmetry adapted cartesian basis functions of A'  symmetry.
 There are    34 symmetry adapted cartesian basis functions of A"  symmetry.
 There are    71 symmetry adapted basis functions of A'  symmetry.
 There are    34 symmetry adapted basis functions of A"  symmetry.
   105 basis functions,   173 primitive gaussians,   111 cartesian basis functions
    14 alpha electrons       14 beta electrons
       nuclear repulsion energy        74.5653075897 Hartrees.
 NAtoms=    7 NActive=    7 NUniq=    6 SFac= 1.36D+00 NAtFMM=   60 NAOKFM=F Big=F
 Integral buffers will be    131072 words long.
 Raffenetti 1 integral format.
 Two-electron integral symmetry is turned on.
 One-electron integrals computed using PRISM.
 NBasis=   105 RedAO= T EigKep=  1.71D-03  NBF=    71    34
 NBsUse=   105 1.00D-06 EigRej= -1.00D+00 NBFU=    71    34
 Initial guess from the checkpoint file:  "/tmp/Gau-13976.chk"
 B after Tr=     0.000000   -0.000000    0.000000
         Rot=    0.997935   -0.000000   -0.000000   -0.064235 Ang=  -7.37 deg.
 Initial guess orbital symmetries:
       Occupied  (A') (A') (A') (A') (A') (A') (A') (A") (A') (A")
                 (A') (A') (A") (A')
       Virtual   (A') (A") (A') (A') (A') (A') (A') (A") (A') (A")
                 (A') (A') (A") (A') (A') (A') (A") (A') (A") (A')
                 (A') (A') (A") (A") (A') (A') (A") (A') (A') (A')
                 (A") (A') (A") (A') (A') (A") (A') (A') (A') (A")
                 (A') (A") (A') (A") (A') (A') (A') (A") (A') (A")
                 (A') (A') (A") (A') (A') (A") (A') (A') (A") (A")
                 (A") (A') (A') (A') (A") (A') (A') (A') (A") (A')
                 (A") (A') (A') (A') (A') (A") (A') (A') (A') (A")
                 (A') (A") (A') (A") (A') (A') (A") (A') (A") (A')
                 (A')
 ExpMin= 2.97D-02 ExpMax= 1.47D+04 ExpMxC= 5.03D+02 IAcc=3 IRadAn=         5 AccDes= 0.00D+00
 Harris functional with IExCor=  205 and IRadAn=       5 diagonalized for initial guess.
 HarFok:  IExCor=  205 AccDes= 0.00D+00 IRadAn=         5 IDoV= 1 UseB2=F ITyADJ=14
 ICtDFT=  3500011 ScaDFX=  1.000000  1.000000  1.000000  1.000000
 FoFCou: FMM=F IPFlag=           0 FMFlag=      100000 FMFlg1=           0
         NFxFlg=           0 DoJE=T BraDBF=F KetDBF=T FulRan=T
         wScrn=  0.000000 ICntrl=       500 IOpCl=  0 I1Cent=   200000004 NGrid=           0
         NMat0=    1 NMatS0=      1 NMatT0=    0 NMatD0=    1 NMtDS0=    0 NMtDT0=    0
 Petite list used in FoFCou.
 Keep R1 ints in memory in symmetry-blocked form, NReq=23381707.
 Requested convergence on RMS density matrix=1.00D-08 within 128 cycles.
 Requested convergence on MAX density matrix=1.00D-06.
 Requested convergence on             energy=1.00D-06.
 No special actions if energy rises.
 SCF Done:  E(RHF) =  -230.979300729     A.U. after   13 cycles
            NFock= 13  Conv=0.26D-08     -V/T= 2.0019
 ExpMin= 2.97D-02 ExpMax= 1.47D+04 ExpMxC= 5.03D+02 IAcc=3 IRadAn=         5 AccDes= 0.00D+00
 HarFok:  IExCor=  205 AccDes= 0.00D+00 IRadAn=         5 IDoV=-2 UseB2=F ITyADJ=14
 ICtDFT= 12500011 ScaDFX=  1.000000  1.000000  1.000000  1.000000
 Range of M.O.s used for correlation:     4   105
 NBasis=   105 NAE=    14 NBE=    14 NFC=     3 NFV=     0
 NROrb=    102 NOA=    11 NOB=    11 NVA=    91 NVB=    91
 Fully direct method using O(ONN) memory.
 JobTyp=1 Pass  1:  I=   4 to  14 NPSUse= 28 ParTrn=T ParDer=T DoDerP=T.
 Spin components of T(2) and E(2):
     alpha-alpha T2 =       0.2184077880D-01 E2=     -0.7886053900D-01
     alpha-beta  T2 =       0.1294213626D+00 E2=     -0.4655199538D+00
     beta-beta   T2 =       0.2184077880D-01 E2=     -0.7886053900D-01
 ANorm=    0.1083098758D+01
 E2 =    -0.6232410318D+00 EUMP2 =    -0.23160254176110D+03
          IDoAtm=1111111
          Differentiating once with respect to electric field.
                with respect to dipole field.
          Differentiating once with respect to nuclear coordinates.
 Keep R1 ints in memory in symmetry-blocked form, NReq=23382762.
          There are     1 degrees of freedom in the 1st order CPHF.  IDoFFX=0 NUNeed=     1.
 LinEq1:  Iter=  0 NonCon=     1 RMS=6.09D-03 Max=5.01D-02 NDo=     1
 AX will form     1 AO Fock derivatives at one time.
 LinEq1:  Iter=  1 NonCon=     1 RMS=1.60D-03 Max=1.47D-02 NDo=     1
 LinEq1:  Iter=  2 NonCon=     1 RMS=7.00D-04 Max=8.70D-03 NDo=     1
 LinEq1:  Iter=  3 NonCon=     1 RMS=1.99D-04 Max=1.92D-03 NDo=     1
 LinEq1:  Iter=  4 NonCon=     1 RMS=6.38D-05 Max=4.80D-04 NDo=     1
 LinEq1:  Iter=  5 NonCon=     1 RMS=1.14D-05 Max=1.12D-04 NDo=     1
 LinEq1:  Iter=  6 NonCon=     1 RMS=4.02D-06 Max=3.92D-05 NDo=     1
 LinEq1:  Iter=  7 NonCon=     1 RMS=1.35D-06 Max=1.30D-05 NDo=     1
 LinEq1:  Iter=  8 NonCon=     1 RMS=4.26D-07 Max=5.67D-06 NDo=     1
 LinEq1:  Iter=  9 NonCon=     1 RMS=1.02D-07 Max=9.08D-07 NDo=     1
 LinEq1:  Iter= 10 NonCon=     1 RMS=1.37D-08 Max=7.83D-08 NDo=     1
 LinEq1:  Iter= 11 NonCon=     1 RMS=2.81D-09 Max=2.98D-08 NDo=     1
 LinEq1:  Iter= 12 NonCon=     1 RMS=5.41D-10 Max=5.39D-09 NDo=     1
 LinEq1:  Iter= 13 NonCon=     0 RMS=9.07D-11 Max=7.31D-10 NDo=     1
 Linear equations converged to 1.000D-10 1.000D-09 after    13 iterations.
 End of Minotr F.D. properties file   721 does not exist.
 End of Minotr F.D. properties file   722 does not exist.
 End of Minotr F.D. properties file   788 does not exist.
 Calling FoFJK, ICntrl=  10002127 FMM=F ISym2X=1 I1Cent= 0 IOpClX= 0 NMat=1 NMatS=1 NMatT=0.
 ***** Axes restored to original set *****
 -------------------------------------------------------------------
 Center     Atomic                   Forces (Hartrees/Bohr)
 Number     Number              X              Y              Z
 -------------------------------------------------------------------
      1        8           0.005657651   -0.000000000    0.003799894
      2        9          -0.003406035   -0.000000000    0.002301832
      3        1           0.001436800   -0.000000000   -0.007871791
      4        7          -0.009801495    0.000000000    0.003733772
      5        1           0.002108044    0.000176982   -0.000632297
      6        1           0.002108044   -0.000176982   -0.000632297
      7        1           0.001896990   -0.000000000   -0.000699114
 -------------------------------------------------------------------
 Cartesian Forces:  Max     0.009801495 RMS     0.003458770

 GradGradGradGradGradGradGradGradGradGradGradGradGradGradGradGradGradGrad
 Berny optimization.
 Using GEDIIS/GDIIS optimizer.
 FormGI is forming the generalized inverse of G from B-inverse, IUseBI=4.
 Internal  Forces:  Max     0.010071853 RMS     0.002886359
 Search for a local minimum.
 Step number   2 out of a maximum of   28
 All quantities printed in internal units (Hartrees-Bohrs-Radians)
 Mixed Optimization -- RFO/linear search
 Update second derivatives using D2CorX and points    1    2
 DE= -4.74D-03 DEPred=-5.47D-03 R= 8.68D-01
 TightC=F SS=  1.41D+00  RLast= 2.36D-01 DXNew= 5.0454D-01 7.0768D-01
 Trust test= 8.68D-01 RLast= 2.36D-01 DXMaxT set to 5.05D-01
 The second derivative matrix:
                          R1        R2        R3        R4        R5
           R1           0.32343
           R2          -0.00420   0.47477
           R3          -0.00935  -0.00278   0.04125
           R4           0.00484   0.00331   0.00517   0.47208
           R5           0.00484   0.00331   0.00517  -0.00480   0.47208
           R6           0.00514   0.00338   0.00519  -0.00494  -0.00494
           A1           0.02460   0.00170  -0.00795  -0.00722  -0.00722
           A2           0.00573   0.00158   0.00082  -0.00302  -0.00302
           A3           0.00573   0.00158   0.00082  -0.00302  -0.00302
           A4           0.00435   0.00112   0.00045  -0.00221  -0.00221
           A5          -0.00536  -0.00143  -0.00066   0.00277   0.00277
           A6          -0.00559  -0.00152  -0.00075   0.00292   0.00292
           A7          -0.00559  -0.00152  -0.00075   0.00292   0.00292
           A8          -0.00663  -0.00152  -0.00026   0.00315   0.00315
           A9           0.00000   0.00000   0.00000  -0.00000  -0.00000
           D1           0.00001   0.00000   0.00000  -0.00001  -0.00001
           D2          -0.00001  -0.00000  -0.00000   0.00001   0.00001
           D3          -0.00000  -0.00000  -0.00000   0.00000   0.00000
                          R6        A1        A2        A3        A4
           R6           0.47180
           A1          -0.00686   0.21509
           A2          -0.00302   0.00565   0.15967
           A3          -0.00302   0.00565  -0.00033   0.15967
           A4          -0.00220   0.00477  -0.00014  -0.00014   0.15998
           A5           0.00277  -0.00559   0.00024   0.00024   0.00008
           A6           0.00292  -0.00564   0.00029   0.00029   0.00011
           A7           0.00292  -0.00564   0.00029   0.00029   0.00011
           A8           0.00313  -0.00841  -0.00005  -0.00005  -0.00017
           A9          -0.00000   0.00000   0.00000   0.00000   0.00000
           D1          -0.00001   0.00001  -0.00000  -0.00000  -0.00000
           D2           0.00001  -0.00001   0.00000   0.00000   0.00000
           D3           0.00000  -0.00000  -0.00000  -0.00000  -0.00000
                          A5        A6        A7        A8        A9
           A5           0.15984
           A6          -0.00020   0.15975
           A7          -0.00020  -0.00025   0.15975
           A8           0.00013   0.00008   0.00008   0.00286
           A9          -0.00000  -0.00000  -0.00000  -0.00000   0.00230
           D1           0.00000   0.00000   0.00000   0.00000  -0.00000
           D2          -0.00000  -0.00000  -0.00000  -0.00000   0.00000
           D3           0.00000   0.00000   0.00000   0.00000  -0.00000
                          D1        D2        D3
           D1           0.00230
           D2           0.00000   0.00230
           D3           0.00000  -0.00000   0.00230
 ITU=  1  0
 Use linear search instead of GDIIS.
     Eigenvalues ---    0.00230   0.00230   0.00234   0.04039   0.09630
     Eigenvalues ---    0.09951   0.15508   0.16000   0.16000   0.21096
     Eigenvalues ---    0.33062   0.46181   0.47688   0.47688   0.47706
 RFO step:  Lambda=-1.47078191D-03 EMin= 2.30000000D-03
 Quartic linear search produced a step of -0.10732.
 Iteration  1 RMS(Cart)=  0.10661379 RMS(Int)=  0.04946523
 Iteration  2 RMS(Cart)=  0.10889840 RMS(Int)=  0.00759898
 Iteration  3 RMS(Cart)=  0.01112188 RMS(Int)=  0.00200749
 Iteration  4 RMS(Cart)=  0.00002749 RMS(Int)=  0.00200739
 Iteration  5 RMS(Cart)=  0.00000004 RMS(Int)=  0.00200739
 ClnCor:  largest displacement from symmetrization is 1.30D-09 for atom     6.
 Variable       Old X    -DE/DX   Delta X   Delta X   Delta X     New X
                                 (Linear)    (Quad)   (Total)
    R1        2.74457   0.00185   0.00966  -0.01960  -0.00994   2.73463
    R2        1.87270  -0.00091   0.00183  -0.00631  -0.00460   1.86810
    R3        3.67713  -0.00407   0.01098  -0.11697  -0.10592   3.57120
    R4        1.92221   0.00058  -0.00349   0.00987   0.00638   1.92859
    R5        1.92221   0.00058  -0.00349   0.00987   0.00638   1.92859
    R6        1.92222   0.00068  -0.00349   0.01007   0.00658   1.92880
    A1        1.65640   0.01007   0.01891   0.00538   0.02429   1.68069
    A2        1.93107   0.00203  -0.00120   0.01433   0.01175   1.94281
    A3        1.93107   0.00203  -0.00120   0.01433   0.01175   1.94281
    A4        1.92486   0.00166  -0.00054   0.01071   0.01232   1.93718
    A5        1.89304  -0.00207   0.00089  -0.01411  -0.01698   1.87606
    A6        1.89135  -0.00193   0.00107  -0.01339  -0.01031   1.88105
    A7        1.89135  -0.00193   0.00107  -0.01339  -0.01031   1.88105
    A8        3.27369  -0.00196  -0.00481  -0.40613  -0.40974   2.86396
    A9        3.14159   0.00000   0.00000   0.00000   0.00000   3.14159
    D1        2.10635  -0.00013  -0.00032  -0.04099  -0.04581   2.06054
    D2       -2.10635   0.00013   0.00032   0.04099   0.04581  -2.06054
    D3        0.00000  -0.00000   0.00000   0.00000   0.00000   0.00000
         Item               Value     Threshold  Converged?
 Maximum Force            0.010072     0.000450     NO 
 RMS     Force            0.002886     0.000300     NO 
 Maximum Displacement     0.659864     0.001800     NO 
 RMS     Displacement     0.221584     0.001200     NO 
 Predicted change in Energy=-9.642046D-04
 GradGradGradGradGradGradGradGradGradGradGradGradGradGradGradGradGradGrad

                          Input orientation:                          
 ---------------------------------------------------------------------
 Center     Atomic      Atomic             Coordinates (Angstroms)
 Number     Number       Type             X           Y           Z
 ---------------------------------------------------------------------
      1          8           0       -0.009098   -0.000000   -0.013620
      2          9           0        0.525546    0.000000    1.331099
      3          1           0        0.863917   -0.000000   -0.477394
      4          7           0        2.711930    0.000000   -0.872606
      5          1           0        2.975138   -0.822976   -1.415729
      6          1           0        2.975138    0.822976   -1.415729
      7          1           0        3.268780    0.000000   -0.017210
 ---------------------------------------------------------------------
                    Distance matrix (angstroms):
                    1          2          3          4          5
     1  O    0.000000
     2  F    1.447106   0.000000
     3  H    0.988556   1.839876   0.000000
     4  N    2.853393   3.104286   1.889800   0.000000
     5  H    3.398362   3.771321   2.452553   1.020564   0.000000
     6  H    3.398362   3.771321   2.452553   1.020564   1.645952
     7  H    3.277880   3.056677   2.448496   1.020678   1.649051
                    6          7
     6  H    0.000000
     7  H    1.649051   0.000000
 Stoichiometry    FH4NO
 Framework group  CS[SG(FH2NO),X(H2)]
 Deg. of freedom    10
 Full point group                 CS      NOp   2
 Largest Abelian subgroup         CS      NOp   2
 Largest concise Abelian subgroup CS      NOp   2
                         Standard orientation:                         
 ---------------------------------------------------------------------
 Center     Atomic      Atomic             Coordinates (Angstroms)
 Number     Number       Type             X           Y           Z
 ---------------------------------------------------------------------
      1          8           0        0.987088    0.713022    0.000000
      2          9           0        1.223918   -0.714573    0.000000
      3          1           0        0.000000    0.659170    0.000000
      4          7           0       -1.786517    0.042971   -0.000000
      5          1           0       -2.292443    0.372061    0.822976
      6          1           0       -2.292443    0.372061   -0.822976
      7          1           0       -1.821463   -0.977108   -0.000000
 ---------------------------------------------------------------------
 Rotational constants (GHZ):          24.7573815           4.8865108           4.1730236
 Standard basis: Aug-CC-pVDZ (5D, 7F)
 There are    77 symmetry adapted cartesian basis functions of A'  symmetry.
 There are    34 symmetry adapted cartesian basis functions of A"  symmetry.
 There are    71 symmetry adapted basis functions of A'  symmetry.
 There are    34 symmetry adapted basis functions of A"  symmetry.
   105 basis functions,   173 primitive gaussians,   111 cartesian basis functions
    14 alpha electrons       14 beta electrons
       nuclear repulsion energy        76.6510282205 Hartrees.
 NAtoms=    7 NActive=    7 NUniq=    6 SFac= 1.36D+00 NAtFMM=   60 NAOKFM=F Big=F
 Integral buffers will be    131072 words long.
 Raffenetti 1 integral format.
 Two-electron integral symmetry is turned on.
 One-electron integrals computed using PRISM.
 NBasis=   105 RedAO= T EigKep=  1.53D-03  NBF=    71    34
 NBsUse=   105 1.00D-06 EigRej= -1.00D+00 NBFU=    71    34
 Initial guess from the checkpoint file:  "/tmp/Gau-13976.chk"
 B after Tr=    -0.000000   -0.000000   -0.000000
         Rot=    0.999620    0.000000   -0.000000   -0.027554 Ang=  -3.16 deg.
 Initial guess orbital symmetries:
       Occupied  (A') (A') (A') (A') (A') (A') (A') (A") (A") (A')
                 (A') (A') (A") (A')
       Virtual   (A') (A") (A') (A') (A') (A') (A') (A") (A') (A")
                 (A') (A') (A") (A') (A') (A') (A') (A") (A") (A')
                 (A') (A') (A") (A") (A') (A') (A") (A') (A') (A')
                 (A") (A') (A") (A') (A') (A") (A') (A') (A') (A")
                 (A") (A') (A') (A") (A') (A') (A') (A") (A') (A')
                 (A") (A') (A") (A') (A') (A") (A') (A") (A') (A")
                 (A") (A') (A') (A') (A") (A') (A') (A") (A') (A')
                 (A") (A') (A') (A') (A') (A") (A') (A') (A') (A")
                 (A') (A") (A") (A') (A') (A') (A") (A') (A") (A')
                 (A')
 ExpMin= 2.97D-02 ExpMax= 1.47D+04 ExpMxC= 5.03D+02 IAcc=3 IRadAn=         5 AccDes= 0.00D+00
 Harris functional with IExCor=  205 and IRadAn=       5 diagonalized for initial guess.
 HarFok:  IExCor=  205 AccDes= 0.00D+00 IRadAn=         5 IDoV= 1 UseB2=F ITyADJ=14
 ICtDFT=  3500011 ScaDFX=  1.000000  1.000000  1.000000  1.000000
 FoFCou: FMM=F IPFlag=           0 FMFlag=      100000 FMFlg1=           0
         NFxFlg=           0 DoJE=T BraDBF=F KetDBF=T FulRan=T
         wScrn=  0.000000 ICntrl=       500 IOpCl=  0 I1Cent=   200000004 NGrid=           0
         NMat0=    1 NMatS0=      1 NMatT0=    0 NMatD0=    1 NMtDS0=    0 NMtDT0=    0
 Petite list used in FoFCou.
 Keep R1 ints in memory in symmetry-blocked form, NReq=23381707.
 Requested convergence on RMS density matrix=1.00D-08 within 128 cycles.
 Requested convergence on MAX density matrix=1.00D-06.
 Requested convergence on             energy=1.00D-06.
 No special actions if energy rises.
 SCF Done:  E(RHF) =  -230.979560392     A.U. after   14 cycles
            NFock= 14  Conv=0.56D-08     -V/T= 2.0019
 ExpMin= 2.97D-02 ExpMax= 1.47D+04 ExpMxC= 5.03D+02 IAcc=3 IRadAn=         5 AccDes= 0.00D+00
 HarFok:  IExCor=  205 AccDes= 0.00D+00 IRadAn=         5 IDoV=-2 UseB2=F ITyADJ=14
 ICtDFT= 12500011 ScaDFX=  1.000000  1.000000  1.000000  1.000000
 Range of M.O.s used for correlation:     4   105
 NBasis=   105 NAE=    14 NBE=    14 NFC=     3 NFV=     0
 NROrb=    102 NOA=    11 NOB=    11 NVA=    91 NVB=    91
 Fully direct method using O(ONN) memory.
 JobTyp=1 Pass  1:  I=   4 to  14 NPSUse= 28 ParTrn=T ParDer=T DoDerP=T.
 Spin components of T(2) and E(2):
     alpha-alpha T2 =       0.2183352349D-01 E2=     -0.7895002332D-01
     alpha-beta  T2 =       0.1290766353D+00 E2=     -0.4653725985D+00
     beta-beta   T2 =       0.2183352349D-01 E2=     -0.7895002332D-01
 ANorm=    0.1082932908D+01
 E2 =    -0.6232726451D+00 EUMP2 =    -0.23160283303697D+03
          IDoAtm=1111111
          Differentiating once with respect to electric field.
                with respect to dipole field.
          Differentiating once with respect to nuclear coordinates.
 Keep R1 ints in memory in symmetry-blocked form, NReq=23382762.
          There are     1 degrees of freedom in the 1st order CPHF.  IDoFFX=0 NUNeed=     1.
 LinEq1:  Iter=  0 NonCon=     1 RMS=6.05D-03 Max=5.80D-02 NDo=     1
 AX will form     1 AO Fock derivatives at one time.
 LinEq1:  Iter=  1 NonCon=     1 RMS=1.58D-03 Max=1.36D-02 NDo=     1
 LinEq1:  Iter=  2 NonCon=     1 RMS=6.80D-04 Max=7.86D-03 NDo=     1
 LinEq1:  Iter=  3 NonCon=     1 RMS=1.97D-04 Max=2.01D-03 NDo=     1
 LinEq1:  Iter=  4 NonCon=     1 RMS=6.26D-05 Max=4.55D-04 NDo=     1
 LinEq1:  Iter=  5 NonCon=     1 RMS=1.13D-05 Max=1.34D-04 NDo=     1
 LinEq1:  Iter=  6 NonCon=     1 RMS=4.13D-06 Max=3.89D-05 NDo=     1
 LinEq1:  Iter=  7 NonCon=     1 RMS=1.35D-06 Max=1.41D-05 NDo=     1
 LinEq1:  Iter=  8 NonCon=     1 RMS=4.07D-07 Max=5.30D-06 NDo=     1
 LinEq1:  Iter=  9 NonCon=     1 RMS=9.87D-08 Max=7.95D-07 NDo=     1
 LinEq1:  Iter= 10 NonCon=     1 RMS=1.40D-08 Max=1.10D-07 NDo=     1
 LinEq1:  Iter= 11 NonCon=     1 RMS=2.90D-09 Max=2.66D-08 NDo=     1
 LinEq1:  Iter= 12 NonCon=     1 RMS=5.66D-10 Max=5.42D-09 NDo=     1
 LinEq1:  Iter= 13 NonCon=     1 RMS=1.01D-10 Max=9.68D-10 NDo=     1
 LinEq1:  Iter= 14 NonCon=     0 RMS=2.13D-11 Max=1.50D-10 NDo=     1
 Linear equations converged to 1.000D-10 1.000D-09 after    14 iterations.
 End of Minotr F.D. properties file   721 does not exist.
 End of Minotr F.D. properties file   722 does not exist.
 End of Minotr F.D. properties file   788 does not exist.
 Calling FoFJK, ICntrl=  10002127 FMM=F ISym2X=1 I1Cent= 0 IOpClX= 0 NMat=1 NMatS=1 NMatT=0.
 ***** Axes restored to original set *****
 -------------------------------------------------------------------
 Center     Atomic                   Forces (Hartrees/Bohr)
 Number     Number              X              Y              Z
 -------------------------------------------------------------------
      1        8          -0.004091327    0.000000000   -0.000378650
      2        9          -0.000439835    0.000000000    0.001932724
      3        1           0.007485545   -0.000000000    0.000363009
      4        7          -0.005092862    0.000000000   -0.002280344
      5        1           0.001620526    0.001617828    0.000961667
      6        1           0.001620526   -0.001617828    0.000961667
      7        1          -0.001102574   -0.000000000   -0.001560073
 -------------------------------------------------------------------
 Cartesian Forces:  Max     0.007485545 RMS     0.002430948

 GradGradGradGradGradGradGradGradGradGradGradGradGradGradGradGradGradGrad
 Berny optimization.
 Using GEDIIS/GDIIS optimizer.
 FormGI is forming the generalized inverse of G from B-inverse, IUseBI=4.
 Internal  Forces:  Max     0.004715275 RMS     0.002231755
 Search for a local minimum.
 Step number   3 out of a maximum of   28
 All quantities printed in internal units (Hartrees-Bohrs-Radians)
 Mixed Optimization -- RFO/linear search
 Update second derivatives using D2CorX and points    1    2    3
 DE= -2.91D-04 DEPred=-9.64D-04 R= 3.02D-01
 Trust test= 3.02D-01 RLast= 4.30D-01 DXMaxT set to 5.05D-01
 The second derivative matrix:
                          R1        R2        R3        R4        R5
           R1           0.31143
           R2          -0.00098   0.48657
           R3          -0.02614  -0.00948   0.02666
           R4           0.01265   0.00009   0.01733   0.46705
           R5           0.01265   0.00009   0.01733  -0.00984   0.46705
           R6           0.01203  -0.00116   0.01743  -0.00924  -0.00924
           A1           0.02963   0.00773  -0.00591  -0.01151  -0.01151
           A2           0.01507   0.00746   0.00697  -0.00996  -0.00996
           A3           0.01507   0.00746   0.00697  -0.00996  -0.00996
           A4           0.00642  -0.00174   0.00570  -0.00343  -0.00343
           A5          -0.01592  -0.00641  -0.00917   0.01049   0.01049
           A6          -0.01132  -0.00385  -0.00572   0.00708   0.00708
           A7          -0.01132  -0.00385  -0.00572   0.00708   0.00708
           A8           0.00364   0.01234  -0.00045  -0.00504  -0.00504
           A9          -0.00000  -0.00000  -0.00000   0.00000   0.00000
           D1          -0.00146  -0.00142  -0.00050   0.00112   0.00112
           D2           0.00146   0.00142   0.00050  -0.00112  -0.00112
           D3          -0.00000   0.00000   0.00000   0.00000   0.00000
                          R6        A1        A2        A3        A4
           R6           0.46836
           A1          -0.01166   0.21497
           A2          -0.01028   0.00587   0.15771
           A3          -0.01028   0.00587  -0.00229   0.15771
           A4          -0.00297   0.00209  -0.00343  -0.00343   0.15994
           A5           0.01064  -0.00473   0.00360   0.00360   0.00352
           A6           0.00712  -0.00494   0.00237   0.00237   0.00192
           A7           0.00712  -0.00494   0.00237   0.00237   0.00192
           A8          -0.00632  -0.00325   0.00290   0.00290  -0.00500
           A9           0.00000   0.00000  -0.00000  -0.00000   0.00000
           D1           0.00124  -0.00035  -0.00004  -0.00004   0.00060
           D2          -0.00124   0.00035   0.00004   0.00004  -0.00060
           D3           0.00000  -0.00000  -0.00000  -0.00000  -0.00000
                          A5        A6        A7        A8        A9
           A5           0.15496
           A6          -0.00309   0.15806
           A7          -0.00309  -0.00194   0.15806
           A8          -0.00100  -0.00004  -0.00004   0.01584
           A9          -0.00000  -0.00000  -0.00000  -0.00000   0.00230
           D1          -0.00020  -0.00016  -0.00016  -0.00112   0.00000
           D2           0.00020   0.00016   0.00016   0.00112  -0.00000
           D3           0.00000   0.00000   0.00000   0.00000  -0.00000
                          D1        D2        D3
           D1           0.00238
           D2          -0.00008   0.00238
           D3          -0.00000   0.00000   0.00230
 ITU=  0  1  0
 Use linear search instead of GDIIS.
     Eigenvalues ---    0.00230   0.00230   0.01374   0.01748   0.09489
     Eigenvalues ---    0.10014   0.13799   0.16000   0.16243   0.20410
     Eigenvalues ---    0.32750   0.45759   0.47688   0.47688   0.48828
 RFO step:  Lambda=-1.01601354D-03 EMin= 2.30000000D-03
 Quartic linear search produced a step of -0.37619.
 Iteration  1 RMS(Cart)=  0.10805152 RMS(Int)=  0.01247636
 Iteration  2 RMS(Cart)=  0.01943816 RMS(Int)=  0.00096121
 Iteration  3 RMS(Cart)=  0.00038661 RMS(Int)=  0.00092944
 Iteration  4 RMS(Cart)=  0.00000009 RMS(Int)=  0.00092944
 ClnCor:  largest displacement from symmetrization is 2.93D-09 for atom     3.
 Variable       Old X    -DE/DX   Delta X   Delta X   Delta X     New X
                                 (Linear)    (Quad)   (Total)
    R1        2.73463   0.00163   0.00374  -0.01971  -0.01597   2.71866
    R2        1.86810   0.00472   0.00173  -0.00216  -0.00042   1.86768
    R3        3.57120  -0.00248   0.03985  -0.18141  -0.14156   3.42964
    R4        1.92859  -0.00140  -0.00240   0.01015   0.00775   1.93634
    R5        1.92859  -0.00140  -0.00240   0.01015   0.00775   1.93634
    R6        1.92880  -0.00191  -0.00248   0.00981   0.00734   1.93614
    A1        1.68069   0.00307  -0.00914   0.02429   0.01515   1.69585
    A2        1.94281   0.00251  -0.00442   0.02684   0.02283   1.96565
    A3        1.94281   0.00251  -0.00442   0.02684   0.02283   1.96565
    A4        1.93718  -0.00145  -0.00464   0.00874   0.00298   1.94016
    A5        1.87606  -0.00131   0.00639  -0.02332  -0.01526   1.86080
    A6        1.88105  -0.00123   0.00388  -0.02146  -0.01862   1.86243
    A7        1.88105  -0.00123   0.00388  -0.02146  -0.01862   1.86243
    A8        2.86396   0.00463   0.15414   0.08520   0.23879   3.10275
    A9        3.14159  -0.00000   0.00000   0.00000   0.00000   3.14159
    D1        2.06054  -0.00058   0.01723   0.00415   0.02347   2.08401
    D2       -2.06054   0.00058  -0.01723  -0.00415  -0.02347  -2.08401
    D3       -0.00000  -0.00000   0.00000  -0.00000   0.00000   0.00000
         Item               Value     Threshold  Converged?
 Maximum Force            0.004715     0.000450     NO 
 RMS     Force            0.002232     0.000300     NO 
 Maximum Displacement     0.365971     0.001800     NO 
 RMS     Displacement     0.124697     0.001200     NO 
 Predicted change in Energy=-8.875009D-04
 GradGradGradGradGradGradGradGradGradGradGradGradGradGradGradGradGradGrad

                          Input orientation:                          
 ---------------------------------------------------------------------
 Center     Atomic      Atomic             Coordinates (Angstroms)
 Number     Number       Type             X           Y           Z
 ---------------------------------------------------------------------
      1          8           0        0.039217    0.000000   -0.041556
      2          9           0        0.331882    0.000000    1.367014
      3          1           0        0.974252    0.000000   -0.361734
      4          7           0        2.712804   -0.000000   -0.882557
      5          1           0        2.955937   -0.821637   -1.444464
      6          1           0        2.955937    0.821637   -1.444464
      7          1           0        3.341322   -0.000000   -0.073429
 ---------------------------------------------------------------------
                    Distance matrix (angstroms):
                    1          2          3          4          5
     1  O    0.000000
     2  F    1.438652   0.000000
     3  H    0.988335   1.844236   0.000000
     4  N    2.802740   3.275570   1.814888   0.000000
     5  H    3.339236   3.932576   2.403012   1.024666   0.000000
     6  H    3.339236   3.932576   2.403012   1.024666   1.643275
     7  H    3.302259   3.336406   2.384562   1.024560   1.644185
                    6          7
     6  H    0.000000
     7  H    1.644185   0.000000
 Stoichiometry    FH4NO
 Framework group  CS[SG(FH2NO),X(H2)]
 Deg. of freedom    10
 Full point group                 CS      NOp   2
 Largest Abelian subgroup         CS      NOp   2
 Largest concise Abelian subgroup CS      NOp   2
                         Standard orientation:                         
 ---------------------------------------------------------------------
 Center     Atomic      Atomic             Coordinates (Angstroms)
 Number     Number       Type             X           Y           Z
 ---------------------------------------------------------------------
      1          8           0        0.986299    0.550655   -0.000000
      2          9           0        1.256932   -0.862313   -0.000000
      3          1           0        0.000000    0.487254   -0.000000
      4          7           0       -1.805262    0.300581    0.000000
      5          1           0       -2.245518    0.726055    0.821637
      6          1           0       -2.245518    0.726055   -0.821637
      7          1           0       -2.074909   -0.687859    0.000000
 ---------------------------------------------------------------------
 Rotational constants (GHZ):          27.6947156           4.5534486           3.9946200
 Standard basis: Aug-CC-pVDZ (5D, 7F)
 There are    77 symmetry adapted cartesian basis functions of A'  symmetry.
 There are    34 symmetry adapted cartesian basis functions of A"  symmetry.
 There are    71 symmetry adapted basis functions of A'  symmetry.
 There are    34 symmetry adapted basis functions of A"  symmetry.
   105 basis functions,   173 primitive gaussians,   111 cartesian basis functions
    14 alpha electrons       14 beta electrons
       nuclear repulsion energy        76.2822811550 Hartrees.
 NAtoms=    7 NActive=    7 NUniq=    6 SFac= 1.36D+00 NAtFMM=   60 NAOKFM=F Big=F
 Integral buffers will be    131072 words long.
 Raffenetti 1 integral format.
 Two-electron integral symmetry is turned on.
 One-electron integrals computed using PRISM.
 NBasis=   105 RedAO= T EigKep=  1.58D-03  NBF=    71    34
 NBsUse=   105 1.00D-06 EigRej= -1.00D+00 NBFU=    71    34
 Initial guess from the checkpoint file:  "/tmp/Gau-13976.chk"
 B after Tr=     0.000000    0.000000   -0.000000
         Rot=    0.998170   -0.000000    0.000000    0.060465 Ang=   6.93 deg.
 Initial guess orbital symmetries:
       Occupied  (A') (A') (A') (A') (A') (A') (A') (A") (A') (A")
                 (A') (A') (A") (A')
       Virtual   (A') (A") (A') (A') (A') (A') (A') (A") (A') (A")
                 (A') (A') (A") (A') (A') (A') (A") (A') (A") (A')
                 (A') (A') (A") (A') (A') (A") (A") (A') (A') (A')
                 (A") (A') (A') (A") (A') (A") (A') (A') (A') (A")
                 (A') (A") (A') (A') (A") (A') (A') (A") (A') (A')
                 (A") (A') (A") (A') (A') (A") (A') (A") (A') (A")
                 (A") (A') (A') (A') (A") (A') (A') (A") (A') (A')
                 (A") (A') (A') (A') (A') (A") (A') (A') (A') (A")
                 (A') (A") (A') (A") (A') (A') (A") (A') (A") (A')
                 (A')
 ExpMin= 2.97D-02 ExpMax= 1.47D+04 ExpMxC= 5.03D+02 IAcc=3 IRadAn=         5 AccDes= 0.00D+00
 Harris functional with IExCor=  205 and IRadAn=       5 diagonalized for initial guess.
 HarFok:  IExCor=  205 AccDes= 0.00D+00 IRadAn=         5 IDoV= 1 UseB2=F ITyADJ=14
 ICtDFT=  3500011 ScaDFX=  1.000000  1.000000  1.000000  1.000000
 FoFCou: FMM=F IPFlag=           0 FMFlag=      100000 FMFlg1=           0
         NFxFlg=           0 DoJE=T BraDBF=F KetDBF=T FulRan=T
         wScrn=  0.000000 ICntrl=       500 IOpCl=  0 I1Cent=   200000004 NGrid=           0
         NMat0=    1 NMatS0=      1 NMatT0=    0 NMatD0=    1 NMtDS0=    0 NMtDT0=    0
 Petite list used in FoFCou.
 Keep R1 ints in memory in symmetry-blocked form, NReq=23381707.
 Requested convergence on RMS density matrix=1.00D-08 within 128 cycles.
 Requested convergence on MAX density matrix=1.00D-06.
 Requested convergence on             energy=1.00D-06.
 No special actions if energy rises.
 SCF Done:  E(RHF) =  -230.980730924     A.U. after   14 cycles
            NFock= 14  Conv=0.26D-08     -V/T= 2.0018
 ExpMin= 2.97D-02 ExpMax= 1.47D+04 ExpMxC= 5.03D+02 IAcc=3 IRadAn=         5 AccDes= 0.00D+00
 HarFok:  IExCor=  205 AccDes= 0.00D+00 IRadAn=         5 IDoV=-2 UseB2=F ITyADJ=14
 ICtDFT= 12500011 ScaDFX=  1.000000  1.000000  1.000000  1.000000
 Range of M.O.s used for correlation:     4   105
 NBasis=   105 NAE=    14 NBE=    14 NFC=     3 NFV=     0
 NROrb=    102 NOA=    11 NOB=    11 NVA=    91 NVB=    91
 Fully direct method using O(ONN) memory.
 JobTyp=1 Pass  1:  I=   4 to  14 NPSUse= 28 ParTrn=T ParDer=T DoDerP=T.
 Spin components of T(2) and E(2):
     alpha-alpha T2 =       0.2179889245D-01 E2=     -0.7897675211D-01
     alpha-beta  T2 =       0.1285181143D+00 E2=     -0.4649404285D+00
     beta-beta   T2 =       0.2179889245D-01 E2=     -0.7897675211D-01
 ANorm=    0.1082643016D+01
 E2 =    -0.6228939327D+00 EUMP2 =    -0.23160362485704D+03
          IDoAtm=1111111
          Differentiating once with respect to electric field.
                with respect to dipole field.
          Differentiating once with respect to nuclear coordinates.
 Keep R1 ints in memory in symmetry-blocked form, NReq=23382762.
          There are     1 degrees of freedom in the 1st order CPHF.  IDoFFX=0 NUNeed=     1.
 LinEq1:  Iter=  0 NonCon=     1 RMS=6.00D-03 Max=4.79D-02 NDo=     1
 AX will form     1 AO Fock derivatives at one time.
 LinEq1:  Iter=  1 NonCon=     1 RMS=1.54D-03 Max=1.36D-02 NDo=     1
 LinEq1:  Iter=  2 NonCon=     1 RMS=6.66D-04 Max=7.28D-03 NDo=     1
 LinEq1:  Iter=  3 NonCon=     1 RMS=1.94D-04 Max=1.92D-03 NDo=     1
 LinEq1:  Iter=  4 NonCon=     1 RMS=6.16D-05 Max=4.72D-04 NDo=     1
 LinEq1:  Iter=  5 NonCon=     1 RMS=1.12D-05 Max=1.22D-04 NDo=     1
 LinEq1:  Iter=  6 NonCon=     1 RMS=4.25D-06 Max=4.28D-05 NDo=     1
 LinEq1:  Iter=  7 NonCon=     1 RMS=1.23D-06 Max=1.07D-05 NDo=     1
 LinEq1:  Iter=  8 NonCon=     1 RMS=3.64D-07 Max=4.47D-06 NDo=     1
 LinEq1:  Iter=  9 NonCon=     1 RMS=9.11D-08 Max=8.67D-07 NDo=     1
 LinEq1:  Iter= 10 NonCon=     1 RMS=1.30D-08 Max=9.63D-08 NDo=     1
 LinEq1:  Iter= 11 NonCon=     1 RMS=2.69D-09 Max=2.25D-08 NDo=     1
 LinEq1:  Iter= 12 NonCon=     1 RMS=5.21D-10 Max=4.74D-09 NDo=     1
 LinEq1:  Iter= 13 NonCon=     0 RMS=8.90D-11 Max=7.64D-10 NDo=     1
 Linear equations converged to 1.000D-10 1.000D-09 after    13 iterations.
 End of Minotr F.D. properties file   721 does not exist.
 End of Minotr F.D. properties file   722 does not exist.
 End of Minotr F.D. properties file   788 does not exist.
 Calling FoFJK, ICntrl=  10002127 FMM=F ISym2X=1 I1Cent= 0 IOpClX= 0 NMat=1 NMatS=1 NMatT=0.
 ***** Axes restored to original set *****
 -------------------------------------------------------------------
 Center     Atomic                   Forces (Hartrees/Bohr)
 Number     Number              X              Y              Z
 -------------------------------------------------------------------
      1        8          -0.007505133    0.000000000   -0.004152680
      2        9           0.001030857    0.000000000    0.006950282
      3        1           0.007341552   -0.000000000   -0.002510741
      4        7           0.002269878    0.000000000   -0.001896110
      5        1          -0.000314950    0.003282524    0.002302775
      6        1          -0.000314950   -0.003282524    0.002302775
      7        1          -0.002507254   -0.000000000   -0.002996300
 -------------------------------------------------------------------
 Cartesian Forces:  Max     0.007505133 RMS     0.003377155

 GradGradGradGradGradGradGradGradGradGradGradGradGradGradGradGradGradGrad
 Berny optimization.
 Using GEDIIS/GDIIS optimizer.
 FormGI is forming the generalized inverse of G from B-inverse, IUseBI=4.
 Internal  Forces:  Max     0.007030149 RMS     0.002882245
 Search for a local minimum.
 Step number   4 out of a maximum of   28
 All quantities printed in internal units (Hartrees-Bohrs-Radians)
 Mixed Optimization -- RFO/linear search
 Update second derivatives using D2CorX and points    1    2    3    4
 DE= -7.92D-04 DEPred=-8.88D-04 R= 8.92D-01
 TightC=F SS=  1.41D+00  RLast= 2.84D-01 DXNew= 8.4853D-01 8.5276D-01
 Trust test= 8.92D-01 RLast= 2.84D-01 DXMaxT set to 8.49D-01
 The second derivative matrix:
                          R1        R2        R3        R4        R5
           R1           0.36410
           R2           0.04748   0.52458
           R3          -0.01193   0.00799   0.02123
           R4          -0.02056  -0.03031   0.00947   0.48778
           R5          -0.02056  -0.03031   0.00947   0.01089   0.48778
           R6          -0.01980  -0.02997   0.00941   0.01069   0.01069
           A1           0.00883  -0.01094  -0.00042  -0.00076  -0.00076
           A2           0.01040  -0.00142   0.01209  -0.00758  -0.00758
           A3           0.01040  -0.00142   0.01209  -0.00758  -0.00758
           A4          -0.00406  -0.00789   0.00237   0.00280   0.00280
           A5          -0.00314   0.00343  -0.00932   0.00342   0.00342
           A6          -0.00811   0.00347  -0.00975   0.00534   0.00534
           A7          -0.00811   0.00347  -0.00975   0.00534   0.00534
           A8          -0.00718   0.00409  -0.00077   0.00088   0.00088
           A9          -0.00000  -0.00000  -0.00000   0.00000   0.00000
           D1          -0.00001  -0.00120  -0.00008   0.00038   0.00038
           D2           0.00001   0.00120   0.00008  -0.00038  -0.00038
           D3           0.00000   0.00000   0.00000  -0.00000  -0.00000
                          R6        A1        A2        A3        A4
           R6           0.48752
           A1          -0.00112   0.20510
           A2          -0.00771   0.00299   0.15359
           A3          -0.00771   0.00299  -0.00641   0.15359
           A4           0.00301   0.00128  -0.00165  -0.00165   0.16061
           A5           0.00366   0.00042   0.00439   0.00439   0.00229
           A6           0.00522  -0.00391   0.00567   0.00567   0.00032
           A7           0.00522  -0.00391   0.00567   0.00567   0.00032
           A8          -0.00066  -0.00569   0.00273   0.00273  -0.00420
           A9           0.00000   0.00000   0.00000   0.00000   0.00000
           D1           0.00053   0.00083  -0.00033  -0.00033   0.00073
           D2          -0.00053  -0.00083   0.00033   0.00033  -0.00073
           D3          -0.00000  -0.00000  -0.00000  -0.00000  -0.00000
                          A5        A6        A7        A8        A9
           A5           0.15523
           A6          -0.00357   0.15542
           A7          -0.00357  -0.00458   0.15542
           A8          -0.00161   0.00015   0.00015   0.01778
           A9          -0.00000  -0.00000  -0.00000  -0.00000   0.00230
           D1          -0.00020   0.00009   0.00009  -0.00123   0.00000
           D2           0.00020  -0.00009  -0.00009   0.00123  -0.00000
           D3           0.00000   0.00000   0.00000  -0.00000  -0.00000
                          D1        D2        D3
           D1           0.00234
           D2          -0.00004   0.00234
           D3          -0.00000   0.00000   0.00230
 ITU=  1  0  1  0
 Use linear search instead of GDIIS.
     Eigenvalues ---    0.00230   0.00230   0.01317   0.01733   0.09334
     Eigenvalues ---    0.09614   0.13824   0.16000   0.16196   0.20449
     Eigenvalues ---    0.35052   0.46630   0.47688   0.47699   0.58631
 RFO step:  Lambda=-3.06219875D-04 EMin= 2.30000000D-03
 Quartic linear search produced a step of -0.00407.
 Iteration  1 RMS(Cart)=  0.00956818 RMS(Int)=  0.00003219
 Iteration  2 RMS(Cart)=  0.00003537 RMS(Int)=  0.00001177
 Iteration  3 RMS(Cart)=  0.00000000 RMS(Int)=  0.00001177
 ClnCor:  largest displacement from symmetrization is 7.55D-11 for atom     3.
 Variable       Old X    -DE/DX   Delta X   Delta X   Delta X     New X
                                 (Linear)    (Quad)   (Total)
    R1        2.71866   0.00701   0.00006   0.01476   0.01483   2.73349
    R2        1.86768   0.00703   0.00000   0.01183   0.01184   1.87952
    R3        3.42964  -0.00075   0.00058  -0.03822  -0.03765   3.39199
    R4        1.93634  -0.00397  -0.00003  -0.00539  -0.00542   1.93092
    R5        1.93634  -0.00397  -0.00003  -0.00539  -0.00542   1.93092
    R6        1.93614  -0.00390  -0.00003  -0.00527  -0.00530   1.93084
    A1        1.69585   0.00110  -0.00006   0.00502   0.00496   1.70081
    A2        1.96565   0.00080  -0.00009   0.00761   0.00750   1.97314
    A3        1.96565   0.00080  -0.00009   0.00761   0.00750   1.97314
    A4        1.94016  -0.00066  -0.00001  -0.00301  -0.00302   1.93713
    A5        1.86080  -0.00034   0.00006  -0.00294  -0.00291   1.85789
    A6        1.86243  -0.00035   0.00008  -0.00525  -0.00518   1.85725
    A7        1.86243  -0.00035   0.00008  -0.00525  -0.00518   1.85725
    A8        3.10275   0.00017  -0.00097   0.00549   0.00452   3.10727
    A9        3.14159  -0.00000   0.00000  -0.00000   0.00000   3.14159
    D1        2.08401  -0.00037  -0.00010  -0.00310  -0.00321   2.08079
    D2       -2.08401   0.00037   0.00010   0.00310   0.00321  -2.08079
    D3        0.00000   0.00000   0.00000   0.00000   0.00000   0.00000
         Item               Value     Threshold  Converged?
 Maximum Force            0.007030     0.000450     NO 
 RMS     Force            0.002882     0.000300     NO 
 Maximum Displacement     0.025110     0.001800     NO 
 RMS     Displacement     0.009574     0.001200     NO 
 Predicted change in Energy=-1.534794D-04
 GradGradGradGradGradGradGradGradGradGradGradGradGradGradGradGradGradGrad

                          Input orientation:                          
 ---------------------------------------------------------------------
 Center     Atomic      Atomic             Coordinates (Angstroms)
 Number     Number       Type             X           Y           Z
 ---------------------------------------------------------------------
      1          8           0        0.045778    0.000000   -0.045188
      2          9           0        0.329467    0.000000    1.373219
      3          1           0        0.987540    0.000000   -0.365046
      4          7           0        2.705961   -0.000000   -0.883630
      5          1           0        2.955326   -0.818450   -1.442228
      6          1           0        2.955326    0.818450   -1.442228
      7          1           0        3.331952   -0.000000   -0.076090
 ---------------------------------------------------------------------
                    Distance matrix (angstroms):
                    1          2          3          4          5
     1  O    0.000000
     2  F    1.446498   0.000000
     3  H    0.994598   1.858661   0.000000
     4  N    2.789186   3.277360   1.794965   0.000000
     5  H    3.329723   3.935954   2.387962   1.021800   0.000000
     6  H    3.329723   3.935954   2.387962   1.021800   1.636900
     7  H    3.286319   3.333978   2.362152   1.021756   1.636472
                    6          7
     6  H    0.000000
     7  H    1.636472   0.000000
 Stoichiometry    FH4NO
 Framework group  CS[SG(FH2NO),X(H2)]
 Deg. of freedom    10
 Full point group                 CS      NOp   2
 Largest Abelian subgroup         CS      NOp   2
 Largest concise Abelian subgroup CS      NOp   2
                         Standard orientation:                         
 ---------------------------------------------------------------------
 Center     Atomic      Atomic             Coordinates (Angstroms)
 Number     Number       Type             X           Y           Z
 ---------------------------------------------------------------------
      1          8           0        0.993905    0.522927    0.000000
      2          9           0        1.234838   -0.903365   -0.000000
      3          1           0        0.000000    0.485806    0.000000
      4          7           0       -1.790359    0.357298    0.000000
      5          1           0       -2.222577    0.790198    0.818450
      6          1           0       -2.222577    0.790198   -0.818450
      7          1           0       -2.087112   -0.620415    0.000000
 ---------------------------------------------------------------------
 Rotational constants (GHZ):          27.6970864           4.5618570           4.0004717
 Standard basis: Aug-CC-pVDZ (5D, 7F)
 There are    77 symmetry adapted cartesian basis functions of A'  symmetry.
 There are    34 symmetry adapted cartesian basis functions of A"  symmetry.
 There are    71 symmetry adapted basis functions of A'  symmetry.
 There are    34 symmetry adapted basis functions of A"  symmetry.
   105 basis functions,   173 primitive gaussians,   111 cartesian basis functions
    14 alpha electrons       14 beta electrons
       nuclear repulsion energy        76.2118828118 Hartrees.
 NAtoms=    7 NActive=    7 NUniq=    6 SFac= 1.36D+00 NAtFMM=   60 NAOKFM=F Big=F
 Integral buffers will be    131072 words long.
 Raffenetti 1 integral format.
 Two-electron integral symmetry is turned on.
 One-electron integrals computed using PRISM.
 NBasis=   105 RedAO= T EigKep=  1.59D-03  NBF=    71    34
 NBsUse=   105 1.00D-06 EigRej= -1.00D+00 NBFU=    71    34
 Initial guess from the checkpoint file:  "/tmp/Gau-13976.chk"
 B after Tr=    -0.000000   -0.000000   -0.000000
         Rot=    0.999889   -0.000000    0.000000    0.014904 Ang=   1.71 deg.
 Initial guess orbital symmetries:
       Occupied  (A') (A') (A') (A') (A') (A') (A') (A") (A') (A")
                 (A') (A') (A") (A')
       Virtual   (A') (A") (A') (A') (A') (A') (A') (A") (A') (A")
                 (A') (A') (A") (A') (A') (A') (A") (A') (A") (A')
                 (A') (A') (A") (A') (A') (A") (A") (A') (A') (A')
                 (A") (A') (A") (A') (A') (A") (A') (A') (A') (A")
                 (A') (A") (A') (A') (A") (A') (A') (A") (A') (A')
                 (A") (A") (A') (A') (A') (A") (A') (A") (A") (A')
                 (A') (A") (A') (A') (A") (A') (A') (A") (A') (A")
                 (A') (A') (A') (A') (A') (A") (A') (A') (A') (A")
                 (A') (A") (A') (A") (A') (A') (A") (A') (A") (A')
                 (A')
 ExpMin= 2.97D-02 ExpMax= 1.47D+04 ExpMxC= 5.03D+02 IAcc=3 IRadAn=         5 AccDes= 0.00D+00
 Harris functional with IExCor=  205 and IRadAn=       5 diagonalized for initial guess.
 HarFok:  IExCor=  205 AccDes= 0.00D+00 IRadAn=         5 IDoV= 1 UseB2=F ITyADJ=14
 ICtDFT=  3500011 ScaDFX=  1.000000  1.000000  1.000000  1.000000
 FoFCou: FMM=F IPFlag=           0 FMFlag=      100000 FMFlg1=           0
         NFxFlg=           0 DoJE=T BraDBF=F KetDBF=T FulRan=T
         wScrn=  0.000000 ICntrl=       500 IOpCl=  0 I1Cent=   200000004 NGrid=           0
         NMat0=    1 NMatS0=      1 NMatT0=    0 NMatD0=    1 NMtDS0=    0 NMtDT0=    0
 Petite list used in FoFCou.
 Keep R1 ints in memory in symmetry-blocked form, NReq=23381707.
 Requested convergence on RMS density matrix=1.00D-08 within 128 cycles.
 Requested convergence on MAX density matrix=1.00D-06.
 Requested convergence on             energy=1.00D-06.
 No special actions if energy rises.
 SCF Done:  E(RHF) =  -230.980156896     A.U. after   11 cycles
            NFock= 11  Conv=0.48D-08     -V/T= 2.0018
 ExpMin= 2.97D-02 ExpMax= 1.47D+04 ExpMxC= 5.03D+02 IAcc=3 IRadAn=         5 AccDes= 0.00D+00
[...]
 008586,0.,-0.00001431,0.,0.,0.00003600,0.,0.,0.00001172,0.,0.,-0.00002
 119,0.,-0.00003353,0.00000999,0.00000942,0.00003353,0.00000999,-0.0000
 0942,0.,-0.00003219,-0.00011177,0.,-0.00010073,0.00006265,0.,0.0001594
 5,0.00008893,0.,-0.00009228,0.00005032,0.,0.00022025,-0.00003365,0.000
 00929,-0.00003794,-0.00003365,-0.00000929,-0.00003794,-0.00002283,0.,-
 0.00011082,0.00051190,0.,0.00107060,0.00015344,0.,-0.00105907,-0.00020
 545,0.,0.00070856,0.00012054,0.,-0.00013258,0.,0.,0.00012229,0.0004241
 1,0.,0.00141813,-0.00073097,0.,-0.00114563,-0.00408299,0.,0.00069039,0
 .00014172,0.,0.00086159,0.00934854,0.,0.00022157,0.,0.,0.00008990,0.,0
 .,-0.00488518,0.00173949,0.,-0.00026812,-0.00020515,0.,0.00015892,-0.0
 0520688,0.,-0.00283065,-0.00312880,0.,0.00172460,-0.00017022,0.,-0.000
 21836,0.00129493,0.,0.00111801,-0.19690398,0.,-0.00219636,0.,0.,-0.000
 10177,0.,0.,0.00721551,0.,0.,-0.35055382,-0.00259190,0.,-0.00066324,0.
 00031600,0.,-0.00112700,0.00367802,0.,0.00526379,-0.03022407,0.0000000
 1,-0.34145100,0.00254713,0.00044067,-0.00098367,-0.00001397,0.00006041
 ,-0.00000360,-0.00256884,-0.00169677,0.00008640,0.02494786,-0.19695637
 ,-0.12279957,0.00189702,-0.00051748,0.00046995,0.00021183,-0.00005599,
 0.00003271,0.00017834,0.00170596,-0.00117122,-0.00113589,-0.14424944,0
 .18148048,0.14305748,0.15994318,-0.17517760,-0.00065725,0.00015834,0.0
 0035985,-0.00001202,0.00001735,0.00014675,0.00126772,-0.00024284,-0.00
 087111,-0.09235893,0.15204351,0.08846223,0.09678896,-0.14127319,-0.083
 61728,0.00254713,-0.00044067,-0.00098367,-0.00001397,-0.00006041,-0.00
 000360,-0.00256884,0.00169677,0.00008640,0.02494787,0.19695637,-0.1227
 9958,-0.00985917,-0.01702258,0.01553084,0.00189702,0.00051748,0.000469
 95,-0.00021183,0.00005599,0.00003270,-0.00017834,-0.00170597,-0.001171
 22,0.00113589,0.14424945,0.18148049,-0.14305749,0.01702258,-0.00598660
 ,-0.01107520,-0.15994319,-0.17517761,-0.00065725,-0.00015834,0.0003598
 5,-0.00001202,-0.00001734,0.00014675,0.00126772,0.00024284,-0.00087111
 ,-0.09235893,-0.15204352,0.08846223,0.01553083,0.01107520,-0.00269843,
 0.09678897,0.14127320,-0.08361728,0.00181107,0.,-0.00130965,0.00014135
 ,0.,-0.00032916,-0.00156452,0.,0.00238173,0.14901232,0.,0.27442110,-0.
 01695003,0.00019633,-0.02055932,-0.01695003,-0.00019633,-0.02055932,-0
 .11550016,0.,0.00009689,0.,0.,-0.00004324,0.,0.,-0.00029935,0.,0.,-0.0
 1732453,0.,0.02118629,0.00035229,0.00037203,-0.02118629,0.00035229,-0.
 00037203,0.,0.01686566,0.00158937,0.,-0.00014739,-0.00006440,0.,0.0004
 0206,-0.00255856,0.,-0.00058171,0.21231769,0.,0.16105300,0.01138064,-0
 .01211377,-0.00178201,0.01138064,0.01211377,-0.00178201,-0.23404538,0.
 ,-0.15716194,-0.79566116,-0.00000006,0.02690862,0.36317230,-0.00000006
 ,0.02945458,0.05079154,0.00000002,0.03488465,-0.03787165,0.00000005,0.
 03690362,0.00000004,-0.00000002,-0.04021519,-0.10593100,0.00000007,-0.
 03758664,0.00741588,-0.00000005,0.06166617,0.74773817,0.00000005,-0.40
 169003,-0.01311172,-0.00000004,0.09939650,-0.73894317,0.00000001,-0.06
 355847,0.00000002,0.,0.00327789,-0.00000002,-0.00000001,0.05603594,-0.
 25791639,-0.00000002,0.00542754,-0.04164181,0.00000002,-0.02506366,0.2
 9667105,0.,0.00927490,-0.00279204,0.,0.00371230,0.00015525,0.,-0.00082
 749,0.00587235,0.,0.00091212,-0.01928053,0.,-0.00045521,0.,0.,0.000077
 91,0.,0.,0.00404169,0.,0.00000001,-0.06095496,-0.00002869,-0.00000004,
 0.00356269,-0.00073139,0.00000003,0.00102227,0.00792948,0.,0.00796510,
 0.01357886,0.,-0.03842697,-0.00068043,-0.00007939,-0.00062427,0.000108
 22,0.00007477,-0.00016831,-0.00070396,-0.00144576,-0.00130976,0.005857
 54,-0.00934535,-0.00715380,-0.00503172,0.00022117,0.00011468,-0.000437
 99,-0.00011033,-0.00007053,-0.00004389,0.00036312,0.00008116,-0.000526
 61,-0.00805630,0.02578294,0.02259901,0.00903828,-0.02298228,0.00072008
 ,0.00010485,-0.00003254,-0.00008681,-0.00002132,0.00006342,-0.00101174
 ,-0.00027001,0.00142192,-0.00838967,0.02760635,0.01205765,0.00916214,-
 0.02437756,-0.01145592,-0.00068044,0.00007937,-0.00062427,0.00010822,-
 0.00007475,-0.00016830,-0.00070396,0.00144577,-0.00130976,0.00585755,0
 .00934534,-0.00715380,0.00052132,-0.00135278,0.00035083,-0.00503172,-0
 .00022117,0.00011468,0.00043799,0.00011033,-0.00007054,0.00004388,-0.0
 0036312,0.00008117,0.00052662,0.00805628,0.02578294,-0.02259901,0.0013
 5278,-0.00149342,-0.00367831,-0.00903827,-0.02298228,0.00072008,-0.000
 10483,-0.00003254,-0.00008681,0.00002131,0.00006342,-0.00101174,0.0002
 7000,0.00142192,-0.00838967,-0.02760634,0.01205766,0.00035083,0.003678
 31,-0.00225179,0.00916214,0.02437755,-0.01145593,0.00128435,0.00000001
 ,0.00116933,-0.00017984,-0.00000002,0.00028271,-0.00014772,0.,0.004594
 57,0.00432985,0.,-0.00644064,-0.00007098,-0.00010317,-0.00074484,-0.00
 007098,0.00010317,-0.00074484,-0.00514467,0.,-0.00002791,0.,0.,0.00009
 687,0.,0.,0.00004063,0.,0.,0.00572468,0.,0.00040468,-0.00143254,0.0006
 3601,-0.00040468,-0.00143255,-0.00063601,0.,-0.00296917,-0.00073637,0.
 00000003,-0.00079310,0.00024629,-0.00000004,-0.00016498,-0.00028352,0.
 ,-0.00044772,-0.00059644,0.,0.00176158,-0.00025684,-0.00089127,0.00019
 727,-0.00025683,0.00089128,0.00019726,0.00188371,0.,-0.00075032,-0.001
 29863,0.,0.00000733,0.00020945,0.,-0.00029287,0.00017628,0.,0.00007434
 ,0.00002470,0.,-0.00009651,0.00000001,0.,-0.00007179,-0.00026246,0.,-0
 .00004996,-0.00003339,-0.00000001,0.00003628,0.00071999,0.,-0.00030852
 ,0.00005444,0.,0.00024956,-0.00098417,0.,0.00015007,0.,0.,0.00015678,0
 .,0.,-0.00005449,0.00001425,0.,0.00059469,-0.00020485,0.,0.00017872,0.
 00019379,0.,-0.00120260,-0.00018770,0.,0.00026573,-0.00004754,0.,-0.00
 002959,0.00130103,0.,-0.00037806,-0.19302289,0.,0.00022330,0.,0.,0.000
 07845,0.,0.,-0.00077734,0.,-0.00000006,-0.23838166,-0.00050957,0.,-0.0
 0068117,0.00046509,0.,-0.00050297,0.00044829,0.,0.00227668,-0.20381486
 ,0.00000011,-0.49192083,-0.00019954,0.00000495,-0.00006200,0.00001226,
 0.00005535,0.00003053,0.00030893,-0.00024145,0.00014729,0.01763756,-0.
 07769975,-0.04827828,-0.02148986,-0.00005552,0.00003700,-0.00003316,-0
 .00003607,-0.00000229,0.00009397,0.00049858,-0.00011203,-0.00036554,-0
 .04862034,0.15076906,0.08368649,0.05257026,-0.14888503,-0.00010620,0.0
 0018134,0.00006492,-0.00009040,0.00004472,0.00001625,0.00027517,-0.000
 66389,-0.00010894,-0.01769161,0.03553500,0.03499051,0.03414340,-0.0639
 2730,-0.00979381,-0.00019954,-0.00000494,-0.00006200,0.00001226,-0.000
 05535,0.00003053,0.00030893,0.00024145,0.00014729,0.01763758,0.0776998
 1,-0.04827834,0.00051020,0.00022738,-0.00107423,-0.02148987,0.00005552
 ,0.00003700,0.00003316,0.00003608,-0.00000229,-0.00009397,-0.00049857,
 -0.00011203,0.00036554,0.04862038,0.15076927,-0.08368665,-0.00022736,0
 .00201471,-0.00155378,-0.05257032,-0.14888523,-0.00010620,-0.00018135,
 0.00006492,-0.00009040,-0.00004471,0.00001625,0.00027517,0.00066389,-0
 .00010894,-0.01769164,-0.03553511,0.03499053,-0.00107423,0.00155379,-0
 .00457850,0.03414346,0.06392742,-0.00979383,0.00098913,0.,-0.00011699,
 -0.00023239,0.,0.00001481,-0.00170914,0.,0.00008029,0.15668194,0.,0.29
 996766,0.00322046,-0.00458427,-0.01545613,0.00322045,0.00458429,-0.015
 45615,-0.16217046,0.,-0.00035818,0.,0.,-0.00006234,0.,0.,0.00074903,0.
 ,0.00000002,-0.06268109,0.00000005,0.02553800,-0.00382143,0.03038391,-
 0.02553801,-0.00382144,-0.03038393,-0.00000001,0.06999546,0.00076073,0
 .,0.00029947,-0.00012039,0.,0.00030544,-0.00113346,0.,-0.00162960,0.23
 934003,0.,0.42084723,0.01509328,-0.02100826,-0.02059043,0.01509329,0.0
 2100828,-0.02059043,-0.26903349,-0.00000003,-0.37864169,-0.07866049,0.
 00000001,0.00277954,0.03735894,0.,0.00229792,0.00496849,0.,0.00330567,
 -0.00382386,-0.00000002,0.00363269,-0.00000001,0.00000001,-0.00393340,
 -0.01056129,0.,-0.00389713,0.00074442,0.00000002,0.00641999,0.07351154
 ,0.,-0.04091601,-0.00133521,0.,0.00985143,-0.07052356,0.,-0.00627815,0
 .,0.,0.00034132,0.,0.,0.00491097,-0.02639036,0.,0.00135567,-0.00396824
 ,0.,-0.00260036,0.03040997,0.,-0.00130283,-0.00048750,0.,0.00066489,-0
 .00012864,0.,0.00000813,-0.00011488,0.,0.00016858,-0.08194161,0.,-0.00
 084818,0.,0.,0.00005100,0.,0.,0.00287585,0.,0.00000007,-0.50349174,-0.
 00093254,0.,0.00073320,0.00066628,0.,0.00025121,0.00084349,0.,0.000434
 76,0.09319730,-0.00000011,-0.25935406,0.00042646,-0.00012886,-0.000148
 60,0.00011860,0.00005679,-0.00006210,-0.00099012,0.00023195,-0.0004955
 8,0.02646432,-0.11087407,-0.07261386,-0.02868464,0.00006914,0.00039867
 ,0.00001969,0.00004546,-0.00000494,0.00015461,0.00042867,-0.00124674,-
 0.00092031,-0.07200434,0.23339829,0.17493383,0.09389122,-0.20554528,-0
 .00005479,0.00024755,-0.00013597,-0.00032725,-0.00001889,-0.00001733,0
 .00066786,-0.00035708,0.00066565,-0.06264000,0.22876041,0.11310600,0.0
 6992426,-0.19953761,-0.10500314,0.00042646,0.00012887,-0.00014860,0.00
 011860,-0.00005679,-0.00006210,-0.00099012,-0.00023195,-0.00049558,0.0
 2646430,0.11087399,-0.07261381,0.00433235,-0.01613502,0.00444940,-0.02
 868462,-0.00006914,0.00039868,-0.00001969,-0.00004546,-0.00000494,-0.0
 0015461,-0.00042867,-0.00124674,0.00092032,0.07200429,0.23339809,-0.17
 493368,0.01613501,-0.01343442,-0.03615746,-0.09389114,-0.20554511,-0.0
 0005479,-0.00024755,-0.00013596,-0.00032725,0.00001889,-0.00001733,0.0
 0066786,0.00035708,0.00066565,-0.06263997,-0.22876030,0.11310599,0.004
 44939,0.03615745,-0.01619808,0.06992422,0.19953750,-0.10500313,-0.0001
 8496,0.,-0.00011628,0.00008204,0.,0.00008151,0.00044236,0.,0.00077122,
 0.02974400,0.,0.05145314,-0.00166697,-0.00629513,-0.01201949,-0.001666
 96,0.00629512,-0.01201947,-0.02674950,0.,-0.00008323,0.,0.,-0.00008170
 ,0.,0.,0.00064349,0.,-0.00000002,0.03461668,-0.00000004,0.00068797,-0.
 01356557,0.00706308,-0.00068796,-0.01356556,-0.00706307,0.,-0.00796411
 ,0.00063483,0.,-0.00021772,-0.00009364,0.,-0.00013903,-0.00152460,0.,0
 .00078147,0.03124107,0.,0.03172289,-0.00105351,-0.01080766,0.00758286,
 -0.00105352,0.01080764,0.00758286,-0.02815064,0.00000003,-0.04731333,4
 .79156392,-0.00000004,-1.12380332,-2.24739427,-0.00000002,-0.16868610,
 -0.00745803,0.00000001,-0.02494621,-0.00172980,0.00000005,-0.00186496,
 0.00000003,-0.00000002,0.00607767,0.00518164,0.00000003,0.02460281,0.0
 1395394,-0.00000004,-0.01818209,-4.78020055,0.00000002,2.28261332,0.00
 425148,-0.00000003,-0.02431266,4.74075338,0.,1.12323069,0.,0.,-0.00345
 110,0.,0.,-1.08578290,2.24248128,0.,0.14113841,0.01360652,0.00000001,-
 0.00502885,-2.23815617,0.,-0.10968724,-0.00367102,0.,-0.00687338,0.003
 38268,0.,0.00415190,0.02344075,0.,-0.01518154,0.01516193,0.,0.00249323
 ,0.,0.,-0.00067761,0.,0.,-0.03623797,0.,0.,0.04538537,-0.00067599,0.,0
 .00236058,-0.00202796,0.,-0.00094390,-0.01767536,0.,-0.02787541,0.0132
 3979,-0.00000001,0.03530080,0.00025670,0.00011299,-0.00074230,0.000645
 55,0.00019206,0.00035122,0.00507164,0.00764895,0.00281667,-0.01401648,
 -0.01284958,-0.00370579,0.00572991,-0.00068305,0.00003462,0.00030722,0
 .00001888,-0.00000897,0.00012452,0.00254811,0.00160504,0.00081779,-0.0
 0087352,-0.00610586,-0.00392541,0.00260535,0.00327648,-0.00069886,0.00
 007009,0.00013719,-0.00008250,-0.00004188,-0.00011180,-0.00007480,0.00
 009658,-0.00134115,0.00309816,-0.00178475,0.00027331,-0.00006100,0.002
 35121,-0.00065544,0.00025670,-0.00011300,-0.00074230,0.00064554,-0.000
 19206,0.00035123,0.00507164,-0.00764895,0.00281666,-0.01401649,0.01284
 958,-0.00370579,0.00096251,-0.00218848,-0.00048437,0.00572992,0.000683
 06,0.00003462,-0.00030722,-0.00001889,-0.00000897,-0.00012452,-0.00254
 812,0.00160504,-0.00081779,0.00087352,-0.00610588,0.00392542,0.0021884
 8,0.00050920,-0.00054993,-0.00260535,0.00327649,-0.00069886,-0.0000700
 9,0.00013720,-0.00008249,0.00004187,-0.00011181,-0.00007480,-0.0000965
 7,-0.00134115,0.00309816,0.00178476,0.00027331,-0.00048437,0.00054993,
 0.00118514,-0.00006100,-0.00235122,-0.00065543,-0.00074773,0.,-0.00191
 486,0.00026259,0.,0.00032272,0.00161166,0.,-0.00838343,-0.01028139,0.,
 0.01455112,0.00135018,-0.00142729,-0.00169664,0.00135018,0.00142729,-0
 .00169664,0.00645451,0.,-0.00012488,0.,0.,-0.00006604,0.,0.,-0.0009688
 0,0.,0.,0.00124870,0.,0.00010175,0.00068950,-0.00014132,-0.00010175,0.
 00068950,0.00014132,0.,-0.00146799,0.00180508,0.,0.00030991,-0.0004213
 0,0.,-0.00022436,-0.00231954,0.,0.00413539,-0.00153310,0.,-0.00938870,
 0.00182557,-0.00022526,0.00051274,0.00182557,0.00022526,0.00051274,-0.
 00118227,0.,0.00414229,0.00748741,-0.00000002,-0.00108126,-0.00362645,
 0.,-0.00018843,-0.00004729,0.,0.00049928,-0.00014080,0.00000002,-0.000
 04187,0.,0.,0.00000870,0.00010607,0.,0.00034071,-0.00028207,0.,-0.0002
 7481,-0.00949755,0.,0.00388811,0.00030324,0.,0.00020164,0.01074115,0.,
 0.00151128,0.,0.,0.00004336,0.,0.,-0.00239736,0.00441890,0.,-0.0003839
 8,-0.00015350,0.,0.00007253,-0.00518332,0.,-0.00009547,0.00237848,0.,-
 0.00047812,-0.00031535,0.,-0.00047990,-0.00268496,0.,0.00110560,-0.024
 94695,0.,-0.00026400,0.,0.,-0.00001297,0.,0.,-0.00099948,0.,0.,1.46905
 813,-0.00100493,0.,0.00013870,0.00010969,0.,0.00014117,0.00030968,0.,-
 0.00153720,0.37287633,-0.00000002,1.55374062,-0.00021341,-0.00021966,-
 0.00012504,0.00012685,-0.00001085,0.00005836,0.00036114,0.00073776,0.0
 0016644,0.14112318,0.44048605,0.28197904,-0.17012831,0.00048930,-0.000
 07714,-0.00005726,-0.00005278,-0.00000645,-0.00014076,-0.00136189,0.00
 091491,0.00086315,0.40433751,-0.88470511,-0.75254530,-0.41651490,0.891
 43637,0.00040017,0.00000870,0.00001229,-0.00010863,0.00002118,-0.00013
 281,-0.00088781,0.00033793,0.00059015,0.25989901,-0.75682895,-0.222038
 32,-0.26538871,0.76736270,0.21274860,-0.00021341,0.00021966,-0.0001250
 5,0.00012686,0.00001085,0.00005836,0.00036114,-0.00073775,0.00016644,0
 .14112317,-0.44048605,0.28197905,0.01332764,0.00866318,-0.00343153,-0.
 17012831,-0.00048930,-0.00007712,0.00005726,0.00005278,-0.00000648,0.0
 0014076,0.00136189,0.00091492,-0.00086315,-0.40433751,-0.88470515,0.75
 254532,-0.00866319,-0.01499409,0.02101650,0.41651490,0.89143641,0.0004
 0017,-0.00000871,0.00001229,-0.00010864,-0.00002116,-0.00013280,-0.000
 88780,-0.00033793,0.00059015,0.25989902,0.75682897,-0.22203835,-0.0034
 3153,-0.02101650,0.01645345,-0.26538872,-0.76736272,0.21274862,0.00010
 576,0.,-0.00003272,-0.00005350,-0.00000001,0.00033753,0.00041584,0.,-0
 .00052055,-0.25667758,0.,-0.93624886,0.01540291,0.00443958,0.00951750,
 0.01540291,-0.00443958,0.00951750,0.22540366,0.,0.00003012,0.,0.,0.000
 01571,0.,0.,0.00001237,0.,0.,0.30162856,0.,-0.01581522,0.00743151,-0.0
 3191805,0.01581522,0.00743151,0.03191805,0.,-0.31654978,-0.00069392,0.
 00000001,0.00006841,0.00004387,-0.00000001,-0.00001399,0.00255949,0.,0
 .00076383,-0.89282193,0.,-1.10840664,-0.01325856,0.00553397,-0.0076333
 6,-0.01325856,-0.00553397,-0.00763336,0.91742961,0.,1.12285511,-0.0005
 3514,-0.00000003,0.00024482,-0.00020605,0.,-0.00037121,0.00011712,0.00
 000001,0.00006957,-0.00000775,0.00000004,-0.00000082,0.,-0.00000001,-0
 .00003852,0.00018844,0.,0.00057983,-0.00015643,0.,-0.00070097,0.000598
 55,0.00000002,0.00013356,-0.00013803,-0.00000002,-0.00013641,-0.001421
 97,0.,-0.00029765,0.,0.,0.00002139,0.00000001,0.,0.00060323,0.00030764
 ,0.,-0.00045051,0.00008848,0.,0.00010243,-0.00054289,0.,0.00067851,-0.
 00063014,0.,-0.00050395,0.00034225,0.,0.00025489,-0.00002556,0.,-0.000
 08442,0.36714362,0.,0.00058857,0.,0.,0.00003861,0.,0.,-0.00283078,0.,-
 0.00000007,0.41560779,-0.00015314,0.,0.00056270,0.00036110,0.,0.000822
 90,-0.00297621,0.,-0.00383357,1.54181859,0.00000013,2.26030392,0.00027
 680,0.00001839,0.00000650,0.00000478,0.00001484,-0.00004646,-0.0001884
 3,0.00001522,0.00006163,0.07715507,0.28509982,0.16508512,-0.08878748,-
 0.00023002,-0.00026720,-0.00003365,-0.00007071,-0.00002030,-0.00005997
 ,-0.00033333,0.00105122,0.00062311,0.26311446,-0.55177909,-0.42780176,
 -0.27691324,0.56596138,-0.00017340,0.00007556,0.00006022,-0.00011357,0
 .00003138,-0.00009803,0.00067983,-0.00021268,0.00037906,0.15433105,-0.
 43467714,-0.07551006,-0.16797580,0.43217071,0.05863485,0.00027680,-0.0
 0001841,0.00000649,0.00000477,-0.00001483,-0.00004645,-0.00018843,-0.0
 0001522,0.00006163,0.07715506,-0.28509976,0.16508507,0.00884607,0.0080
 0184,-0.00006759,-0.08878746,0.00023003,-0.00026720,0.00003364,0.00007
 070,-0.00002032,0.00005998,0.00033333,0.00105122,-0.00062312,-0.263114
 39,-0.55177893,0.42780163,-0.00800184,-0.00850827,0.00756904,0.2769131
 8,0.56596121,-0.00017340,-0.00007555,0.00006022,-0.00011357,-0.0000313
 9,-0.00009804,0.00067983,0.00021269,0.00037907,0.15433100,0.43467702,-
 0.07551002,-0.00006760,-0.00756903,0.00875929,-0.16797576,-0.43217059,
 0.05863482,-0.00010398,0.00000002,0.00049389,-0.00032312,-0.00000002,-
 0.00005757,0.00136389,0.,0.00010793,-0.52114031,0.,-1.86922054,0.00269
 319,0.00643100,0.01331949,0.00269319,-0.00643101,0.01331949,0.51481713
 ,0.,-0.00000049,0.,0.,0.00001999,0.,0.,0.00040137,0.,0.,0.69015383,0.,
 -0.00023319,-0.00643772,-0.00495686,0.00023319,-0.00643771,0.00495686,
 0.,-0.67769926,0.00020993,0.,-0.00044124,-0.00013558,0.,-0.00060809,0.
 00216229,0.,0.00274500,-1.85014716,0.,-2.10683589,0.00293661,0.0026705
 8,0.00777466,0.00293661,-0.00267057,0.00777466,1.84203730,0.,2.0895908
 9,0.00005202,-0.00000002,0.00014508,-0.00006051,-0.00000005,0.00058134
 ,0.00018134,0.00000001,-0.00011273,-0.00010917,0.00000003,0.00005758,0
 .00000005,-0.00000001,-0.00008236,-0.00006912,0.00000005,-0.00029412,0
 .00013326,-0.00000006,0.00023621,-0.00037173,0.,0.00013351,-0.00009088
 ,0.,-0.00010683,0.00007417,0.,-0.00025706,0.,0.,0.00000807,0.,0.,0.000
 30100,-0.00000558,0.,-0.00019789,-0.00005890,0.,0.00008269,0.00056681,
 0.,0.00008749,0.00101155,0.00000001,-0.00029285,-0.00010762,-0.0000000
 1,0.00031037,-0.00037080,0.,-0.00077285,-0.52071014,0.,0.00107029,0.00
 000001,0.,0.00020299,-0.00000002,0.,-0.00452715,0.,0.00000008,2.851348
 49,0.00086546,0.00000005,-0.00006372,0.00006103,-0.00000005,0.00005412
 ,0.00011705,0.,-0.00225181,-1.03083711,-0.00000013,0.71918361,-0.00063
 954,-0.00017382,0.00028821,0.00004135,0.00001021,-0.00008406,0.0006125
 6,0.00034067,-0.00005225,0.26173309,0.75487546,0.51093283,-0.26170666,
 -0.00042582,-0.00044895,0.00016471,-0.00010833,-0.00007281,0.00000198,
 -0.00017772,0.00201767,0.00054303,0.73647622,-1.41443077,-1.31835151,-
 0.74159449,1.39267259,-0.00028452,-0.00041192,0.00000738,0.00001711,-0
 .00000907,-0.00005178,-0.00044618,0.00142340,0.00105341,0.49891775,-1.
 31988701,-0.36022304,-0.49461476,1.31701310,0.36882492,-0.00063954,0.0
 0017383,0.00028821,0.00004135,-0.00001021,-0.00008407,0.00061256,-0.00
 034067,-0.00005223,0.26173312,-0.75487554,0.51093287,-0.00298408,0.004
 29359,-0.00127833,-0.26170669,0.00042581,-0.00044892,-0.00016473,0.000
 10833,-0.00007285,-0.00000195,0.00017773,0.00201767,-0.00054304,-0.736
 47629,-1.41443092,1.31835166,-0.00429359,0.01000039,0.00488268,0.74159
 455,1.39267273,-0.00028452,0.00041188,0.00000738,0.00001711,0.00000911
 ,-0.00005179,-0.00044619,-0.00142341,0.00105341,0.49891779,1.31988713,
 -0.36022306,-0.00127833,-0.00488267,-0.00399224,-0.49461481,-1.3170132
 3,0.36882495,0.00040588,-0.00000002,-0.00024384,0.00004364,0.00000002,
 -0.00009954,-0.00046587,0.,0.00037500,-0.00328922,0.,0.00792787,0.0029
 4328,0.00153654,-0.00231107,0.00294328,-0.00153654,-0.00231107,-0.0025
 8100,0.,-0.00011800,0.,0.,-0.00004061,-0.00000001,0.,0.00043980,0.,-0.
 00000001,-0.01923293,-0.00000001,-0.00916444,0.01026189,-0.00301118,0.
 00916445,0.01026189,0.00301118,0.,-0.00157205,-0.00016122,-0.00000002,
 -0.00004039,-0.00005689,0.00000002,0.00002468,0.00018182,0.,0.00017270
 ,0.03375691,0.,0.00352389,-0.01519164,0.00551136,-0.00561865,-0.015191
 64,-0.00551138,-0.00561865,-0.00333734,0.00000001,0.00755642\\@


 ONLY A FOOL KNOWS EVERYTHING.

               -- THE CHEMIST ANALYST, SEPTEMBER 1946
 Job cpu time:       0 days  7 hours  5 minutes 35.8 seconds.
 Elapsed time:       0 days  0 hours 15 minutes 36.1 seconds.
 File lengths (MBytes):  RWF=    752 Int=      0 D2E=      0 Chk=     41 Scr=      1
 Normal termination of Gaussian 16 at Fri Jul  1 15:43:12 2022.
