 Entering Gaussian System, Link 0=g16
 Input=h2o2_nh3_mp2_avtz_opt_anharm.gjf
 Output=h2o2_nh3_mp2_avtz_opt_anharm.log
 Initial command:
 /sw/contrib/gaussian/g16/A03/g16/l1.exe "/gscratch/scrubbed/gds001/Gau-26913.inp" -scrdir="/gscratch/scrubbed/gds001/"
 Entering Link 1 = /sw/contrib/gaussian/g16/A03/g16/l1.exe PID=     26914.
  
 Copyright (c) 1988,1990,1992,1993,1995,1998,2003,2009,2016,
            Gaussian, Inc.  All Rights Reserved.
  
 This is part of the Gaussian(R) 16 program.  It is based on
 the Gaussian(R) 09 system (copyright 2009, Gaussian, Inc.),
 the Gaussian(R) 03 system (copyright 2003, Gaussian, Inc.),
 the Gaussian(R) 98 system (copyright 1998, Gaussian, Inc.),
 the Gaussian(R) 94 system (copyright 1995, Gaussian, Inc.),
 the Gaussian 92(TM) system (copyright 1992, Gaussian, Inc.),
 the Gaussian 90(TM) system (copyright 1990, Gaussian, Inc.),
 the Gaussian 88(TM) system (copyright 1988, Gaussian, Inc.),
 the Gaussian 86(TM) system (copyright 1986, Carnegie Mellon
 University), and the Gaussian 82(TM) system (copyright 1983,
 Carnegie Mellon University). Gaussian is a federally registered
 trademark of Gaussian, Inc.
  
 This software contains proprietary and confidential information,
 including trade secrets, belonging to Gaussian, Inc.
  
 This software is provided under written license and may be
 used, copied, transmitted, or stored only in accord with that
 written license.
  
 The following legend is applicable only to US Government
 contracts under FAR:
  
                    RESTRICTED RIGHTS LEGEND
  
 Use, reproduction and disclosure by the US Government is
 subject to restrictions as set forth in subparagraphs (a)
 and (c) of the Commercial Computer Software - Restricted
 Rights clause in FAR 52.227-19.
  
 Gaussian, Inc.
 340 Quinnipiac St., Bldg. 40, Wallingford CT 06492
  
  
 ---------------------------------------------------------------
 Warning -- This program may not be used in any manner that
 competes with the business of Gaussian, Inc. or will provide
 assistance to any competitor of Gaussian, Inc.  The licensee
 of this program is prohibited from giving any competitor of
 Gaussian, Inc. access to this program.  By using this program,
 the user acknowledges that Gaussian, Inc. is engaged in the
 business of creating and licensing software in the field of
 computational chemistry and represents and warrants to the
 licensee that it is not a competitor of Gaussian, Inc. and that
 it will not use this program in any manner prohibited above.
 ---------------------------------------------------------------
  

 Cite this work as:
 Gaussian 16, Revision A.03,
 M. J. Frisch, G. W. Trucks, H. B. Schlegel, G. E. Scuseria, 
 M. A. Robb, J. R. Cheeseman, G. Scalmani, V. Barone, 
 G. A. Petersson, H. Nakatsuji, X. Li, M. Caricato, A. V. Marenich, 
 J. Bloino, B. G. Janesko, R. Gomperts, B. Mennucci, H. P. Hratchian, 
 J. V. Ortiz, A. F. Izmaylov, J. L. Sonnenberg, D. Williams-Young, 
 F. Ding, F. Lipparini, F. Egidi, J. Goings, B. Peng, A. Petrone, 
 T. Henderson, D. Ranasinghe, V. G. Zakrzewski, J. Gao, N. Rega, 
 G. Zheng, W. Liang, M. Hada, M. Ehara, K. Toyota, R. Fukuda, 
 J. Hasegawa, M. Ishida, T. Nakajima, Y. Honda, O. Kitao, H. Nakai, 
 T. Vreven, K. Throssell, J. A. Montgomery, Jr., J. E. Peralta, 
 F. Ogliaro, M. J. Bearpark, J. J. Heyd, E. N. Brothers, K. N. Kudin, 
 V. N. Staroverov, T. A. Keith, R. Kobayashi, J. Normand, 
 K. Raghavachari, A. P. Rendell, J. C. Burant, S. S. Iyengar, 
 J. Tomasi, M. Cossi, J. M. Millam, M. Klene, C. Adamo, R. Cammi, 
 J. W. Ochterski, R. L. Martin, K. Morokuma, O. Farkas, 
 J. B. Foresman, and D. J. Fox, Gaussian, Inc., Wallingford CT, 2016.
 
 ******************************************
 Gaussian 16:  ES64L-G16RevA.03 25-Dec-2016
                 7-Dec-2021 
 ******************************************
 %nprocshared=28
 Will use up to   28 processors via shared memory.
 %mem=41GB
 ----------------------------------------------
 # mp2/aug-cc-pVTZ opt freq=(vibrot,anharmonic)
 ----------------------------------------------
 1/18=20,19=15,38=1,80=1/1,3;
 2/9=110,12=2,17=6,18=5,40=1/2;
 3/5=16,6=1,7=10,11=9,25=1,30=1,71=1/1,2,3;
 4//1;
 5/5=2,38=5/2;
 8/6=4,10=1/1;
 9/15=2,16=-3/6;
 10/5=1/2;
 6/7=2,8=2,9=2,10=2/1;
 7/12=2/1,2,3,16;
 1/18=20,19=15,80=1/3(2);
 2/9=110/2;
 99//99;
 2/9=110/2;
 3/5=16,6=1,7=10,11=9,25=1,30=1,71=1/1,2,3;
 4/5=5,16=3,69=1/1;
 5/5=2,38=5/2;
 8/6=4,10=1/1;
 9/15=2,16=-3/6;
 10/5=1/2;
 7/12=2/1,2,3,16;
 1/18=20,19=15,80=1/3(-8);
 2/9=110/2;
 6/7=2,8=2,9=2,10=2/1;
 99//99;
 ----
 bleh
 ----
 Symbolic Z-matrix:
 Charge =  0 Multiplicity = 1
 O                    -2.10966   2.40613  -0.07525 
 O                    -0.75617   2.00583  -0.43569 
 H                    -2.37823   1.55179   0.31006 
 H                    -0.85517   2.08876  -1.41716 
 N                    -0.8831    2.25244  -3.17235 
 H                    -0.02908   2.6934   -3.52473 
 H                    -1.06167   1.47991  -3.8186 
 H                    -1.62409   2.93218  -3.36736 
 
 Add virtual bond connecting atoms N5         and H4         Dist= 3.33D+00.

 GradGradGradGradGradGradGradGradGradGradGradGradGradGradGradGradGradGrad
 Berny optimization.
 Initialization pass.
                           ----------------------------
                           !    Initial Parameters    !
                           ! (Angstroms and Degrees)  !
 --------------------------                            --------------------------
 ! Name  Definition              Value          Derivative Info.                !
 --------------------------------------------------------------------------------
 ! R1    R(1,2)                  1.4567         estimate D2E/DX2                !
 ! R2    R(1,3)                  0.9749         estimate D2E/DX2                !
 ! R3    R(2,4)                  0.9899         estimate D2E/DX2                !
 ! R4    R(4,5)                  1.763          estimate D2E/DX2                !
 ! R5    R(5,6)                  1.0237         estimate D2E/DX2                !
 ! R6    R(5,7)                  1.0229         estimate D2E/DX2                !
 ! R7    R(5,8)                  1.0243         estimate D2E/DX2                !
 ! A1    A(2,1,3)               96.4847         estimate D2E/DX2                !
 ! A2    A(1,2,4)               97.4335         estimate D2E/DX2                !
 ! A3    A(4,5,6)              111.6821         estimate D2E/DX2                !
 ! A4    A(4,5,7)              124.1675         estimate D2E/DX2                !
 ! A5    A(4,5,8)              105.2253         estimate D2E/DX2                !
 ! A6    A(6,5,7)              104.6838         estimate D2E/DX2                !
 ! A7    A(6,5,8)              104.6034         estimate D2E/DX2                !
 ! A8    A(7,5,8)              104.752          estimate D2E/DX2                !
 ! A9    L(2,4,5,1,-1)         184.4365         estimate D2E/DX2                !
 ! A10   L(2,4,5,1,-2)         177.3607         estimate D2E/DX2                !
 ! D1    D(3,1,2,4)            115.4307         estimate D2E/DX2                !
 ! D2    D(1,2,5,6)            137.4265         estimate D2E/DX2                !
 ! D3    D(1,2,5,7)            -97.1007         estimate D2E/DX2                !
 ! D4    D(1,2,5,8)             24.6556         estimate D2E/DX2                !
 --------------------------------------------------------------------------------
 Trust Radius=3.00D-01 FncErr=1.00D-07 GrdErr=1.00D-07 EigMax=2.50D+02 EigMin=1.00D-04
 Number of steps in this run=     31 maximum allowed number of steps=    100.
 GradGradGradGradGradGradGradGradGradGradGradGradGradGradGradGradGradGrad

                          Input orientation:                          
 ---------------------------------------------------------------------
 Center     Atomic      Atomic             Coordinates (Angstroms)
 Number     Number       Type             X           Y           Z
 ---------------------------------------------------------------------
      1          8           0       -2.109660    2.406131   -0.075248
      2          8           0       -0.756172    2.005832   -0.435686
      3          1           0       -2.378234    1.551787    0.310058
      4          1           0       -0.855171    2.088763   -1.417156
      5          7           0       -0.883104    2.252445   -3.172353
      6          1           0       -0.029077    2.693405   -3.524726
      7          1           0       -1.061665    1.479907   -3.818595
      8          1           0       -1.624090    2.932181   -3.367361
 ---------------------------------------------------------------------
                    Distance matrix (angstroms):
                    1          2          3          4          5
     1  O    0.000000
     2  O    1.456738   0.000000
     3  H    0.974934   1.842111   0.000000
     4  H    1.864184   0.989930   2.364599   0.000000
     5  N    3.334684   2.750686   3.854026   1.763033   0.000000
     6  H    4.038595   3.247089   4.639762   2.343048   1.023706
     7  H    3.996103   3.437149   4.334085   2.486012   1.022902
     8  H    3.369053   3.194702   3.999704   2.259621   1.024271
                    6          7          8
     6  H    0.000000
     7  H    1.620239   0.000000
     8  H    1.620445   1.621430   0.000000
 Stoichiometry    H5NO2
 Framework group  C1[X(H5NO2)]
 Deg. of freedom    18
 Full point group                 C1      NOp   1
 Largest Abelian subgroup         C1      NOp   1
 Largest concise Abelian subgroup C1      NOp   1
                         Standard orientation:                         
 ---------------------------------------------------------------------
 Center     Atomic      Atomic             Coordinates (Angstroms)
 Number     Number       Type             X           Y           Z
 ---------------------------------------------------------------------
      1          8           0       -1.458981   -0.538213   -0.101076
      2          8           0       -0.770080    0.741579   -0.002926
      3          1           0       -1.920674   -0.480724    0.755681
      4          1           0        0.154005    0.387735    0.025737
      5          7           0        1.845530   -0.109286    0.026804
      6          1           0        2.417197    0.493395   -0.571482
      7          1           0        2.405168   -0.240622    0.872903
      8          1           0        1.858086   -1.021708   -0.438448
 ---------------------------------------------------------------------
 Rotational constants (GHZ):          29.1559700           4.5233661           4.0411297
 Standard basis: Aug-CC-pVTZ (5D, 7F)
 There are   290 symmetry adapted cartesian basis functions of A   symmetry.
 There are   253 symmetry adapted basis functions of A   symmetry.
   253 basis functions,   351 primitive gaussians,   290 cartesian basis functions
    14 alpha electrons       14 beta electrons
       nuclear repulsion energy        79.4842672531 Hartrees.
 NAtoms=    8 NActive=    8 NUniq=    8 SFac= 1.00D+00 NAtFMM=   60 NAOKFM=F Big=F
 Integral buffers will be    131072 words long.
 Raffenetti 1 integral format.
 Two-electron integral symmetry is turned on.
 One-electron integrals computed using PRISM.
 NBasis=   253 RedAO= T EigKep=  9.71D-05  NBF=   253
 NBsUse=   253 1.00D-06 EigRej= -1.00D+00 NBFU=   253
 ExpMin= 2.53D-02 ExpMax= 1.53D+04 ExpMxC= 5.22D+02 IAcc=3 IRadAn=         5 AccDes= 0.00D+00
 Harris functional with IExCor=  205 and IRadAn=       5 diagonalized for initial guess.
 HarFok:  IExCor=  205 AccDes= 0.00D+00 IRadAn=         5 IDoV= 1 UseB2=F ITyADJ=14
 ICtDFT=  3500011 ScaDFX=  1.000000  1.000000  1.000000  1.000000
 FoFCou: FMM=F IPFlag=           0 FMFlag=      100000 FMFlg1=           0
         NFxFlg=           0 DoJE=T BraDBF=F KetDBF=T FulRan=T
         wScrn=  0.000000 ICntrl=       500 IOpCl=  0 I1Cent=   200000004 NGrid=           0
         NMat0=    1 NMatS0=      1 NMatT0=    0 NMatD0=    1 NMtDS0=    0 NMtDT0=    0
 Petite list used in FoFCou.
 Keep R1 ints in memory in canonical form, NReq=530209019.
 Requested convergence on RMS density matrix=1.00D-08 within 128 cycles.
 Requested convergence on MAX density matrix=1.00D-06.
 Requested convergence on             energy=1.00D-06.
 No special actions if energy rises.
 SCF Done:  E(RHF) =  -207.063667698     A.U. after   12 cycles
            NFock= 12  Conv=0.83D-08     -V/T= 2.0019
 ExpMin= 2.53D-02 ExpMax= 1.53D+04 ExpMxC= 5.22D+02 IAcc=3 IRadAn=         5 AccDes= 0.00D+00
 HarFok:  IExCor=  205 AccDes= 0.00D+00 IRadAn=         5 IDoV=-2 UseB2=F ITyADJ=14
 ICtDFT= 12500011 ScaDFX=  1.000000  1.000000  1.000000  1.000000
 Range of M.O.s used for correlation:     4   253
 NBasis=   253 NAE=    14 NBE=    14 NFC=     3 NFV=     0
 NROrb=    250 NOA=    11 NOB=    11 NVA=   239 NVB=   239

 **** Warning!!: The largest alpha MO coefficient is  0.24006229D+02

 Fully direct method using O(ONN) memory.
 JobTyp=1 Pass  1:  I=   4 to  14 NPSUse= 28 ParTrn=T ParDer=T DoDerP=T.
 Spin components of T(2) and E(2):
     alpha-alpha T2 =       0.2468124216D-01 E2=     -0.9150245849D-01
     alpha-beta  T2 =       0.1464520779D+00 E2=     -0.5747246994D+00
     beta-beta   T2 =       0.2468124216D-01 E2=     -0.9150245849D-01
 ANorm=    0.1093533064D+01
 E2 =    -0.7577296164D+00 EUMP2 =    -0.20782139731410D+03
          IDoAtm=11111111
          Differentiating once with respect to electric field.
                with respect to dipole field.
          Differentiating once with respect to nuclear coordinates.
 Keep R1 ints in memory in canonical form, NReq=530215190.
          There are     1 degrees of freedom in the 1st order CPHF.  IDoFFX=0 NUNeed=     1.
 LinEq1:  Iter=  0 NonCon=     1 RMS=3.20D-03 Max=3.33D-02 NDo=     1
 AX will form     1 AO Fock derivatives at one time.
 LinEq1:  Iter=  1 NonCon=     1 RMS=5.39D-04 Max=5.03D-03 NDo=     1
 LinEq1:  Iter=  2 NonCon=     1 RMS=2.61D-04 Max=3.69D-03 NDo=     1
 LinEq1:  Iter=  3 NonCon=     1 RMS=4.69D-05 Max=5.77D-04 NDo=     1
 LinEq1:  Iter=  4 NonCon=     1 RMS=1.61D-05 Max=2.34D-04 NDo=     1
 LinEq1:  Iter=  5 NonCon=     1 RMS=8.52D-06 Max=1.27D-04 NDo=     1
 LinEq1:  Iter=  6 NonCon=     1 RMS=2.97D-06 Max=2.50D-05 NDo=     1
 LinEq1:  Iter=  7 NonCon=     1 RMS=1.24D-06 Max=1.32D-05 NDo=     1
 LinEq1:  Iter=  8 NonCon=     1 RMS=3.71D-07 Max=3.92D-06 NDo=     1
 LinEq1:  Iter=  9 NonCon=     1 RMS=8.58D-08 Max=8.50D-07 NDo=     1
 LinEq1:  Iter= 10 NonCon=     1 RMS=1.46D-08 Max=1.28D-07 NDo=     1
 LinEq1:  Iter= 11 NonCon=     1 RMS=3.39D-09 Max=4.17D-08 NDo=     1
 LinEq1:  Iter= 12 NonCon=     1 RMS=7.41D-10 Max=7.15D-09 NDo=     1
 LinEq1:  Iter= 13 NonCon=     1 RMS=1.58D-10 Max=2.15D-09 NDo=     1
 LinEq1:  Iter= 14 NonCon=     0 RMS=3.64D-11 Max=4.42D-10 NDo=     1
 Linear equations converged to 1.000D-10 1.000D-09 after    14 iterations.
 End of Minotr F.D. properties file   721 does not exist.
 End of Minotr F.D. properties file   722 does not exist.
 End of Minotr F.D. properties file   788 does not exist.

 **********************************************************************

            Population analysis using the SCF density.

 **********************************************************************

 Orbital symmetries:
       Occupied  (A) (A) (A) (A) (A) (A) (A) (A) (A) (A) (A) (A)
                 (A) (A)
       Virtual   (A) (A) (A) (A) (A) (A) (A) (A) (A) (A) (A) (A)
                 (A) (A) (A) (A) (A) (A) (A) (A) (A) (A) (A) (A)
                 (A) (A) (A) (A) (A) (A) (A) (A) (A) (A) (A) (A)
                 (A) (A) (A) (A) (A) (A) (A) (A) (A) (A) (A) (A)
                 (A) (A) (A) (A) (A) (A) (A) (A) (A) (A) (A) (A)
                 (A) (A) (A) (A) (A) (A) (A) (A) (A) (A) (A) (A)
                 (A) (A) (A) (A) (A) (A) (A) (A) (A) (A) (A) (A)
                 (A) (A) (A) (A) (A) (A) (A) (A) (A) (A) (A) (A)
                 (A) (A) (A) (A) (A) (A) (A) (A) (A) (A) (A) (A)
                 (A) (A) (A) (A) (A) (A) (A) (A) (A) (A) (A) (A)
                 (A) (A) (A) (A) (A) (A) (A) (A) (A) (A) (A) (A)
                 (A) (A) (A) (A) (A) (A) (A) (A) (A) (A) (A) (A)
                 (A) (A) (A) (A) (A) (A) (A) (A) (A) (A) (A) (A)
                 (A) (A) (A) (A) (A) (A) (A) (A) (A) (A) (A) (A)
                 (A) (A) (A) (A) (A) (A) (A) (A) (A) (A) (A) (A)
                 (A) (A) (A) (A) (A) (A) (A) (A) (A) (A) (A) (A)
                 (A) (A) (A) (A) (A) (A) (A) (A) (A) (A) (A) (A)
                 (A) (A) (A) (A) (A) (A) (A) (A) (A) (A) (A) (A)
                 (A) (A) (A) (A) (A) (A) (A) (A) (A) (A) (A) (A)
                 (A) (A) (A) (A) (A) (A) (A) (A) (A) (A) (A)
 The electronic state is 1-A.
 Alpha  occ. eigenvalues --  -20.59924 -20.58228 -15.57956  -1.43492  -1.18213
 Alpha  occ. eigenvalues --   -1.16489  -0.68430  -0.67001  -0.65511  -0.65335
 Alpha  occ. eigenvalues --   -0.56982  -0.50087  -0.46464  -0.44052
 Alpha virt. eigenvalues --    0.02160   0.04184   0.04528   0.05071   0.07422
 Alpha virt. eigenvalues --    0.12749   0.13542   0.14424   0.14939   0.15854
 Alpha virt. eigenvalues --    0.17253   0.18740   0.18966   0.19509   0.21049
 Alpha virt. eigenvalues --    0.21818   0.23442   0.23717   0.25198   0.30534
 Alpha virt. eigenvalues --    0.30731   0.31492   0.33550   0.34610   0.36202
 Alpha virt. eigenvalues --    0.37027   0.37934   0.38684   0.39201   0.40149
 Alpha virt. eigenvalues --    0.40556   0.41800   0.43605   0.44625   0.44751
 Alpha virt. eigenvalues --    0.45917   0.48972   0.54588   0.55100   0.57386
 Alpha virt. eigenvalues --    0.60911   0.62992   0.64788   0.68679   0.70124
 Alpha virt. eigenvalues --    0.74932   0.75233   0.77220   0.78969   0.81678
 Alpha virt. eigenvalues --    0.82192   0.83670   0.84969   0.86503   0.88153
 Alpha virt. eigenvalues --    0.89078   0.90813   0.91569   0.92469   0.93186
 Alpha virt. eigenvalues --    0.93482   0.95745   0.99483   1.00061   1.00697
 Alpha virt. eigenvalues --    1.01205   1.02176   1.03227   1.03869   1.05970
 Alpha virt. eigenvalues --    1.06571   1.08060   1.09625   1.11360   1.12893
 Alpha virt. eigenvalues --    1.17360   1.18286   1.19233   1.21658   1.25038
 Alpha virt. eigenvalues --    1.25440   1.26680   1.27976   1.33007   1.33838
 Alpha virt. eigenvalues --    1.35710   1.40439   1.41093   1.42414   1.45746
 Alpha virt. eigenvalues --    1.49504   1.50697   1.55105   1.58526   1.59332
 Alpha virt. eigenvalues --    1.61589   1.67944   1.70032   1.72969   1.74711
 Alpha virt. eigenvalues --    1.77399   1.80713   1.85193   1.90797   1.92523
 Alpha virt. eigenvalues --    1.95463   1.99774   2.00707   2.03897   2.05694
 Alpha virt. eigenvalues --    2.10952   2.14483   2.15812   2.19976   2.20425
 Alpha virt. eigenvalues --    2.27043   2.28708   2.30092   2.33173   2.38592
 Alpha virt. eigenvalues --    2.40552   2.42234   2.43363   2.45778   2.46367
 Alpha virt. eigenvalues --    2.46875   2.48977   2.51756   2.55005   2.60146
 Alpha virt. eigenvalues --    2.64820   2.67498   2.68357   2.70422   2.75822
 Alpha virt. eigenvalues --    2.76765   2.82215   2.87845   2.97278   3.00735
 Alpha virt. eigenvalues --    3.01260   3.12652   3.24858   3.31578   3.36231
 Alpha virt. eigenvalues --    3.38326   3.42831   3.75859   3.80294   3.83953
 Alpha virt. eigenvalues --    3.97116   3.97918   4.08964   4.14163   4.16242
 Alpha virt. eigenvalues --    4.17573   4.20207   4.20762   4.24155   4.25491
 Alpha virt. eigenvalues --    4.29024   4.30890   4.33514   4.34741   4.35622
 Alpha virt. eigenvalues --    4.41267   4.47074   4.49462   4.51579   4.55171
 Alpha virt. eigenvalues --    4.55576   4.57428   4.58702   4.63421   4.64983
 Alpha virt. eigenvalues --    4.67798   4.72480   4.74492   4.76694   4.83109
 Alpha virt. eigenvalues --    4.89833   4.93951   4.95247   4.98125   5.01063
 Alpha virt. eigenvalues --    5.04393   5.07781   5.12311   5.19244   5.26402
 Alpha virt. eigenvalues --    5.30569   5.37400   5.44185   5.48099   5.54528
 Alpha virt. eigenvalues --    5.70813   5.72473   5.85552   5.87594   5.90105
 Alpha virt. eigenvalues --    5.92893   6.25986   6.28637   6.33391   6.34896
 Alpha virt. eigenvalues --    6.39632   6.49087   6.50988   6.56264   6.62310
 Alpha virt. eigenvalues --    6.66842   6.78175   6.81941   6.88565   6.93290
 Alpha virt. eigenvalues --    6.99804   7.03970   7.10428   7.24077   7.24316
 Alpha virt. eigenvalues --    7.28924   7.30939   7.34217   7.39216   7.42286
 Alpha virt. eigenvalues --    7.48369   7.53260   7.66620   7.74041   7.77621
 Alpha virt. eigenvalues --    7.78638   7.89612   8.07896   8.23327   8.54907
 Alpha virt. eigenvalues --    8.63733  14.75244  15.58442  17.53440
          Condensed to atoms (all electrons):
               1          2          3          4          5          6
     1  O    8.191795  -0.089195   0.256029  -0.043260   0.013613  -0.000226
     2  O   -0.089195   8.284380  -0.015301   0.240742  -0.052209  -0.001414
     3  H    0.256029  -0.015301   0.477998   0.013559   0.000120  -0.000021
     4  H   -0.043260   0.240742   0.013559   0.427547   0.006074   0.003916
     5  N    0.013613  -0.052209   0.000120   0.006074   6.199995   0.392766
     6  H   -0.000226  -0.001414  -0.000021   0.003916   0.392766   0.477432
     7  H    0.000419  -0.000087   0.000037   0.001094   0.392442  -0.005111
     8  H    0.001614  -0.001116  -0.000197   0.004489   0.380810  -0.001195
               7          8
     1  O    0.000419   0.001614
     2  O   -0.000087  -0.001116
     3  H    0.000037  -0.000197
     4  H    0.001094   0.004489
     5  N    0.392442   0.380810
     6  H   -0.005111  -0.001195
     7  H    0.469524  -0.004147
     8  H   -0.004147   0.482837
 Mulliken charges:
               1
     1  O   -0.330789
     2  O   -0.365799
     3  H    0.267777
     4  H    0.345839
     5  N   -0.333612
     6  H    0.133853
     7  H    0.145827
     8  H    0.136904
 Sum of Mulliken charges =  -0.00000
 Mulliken charges with hydrogens summed into heavy atoms:
               1
     1  O   -0.063011
     2  O   -0.019961
     5  N    0.082972
 Electronic spatial extent (au):  <R**2>=            304.0882
 Charge=              0.0000 electrons
 Dipole moment (field-independent basis, Debye):
    X=              3.5328    Y=             -1.1775    Z=              1.2481  Tot=              3.9275
 Quadrupole moment (field-independent basis, Debye-Ang):
   XX=            -11.7640   YY=            -20.0687   ZZ=            -17.5394
   XY=              0.6411   XZ=             -3.3638   YZ=             -0.8866
 Traceless Quadrupole moment (field-independent basis, Debye-Ang):
   XX=              4.6933   YY=             -3.6113   ZZ=             -1.0820
   XY=              0.6411   XZ=             -3.3638   YZ=             -0.8866
 Octapole moment (field-independent basis, Debye-Ang**2):
  XXX=              8.6542  YYY=             -2.0080  ZZZ=              1.8993  XYY=              3.4560
  XXY=             -1.5063  XXZ=              7.2027  XZZ=              0.6680  YZZ=             -1.2181
  YYZ=             -0.3931  XYZ=              0.9738
 Hexadecapole moment (field-independent basis, Debye-Ang**3):
 XXXX=           -236.6974 YYYY=            -50.6505 ZZZZ=            -20.7281 XXXY=              7.6456
 XXXZ=            -11.2357 YYYX=              0.4250 YYYZ=              0.3319 ZZZX=             -1.6345
 ZZZY=             -1.1884 XXYY=            -51.8467 XXZZ=            -38.7673 YYZZ=            -12.2281
 XXYZ=             -5.8155 YYXZ=             -2.9241 ZZXY=              0.9903
 N-N= 7.948426725314D+01 E-N=-6.494107821026D+02  KE= 2.066781839008D+02
 Calling FoFJK, ICntrl=  10002127 FMM=F ISym2X=0 I1Cent= 0 IOpClX= 0 NMat=1 NMatS=1 NMatT=0.
 ***** Axes restored to original set *****
 -------------------------------------------------------------------
 Center     Atomic                   Forces (Hartrees/Bohr)
 Number     Number              X              Y              Z
 -------------------------------------------------------------------
      1        8          -0.003612956   -0.012067062    0.008024185
      2        8           0.001328082    0.004501562   -0.005210981
      3        1          -0.003199778    0.010041692   -0.002126604
      4        1           0.006601066   -0.004261900    0.001994164
      5        7          -0.001689011    0.006535138   -0.017188481
      6        1          -0.004669521   -0.003084304    0.004565406
      7        1           0.000899312    0.002911674    0.006830908
      8        1           0.004342806   -0.004576799    0.003111403
 -------------------------------------------------------------------
 Cartesian Forces:  Max     0.017188481 RMS     0.006298641

 GradGradGradGradGradGradGradGradGradGradGradGradGradGradGradGradGradGrad
 Berny optimization.
 FormGI is forming the generalized inverse of G from B-inverse, IUseBI=4.
 Internal  Forces:  Max     0.011487590 RMS     0.004935852
 Search for a local minimum.
 Step number   1 out of a maximum of   31
 All quantities printed in internal units (Hartrees-Bohrs-Radians)
 Mixed Optimization -- RFO/linear search
 Second derivative matrix not updated -- first step.
 ITU=  0
     Eigenvalues ---    0.00230   0.00230   0.00230   0.00544   0.06554
     Eigenvalues ---    0.07952   0.10056   0.16000   0.16000   0.16000
     Eigenvalues ---    0.16000   0.16000   0.37376   0.43664   0.43752
     Eigenvalues ---    0.43878   0.49503   0.52381
 RFO step:  Lambda=-4.46446553D-03 EMin= 2.30000000D-03
 Linear search not attempted -- first point.
 Maximum step size (   0.300) exceeded in Quadratic search.
    -- Step size scaled by   0.509
 Iteration  1 RMS(Cart)=  0.10033367 RMS(Int)=  0.01930497
 Iteration  2 RMS(Cart)=  0.05359939 RMS(Int)=  0.00120689
 Iteration  3 RMS(Cart)=  0.00153484 RMS(Int)=  0.00071343
 Iteration  4 RMS(Cart)=  0.00000046 RMS(Int)=  0.00071343
 Variable       Old X    -DE/DX   Delta X   Delta X   Delta X     New X
                                 (Linear)    (Quad)   (Total)
    R1        2.75284   0.00724   0.00000   0.00974   0.00973   2.76257
    R2        1.84236  -0.00876   0.00000  -0.00843  -0.00843   1.83393
    R3        1.87070  -0.00009   0.00000  -0.00008  -0.00010   1.87059
    R4        3.33165   0.00285   0.00000   0.02070   0.02071   3.35236
    R5        1.93452  -0.00680   0.00000  -0.00782  -0.00782   1.92670
    R6        1.93300  -0.00667   0.00000  -0.00766  -0.00766   1.92535
    R7        1.93559  -0.00677   0.00000  -0.00781  -0.00781   1.92778
    A1        1.68398   0.01149   0.00000   0.03553   0.03553   1.71950
    A2        1.70054   0.00726   0.00000   0.02245   0.02246   1.72300
    A3        1.94922  -0.00194   0.00000  -0.00655  -0.00660   1.94262
    A4        2.16713  -0.00355   0.00000  -0.01170  -0.01238   2.15475
    A5        1.83653  -0.00078   0.00000  -0.00114  -0.00065   1.83588
    A6        1.82708   0.00255   0.00000   0.00609   0.00535   1.83243
    A7        1.82567   0.00224   0.00000   0.00874   0.01038   1.83605
    A8        1.82827   0.00266   0.00000   0.00893   0.00854   1.83681
    A9        3.21902  -0.00396   0.00000  -0.28339  -0.28317   2.93586
   A10        3.09553  -0.00116   0.00000  -0.08205  -0.08180   3.01373
    D1        2.01465   0.00013   0.00000   0.00654   0.00654   2.02118
    D2        2.39855   0.00037   0.00000  -0.03801  -0.03988   2.35867
    D3       -1.69473   0.00016   0.00000   0.05179   0.05198  -1.64275
    D4        0.43032  -0.00059   0.00000  -0.01916  -0.01745   0.41287
         Item               Value     Threshold  Converged?
 Maximum Force            0.011488     0.000450     NO 
 RMS     Force            0.004936     0.000300     NO 
 Maximum Displacement     0.342790     0.001800     NO 
 RMS     Displacement     0.149614     0.001200     NO 
 Predicted change in Energy=-1.901780D-03
 GradGradGradGradGradGradGradGradGradGradGradGradGradGradGradGradGradGrad

                          Input orientation:                          
 ---------------------------------------------------------------------
 Center     Atomic      Atomic             Coordinates (Angstroms)
 Number     Number       Type             X           Y           Z
 ---------------------------------------------------------------------
      1          8           0       -2.115292    2.412926   -0.244264
      2          8           0       -0.714784    2.023293   -0.398805
      3          1           0       -2.439680    1.611539    0.196608
      4          1           0       -0.673775    1.999773   -1.387550
      5          7           0       -0.890090    2.245095   -3.131132
      6          1           0       -0.093689    2.734774   -3.537923
      7          1           0       -1.096301    1.489983   -3.783312
      8          1           0       -1.673564    2.893069   -3.214690
 ---------------------------------------------------------------------
                    Distance matrix (angstroms):
                    1          2          3          4          5
     1  O    0.000000
     2  O    1.461889   0.000000
     3  H    0.970472   1.870647   0.000000
     4  H    1.885675   0.989875   2.403894   0.000000
     5  N    3.140588   2.746915   3.725114   1.773993   0.000000
     6  H    3.877970   3.278113   4.551049   2.345384   1.019568
     7  H    3.796713   3.447443   4.202286   2.485576   1.018851
     8  H    3.041232   3.099190   3.723735   2.266273   1.020139
                    6          7          8
     6  H    0.000000
     7  H    1.617082   0.000000
     8  H    1.620352   1.620251   0.000000
 Stoichiometry    H5NO2
 Framework group  C1[X(H5NO2)]
 Deg. of freedom    18
 Full point group                 C1      NOp   1
 Largest Abelian subgroup         C1      NOp   1
 Largest concise Abelian subgroup C1      NOp   1
                         Standard orientation:                         
 ---------------------------------------------------------------------
 Center     Atomic      Atomic             Coordinates (Angstroms)
 Number     Number       Type             X           Y           Z
 ---------------------------------------------------------------------
      1          8           0       -1.317877   -0.594436   -0.102071
      2          8           0       -0.826512    0.778710   -0.001324
      3          1           0       -1.843699   -0.619169    0.713229
      4          1           0        0.140253    0.585955    0.088477
      5          7           0        1.779250   -0.090044    0.027124
      6          1           0        2.383243    0.457831   -0.584876
      7          1           0        2.342025   -0.274902    0.856080
      8          1           0        1.678539   -0.993601   -0.435614
 ---------------------------------------------------------------------
 Rotational constants (GHZ):          26.0353927           4.9497885           4.2956540
 Standard basis: Aug-CC-pVTZ (5D, 7F)
 There are   290 symmetry adapted cartesian basis functions of A   symmetry.
 There are   253 symmetry adapted basis functions of A   symmetry.
   253 basis functions,   351 primitive gaussians,   290 cartesian basis functions
    14 alpha electrons       14 beta electrons
       nuclear repulsion energy        80.2611735170 Hartrees.
 NAtoms=    8 NActive=    8 NUniq=    8 SFac= 1.00D+00 NAtFMM=   60 NAOKFM=F Big=F
 Integral buffers will be    131072 words long.
 Raffenetti 1 integral format.
 Two-electron integral symmetry is turned on.
 One-electron integrals computed using PRISM.
 NBasis=   253 RedAO= T EigKep=  9.35D-05  NBF=   253
 NBsUse=   253 1.00D-06 EigRej= -1.00D+00 NBFU=   253
 Initial guess from the checkpoint file:  "/gscratch/scrubbed/gds001/Gau-26914.chk"
 B after Tr=    -0.000000   -0.000000    0.000000
         Rot=    0.999919   -0.005735    0.000422   -0.011386 Ang=  -1.46 deg.
 ExpMin= 2.53D-02 ExpMax= 1.53D+04 ExpMxC= 5.22D+02 IAcc=3 IRadAn=         5 AccDes= 0.00D+00
 Harris functional with IExCor=  205 and IRadAn=       5 diagonalized for initial guess.
 HarFok:  IExCor=  205 AccDes= 0.00D+00 IRadAn=         5 IDoV= 1 UseB2=F ITyADJ=14
 ICtDFT=  3500011 ScaDFX=  1.000000  1.000000  1.000000  1.000000
 FoFCou: FMM=F IPFlag=           0 FMFlag=      100000 FMFlg1=           0
         NFxFlg=           0 DoJE=T BraDBF=F KetDBF=T FulRan=T
         wScrn=  0.000000 ICntrl=       500 IOpCl=  0 I1Cent=   200000004 NGrid=           0
         NMat0=    1 NMatS0=      1 NMatT0=    0 NMatD0=    1 NMtDS0=    0 NMtDT0=    0
 Petite list used in FoFCou.
 Keep R1 ints in memory in canonical form, NReq=530211313.
 Requested convergence on RMS density matrix=1.00D-08 within 128 cycles.
 Requested convergence on MAX density matrix=1.00D-06.
 Requested convergence on             energy=1.00D-06.
 No special actions if energy rises.
 SCF Done:  E(RHF) =  -207.065266304     A.U. after   13 cycles
            NFock= 13  Conv=0.46D-08     -V/T= 2.0019
 ExpMin= 2.53D-02 ExpMax= 1.53D+04 ExpMxC= 5.22D+02 IAcc=3 IRadAn=         5 AccDes= 0.00D+00
 HarFok:  IExCor=  205 AccDes= 0.00D+00 IRadAn=         5 IDoV=-2 UseB2=F ITyADJ=14
 ICtDFT= 12500011 ScaDFX=  1.000000  1.000000  1.000000  1.000000
 Range of M.O.s used for correlation:     4   253
 NBasis=   253 NAE=    14 NBE=    14 NFC=     3 NFV=     0
 NROrb=    250 NOA=    11 NOB=    11 NVA=   239 NVB=   239

 **** Warning!!: The largest alpha MO coefficient is  0.21673697D+02

 Fully direct method using O(ONN) memory.
 JobTyp=1 Pass  1:  I=   4 to  14 NPSUse= 28 ParTrn=T ParDer=T DoDerP=T.
 Spin components of T(2) and E(2):
     alpha-alpha T2 =       0.2464326975D-01 E2=     -0.9141867053D-01
     alpha-beta  T2 =       0.1462525927D+00 E2=     -0.5743581567D+00
     beta-beta   T2 =       0.2464326975D-01 E2=     -0.9141867053D-01
 ANorm=    0.1093407121D+01
 E2 =    -0.7571954977D+00 EUMP2 =    -0.20782246180131D+03
          IDoAtm=11111111
          Differentiating once with respect to electric field.
                with respect to dipole field.
          Differentiating once with respect to nuclear coordinates.
 Keep R1 ints in memory in canonical form, NReq=530217230.
          There are     1 degrees of freedom in the 1st order CPHF.  IDoFFX=0 NUNeed=     1.
 LinEq1:  Iter=  0 NonCon=     1 RMS=3.20D-03 Max=3.00D-02 NDo=     1
 AX will form     1 AO Fock derivatives at one time.
 LinEq1:  Iter=  1 NonCon=     1 RMS=5.36D-04 Max=4.81D-03 NDo=     1
 LinEq1:  Iter=  2 NonCon=     1 RMS=2.59D-04 Max=3.21D-03 NDo=     1
 LinEq1:  Iter=  3 NonCon=     1 RMS=4.76D-05 Max=5.34D-04 NDo=     1
 LinEq1:  Iter=  4 NonCon=     1 RMS=1.75D-05 Max=2.17D-04 NDo=     1
 LinEq1:  Iter=  5 NonCon=     1 RMS=9.17D-06 Max=1.38D-04 NDo=     1
 LinEq1:  Iter=  6 NonCon=     1 RMS=3.09D-06 Max=2.56D-05 NDo=     1
 LinEq1:  Iter=  7 NonCon=     1 RMS=1.22D-06 Max=1.08D-05 NDo=     1
 LinEq1:  Iter=  8 NonCon=     1 RMS=3.73D-07 Max=4.09D-06 NDo=     1
 LinEq1:  Iter=  9 NonCon=     1 RMS=8.66D-08 Max=7.39D-07 NDo=     1
 LinEq1:  Iter= 10 NonCon=     1 RMS=1.47D-08 Max=1.15D-07 NDo=     1
 LinEq1:  Iter= 11 NonCon=     1 RMS=3.40D-09 Max=4.43D-08 NDo=     1
 LinEq1:  Iter= 12 NonCon=     1 RMS=7.43D-10 Max=6.47D-09 NDo=     1
 LinEq1:  Iter= 13 NonCon=     1 RMS=1.60D-10 Max=1.95D-09 NDo=     1
 LinEq1:  Iter= 14 NonCon=     0 RMS=3.73D-11 Max=4.18D-10 NDo=     1
 Linear equations converged to 1.000D-10 1.000D-09 after    14 iterations.
 End of Minotr F.D. properties file   721 does not exist.
 End of Minotr F.D. properties file   722 does not exist.
 End of Minotr F.D. properties file   788 does not exist.
 Calling FoFJK, ICntrl=  10002127 FMM=F ISym2X=0 I1Cent= 0 IOpClX= 0 NMat=1 NMatS=1 NMatT=0.
 ***** Axes restored to original set *****
 -------------------------------------------------------------------
 Center     Atomic                   Forces (Hartrees/Bohr)
 Number     Number              X              Y              Z
 -------------------------------------------------------------------
      1        8           0.001290924   -0.005273426    0.002064535
      2        8          -0.000249003    0.000711938    0.000755988
      3        1           0.000232730    0.004175414   -0.002139960
      4        1          -0.002270845    0.000237820    0.001658881
      5        7          -0.000256363    0.003855324   -0.012851025
      6        1          -0.002198229   -0.001767485    0.002846815
      7        1           0.000727861    0.000936885    0.004353955
      8        1           0.002722926   -0.002876470    0.003310810
 -------------------------------------------------------------------
 Cartesian Forces:  Max     0.012851025 RMS     0.003582737

 GradGradGradGradGradGradGradGradGradGradGradGradGradGradGradGradGradGrad
 Berny optimization.
 Using GEDIIS/GDIIS optimizer.
 FormGI is forming the generalized inverse of G from B-inverse, IUseBI=4.
 Internal  Forces:  Max     0.004497880 RMS     0.002350081
 Search for a local minimum.
 Step number   2 out of a maximum of   31
 All quantities printed in internal units (Hartrees-Bohrs-Radians)
 Mixed Optimization -- RFO/linear search
 Update second derivatives using D2CorX and points    1    2
 DE= -1.06D-03 DEPred=-1.90D-03 R= 5.60D-01
 TightC=F SS=  1.41D+00  RLast= 3.07D-01 DXNew= 5.0454D-01 9.2204D-01
 Trust test= 5.60D-01 RLast= 3.07D-01 DXMaxT set to 5.05D-01
 ITU=  1  0
 Use linear search instead of GDIIS.
     Eigenvalues ---    0.00229   0.00230   0.00541   0.00987   0.06056
     Eigenvalues ---    0.07939   0.10033   0.12571   0.16000   0.16000
     Eigenvalues ---    0.16000   0.18368   0.38431   0.40867   0.43717
     Eigenvalues ---    0.43832   0.49526   0.51207
 RFO step:  Lambda=-1.13814506D-03 EMin= 2.29268950D-03
 Quartic linear search produced a step of -0.07112.
 Iteration  1 RMS(Cart)=  0.12397310 RMS(Int)=  0.00704255
 Iteration  2 RMS(Cart)=  0.00788776 RMS(Int)=  0.00055833
 Iteration  3 RMS(Cart)=  0.00004251 RMS(Int)=  0.00055777
 Iteration  4 RMS(Cart)=  0.00000002 RMS(Int)=  0.00055777
 Variable       Old X    -DE/DX   Delta X   Delta X   Delta X     New X
                                 (Linear)    (Quad)   (Total)
    R1        2.76257  -0.00176  -0.00069   0.00705   0.00635   2.76892
    R2        1.83393  -0.00450   0.00060  -0.01811  -0.01751   1.81642
    R3        1.87059   0.00062   0.00001   0.00109   0.00110   1.87169
    R4        3.35236   0.00220  -0.00147   0.05550   0.05403   3.40639
    R5        1.92670  -0.00370   0.00056  -0.01726  -0.01670   1.91000
    R6        1.92535  -0.00363   0.00054  -0.01688  -0.01634   1.90901
    R7        1.92778  -0.00419   0.00056  -0.01832  -0.01776   1.91002
    A1        1.71950   0.00247  -0.00253   0.05644   0.05391   1.77341
    A2        1.72300  -0.00085  -0.00160   0.02150   0.01990   1.74290
    A3        1.94262  -0.00037   0.00047  -0.00808  -0.00845   1.93417
    A4        2.15475  -0.00244   0.00088  -0.02899  -0.02843   2.12632
    A5        1.83588  -0.00327   0.00005  -0.02189  -0.02125   1.81463
    A6        1.83243   0.00249  -0.00038   0.02307   0.02149   1.85392
    A7        1.83605   0.00203  -0.00074   0.02503   0.02435   1.86041
    A8        1.83681   0.00233  -0.00061   0.02043   0.02067   1.85748
    A9        2.93586   0.00176   0.02014   0.16638   0.18694   3.12280
   A10        3.01373   0.00019   0.00582  -0.01280  -0.00703   3.00671
    D1        2.02118  -0.00030  -0.00046  -0.03681  -0.03728   1.98391
    D2        2.35867  -0.00002   0.00284  -0.02073  -0.01876   2.33991
    D3       -1.64275   0.00012  -0.00370  -0.08856  -0.09086  -1.73361
    D4        0.41287  -0.00068   0.00124  -0.04764  -0.04698   0.36589
         Item               Value     Threshold  Converged?
 Maximum Force            0.004498     0.000450     NO 
 RMS     Force            0.002350     0.000300     NO 
 Maximum Displacement     0.309009     0.001800     NO 
 RMS     Displacement     0.123256     0.001200     NO 
 Predicted change in Energy=-6.106208D-04
 GradGradGradGradGradGradGradGradGradGradGradGradGradGradGradGradGradGrad

                          Input orientation:                          
 ---------------------------------------------------------------------
 Center     Atomic      Atomic             Coordinates (Angstroms)
 Number     Number       Type             X           Y           Z
 ---------------------------------------------------------------------
      1          8           0       -2.099283    2.406528   -0.080743
      2          8           0       -0.736567    1.994724   -0.427704
      3          1           0       -2.445796    1.606732    0.324438
      4          1           0       -0.797355    2.022641   -1.415897
      5          7           0       -0.877462    2.259239   -3.201091
      6          1           0       -0.055311    2.741908   -3.536757
      7          1           0       -1.029768    1.487189   -3.834538
      8          1           0       -1.655631    2.891491   -3.328776
 ---------------------------------------------------------------------
                    Distance matrix (angstroms):
                    1          2          3          4          5
     1  O    0.000000
     2  O    1.465251   0.000000
     3  H    0.961206   1.907280   0.000000
     4  H    1.903949   0.990455   2.432921   0.000000
     5  N    3.354268   2.789533   3.913412   1.802585   0.000000
     6  H    4.029185   3.269343   4.681011   2.359241   1.010729
     7  H    4.009990   3.456888   4.395055   2.488081   1.010204
     8  H    3.313870   3.172553   3.952334   2.269504   1.010739
                    6          7          8
     6  H    0.000000
     7  H    1.616341   0.000000
     8  H    1.620696   1.618506   0.000000
 Stoichiometry    H5NO2
 Framework group  C1[X(H5NO2)]
 Deg. of freedom    18
 Full point group                 C1      NOp   1
 Largest Abelian subgroup         C1      NOp   1
 Largest concise Abelian subgroup C1      NOp   1
                         Standard orientation:                         
 ---------------------------------------------------------------------
 Center     Atomic      Atomic             Coordinates (Angstroms)
 Number     Number       Type             X           Y           Z
 ---------------------------------------------------------------------
      1          8           0       -1.456620   -0.542396   -0.102293
      2          8           0       -0.783186    0.754858    0.000561
      3          1           0       -1.956676   -0.566340    0.718248
      4          1           0        0.157013    0.452443    0.075207
      5          7           0        1.867727   -0.113275    0.022936
      6          1           0        2.414302    0.453430   -0.610842
      7          1           0        2.421793   -0.212898    0.861744
      8          1           0        1.807927   -1.033399   -0.391057
 ---------------------------------------------------------------------
 Rotational constants (GHZ):          28.4013187           4.4697095           3.9798596
 Standard basis: Aug-CC-pVTZ (5D, 7F)
 There are   290 symmetry adapted cartesian basis functions of A   symmetry.
 There are   253 symmetry adapted basis functions of A   symmetry.
   253 basis functions,   351 primitive gaussians,   290 cartesian basis functions
    14 alpha electrons       14 beta electrons
       nuclear repulsion energy        79.1650173638 Hartrees.
 NAtoms=    8 NActive=    8 NUniq=    8 SFac= 1.00D+00 NAtFMM=   60 NAOKFM=F Big=F
 Integral buffers will be    131072 words long.
 Raffenetti 1 integral format.
 Two-electron integral symmetry is turned on.
 One-electron integrals computed using PRISM.
 NBasis=   253 RedAO= T EigKep=  9.31D-05  NBF=   253
 NBsUse=   253 1.00D-06 EigRej= -1.00D+00 NBFU=   253
 Initial guess from the checkpoint file:  "/gscratch/scrubbed/gds001/Gau-26914.chk"
 B after Tr=     0.000000   -0.000000   -0.000000
         Rot=    0.999930    0.004724   -0.000714    0.010862 Ang=   1.36 deg.
 ExpMin= 2.53D-02 ExpMax= 1.53D+04 ExpMxC= 5.22D+02 IAcc=3 IRadAn=         5 AccDes= 0.00D+00
 Harris functional with IExCor=  205 and IRadAn=       5 diagonalized for initial guess.
 HarFok:  IExCor=  205 AccDes= 0.00D+00 IRadAn=         5 IDoV= 1 UseB2=F ITyADJ=14
 ICtDFT=  3500011 ScaDFX=  1.000000  1.000000  1.000000  1.000000
 FoFCou: FMM=F IPFlag=           0 FMFlag=      100000 FMFlg1=           0
         NFxFlg=           0 DoJE=T BraDBF=F KetDBF=T FulRan=T
         wScrn=  0.000000 ICntrl=       500 IOpCl=  0 I1Cent=   200000004 NGrid=           0
         NMat0=    1 NMatS0=      1 NMatT0=    0 NMatD0=    1 NMtDS0=    0 NMtDT0=    0
 Petite list used in FoFCou.
 Keep R1 ints in memory in canonical form, NReq=530208817.
 Requested convergence on RMS density matrix=1.00D-08 within 128 cycles.
 Requested convergence on MAX density matrix=1.00D-06.
 Requested convergence on             energy=1.00D-06.
 No special actions if energy rises.
 SCF Done:  E(RHF) =  -207.067092355     A.U. after   13 cycles
            NFock= 13  Conv=0.35D-08     -V/T= 2.0017
 ExpMin= 2.53D-02 ExpMax= 1.53D+04 ExpMxC= 5.22D+02 IAcc=3 IRadAn=         5 AccDes= 0.00D+00
 HarFok:  IExCor=  205 AccDes= 0.00D+00 IRadAn=         5 IDoV=-2 UseB2=F ITyADJ=14
 ICtDFT= 12500011 ScaDFX=  1.000000  1.000000  1.000000  1.000000
 Range of M.O.s used for correlation:     4   253
 NBasis=   253 NAE=    14 NBE=    14 NFC=     3 NFV=     0
 NROrb=    250 NOA=    11 NOB=    11 NVA=   239 NVB=   239

 **** Warning!!: The largest alpha MO coefficient is  0.19989286D+02

 Fully direct method using O(ONN) memory.
 JobTyp=1 Pass  1:  I=   4 to  14 NPSUse= 28 ParTrn=T ParDer=T DoDerP=T.
 Spin components of T(2) and E(2):
     alpha-alpha T2 =       0.2448980559D-01 E2=     -0.9111047219D-01
     alpha-beta  T2 =       0.1455010605D+00 E2=     -0.5732102842D+00
     beta-beta   T2 =       0.2448980559D-01 E2=     -0.9111047219D-01
 ANorm=    0.1092922994D+01
 E2 =    -0.7554312286D+00 EUMP2 =    -0.20782252358368D+03
          IDoAtm=11111111
          Differentiating once with respect to electric field.
                with respect to dipole field.
          Differentiating once with respect to nuclear coordinates.
 Keep R1 ints in memory in canonical form, NReq=530215234.
          There are     1 degrees of freedom in the 1st order CPHF.  IDoFFX=0 NUNeed=     1.
 LinEq1:  Iter=  0 NonCon=     1 RMS=3.19D-03 Max=2.96D-02 NDo=     1
 AX will form     1 AO Fock derivatives at one time.
 LinEq1:  Iter=  1 NonCon=     1 RMS=5.28D-04 Max=4.75D-03 NDo=     1
 LinEq1:  Iter=  2 NonCon=     1 RMS=2.54D-04 Max=3.54D-03 NDo=     1
 LinEq1:  Iter=  3 NonCon=     1 RMS=4.75D-05 Max=5.63D-04 NDo=     1
 LinEq1:  Iter=  4 NonCon=     1 RMS=1.93D-05 Max=2.87D-04 NDo=     1
 LinEq1:  Iter=  5 NonCon=     1 RMS=9.57D-06 Max=1.48D-04 NDo=     1
 LinEq1:  Iter=  6 NonCon=     1 RMS=3.00D-06 Max=2.98D-05 NDo=     1
 LinEq1:  Iter=  7 NonCon=     1 RMS=1.17D-06 Max=1.07D-05 NDo=     1
 LinEq1:  Iter=  8 NonCon=     1 RMS=3.63D-07 Max=3.59D-06 NDo=     1
 LinEq1:  Iter=  9 NonCon=     1 RMS=8.50D-08 Max=7.97D-07 NDo=     1
 LinEq1:  Iter= 10 NonCon=     1 RMS=1.43D-08 Max=1.22D-07 NDo=     1
 LinEq1:  Iter= 11 NonCon=     1 RMS=3.12D-09 Max=4.19D-08 NDo=     1
 LinEq1:  Iter= 12 NonCon=     1 RMS=6.97D-10 Max=6.87D-09 NDo=     1
 LinEq1:  Iter= 13 NonCon=     1 RMS=1.52D-10 Max=1.78D-09 NDo=     1
 LinEq1:  Iter= 14 NonCon=     0 RMS=3.45D-11 Max=4.31D-10 NDo=     1
 Linear equations converged to 1.000D-10 1.000D-09 after    14 iterations.
 End of Minotr F.D. properties file   721 does not exist.
 End of Minotr F.D. properties file   722 does not exist.
 End of Minotr F.D. properties file   788 does not exist.
 Calling FoFJK, ICntrl=  10002127 FMM=F ISym2X=0 I1Cent= 0 IOpClX= 0 NMat=1 NMatS=1 NMatT=0.
 ***** Axes restored to original set *****
 -------------------------------------------------------------------
 Center     Atomic                   Forces (Hartrees/Bohr)
 Number     Number              X              Y              Z
 -------------------------------------------------------------------
      1        8           0.004979464    0.007288486   -0.005650791
      2        8          -0.006206985   -0.001215779    0.002450246
      3        1           0.002524481   -0.006320774    0.001030365
      4        1          -0.000829622   -0.000281625    0.002958535
      5        7           0.000119882    0.000062454   -0.001180607
      6        1           0.002029253    0.001543232    0.000169951
      7        1          -0.000576496   -0.002973529   -0.000240250
      8        1          -0.002039976    0.001897534    0.000462551
 -------------------------------------------------------------------
 Cartesian Forces:  Max     0.007288486 RMS     0.003148497

 GradGradGradGradGradGradGradGradGradGradGradGradGradGradGradGradGradGrad
 Berny optimization.
 Using GEDIIS/GDIIS optimizer.
 FormGI is forming the generalized inverse of G from B-inverse, IUseBI=4.
 Internal  Forces:  Max     0.008980455 RMS     0.003230606
 Search for a local minimum.
 Step number   3 out of a maximum of   31
 All quantities printed in internal units (Hartrees-Bohrs-Radians)
 Mixed Optimization -- RFO/linear search
 Update second derivatives using D2CorX and points    1    2    3
 DE= -6.18D-05 DEPred=-6.11D-04 R= 1.01D-01
 Trust test= 1.01D-01 RLast= 2.40D-01 DXMaxT set to 5.05D-01
 ITU=  0  1  0
 Use linear search instead of GDIIS.
     Eigenvalues ---    0.00224   0.00239   0.00529   0.01217   0.05151
     Eigenvalues ---    0.08383   0.09988   0.12015   0.16000   0.16000
     Eigenvalues ---    0.16571   0.22813   0.39288   0.43715   0.43823
     Eigenvalues ---    0.46806   0.49795   0.56108
 RFO step:  Lambda=-3.91988301D-04 EMin= 2.23971400D-03
 Quartic linear search produced a step of -0.47865.
 Iteration  1 RMS(Cart)=  0.13427807 RMS(Int)=  0.00647810
 Iteration  2 RMS(Cart)=  0.01105437 RMS(Int)=  0.00053820
 Iteration  3 RMS(Cart)=  0.00002136 RMS(Int)=  0.00053773
 Iteration  4 RMS(Cart)=  0.00000001 RMS(Int)=  0.00053773
 Variable       Old X    -DE/DX   Delta X   Delta X   Delta X     New X
                                 (Linear)    (Quad)   (Total)
    R1        2.76892  -0.00780  -0.00304  -0.00987  -0.01291   2.75602
    R2        1.81642   0.00478   0.00838  -0.00592   0.00246   1.81888
    R3        1.87169  -0.00208  -0.00052  -0.00116  -0.00166   1.87003
    R4        3.40639   0.00087  -0.02586   0.04128   0.01541   3.42180
    R5        1.91000   0.00233   0.00800  -0.00745   0.00054   1.91054
    R6        1.90901   0.00251   0.00782  -0.00703   0.00079   1.90980
    R7        1.91002   0.00270   0.00850  -0.00791   0.00059   1.91061
    A1        1.77341  -0.00898  -0.02581  -0.00048  -0.02628   1.74713
    A2        1.74290  -0.00446  -0.00952  -0.00822  -0.01774   1.72516
    A3        1.93417  -0.00063   0.00404  -0.00580  -0.00107   1.93310
    A4        2.12632  -0.00176   0.01361  -0.02327  -0.00959   2.11672
    A5        1.81463  -0.00050   0.01017  -0.01904  -0.00937   1.80526
    A6        1.85392   0.00145  -0.01029   0.01996   0.01042   1.86435
    A7        1.86041   0.00044  -0.01166   0.01642   0.00518   1.86558
    A8        1.85748   0.00127  -0.00989   0.01684   0.00584   1.86332
    A9        3.12280  -0.00167  -0.08948  -0.08597  -0.17578   2.94701
   A10        3.00671   0.00025   0.00336   0.07452   0.07797   3.08468
    D1        1.98391  -0.00044   0.01784  -0.06729  -0.04945   1.93445
    D2        2.33991  -0.00021   0.00898  -0.04509  -0.03596   2.30395
    D3       -1.73361   0.00018   0.04349  -0.01763   0.02453  -1.70908
    D4        0.36589  -0.00011   0.02249  -0.05533  -0.03163   0.33427
         Item               Value     Threshold  Converged?
 Maximum Force            0.008980     0.000450     NO 
 RMS     Force            0.003231     0.000300     NO 
 Maximum Displacement     0.384274     0.001800     NO 
 RMS     Displacement     0.139586     0.001200     NO 
 Predicted change in Energy=-4.139844D-04
 GradGradGradGradGradGradGradGradGradGradGradGradGradGradGradGradGradGrad

                          Input orientation:                          
 ---------------------------------------------------------------------
 Center     Atomic      Atomic             Coordinates (Angstroms)
 Number     Number       Type             X           Y           Z
 ---------------------------------------------------------------------
      1          8           0       -2.077578    2.434241   -0.201687
      2          8           0       -0.700501    1.989268   -0.382377
      3          1           0       -2.477078    1.620216    0.121089
      4          1           0       -0.660967    2.014343   -1.370844
      5          7           0       -0.892808    2.253860   -3.150633
      6          1           0       -0.110510    2.754774   -3.549692
      7          1           0       -1.084616    1.474223   -3.764418
      8          1           0       -1.693116    2.869526   -3.202506
 ---------------------------------------------------------------------
                    Distance matrix (angstroms):
                    1          2          3          4          5
     1  O    0.000000
     2  O    1.458421   0.000000
     3  H    0.962508   1.883057   0.000000
     4  H    1.884152   0.989575   2.383162   0.000000
     5  N    3.183158   2.787514   3.689930   1.810737   0.000000
     6  H    3.896310   3.311491   4.512482   2.366140   1.011016
     7  H    3.821080   3.442530   4.130064   2.490061   1.010621
     8  H    3.056501   3.116612   3.636160   2.269726   1.011053
                    6          7          8
     6  H    0.000000
     7  H    1.623206   0.000000
     8  H    1.624299   1.622617   0.000000
 Stoichiometry    H5NO2
 Framework group  C1[X(H5NO2)]
 Deg. of freedom    18
 Full point group                 C1      NOp   1
 Largest Abelian subgroup         C1      NOp   1
 Largest concise Abelian subgroup C1      NOp   1
                         Standard orientation:                         
 ---------------------------------------------------------------------
 Center     Atomic      Atomic             Coordinates (Angstroms)
 Number     Number       Type             X           Y           Z
 ---------------------------------------------------------------------
      1          8           0       -1.335255   -0.588068   -0.109964
      2          8           0       -0.842026    0.779383    0.007487
      3          1           0       -1.762114   -0.687778    0.746933
      4          1           0        0.127744    0.587890    0.053701
      5          7           0        1.806114   -0.090910    0.020929
      6          1           0        2.391109    0.430490   -0.617879
      7          1           0        2.338864   -0.214422    0.870798
      8          1           0        1.679846   -1.010336   -0.380243
 ---------------------------------------------------------------------
 Rotational constants (GHZ):          25.9582077           4.8409711           4.2172251
 Standard basis: Aug-CC-pVTZ (5D, 7F)
 There are   290 symmetry adapted cartesian basis functions of A   symmetry.
 There are   253 symmetry adapted basis functions of A   symmetry.
   253 basis functions,   351 primitive gaussians,   290 cartesian basis functions
    14 alpha electrons       14 beta electrons
       nuclear repulsion energy        80.0825294056 Hartrees.
 NAtoms=    8 NActive=    8 NUniq=    8 SFac= 1.00D+00 NAtFMM=   60 NAOKFM=F Big=F
 Integral buffers will be    131072 words long.
 Raffenetti 1 integral format.
 Two-electron integral symmetry is turned on.
 One-electron integrals computed using PRISM.
 NBasis=   253 RedAO= T EigKep=  9.18D-05  NBF=   253
 NBsUse=   253 1.00D-06 EigRej= -1.00D+00 NBFU=   253
 Initial guess from the checkpoint file:  "/gscratch/scrubbed/gds001/Gau-26914.chk"
 B after Tr=    -0.000000    0.000000    0.000000
         Rot=    0.999923   -0.002984   -0.000283   -0.012064 Ang=  -1.42 deg.
 ExpMin= 2.53D-02 ExpMax= 1.53D+04 ExpMxC= 5.22D+02 IAcc=3 IRadAn=         5 AccDes= 0.00D+00
 Harris functional with IExCor=  205 and IRadAn=       5 diagonalized for initial guess.
 HarFok:  IExCor=  205 AccDes= 0.00D+00 IRadAn=         5 IDoV= 1 UseB2=F ITyADJ=14
 ICtDFT=  3500011 ScaDFX=  1.000000  1.000000  1.000000  1.000000
 FoFCou: FMM=F IPFlag=           0 FMFlag=      100000 FMFlg1=           0
         NFxFlg=           0 DoJE=T BraDBF=F KetDBF=T FulRan=T
         wScrn=  0.000000 ICntrl=       500 IOpCl=  0 I1Cent=   200000004 NGrid=           0
         NMat0=    1 NMatS0=      1 NMatT0=    0 NMatD0=    1 NMtDS0=    0 NMtDT0=    0
 Petite list used in FoFCou.
 Keep R1 ints in memory in canonical form, NReq=530210979.
 Requested convergence on RMS density matrix=1.00D-08 within 128 cycles.
 Requested convergence on MAX density matrix=1.00D-06.
 Requested convergence on             energy=1.00D-06.
 No special actions if energy rises.
 SCF Done:  E(RHF) =  -207.067503644     A.U. after   12 cycles
            NFock= 12  Conv=0.85D-08     -V/T= 2.0017
 ExpMin= 2.53D-02 ExpMax= 1.53D+04 ExpMxC= 5.22D+02 IAcc=3 IRadAn=         5 AccDes= 0.00D+00
 HarFok:  IExCor=  205 AccDes= 0.00D+00 IRadAn=         5 IDoV=-2 UseB2=F ITyADJ=14
 ICtDFT= 12500011 ScaDFX=  1.000000  1.000000  1.000000  1.000000
 Range of M.O.s used for correlation:     4   253
 NBasis=   253 NAE=    14 NBE=    14 NFC=     3 NFV=     0
 NROrb=    250 NOA=    11 NOB=    11 NVA=   239 NVB=   239

 **** Warning!!: The largest alpha MO coefficient is  0.22739638D+02

 Fully direct method using O(ONN) memory.
 JobTyp=1 Pass  1:  I=   4 to  14 NPSUse= 28 ParTrn=T ParDer=T DoDerP=T.
 Spin components of T(2) and E(2):
     alpha-alpha T2 =       0.2447102421D-01 E2=     -0.9117289293D-01
     alpha-beta  T2 =       0.1451770555D+00 E2=     -0.5730706799D+00
     beta-beta   T2 =       0.2447102421D-01 E2=     -0.9117289293D-01
 ANorm=    0.1092757569D+01
 E2 =    -0.7554164658D+00 EUMP2 =    -0.20782292010934D+03
          IDoAtm=11111111
          Differentiating once with respect to electric field.
                with respect to dipole field.
          Differentiating once with respect to nuclear coordinates.
 Keep R1 ints in memory in canonical form, NReq=530216790.
          There are     1 degrees of freedom in the 1st order CPHF.  IDoFFX=0 NUNeed=     1.
 LinEq1:  Iter=  0 NonCon=     1 RMS=3.18D-03 Max=2.45D-02 NDo=     1
 AX will form     1 AO Fock derivatives at one time.
 LinEq1:  Iter=  1 NonCon=     1 RMS=5.28D-04 Max=4.74D-03 NDo=     1
 LinEq1:  Iter=  2 NonCon=     1 RMS=2.54D-04 Max=2.92D-03 NDo=     1
 LinEq1:  Iter=  3 NonCon=     1 RMS=4.71D-05 Max=5.97D-04 NDo=     1
 LinEq1:  Iter=  4 NonCon=     1 RMS=1.81D-05 Max=2.77D-04 NDo=     1
 LinEq1:  Iter=  5 NonCon=     1 RMS=9.30D-06 Max=1.47D-04 NDo=     1
 LinEq1:  Iter=  6 NonCon=     1 RMS=2.95D-06 Max=3.05D-05 NDo=     1
 LinEq1:  Iter=  7 NonCon=     1 RMS=1.13D-06 Max=1.04D-05 NDo=     1
 LinEq1:  Iter=  8 NonCon=     1 RMS=3.48D-07 Max=2.81D-06 NDo=     1
 LinEq1:  Iter=  9 NonCon=     1 RMS=8.01D-08 Max=8.56D-07 NDo=     1
 LinEq1:  Iter= 10 NonCon=     1 RMS=1.33D-08 Max=1.25D-07 NDo=     1
 LinEq1:  Iter= 11 NonCon=     1 RMS=2.85D-09 Max=3.19D-08 NDo=     1
 LinEq1:  Iter= 12 NonCon=     1 RMS=6.17D-10 Max=5.07D-09 NDo=     1
 LinEq1:  Iter= 13 NonCon=     1 RMS=1.24D-10 Max=1.44D-09 NDo=     1
 LinEq1:  Iter= 14 NonCon=     0 RMS=2.85D-11 Max=3.23D-10 NDo=     1
 Linear equations converged to 1.000D-10 1.000D-09 after    14 iterations.
 End of Minotr F.D. properties file   721 does not exist.
 End of Minotr F.D. properties file   722 does not exist.
 End of Minotr F.D. properties file   788 does not exist.
 Calling FoFJK, ICntrl=  10002127 FMM=F ISym2X=0 I1Cent= 0 IOpClX= 0 NMat=1 NMatS=1 NMatT=0.
 ***** Axes restored to original set *****
 -------------------------------------------------------------------
 Center     Atomic                   Forces (Hartrees/Bohr)
 Number     Number              X              Y              Z
 -------------------------------------------------------------------
      1        8           0.002423005    0.003665133   -0.001954631
      2        8          -0.001204863   -0.000053341   -0.000353514
      3        1          -0.000256598   -0.003442797    0.001228713
      4        1          -0.001910018   -0.000635838    0.001805386
      5        7           0.001389058    0.000125774   -0.000639572
      6        1           0.001202741    0.000955546   -0.000889553
      7        1          -0.000031137   -0.001944651   -0.000307836
      8        1          -0.001612188    0.001330174    0.001111006
 -------------------------------------------------------------------
 Cartesian Forces:  Max     0.003665133 RMS     0.001586796

 GradGradGradGradGradGradGradGradGradGradGradGradGradGradGradGradGradGrad
 Berny optimization.
 Using GEDIIS/GDIIS optimizer.
 FormGI is forming the generalized inverse of G from B-inverse, IUseBI=4.
 Internal  Forces:  Max     0.003430221 RMS     0.001403952
 Search for a local minimum.
 Step number   4 out of a maximum of   31
 All quantities printed in internal units (Hartrees-Bohrs-Radians)
 Mixed Optimization -- RFO/linear search
 Update second derivatives using D2CorX and points    1    2    3    4
 DE= -3.97D-04 DEPred=-4.14D-04 R= 9.58D-01
 TightC=F SS=  1.41D+00  RLast= 2.10D-01 DXNew= 8.4853D-01 6.2993D-01
 Trust test= 9.58D-01 RLast= 2.10D-01 DXMaxT set to 6.30D-01
 ITU=  1  0  1  0
 Use linear search instead of GDIIS.
     Eigenvalues ---    0.00204   0.00312   0.00636   0.01514   0.04337
     Eigenvalues ---    0.08509   0.09910   0.11382   0.16000   0.16480
     Eigenvalues ---    0.16685   0.21651   0.40427   0.43723   0.43833
     Eigenvalues ---    0.46014   0.49645   0.57592
 RFO step:  Lambda=-4.04055767D-04 EMin= 2.04498018D-03
 Quartic linear search produced a step of -0.09153.
 Iteration  1 RMS(Cart)=  0.07593268 RMS(Int)=  0.01453327
 Iteration  2 RMS(Cart)=  0.02277965 RMS(Int)=  0.00149695
 Iteration  3 RMS(Cart)=  0.00047822 RMS(Int)=  0.00141857
 Iteration  4 RMS(Cart)=  0.00000060 RMS(Int)=  0.00141857
 Variable       Old X    -DE/DX   Delta X   Delta X   Delta X     New X
                                 (Linear)    (Quad)   (Total)
    R1        2.75602  -0.00206   0.00118  -0.01244  -0.01125   2.74476
    R2        1.81888   0.00343  -0.00023   0.00049   0.00026   1.81914
    R3        1.87003  -0.00113   0.00015  -0.00312  -0.00290   1.86713
    R4        3.42180   0.00066  -0.00141   0.04279   0.04134   3.46313
    R5        1.91054   0.00176  -0.00005  -0.00295  -0.00300   1.90754
    R6        1.90980   0.00169  -0.00007  -0.00269  -0.00276   1.90704
    R7        1.91061   0.00203  -0.00005  -0.00268  -0.00274   1.90787
    A1        1.74713  -0.00232   0.00241  -0.01265  -0.01025   1.73688
    A2        1.72516  -0.00055   0.00162  -0.00834  -0.00670   1.71845
    A3        1.93310   0.00091   0.00010  -0.00048   0.00081   1.93391
    A4        2.11672  -0.00111   0.00088  -0.02553  -0.02376   2.09297
    A5        1.80526  -0.00152   0.00086  -0.02297  -0.02409   1.78118
    A6        1.86435   0.00046  -0.00095   0.02029   0.02163   1.88598
    A7        1.86558   0.00040  -0.00047   0.01567   0.01279   1.87838
    A8        1.86332   0.00098  -0.00053   0.01722   0.01508   1.87840
    A9        2.94701   0.00102   0.01609  -0.03805  -0.02297   2.92404
   A10        3.08468  -0.00097  -0.00714  -0.25072  -0.25786   2.82682
    D1        1.93445   0.00031   0.00453  -0.01438  -0.00986   1.92460
    D2        2.30395  -0.00024   0.00329  -0.08851  -0.08149   2.22246
    D3       -1.70908   0.00000  -0.00225  -0.06000  -0.06486  -1.77394
    D4        0.33427  -0.00020   0.00289  -0.05614  -0.05410   0.28017
         Item               Value     Threshold  Converged?
 Maximum Force            0.003430     0.000450     NO 
 RMS     Force            0.001404     0.000300     NO 
 Maximum Displacement     0.248675     0.001800     NO 
 RMS     Displacement     0.094409     0.001200     NO 
 Predicted change in Energy=-2.229677D-04
 GradGradGradGradGradGradGradGradGradGradGradGradGradGradGradGradGradGrad

                          Input orientation:                          
 ---------------------------------------------------------------------
 Center     Atomic      Atomic             Coordinates (Angstroms)
 Number     Number       Type             X           Y           Z
 ---------------------------------------------------------------------
      1          8           0       -2.080086    2.453513   -0.242118
      2          8           0       -0.708341    2.003688   -0.402218
      3          1           0       -2.448724    1.684374    0.204224
      4          1           0       -0.708534    1.882750   -1.382832
      5          7           0       -0.888005    2.249913   -3.169293
      6          1           0       -0.119997    2.816669   -3.497765
      7          1           0       -1.024421    1.496562   -3.826757
      8          1           0       -1.719068    2.822982   -3.184307
 ---------------------------------------------------------------------
                    Distance matrix (angstroms):
                    1          2          3          4          5
     1  O    0.000000
     2  O    1.452467   0.000000
     3  H    0.962648   1.870472   0.000000
     4  H    1.873007   0.988043   2.363548   0.000000
     5  N    3.167154   2.783812   3.759827   1.832611   0.000000
     6  H    3.817469   3.254151   4.517719   2.385691   1.009427
     7  H    3.857437   3.476283   4.279336   2.494333   1.009161
     8  H    2.987192   3.071291   3.648420   2.269477   1.009603
                    6          7          8
     6  H    0.000000
     7  H    1.633677   0.000000
     8  H    1.629516   1.629315   0.000000
 Stoichiometry    H5NO2
 Framework group  C1[X(H5NO2)]
 Deg. of freedom    18
 Full point group                 C1      NOp   1
 Largest Abelian subgroup         C1      NOp   1
 Largest concise Abelian subgroup C1      NOp   1
                         Standard orientation:                         
 ---------------------------------------------------------------------
 Center     Atomic      Atomic             Coordinates (Angstroms)
 Number     Number       Type             X           Y           Z
 ---------------------------------------------------------------------
      1          8           0       -1.317867   -0.592513   -0.101416
      2          8           0       -0.839004    0.775479   -0.006815
      3          1           0       -1.852165   -0.629774    0.698477
      4          1           0        0.110575    0.583964    0.187739
      5          7           0        1.806716   -0.089933    0.022121
      6          1           0        2.319679    0.402257   -0.694509
      7          1           0        2.399758   -0.165873    0.835104
      8          1           0        1.630101   -1.024765   -0.315809
 ---------------------------------------------------------------------
 Rotational constants (GHZ):          26.2014530           4.8742781           4.2443074
 Standard basis: Aug-CC-pVTZ (5D, 7F)
 There are   290 symmetry adapted cartesian basis functions of A   symmetry.
 There are   253 symmetry adapted basis functions of A   symmetry.
   253 basis functions,   351 primitive gaussians,   290 cartesian basis functions
    14 alpha electrons       14 beta electrons
       nuclear repulsion energy        80.3115051613 Hartrees.
 NAtoms=    8 NActive=    8 NUniq=    8 SFac= 1.00D+00 NAtFMM=   60 NAOKFM=F Big=F
 Integral buffers will be    131072 words long.
 Raffenetti 1 integral format.
 Two-electron integral symmetry is turned on.
 One-electron integrals computed using PRISM.
 NBasis=   253 RedAO= T EigKep=  9.33D-05  NBF=   253
 NBsUse=   253 1.00D-06 EigRej= -1.00D+00 NBFU=   253
 Initial guess from the checkpoint file:  "/gscratch/scrubbed/gds001/Gau-26914.chk"
 B after Tr=     0.000000   -0.000000    0.000000
         Rot=    0.999955    0.009507   -0.000557   -0.000074 Ang=   1.09 deg.
 ExpMin= 2.53D-02 ExpMax= 1.53D+04 ExpMxC= 5.22D+02 IAcc=3 IRadAn=         5 AccDes= 0.00D+00
 Harris functional with IExCor=  205 and IRadAn=       5 diagonalized for initial guess.
 HarFok:  IExCor=  205 AccDes= 0.00D+00 IRadAn=         5 IDoV= 1 UseB2=F ITyADJ=14
 ICtDFT=  3500011 ScaDFX=  1.000000  1.000000  1.000000  1.000000
 FoFCou: FMM=F IPFlag=           0 FMFlag=      100000 FMFlg1=           0
         NFxFlg=           0 DoJE=T BraDBF=F KetDBF=T FulRan=T
         wScrn=  0.000000 ICntrl=       500 IOpCl=  0 I1Cent=   200000004 NGrid=           0
         NMat0=    1 NMatS0=      1 NMatT0=    0 NMatD0=    1 NMtDS0=    0 NMtDT0=    0
 Petite list used in FoFCou.
 Keep R1 ints in memory in canonical form, NReq=530211287.
 Requested convergence on RMS density matrix=1.00D-08 within 128 cycles.
 Requested convergence on MAX density matrix=1.00D-06.
 Requested convergence on             energy=1.00D-06.
 No special actions if energy rises.
 SCF Done:  E(RHF) =  -207.067704586     A.U. after   12 cycles
            NFock= 12  Conv=0.58D-08     -V/T= 2.0016
 ExpMin= 2.53D-02 ExpMax= 1.53D+04 ExpMxC= 5.22D+02 IAcc=3 IRadAn=         5 AccDes= 0.00D+00
 HarFok:  IExCor=  205 AccDes= 0.00D+00 IRadAn=         5 IDoV=-2 UseB2=F ITyADJ=14
 ICtDFT= 12500011 ScaDFX=  1.000000  1.000000  1.000000  1.000000
 Range of M.O.s used for correlation:     4   253
 NBasis=   253 NAE=    14 NBE=    14 NFC=     3 NFV=     0
 NROrb=    250 NOA=    11 NOB=    11 NVA=   239 NVB=   239

 **** Warning!!: The largest alpha MO coefficient is  0.21631784D+02

 Fully direct method using O(ONN) memory.
 JobTyp=1 Pass  1:  I=   4 to  14 NPSUse= 28 ParTrn=T ParDer=T DoDerP=T.
 Spin components of T(2) and E(2):
     alpha-alpha T2 =       0.2441073086D-01 E2=     -0.9113023825D-01
     alpha-beta  T2 =       0.1447172116D+00 E2=     -0.5726165642D+00
     beta-beta   T2 =       0.2441073086D-01 E2=     -0.9113023825D-01
 ANorm=    0.1092491956D+01
 E2 =    -0.7548770407D+00 EUMP2 =    -0.20782258162667D+03
          IDoAtm=11111111
          Differentiating once with respect to electric field.
                with respect to dipole field.
          Differentiating once with respect to nuclear coordinates.
 Keep R1 ints in memory in canonical form, NReq=530217186.
          There are     1 degrees of freedom in the 1st order CPHF.  IDoFFX=0 NUNeed=     1.
 LinEq1:  Iter=  0 NonCon=     1 RMS=3.16D-03 Max=2.60D-02 NDo=     1
 AX will form     1 AO Fock derivatives at one time.
 LinEq1:  Iter=  1 NonCon=     1 RMS=5.24D-04 Max=4.71D-03 NDo=     1
 LinEq1:  Iter=  2 NonCon=     1 RMS=2.51D-04 Max=3.31D-03 NDo=     1
 LinEq1:  Iter=  3 NonCon=     1 RMS=4.69D-05 Max=4.90D-04 NDo=     1
 LinEq1:  Iter=  4 NonCon=     1 RMS=1.71D-05 Max=2.24D-04 NDo=     1
 LinEq1:  Iter=  5 NonCon=     1 RMS=8.98D-06 Max=1.33D-04 NDo=     1
 LinEq1:  Iter=  6 NonCon=     1 RMS=2.90D-06 Max=2.98D-05 NDo=     1
 LinEq1:  Iter=  7 NonCon=     1 RMS=1.08D-06 Max=9.99D-06 NDo=     1
 LinEq1:  Iter=  8 NonCon=     1 RMS=3.38D-07 Max=2.66D-06 NDo=     1
 LinEq1:  Iter=  9 NonCon=     1 RMS=7.70D-08 Max=7.43D-07 NDo=     1
 LinEq1:  Iter= 10 NonCon=     1 RMS=1.28D-08 Max=1.14D-07 NDo=     1
 LinEq1:  Iter= 11 NonCon=     1 RMS=2.79D-09 Max=2.89D-08 NDo=     1
 LinEq1:  Iter= 12 NonCon=     1 RMS=6.04D-10 Max=4.55D-09 NDo=     1
 LinEq1:  Iter= 13 NonCon=     1 RMS=1.18D-10 Max=1.33D-09 NDo=     1
 LinEq1:  Iter= 14 NonCon=     0 RMS=2.65D-11 Max=2.57D-10 NDo=     1
 Linear equations converged to 1.000D-10 1.000D-09 after    14 iterations.
 End of Minotr F.D. properties file   721 does not exist.
 End of Minotr F.D. properties file   722 does not exist.
 End of Minotr F.D. properties file   788 does not exist.
 Calling FoFJK, ICntrl=  10002127 FMM=F ISym2X=0 I1Cent= 0 IOpClX= 0 NMat=1 NMatS=1 NMatT=0.
 ***** Axes restored to original set *****
 -------------------------------------------------------------------
 Center     Atomic                   Forces (Hartrees/Bohr)
 Number     Number              X              Y              Z
 -------------------------------------------------------------------
      1        8          -0.000755342    0.003035261   -0.000604927
      2        8           0.000899249   -0.003137005   -0.001341531
      3        1          -0.001663731   -0.002214964    0.001730896
      4        1           0.001494666    0.004032989    0.001038257
      5        7           0.000529192   -0.003234962    0.002358538
      6        1           0.001382176    0.000874977   -0.001333550
      7        1           0.000142407   -0.000871618   -0.002388001
      8        1          -0.002028617    0.001515322    0.000540318
 -------------------------------------------------------------------
 Cartesian Forces:  Max     0.004032989 RMS     0.001901683

 GradGradGradGradGradGradGradGradGradGradGradGradGradGradGradGradGradGrad
 Berny optimization.
 Using GEDIIS/GDIIS optimizer.
 FormGI is forming the generalized inverse of G from B-inverse, IUseBI=4.
 Internal  Forces:  Max     0.003769177 RMS     0.001701498
 Search for a local minimum.
 Step number   5 out of a maximum of   31
 All quantities printed in internal units (Hartrees-Bohrs-Radians)
 Mixed Optimization -- RFO/linear search
 Update second derivatives using D2CorX and points    1    2    3    5    4
 DE=  3.38D-04 DEPred=-2.23D-04 R=-1.52D+00
 Trust test=-1.52D+00 RLast= 2.91D-01 DXMaxT set to 3.15D-01
 ITU= -1  1  0  1  0
 Use linear search instead of GDIIS.
     Eigenvalues ---    0.00214   0.00570   0.01470   0.01820   0.04030
     Eigenvalues ---    0.08154   0.10061   0.11520   0.15981   0.16205
     Eigenvalues ---    0.16554   0.21842   0.41060   0.43691   0.43818
     Eigenvalues ---    0.44611   0.49496   0.52613
 RFO step:  Lambda=-1.86708408D-04 EMin= 2.14289146D-03
 Quartic linear search produced a step of -0.72391.
 Iteration  1 RMS(Cart)=  0.06158177 RMS(Int)=  0.00426661
 Iteration  2 RMS(Cart)=  0.00494543 RMS(Int)=  0.00051357
 Iteration  3 RMS(Cart)=  0.00001838 RMS(Int)=  0.00051328
 Iteration  4 RMS(Cart)=  0.00000000 RMS(Int)=  0.00051328
 Variable       Old X    -DE/DX   Delta X   Delta X   Delta X     New X
                                 (Linear)    (Quad)   (Total)
    R1        2.74476   0.00256   0.00814  -0.00221   0.00593   2.75070
    R2        1.81914   0.00321  -0.00019   0.00630   0.00611   1.82525
    R3        1.86713  -0.00036   0.00210  -0.00276  -0.00069   1.86644
    R4        3.46313   0.00046  -0.02992   0.01747  -0.01244   3.45070
    R5        1.90754   0.00198   0.00217   0.00336   0.00553   1.91307
    R6        1.90704   0.00219   0.00200   0.00344   0.00544   1.91248
    R7        1.90787   0.00252   0.00198   0.00442   0.00640   1.91428
    A1        1.73688   0.00101   0.00742  -0.00721   0.00021   1.73709
    A2        1.71845   0.00246   0.00485   0.00527   0.01012   1.72858
    A3        1.93391   0.00045  -0.00059   0.00445   0.00346   1.93737
    A4        2.09297   0.00167   0.01720  -0.00696   0.00997   2.10293
    A5        1.78118  -0.00108   0.01744  -0.01192   0.00630   1.78747
    A6        1.88598  -0.00113  -0.01566   0.00513  -0.01138   1.87460
    A7        1.87838  -0.00020  -0.00926   0.00271  -0.00579   1.87259
    A8        1.87840   0.00015  -0.01092   0.00673  -0.00347   1.87492
    A9        2.92404   0.00126   0.01663   0.04410   0.06111   2.98515
   A10        2.82682   0.00377   0.18667   0.01330   0.20000   3.02682
    D1        1.92460   0.00045   0.00714   0.06787   0.07500   1.99960
    D2        2.22246  -0.00008   0.05899  -0.03846   0.01930   2.24176
    D3       -1.77394   0.00008   0.04696  -0.05127  -0.00322  -1.77716
    D4        0.28017   0.00000   0.03917  -0.04346  -0.00419   0.27598
         Item               Value     Threshold  Converged?
 Maximum Force            0.003769     0.000450     NO 
 RMS     Force            0.001701     0.000300     NO 
 Maximum Displacement     0.177369     0.001800     NO 
 RMS     Displacement     0.061628     0.001200     NO 
 Predicted change in Energy=-1.536583D-04
 GradGradGradGradGradGradGradGradGradGradGradGradGradGradGradGradGradGrad

                          Input orientation:                          
 ---------------------------------------------------------------------
 Center     Atomic      Atomic             Coordinates (Angstroms)
 Number     Number       Type             X           Y           Z
 ---------------------------------------------------------------------
      1          8           0       -2.081033    2.441372   -0.182844
      2          8           0       -0.721814    1.966191   -0.396184
      3          1           0       -2.465187    1.651707    0.219382
      4          1           0       -0.706974    1.976610   -1.383697
      5          7           0       -0.882713    2.256449   -3.179578
      6          1           0       -0.103111    2.791353   -3.541456
      7          1           0       -1.033439    1.477821   -3.808261
      8          1           0       -1.702902    2.848949   -3.228428
 ---------------------------------------------------------------------
                    Distance matrix (angstroms):
                    1          2          3          4          5
     1  O    0.000000
     2  O    1.455606   0.000000
     3  H    0.965883   1.875413   0.000000
     4  H    1.883107   0.987679   2.401403   0.000000
     5  N    3.232737   2.803109   3.797745   1.826029   0.000000
     6  H    3.913431   3.310049   4.584987   2.384194   1.012353
     7  H    3.894809   3.460908   4.278090   2.496774   1.012039
     8  H    3.095915   3.124645   3.728520   2.270657   1.012992
                    6          7          8
     6  H    0.000000
     7  H    1.631583   0.000000
     8  H    1.631146   1.632293   0.000000
 Stoichiometry    H5NO2
 Framework group  C1[X(H5NO2)]
 Deg. of freedom    18
 Full point group                 C1      NOp   1
 Largest Abelian subgroup         C1      NOp   1
 Largest concise Abelian subgroup C1      NOp   1
                         Standard orientation:                         
 ---------------------------------------------------------------------
 Center     Atomic      Atomic             Coordinates (Angstroms)
 Number     Number       Type             X           Y           Z
 ---------------------------------------------------------------------
      1          8           0       -1.361252   -0.580742   -0.103887
      2          8           0       -0.833330    0.771720    0.000674
      3          1           0       -1.863415   -0.620518    0.720237
      4          1           0        0.127835    0.557652    0.077137
      5          7           0        1.832327   -0.095032    0.021507
      6          1           0        2.386090    0.394916   -0.669981
      7          1           0        2.386830   -0.155505    0.865955
      8          1           0        1.693028   -1.039149   -0.318188
 ---------------------------------------------------------------------
 Rotational constants (GHZ):          26.6046850           4.7139107           4.1339043
 Standard basis: Aug-CC-pVTZ (5D, 7F)
 There are   290 symmetry adapted cartesian basis functions of A   symmetry.
 There are   253 symmetry adapted basis functions of A   symmetry.
   253 basis functions,   351 primitive gaussians,   290 cartesian basis functions
    14 alpha electrons       14 beta electrons
       nuclear repulsion energy        79.7944040146 Hartrees.
 NAtoms=    8 NActive=    8 NUniq=    8 SFac= 1.00D+00 NAtFMM=   60 NAOKFM=F Big=F
 Integral buffers will be    131072 words long.
 Raffenetti 1 integral format.
 Two-electron integral symmetry is turned on.
 One-electron integrals computed using PRISM.
 NBasis=   253 RedAO= T EigKep=  9.31D-05  NBF=   253
[...]
 -0.04405356,-0.06982749,-0.08328275,0.00000271,0.00001610,0.00004539,0
 .00005253,-0.00001623,-0.00018571,-0.00001407,-0.00001274,-0.00000900,
 -0.00013579,-0.00012854,0.00007570,-0.05018868,-0.03059984,0.03034327,
 0.02607903,0.03964941,-0.02597676,-0.00011313,-0.00005019,-0.00021587,
 -0.00002392,-0.00010839,-0.00008992,0.00002303,-0.00001242,0.00009638,
 0.00023026,0.00045910,0.00001732,0.02800960,0.09385321,0.06452423,-0.0
 0023804,0.00459742,0.00482749,-0.00379490,-0.00008314,0.00000421,0.000
 07306,0.00006763,0.00015243,-0.00028100,-0.00000120,0.00000685,-0.0000
 0541,-0.00007024,-0.00051447,0.00012876,0.03180824,0.12923374,0.106726
 26,0.00210383,-0.00233790,-0.00096775,-0.06326443,-0.13105392,-0.00002
 541,-0.00000866,0.00009172,0.00000268,0.00007598,-0.00007915,-0.000005
 51,0.00000772,0.00000543,0.00013995,0.00003184,-0.00030971,0.02481395,
 0.12472697,0.09746423,0.00307578,-0.00141658,-0.00055059,-0.04985786,-
 0.10539342,-0.09145648,0.00012854,-0.00000123,-0.00019155,0.00010500,-
 0.00028514,0.00101036,-0.00000298,0.00003741,-0.00001562,-0.00025652,0
 .00063237,-0.00089876,0.42845366,-0.28962524,-0.06552023,0.00193828,-0
 .02165214,0.01937678,-0.02409290,0.02943931,0.02185642,-0.40627307,0.0
 0000673,-0.00000569,0.00027574,-0.00022683,-0.00009700,-0.00071935,0.0
 0000009,0.00005125,0.00005645,0.00043781,0.00007840,0.00078226,-0.2838
 3958,0.11976547,0.03066287,0.03764142,-0.01785361,-0.00794040,-0.03547
 429,0.00450906,-0.01802385,0.28145465,-0.10644787,-0.00016931,0.000197
 04,-0.00031485,0.00006848,-0.00007321,0.00024688,-0.00001789,0.0000316
 6,-0.00011650,0.00089173,-0.00013437,-0.00055336,-0.01182150,-0.000312
 30,-0.00871376,0.00596766,0.00566538,-0.00374230,-0.01930177,-0.000280
 48,-0.00516544,0.02438259,-0.00509372,0.01835932,-0.01756538,0.0079918
 8,-0.00013090,0.00957613,-0.00185985,-0.00713999,0.02619866,-0.0078261
 1,-0.02921679,-1.10756021,-0.01666252,0.00296913,0.01430210,-0.0129838
 1,-1.17792930,0.00279662,-0.00030765,-0.00162944,-0.44726584,-0.141575
 48,5.74062191,0.00390543,-0.00323124,0.00046485,0.00169426,0.00191247,
 -0.00050093,-0.00279569,0.00142743,0.00115783,-0.00098292,-0.00247296,
 -0.00001742,-0.00085986,0.00091385,-0.00100931,-0.00040054,0.00075620,
 -0.00139284,-0.00145880,-0.00231742,-0.00019041,0.00112659,-0.00032279
 ,0.00050382,-0.01407312,0.00372705,0.02030029,1.08107675,0.02660641,0.
 44754291,-0.00275178,0.00049438,0.00080641,-1.03778582,0.00936666,-0.0
 0385983,-0.01068722,0.02137350,1.17507216,0.13947125,0.00026187,-0.000
 46091,0.00141723,-0.03049822,-1.14531478,-0.01900952,0.00289621,0.0059
 6892,0.48412297,0.12703619,-5.72968629,-0.00077879,0.00367934,0.001763
 81,-0.47461249,-0.12023153,5.67264094,0.00129359,-0.00055099,-0.000878
 05,-0.00084619,0.00131925,-0.00164467,0.00000243,-0.00027804,-0.000079
 56,-0.02612859,-0.00249553,0.00670834,0.04726046,-0.00170653,-0.000133
 67,-0.00045929,0.00189258,0.00093234,0.00244757,0.00009109,0.00029658,
 0.00042416,-0.00218547,-0.02801492,-0.00959881,-0.00119185,0.04886219,
 0.00574430,-0.00089974,0.00257459,-0.00453945,0.00211346,-0.00634192,-
 0.00034178,-0.00126983,-0.00073648,0.00567758,-0.01030778,0.03706225,0
 .00072104,0.00342322,-0.00156405,0.00039341,-0.00004805,0.00006266,-0.
 00027633,-0.00028348,-0.00125841,-0.00002251,-0.00005570,-0.00001356,0
 .00317704,0.00280619,0.00398648,-0.01204365,-0.00969393,-0.00090798,0.
 00777426,-0.00000640,-0.00005402,-0.00025826,0.00006990,-0.00023808,-0
 .00011299,0.00000813,-0.00000124,-0.00000453,-0.00040584,-0.00120732,0
 .00022275,-0.00406451,-0.00263325,0.00573185,0.00632586,0.00218149,0.0
 0049864,0.00004223,0.00067778,-0.00058569,-0.00044546,-0.00023535,-0.0
 0000653,-0.00007317,-0.00006437,0.00668968,0.00318087,0.00273712,-0.00
 917499,0.00062370,-0.01002717,0.00030682,-0.00375430,0.00413352,0.0001
 4189,-0.00013086,0.00000911,-0.00017980,0.00020227,-0.00040427,-0.0000
 1304,-0.00004439,0.00001301,-0.00147718,-0.00187436,0.00120105,0.00242
 114,0.00230085,-0.00348985,0.00078089,-0.00107302,0.00071355,-0.002999
 70,-0.00048993,0.00017971,-0.00000894,-0.00007507,-0.00047765,0.000882
 09,0.00004385,0.00006440,0.00003062,0.00043175,0.00549251,-0.00366284,
 -0.00149276,-0.01712921,-0.00280410,0.00109434,0.00064373,0.00145992,0
 .00054622,0.01120104,0.00041286,-0.00030207,0.00045083,-0.00041552,0.0
 0062589,0.00021634,0.00002916,-0.00009992,0.00003073,0.00057578,-0.006
 65279,0.00170900,-0.00379159,0.00624157,-0.00998975,-0.00101132,-0.001
 59482,0.00165066,0.00247854,0.00306552,0.00464714,-0.00029448,0.000068
 32,-0.00031820,-0.00010715,-0.00011057,0.00073460,-0.00001911,0.000015
 42,0.00000643,-0.00203729,0.00105988,-0.00161803,-0.01195923,0.0104932
 6,-0.00286386,0.00021690,-0.00085412,0.00155852,0.00132580,-0.00005840
 ,0.00172210,0.01287458,0.00007941,-0.00012824,-0.00004563,0.00002196,-
 0.00031117,0.00005507,-0.00000001,-0.00002993,0.00001654,0.00182994,-0
 .00170692,-0.00034132,0.00875443,-0.00218012,0.00401289,-0.00014523,0.
 00130869,-0.00103380,0.00007330,0.00002551,-0.00128336,-0.01061379,0.0
 0302219,0.00038151,-0.00032535,0.00049014,-0.00064087,0.00026072,-0.00
 275486,0.00000742,-0.00007084,0.00008573,-0.00698017,0.00380997,0.0078
 0422,0.00813949,-0.00310214,-0.01097748,-0.00116470,-0.00022970,0.0011
 2781,-0.00052113,0.00103774,0.00128507,0.00077844,-0.00138039,0.002939
 35,0.00038301,0.00002676,-0.00009947,-0.00034103,0.00011125,-0.0001262
 7,0.00027127,-0.00013747,0.00034832,-0.00925768,-0.00006169,0.00023874
 ,-0.00014035,0.00015313,-0.00948150,0.00023623,-0.00006841,-0.00050709
 ,-0.00404393,-0.00091941,0.04770461,-0.00025274,0.00007313,-0.00004912
 ,0.00017599,-0.00013519,0.00008011,0.00014656,-0.00004666,0.00001259,-
 0.00006216,-0.00006008,0.00002343,0.00006206,0.00008504,-0.00003951,0.
 00010485,0.00003544,0.00009675,-0.00002775,-0.00005685,0.00011298,-0.0
 0006387,-0.00001581,-0.00022281,-0.00034173,0.00004008,0.00025055,0.00
 892073,0.00017315,0.00361554,-0.00005433,0.00001576,0.00001076,-0.0095
 8997,0.00012836,-0.00017329,-0.00000460,0.00014229,0.00959386,0.001255
 56,-0.00003329,0.00000659,0.00002416,-0.00012711,-0.01033946,-0.000267
 18,0.00008526,0.00064573,0.00397934,0.00131629,-0.05002895,-0.00001425
 ,-0.00006194,0.00002954,-0.00393017,-0.00149733,0.05144778,-0.00001076
 ,-0.00000686,-0.00021930,-0.00026251,-0.00003362,0.00030963,0.00000895
 ,0.00000555,-0.00003835,0.00001005,0.00009673,-0.00043043,1.50919498,0
 .00002021,-0.00006938,0.00006408,-0.00003069,-0.00033453,-0.00032840,0
 .00000888,-0.00001060,0.00001996,-0.00000038,0.00008881,0.00049709,-0.
 01691840,1.28877741,-0.00022080,-0.00000285,-0.00006122,-0.00010017,-0
 .00003085,0.00206172,0.00000272,0.00008949,0.00000311,0.00061359,-0.00
 038654,-0.00146270,-0.45275160,0.47138798,0.10227129,-0.00005897,-0.00
 004942,0.00009780,-0.00008549,-0.00008191,0.00049829,0.00004057,0.0000
 3774,0.00001371,0.00033506,0.00047652,-0.00123332,-0.53278920,-0.69410
 499,0.48490770,0.52717396,-0.00003821,-0.00001933,0.00009125,0.0000324
 9,-0.00000785,0.00024469,0.00003365,0.00002774,-0.00001106,-0.00011298
 ,0.00017833,-0.00061324,-0.71624428,-0.35421027,0.42094197,0.71377538,
 0.33681519,0.00003083,0.00000292,0.00012610,-0.00011860,-0.00011514,-0
 .00018366,-0.00000885,-0.00000799,0.00003016,0.00038288,0.00038826,0.0
 0025776,0.51912206,0.43707172,-0.02337201,-0.50427991,-0.42619288,-0.0
 0188135,0.00001212,-0.00000947,-0.00005573,-0.00000919,0.00006201,0.00
 000638,-0.00001464,-0.00000318,-0.00000331,0.00008854,-0.00018134,-0.0
 0003543,0.21589009,-0.21403555,-0.17088785,0.00756744,-0.01817724,-0.0
 1425525,-0.23699203,0.00002233,0.00005232,-0.00019480,0.00003249,-0.00
 003679,-0.00046611,-0.00004937,-0.00005232,0.00004911,0.00020439,0.000
 35710,0.00118781,-0.19869983,-0.69099007,-0.80283774,0.00607042,0.0010
 6201,-0.01686890,0.20733101,0.68819177,0.00005103,-0.00001071,0.000050
 82,0.00000464,0.00013200,-0.00028890,-0.00000818,-0.00003640,0.0000199
 5,-0.00007629,-0.00050729,0.00054839,-0.16625057,-0.84340375,-0.420022
 99,0.00910009,0.01420265,0.01459525,0.16591261,0.82963056,0.39563890,-
 0.00000221,0.00006324,-0.00003151,0.00024690,-0.00007588,-0.00070224,-
 0.00005035,-0.00003417,0.00000397,0.00063165,-0.00050215,0.00193145,-1
 .19204161,0.92506091,0.13843641,-0.00218337,0.02073119,-0.00087317,0.0
 1345766,-0.01491145,-0.00873333,1.17994133,-0.00005109,0.00005782,0.00
 013534,-0.00013217,0.00000466,0.00022003,0.00001715,0.00003209,-0.0000
 4495,-0.00019291,0.00028805,-0.00091394,0.93180069,-0.24325142,-0.0891
 6148,-0.02612372,0.01615418,0.00572199,0.02501377,0.00141601,-0.000007
 07,-0.93033170,0.22529862,0.00040606,-0.00015292,-0.00022482,-0.000041
 85,-0.00018569,0.00112929,0.00006144,0.00003275,-0.00006967,-0.0008668
 7,0.00072778,-0.00143758,0.10025857,-0.06530871,0.34058278,0.01089566,
 -0.00866338,0.01042773,0.01931859,-0.01049991,0.00945860,-0.13003160,0
 .08405008,-0.35986632,0.00018231,-0.00003049,-0.00031896,-0.00027936,0
 .00028147,0.00011996,0.00020543,0.00004952,0.00000877,-0.00068282,-0.0
 0010908,0.00021600,-0.00014256,0.00014181,-0.00037165,0.00026982,-0.00
 018876,-0.00029856,-0.00011665,0.00006666,0.00023847,-0.00013298,-0.00
 003389,0.00001118,0.00013180,0.00000635,0.00000403,0.00000410,0.000083
 34,0.00016691,-0.00020382,-0.00013672,-0.00001055,0.00010297,0.0000773
 1,-0.00015981,0.00004951,-0.00002550,0.00015713,0.00000746,0.00000364,
 0.00009853,-0.00001328,0.00003823,-0.00026947,-0.00026008,0.00005730,0
 .00024403,0.00014261,0.00003606,0.00004697,-0.00002729,-0.00002014,-0.
 00001471,-0.00022889,0.00007035,-0.00013589,0.00004786,0.00009877,0.00
 010829,-0.00012613,-0.00004276,0.00001846,0.00001619,0.00013472,-0.000
 19502,-0.00022631,0.00012390,0.00003408,-0.00001721,0.00017892,-0.0002
 2698,-0.00003190,-0.00000852,-0.00000773,-0.00043585,0.00022315,-0.000
 05522,0.00040910,-0.00015677,0.00004115,0.00010989,-0.00001235,0.00052
 143,0.00016145,0.00000944,-0.00008687,-0.00222540,0.00069768,-0.001377
 36,2.36805611,-0.00016334,0.00008069,-0.00012936,0.00025890,0.00034611
 ,-0.00010753,-0.00006499,-0.00005928,0.00003798,0.00036956,-0.00151111
 ,0.00087934,-0.96181718,1.06056325,-0.00026950,0.00005784,0.00026210,-
 0.00034379,0.00043885,-0.00101771,-0.00004346,-0.00000925,0.00009137,0
 .00129623,-0.00121654,0.00182313,-0.44297228,0.13357290,-0.48252910,-0
 .00010345,-0.00001203,-0.00004854,-0.00004598,-0.00008161,-0.00022081,
 -0.00002473,0.00001383,0.00006094,0.00053449,0.00004664,-0.00000822,-0
 .37998920,-0.60408578,0.38527273,0.36618083,-0.00010636,-0.00001775,-0
 .00019350,-0.00019377,-0.00011226,-0.00005088,0.00001063,0.00003820,0.
 00003250,0.00037603,0.00056875,-0.00072047,-0.60427371,-0.33362945,0.3
 6941395,0.61577725,0.33554080,0.00001178,-0.00001223,0.00002852,0.0000
 4399,-0.00014082,0.00028815,0.00001345,0.00002180,-0.00001195,-0.00014
 018,0.00039011,-0.00069224,0.40376040,0.38590424,0.00479771,-0.3936579
 4,-0.37572265,-0.00911413,-0.00001550,-0.00002993,0.00005785,-0.000026
 82,-0.00013236,-0.00001870,-0.00003444,-0.00000352,0.00000628,0.000472
 36,0.00016411,0.00053214,0.10316414,-0.13930894,-0.11448038,0.00679618
 ,-0.00680645,-0.00821272,-0.11732003,0.00003778,-0.00005151,0.00003678
 ,-0.00005398,-0.00019341,0.00000803,0.00001079,0.00000986,0.00003612,-
 0.00004259,0.00043268,0.00047894,-0.13990251,-0.33911199,-0.39407063,-
 0.00242621,0.00058590,-0.01258401,0.15213301,0.33876560,0.00004056,-0.
 00003824,0.00003013,0.00006511,-0.00011668,0.00048812,0.00002514,0.000
 01791,-0.00001430,-0.00030367,0.00018836,-0.00061806,-0.12078077,-0.41
 825502,-0.19701147,0.00494690,0.00686425,0.00771947,0.12052506,0.41242
 180,0.19356675,-0.00028482,0.00015629,-0.00003508,0.00016590,0.0001511
 9,-0.00048608,-0.00007790,-0.00002355,-0.00000933,0.00159221,-0.001169
 51,0.00156471,-2.08968613,1.70481176,0.17154045,0.00665185,-0.00478362
 ,-0.00181879,0.00696412,-0.00975628,-0.00451833,2.07467480,0.00021781,
 0.00006054,0.00030312,-0.00016453,0.00001748,0.00029564,0.00003656,-0.
 00000379,-0.00013914,-0.00091093,0.00071384,-0.00115527,1.70545539,-0.
 38667826,-0.10818713,-0.00923209,-0.00297419,0.00214356,-0.00601592,-0
 .00043714,-0.00108239,-1.68938629,0.38930152,0.00040351,-0.00019849,-0
 .00033335,0.00035232,-0.00028801,0.00042996,0.00003484,0.00004068,-0.0
 0004358,-0.00069283,0.00047700,-0.00025699,0.16089430,-0.10190256,0.67
 358398,0.00365493,0.00037679,-0.00301553,0.00159047,-0.00632702,-0.004
 16063,-0.16623754,0.10782162,-0.66620386,0.00024315,-0.00001075,-0.000
 31644,-0.00004087,0.00021074,0.00035533,0.00015535,0.00007100,-0.00010
 115,-0.00017660,-0.00008926,0.00028850,-0.00010878,0.00005618,-0.00016
 323,0.00021157,-0.00019013,-0.00026652,0.00000012,0.00014770,0.0003683
 8,-0.00014241,-0.00009236,0.00001850,0.00008734,0.00003792,0.00000160,
 0.00007020,0.00007013,0.00018301,-0.00016160,-0.00015966,0.00000616,0.
 00010939,0.00009893,-0.00018573,0.00000765,-0.00004641,-0.00015642,0.0
 0002762,-0.00004067,0.00011808,-0.00000722,0.00005110,0.00000271,-0.00
 026669,0.00003952,0.00011697,-0.00001115,0.00000119,-0.00035405,-0.000
 02619,-0.00000874,-0.00002115,0.00031309,0.00003216,-0.00016400,0.0001
 0260,0.00002787,-0.00016198,0.00000408,-0.00004251,0.00001345,0.000029
 99,-0.00009209,0.00037199,-0.00016493,0.00005003,0.00009207,-0.0000127
 8,0.00018403,-0.00057824,-0.00001445,-0.00001048,-0.00000005,0.0003400
 6,-0.00022113,0.00045328,0.00020265,0.00006218,-0.00007765,0.00023419,
 0.00036167,0.00082482,0.00000814,-0.00006658,-0.00006542,-0.00118531,-
 0.00086426,0.00046705,0.29070047,0.00003010,0.00009055,0.00017611,0.00
 029359,0.00095602,-0.00075072,0.00002821,-0.00003506,-0.00015358,-0.00
 076572,-0.00228156,-0.00058732,1.51891941,1.75248963,0.00003652,0.0000
 4147,-0.00000419,-0.00000652,0.00000701,0.00080084,0.00000243,-0.00003
 294,-0.00000759,-0.00014007,-0.00015744,-0.00070876,-0.49887576,0.9460
 4683,0.91959356,-0.00015564,-0.00009133,-0.00004599,-0.00021819,-0.000
 44444,-0.00046561,0.00000854,0.00006032,0.00009233,0.00083295,0.000922
 76,-0.00030256,-0.79880284,-1.10616502,0.82831451,0.80456943,-0.000000
 86,-0.00004293,-0.00019923,-0.00007418,-0.00013783,0.00006576,-0.00000
 790,0.00001382,0.00005625,0.00021950,0.00044882,0.00010413,-1.12063419
 ,-0.47721695,0.71285023,1.10055373,0.46754661,0.00006732,0.00004114,0.
 00003712,0.00009055,0.00010808,-0.00038032,-0.00001526,-0.00001179,-0.
 00004012,-0.00006131,-0.00006957,0.00052357,0.84074119,0.71547796,-0.0
 4660499,-0.83489345,-0.71419560,0.03990405,-0.00000415,-0.00000098,0.0
 0020340,0.00006142,0.00005977,-0.00021591,0.00001064,-0.00000407,-0.00
 003786,-0.00001170,-0.00007583,-0.00020705,0.51453566,-0.39668576,-0.3
 4148142,-0.00328727,0.00487271,0.00028815,-0.50653491,-0.00003733,-0.0
 0003650,-0.00007312,-0.00019037,-0.00062563,0.00071886,-0.00000854,-0.
 00000003,0.00009006,0.00041641,0.00135108,0.00022403,-0.38627224,-1.27
 376501,-1.65121564,0.00395583,0.00306144,-0.00010527,0.37874428,1.2652
 2559,-0.00004755,-0.00010057,-0.00013616,0.00000880,-0.00025058,-0.000
 38295,-0.00000031,0.00002983,0.00009407,0.00007932,0.00020525,0.000719
 13,-0.33594554,-1.66496369,-0.85733304,0.00302899,0.00507622,-0.001105
 10,0.33474481,1.65086286,0.84866339,-0.00003228,0.00002272,-0.00007322
 ,-0.00013236,0.00001697,-0.00000254,-0.00001626,0.00000967,0.00000405,
 0.00035499,0.00009190,-0.00010533,-0.00569296,-0.01565482,0.01215029,-
 0.00294698,0.01507118,-0.00621719,-0.00476969,0.00339196,-0.00186851,0
 .01323552,0.00000582,-0.00000218,0.00005326,-0.00002444,-0.00016200,-0
 .00010493,-0.00001375,0.00000439,0.00001327,0.00018992,0.00042220,0.00
 025671,-0.01150600,-0.00023766,-0.00753953,0.00120814,0.00632702,-0.00
 124495,0.01308990,0.00478907,0.00914068,-0.00294958,-0.01114082,-0.000
 06972,-0.00000628,0.00007878,-0.00000663,-0.00004677,0.00032071,0.0000
 1471,0.00002650,-0.00001067,0.00004023,0.00010622,-0.00050101,-0.00706
 869,0.00475439,-0.01573585,0.00427178,-0.00375776,0.00766579,0.0067058
 9,-0.00050177,0.00948067,-0.00388757,-0.00057451,-0.00129841,0.3501637
 5,2.98667517,3.65327624,-1.48198653,-2.50531158,-0.16981132,0.08008256
 ,-0.04218139,-0.00289570,-0.04826524,-0.02845768,-0.00746306,0.0052627
 8,0.03301906,-0.01461238,-0.02011686,0.01445980,-0.01048836,0.00949765
 ,-0.00187935,0.01061504,-0.43534893,-2.94051389,1.48646751,-0.02976293
 ,-0.00489832,0.01059799,0.46662901,-2.96106353,-3.64229721,2.50184026,
 0.01231009,0.01777455,-0.01122731,2.94550755,3.62449760,1.49817499,2.4
 9305655,0.18027136,-0.00279103,-0.00522672,0.00122273,-1.49627656,-2.4
 9009718,-0.18136640,0.00542665,-0.00436566,-0.00167381,-0.00235654,0.0
 0053978,0.00008524,-0.00160548,0.00346532,0.00105349,-0.00116458,0.002
 66257,-0.00355962,-0.00173941,-0.00297308,0.00434887,-0.00142658,-0.00
 003244,0.00000777,0.00219486,0.00033232,-0.00059025,0.00626128,-0.0028
 5385,-0.00014831,-0.00479598,0.00295454,-0.00095947,-0.00228003,-0.000
 94449,0.00058635,0.00056269,0.00116842,-0.00068112,-0.00046839,0.00053
 198,0.00015395,0.00032235,-0.00028495,-0.00006579,0.00007157,-0.000318
 97,-0.00013871,-0.00026727,0.00001543,0.00020607,0.00035823,0.00004211
 ,0.00018824,-0.00003569,-0.00000860,-0.00021208,-0.00002079,-0.0001236
 5,-0.00009361,0.00005908,0.00000903,-0.00023865,-0.00020706,-0.0000496
 5,0.00059605,-0.00232815,0.00075445,0.00018636,0.00114713,-0.00121565,
 -0.00029698,0.00132497,0.00044533,-0.00049533,-0.00000246,-0.00018481,
 0.00110536,0.00023384,-0.00005737,0.00067549,0.00001435,-0.00002622,-0
 .00003772,0.00001031,0.00002349,-0.00004810,0.00000652,0.00000355,0.00
 000881,0.00001186,0.00001700,0.00007922,-0.00005004,0.00000849,-0.0000
 4627,-0.00002546,-0.00005976,0.00001125,0.00002324,0.00001831,-0.00003
 956,-0.00001621,0.00002524,0.00003769,0.00000898,0.00000671,-0.0000189
 2,0.00002113,0.00010777,-0.00005425,0.00011912,-0.00003579,0.00003348,
 0.00005789,-0.00026027,-0.00001862,-0.00007728,0.00010314,-0.00001859,
 0.00008078,0.00020789,0.00000096,0.00005740,0.00004097,0.00000416,-0.0
 0028526,-0.00002449,-0.00039131,0.00007133,-0.00008715,0.00033765,-0.0
 0001736,0.00002640,-0.00002157,-0.00000678,-0.00000761,0.00000838,0.00
 004163,-0.00001601,-0.00003307,-0.00001961,-0.00002843,0.00002422,0.00
 000744,0.00003581,-0.00016050,0.00000056,0.00000096,0.00006695,-0.0000
 1957,0.00021509,-0.00006634,-0.00003194,-0.00010808,0.00014791,0.00009
 744,-0.00010229,-0.00008066,0.00003236,0.00000894,0.00006030,-0.000137
 80,-0.00003144,-0.00016720,-0.00001455,-0.00000298,0.00001183,0.000082
 90,-0.00000550,0.00008063,-0.00023268,0.00009224,0.00002994,0.00010030
 ,-0.00023902,-0.00003954,0.00010613,0.00008005,-0.00004345,-0.00000256
 ,-0.00005485,0.00003395,-0.00012351,0.00021724,-0.00039624,-0.00002192
 ,-0.00001190,0.00006919,0.00012259,-0.00006013,0.00027748,0.00014735,-
 0.00014639,-0.00000614,-0.00002372,0.00006624,0.00004152,-0.00003139,0
 .00011201,0.00000208,-0.00002504,0.00000664,-0.00005747,0.00002609,0.0
 0008646,-0.00016857,0.00003191,-0.00006346,0.00002819,0.00001369,0.000
 02627,0.00005167,-0.00013888,-0.00001397,-0.00008952,-0.00000766,-0.00
 007631,0.00005578,0.00001300,0.00013781,0.00015389,-0.00002793,0.00000
 357,-0.00000951,-0.00000088,0.00002984,-0.00001854,0.00015348,0.000012
 46,0.00001849,-0.00006299,-0.00000563,0.00001354,-0.00002364,-0.000087
 78,-0.00012412,0.00017006,0.00006266,-0.00002107,-0.00018507,0.0002402
 9,-0.00003484,-0.00002077,-0.00030455,-0.00017622,-0.00007999,0.000001
 40,0.00005905,0.00001941,0.00006909,-0.00038736,-0.00000535,-0.0000572
 2,0.00001657,-0.00000701,0.00003172,0.00006867,0.00010871,-0.00004337,
 0.00047517\\@


 EDUCATION IS NOT TRAINING BUT RATHER THE PROCESS THAT EQUIPS YOU TO
 ENTERTAIN YOURSELF, A FRIEND, OR AN IDEA.  -- WALLACE STERLING
 Job cpu time:       7 days 11 hours 11 minutes 41.3 seconds.
 Elapsed time:       0 days  6 hours 30 minutes 32.1 seconds.
 File lengths (MBytes):  RWF=  10892 Int=      0 D2E=      0 Chk=     56 Scr=      8
 Normal termination of Gaussian 16 at Tue Dec  7 22:22:48 2021.
