 Entering Gaussian System, Link 0=g16
 Input=h2o2_h2o_mp2_avdz_opt_anharm.gjf
 Output=h2o2_h2o_mp2_avdz_opt_anharm.log
 Initial command:
 /sw/contrib/gaussian/g16/A03/g16/l1.exe "/gscratch/scrubbed/gds001/Gau-10124.inp" -scrdir="/gscratch/scrubbed/gds001/"
 Entering Link 1 = /sw/contrib/gaussian/g16/A03/g16/l1.exe PID=     10125.
  
 Copyright (c) 1988,1990,1992,1993,1995,1998,2003,2009,2016,
            Gaussian, Inc.  All Rights Reserved.
  
 This is part of the Gaussian(R) 16 program.  It is based on
 the Gaussian(R) 09 system (copyright 2009, Gaussian, Inc.),
 the Gaussian(R) 03 system (copyright 2003, Gaussian, Inc.),
 the Gaussian(R) 98 system (copyright 1998, Gaussian, Inc.),
 the Gaussian(R) 94 system (copyright 1995, Gaussian, Inc.),
 the Gaussian 92(TM) system (copyright 1992, Gaussian, Inc.),
 the Gaussian 90(TM) system (copyright 1990, Gaussian, Inc.),
 the Gaussian 88(TM) system (copyright 1988, Gaussian, Inc.),
 the Gaussian 86(TM) system (copyright 1986, Carnegie Mellon
 University), and the Gaussian 82(TM) system (copyright 1983,
 Carnegie Mellon University). Gaussian is a federally registered
 trademark of Gaussian, Inc.
  
 This software contains proprietary and confidential information,
 including trade secrets, belonging to Gaussian, Inc.
  
 This software is provided under written license and may be
 used, copied, transmitted, or stored only in accord with that
 written license.
  
 The following legend is applicable only to US Government
 contracts under FAR:
  
                    RESTRICTED RIGHTS LEGEND
  
 Use, reproduction and disclosure by the US Government is
 subject to restrictions as set forth in subparagraphs (a)
 and (c) of the Commercial Computer Software - Restricted
 Rights clause in FAR 52.227-19.
  
 Gaussian, Inc.
 340 Quinnipiac St., Bldg. 40, Wallingford CT 06492
  
  
 ---------------------------------------------------------------
 Warning -- This program may not be used in any manner that
 competes with the business of Gaussian, Inc. or will provide
 assistance to any competitor of Gaussian, Inc.  The licensee
 of this program is prohibited from giving any competitor of
 Gaussian, Inc. access to this program.  By using this program,
 the user acknowledges that Gaussian, Inc. is engaged in the
 business of creating and licensing software in the field of
 computational chemistry and represents and warrants to the
 licensee that it is not a competitor of Gaussian, Inc. and that
 it will not use this program in any manner prohibited above.
 ---------------------------------------------------------------
  

 Cite this work as:
 Gaussian 16, Revision A.03,
 M. J. Frisch, G. W. Trucks, H. B. Schlegel, G. E. Scuseria, 
 M. A. Robb, J. R. Cheeseman, G. Scalmani, V. Barone, 
 G. A. Petersson, H. Nakatsuji, X. Li, M. Caricato, A. V. Marenich, 
 J. Bloino, B. G. Janesko, R. Gomperts, B. Mennucci, H. P. Hratchian, 
 J. V. Ortiz, A. F. Izmaylov, J. L. Sonnenberg, D. Williams-Young, 
 F. Ding, F. Lipparini, F. Egidi, J. Goings, B. Peng, A. Petrone, 
 T. Henderson, D. Ranasinghe, V. G. Zakrzewski, J. Gao, N. Rega, 
 G. Zheng, W. Liang, M. Hada, M. Ehara, K. Toyota, R. Fukuda, 
 J. Hasegawa, M. Ishida, T. Nakajima, Y. Honda, O. Kitao, H. Nakai, 
 T. Vreven, K. Throssell, J. A. Montgomery, Jr., J. E. Peralta, 
 F. Ogliaro, M. J. Bearpark, J. J. Heyd, E. N. Brothers, K. N. Kudin, 
 V. N. Staroverov, T. A. Keith, R. Kobayashi, J. Normand, 
 K. Raghavachari, A. P. Rendell, J. C. Burant, S. S. Iyengar, 
 J. Tomasi, M. Cossi, J. M. Millam, M. Klene, C. Adamo, R. Cammi, 
 J. W. Ochterski, R. L. Martin, K. Morokuma, O. Farkas, 
 J. B. Foresman, and D. J. Fox, Gaussian, Inc., Wallingford CT, 2016.
 
 ******************************************
 Gaussian 16:  ES64L-G16RevA.03 25-Dec-2016
                 7-Dec-2021 
 ******************************************
 %nprocshared=28
 Will use up to   28 processors via shared memory.
 %mem=41GB
 ----------------------------------------------
 # mp2/aug-cc-pVDZ opt freq=(vibrot,anharmonic)
 ----------------------------------------------
 1/18=20,19=15,38=1,80=1/1,3;
 2/9=110,12=2,17=6,18=5,40=1/2;
 3/5=16,7=10,11=9,25=1,30=1,71=1/1,2,3;
 4//1;
 5/5=2,38=5/2;
 8/6=4,10=1/1;
 9/15=2,16=-3/6;
 10/5=1/2;
 6/7=2,8=2,9=2,10=2/1;
 7/12=2/1,2,3,16;
 1/18=20,19=15,80=1/3(2);
 2/9=110/2;
 99//99;
 2/9=110/2;
 3/5=16,7=10,11=9,25=1,30=1,71=1/1,2,3;
 4/5=5,16=3,69=1/1;
 5/5=2,38=5/2;
 8/6=4,10=1/1;
 9/15=2,16=-3/6;
 10/5=1/2;
 7/12=2/1,2,3,16;
 1/18=20,19=15,80=1/3(-8);
 2/9=110/2;
 6/7=2,8=2,9=2,10=2/1;
 99//99;
 ----
 bleh
 ----
 Symbolic Z-matrix:
 Charge =  0 Multiplicity = 1
 O                    -2.12577   2.22539  -0.12302 
 O                    -0.72701   2.11231  -0.51361 
 H                    -2.22437   1.3106    0.19978 
 H                    -0.85762   2.22839  -1.48632 
 O                    -1.0256    2.48748  -3.17774 
 H                    -0.49562   2.41499  -3.98959 
 H                    -1.76251   3.06213  -3.44946 
 
 Add virtual bond connecting atoms O5         and H4         Dist= 3.25D+00.

 GradGradGradGradGradGradGradGradGradGradGradGradGradGradGradGradGradGrad
 Berny optimization.
 Initialization pass.
                           ----------------------------
                           !    Initial Parameters    !
                           ! (Angstroms and Degrees)  !
 --------------------------                            --------------------------
 ! Name  Definition              Value          Derivative Info.                !
 --------------------------------------------------------------------------------
 ! R1    R(1,2)                  1.4567         estimate D2E/DX2                !
 ! R2    R(1,3)                  0.9751         estimate D2E/DX2                !
 ! R3    R(2,4)                  0.9883         estimate D2E/DX2                !
 ! R4    R(4,5)                  1.7194         estimate D2E/DX2                !
 ! R5    R(5,6)                  0.9722         estimate D2E/DX2                !
 ! R6    R(5,7)                  0.9732         estimate D2E/DX2                !
 ! A1    A(2,1,3)               96.4904         estimate D2E/DX2                !
 ! A2    A(1,2,4)               97.3479         estimate D2E/DX2                !
 ! A3    A(4,5,6)              139.1979         estimate D2E/DX2                !
 ! A4    A(4,5,7)              115.9525         estimate D2E/DX2                !
 ! A5    A(6,5,7)              102.9232         estimate D2E/DX2                !
 ! A6    L(2,4,5,1,-1)         181.7314         estimate D2E/DX2                !
 ! A7    L(2,4,5,1,-2)         177.2228         estimate D2E/DX2                !
 ! D1    D(3,1,2,4)            114.4718         estimate D2E/DX2                !
 ! D2    D(1,2,5,6)           -169.8743         estimate D2E/DX2                !
 ! D3    D(1,2,5,7)             30.7987         estimate D2E/DX2                !
 ! D4    D(4,5,6,7)           -162.3511         estimate D2E/DX2                !
 --------------------------------------------------------------------------------
 Trust Radius=3.00D-01 FncErr=1.00D-07 GrdErr=1.00D-07 EigMax=2.50D+02 EigMin=1.00D-04
 Number of steps in this run=     27 maximum allowed number of steps=    100.
 GradGradGradGradGradGradGradGradGradGradGradGradGradGradGradGradGradGrad

                          Input orientation:                          
 ---------------------------------------------------------------------
 Center     Atomic      Atomic             Coordinates (Angstroms)
 Number     Number       Type             X           Y           Z
 ---------------------------------------------------------------------
      1          8           0       -2.125773    2.225392   -0.123016
      2          8           0       -0.727010    2.112308   -0.513610
      3          1           0       -2.224374    1.310598    0.199781
      4          1           0       -0.857620    2.228390   -1.486319
      5          8           0       -1.025600    2.487479   -3.177736
      6          1           0       -0.495623    2.414986   -3.989591
      7          1           0       -1.762508    3.062130   -3.449457
 ---------------------------------------------------------------------
                    Distance matrix (angstroms):
                    1          2          3          4          5
     1  O    0.000000
     2  O    1.456671   0.000000
     3  H    0.975074   1.842217   0.000000
     4  H    1.861939   0.988279   2.356543   0.000000
     5  O    3.257358   2.706931   3.772232   1.719371   0.000000
     6  H    4.200444   3.496797   4.664664   2.536184   0.972234
     7  H    3.449246   3.254783   4.074080   2.316864   0.973185
                    6          7
     6  H    0.000000
     7  H    1.521689   0.000000
 Stoichiometry    H4O3
 Framework group  C1[X(H4O3)]
 Deg. of freedom    15
 Full point group                 C1      NOp   1
 Largest Abelian subgroup         C1      NOp   1
 Largest concise Abelian subgroup C1      NOp   1
                         Standard orientation:                         
 ---------------------------------------------------------------------
 Center     Atomic      Atomic             Coordinates (Angstroms)
 Number     Number       Type             X           Y           Z
 ---------------------------------------------------------------------
      1          8           0       -1.417377   -0.554088   -0.066536
      2          8           0       -0.761811    0.746665   -0.053698
      3          1           0       -1.874922   -0.455363    0.788844
      4          1           0        0.168578    0.418718    0.005657
      5          8           0        1.806559   -0.102464    0.045952
      6          1           0        2.693783    0.268984    0.187725
      7          1           0        1.993584   -0.953238   -0.387976
 ---------------------------------------------------------------------
 Rotational constants (GHZ):          31.0217271           4.6238178           4.0846134
 Standard basis: Aug-CC-pVDZ (5D, 7F)
 There are   111 symmetry adapted cartesian basis functions of A   symmetry.
 There are   105 symmetry adapted basis functions of A   symmetry.
   105 basis functions,   173 primitive gaussians,   111 cartesian basis functions
    14 alpha electrons       14 beta electrons
       nuclear repulsion energy        77.6433305314 Hartrees.
 NAtoms=    7 NActive=    7 NUniq=    7 SFac= 1.00D+00 NAtFMM=   60 NAOKFM=F Big=F
 Integral buffers will be    131072 words long.
 Raffenetti 1 integral format.
 Two-electron integral symmetry is turned on.
 One-electron integrals computed using PRISM.
 NBasis=   105 RedAO= T EigKep=  9.37D-04  NBF=   105
 NBsUse=   105 1.00D-06 EigRej= -1.00D+00 NBFU=   105
 ExpMin= 2.97D-02 ExpMax= 1.17D+04 ExpMxC= 4.01D+02 IAcc=3 IRadAn=         5 AccDes= 0.00D+00
 Harris functional with IExCor=  205 and IRadAn=       5 diagonalized for initial guess.
 HarFok:  IExCor=  205 AccDes= 0.00D+00 IRadAn=         5 IDoV= 1 UseB2=F ITyADJ=14
 ICtDFT=  3500011 ScaDFX=  1.000000  1.000000  1.000000  1.000000
 FoFCou: FMM=F IPFlag=           0 FMFlag=      100000 FMFlg1=           0
         NFxFlg=           0 DoJE=T BraDBF=F KetDBF=T FulRan=T
         wScrn=  0.000000 ICntrl=       500 IOpCl=  0 I1Cent=   200000004 NGrid=           0
         NMat0=    1 NMatS0=      1 NMatT0=    0 NMatD0=    1 NMtDS0=    0 NMtDT0=    0
 Petite list used in FoFCou.
 Keep R1 ints in memory in canonical form, NReq=21421100.
 Requested convergence on RMS density matrix=1.00D-08 within 128 cycles.
 Requested convergence on MAX density matrix=1.00D-06.
 Requested convergence on             energy=1.00D-06.
 No special actions if energy rises.
 SCF Done:  E(RHF) =  -226.844606889     A.U. after   13 cycles
            NFock= 13  Conv=0.78D-08     -V/T= 2.0018
 ExpMin= 2.97D-02 ExpMax= 1.17D+04 ExpMxC= 4.01D+02 IAcc=3 IRadAn=         5 AccDes= 0.00D+00
 HarFok:  IExCor=  205 AccDes= 0.00D+00 IRadAn=         5 IDoV=-2 UseB2=F ITyADJ=14
 ICtDFT= 12500011 ScaDFX=  1.000000  1.000000  1.000000  1.000000
 Range of M.O.s used for correlation:     4   105
 NBasis=   105 NAE=    14 NBE=    14 NFC=     3 NFV=     0
 NROrb=    102 NOA=    11 NOB=    11 NVA=    91 NVB=    91

 **** Warning!!: The largest alpha MO coefficient is  0.12065789D+02

 Fully direct method using O(ONN) memory.
 JobTyp=1 Pass  1:  I=   4 to  14 NPSUse= 28 ParTrn=T ParDer=T DoDerP=T.
 Spin components of T(2) and E(2):
     alpha-alpha T2 =       0.2350376754D-01 E2=     -0.8322577886D-01
     alpha-beta  T2 =       0.1321932361D+00 E2=     -0.4762301959D+00
     beta-beta   T2 =       0.2350376754D-01 E2=     -0.8322577886D-01
 ANorm=    0.1085910112D+01
 E2 =    -0.6426817536D+00 EUMP2 =    -0.22748728864298D+03
          IDoAtm=1111111
          Differentiating once with respect to electric field.
                with respect to dipole field.
          Differentiating once with respect to nuclear coordinates.
 Keep R1 ints in memory in canonical form, NReq=21425329.
          There are     1 degrees of freedom in the 1st order CPHF.  IDoFFX=0 NUNeed=     1.
 LinEq1:  Iter=  0 NonCon=     1 RMS=5.82D-03 Max=4.26D-02 NDo=     1
 AX will form     1 AO Fock derivatives at one time.
 LinEq1:  Iter=  1 NonCon=     1 RMS=9.82D-04 Max=8.90D-03 NDo=     1
 LinEq1:  Iter=  2 NonCon=     1 RMS=3.88D-04 Max=2.33D-03 NDo=     1
 LinEq1:  Iter=  3 NonCon=     1 RMS=8.83D-05 Max=5.91D-04 NDo=     1
 LinEq1:  Iter=  4 NonCon=     1 RMS=4.68D-05 Max=4.19D-04 NDo=     1
 LinEq1:  Iter=  5 NonCon=     1 RMS=1.45D-05 Max=1.58D-04 NDo=     1
 LinEq1:  Iter=  6 NonCon=     1 RMS=7.58D-06 Max=5.06D-05 NDo=     1
 LinEq1:  Iter=  7 NonCon=     1 RMS=1.83D-06 Max=1.39D-05 NDo=     1
 LinEq1:  Iter=  8 NonCon=     1 RMS=3.30D-07 Max=1.87D-06 NDo=     1
 LinEq1:  Iter=  9 NonCon=     1 RMS=8.24D-08 Max=7.01D-07 NDo=     1
 LinEq1:  Iter= 10 NonCon=     1 RMS=1.46D-08 Max=1.19D-07 NDo=     1
 LinEq1:  Iter= 11 NonCon=     1 RMS=2.46D-09 Max=2.12D-08 NDo=     1
 LinEq1:  Iter= 12 NonCon=     1 RMS=5.09D-10 Max=4.34D-09 NDo=     1
 LinEq1:  Iter= 13 NonCon=     1 RMS=1.19D-10 Max=1.18D-09 NDo=     1
 LinEq1:  Iter= 14 NonCon=     0 RMS=2.63D-11 Max=2.33D-10 NDo=     1
 Linear equations converged to 1.000D-10 1.000D-09 after    14 iterations.
 End of Minotr F.D. properties file   721 does not exist.
 End of Minotr F.D. properties file   722 does not exist.
 End of Minotr F.D. properties file   788 does not exist.

 **********************************************************************

            Population analysis using the SCF density.

 **********************************************************************

 Orbital symmetries:
       Occupied  (A) (A) (A) (A) (A) (A) (A) (A) (A) (A) (A) (A)
                 (A) (A)
       Virtual   (A) (A) (A) (A) (A) (A) (A) (A) (A) (A) (A) (A)
                 (A) (A) (A) (A) (A) (A) (A) (A) (A) (A) (A) (A)
                 (A) (A) (A) (A) (A) (A) (A) (A) (A) (A) (A) (A)
                 (A) (A) (A) (A) (A) (A) (A) (A) (A) (A) (A) (A)
                 (A) (A) (A) (A) (A) (A) (A) (A) (A) (A) (A) (A)
                 (A) (A) (A) (A) (A) (A) (A) (A) (A) (A) (A) (A)
                 (A) (A) (A) (A) (A) (A) (A) (A) (A) (A) (A) (A)
                 (A) (A) (A) (A) (A) (A) (A)
 The electronic state is 1-A.
 Alpha  occ. eigenvalues --  -20.61452 -20.61451 -20.60199  -1.44729  -1.38850
 Alpha  occ. eigenvalues --   -1.18137  -0.74516  -0.70190  -0.68176  -0.61284
 Alpha  occ. eigenvalues --   -0.57789  -0.54675  -0.48851  -0.45311
 Alpha virt. eigenvalues --    0.02494   0.05121   0.05726   0.08533   0.15823
 Alpha virt. eigenvalues --    0.17180   0.17439   0.20665   0.21126   0.23009
 Alpha virt. eigenvalues --    0.24227   0.25006   0.25070   0.26399   0.27669
 Alpha virt. eigenvalues --    0.31807   0.34827   0.35486   0.36158   0.37491
 Alpha virt. eigenvalues --    0.42765   0.45316   0.46292   0.49212   0.51186
 Alpha virt. eigenvalues --    0.53623   0.54378   0.55633   0.58256   0.64498
 Alpha virt. eigenvalues --    0.65174   0.67184   0.82824   0.84360   0.90864
 Alpha virt. eigenvalues --    0.92103   0.95043   1.08191   1.09763   1.10927
 Alpha virt. eigenvalues --    1.12388   1.15583   1.17639   1.24435   1.24928
 Alpha virt. eigenvalues --    1.30083   1.32405   1.35904   1.38858   1.44605
 Alpha virt. eigenvalues --    1.50268   1.51836   1.56749   1.62471   1.67422
 Alpha virt. eigenvalues --    1.75161   1.82240   1.96241   1.98925   1.99811
 Alpha virt. eigenvalues --    2.08108   2.11435   2.15179   2.19374   2.25119
 Alpha virt. eigenvalues --    2.36717   2.44053   2.52266   2.52548   2.60394
 Alpha virt. eigenvalues --    2.68374   2.84015   2.90320   2.95465   3.16401
 Alpha virt. eigenvalues --    3.45129   3.57780   3.59186   3.66622   3.68159
 Alpha virt. eigenvalues --    3.71108   3.73201   3.74893   3.79613   3.82220
 Alpha virt. eigenvalues --    3.83688   4.03443   4.11635   4.20653   4.30612
 Alpha virt. eigenvalues --    4.43294
          Condensed to atoms (all electrons):
               1          2          3          4          5          6
     1  O    8.094188  -0.023201   0.331146  -0.106661   0.000712   0.000228
     2  O   -0.023201   8.235326  -0.075820   0.258433  -0.052305   0.000643
     3  H    0.331146  -0.075820   0.485751   0.004960   0.001662  -0.000034
     4  H   -0.106661   0.258433   0.004960   0.435738  -0.048289  -0.000629
     5  O    0.000712  -0.052305   0.001662  -0.048289   7.850955   0.348986
     6  H    0.000228   0.000643  -0.000034  -0.000629   0.348986   0.480765
     7  H    0.001678  -0.000341   0.000197  -0.000981   0.358505  -0.039350
               7
     1  O    0.001678
     2  O   -0.000341
     3  H    0.000197
     4  H   -0.000981
     5  O    0.358505
     6  H   -0.039350
     7  H    0.498196
 Mulliken charges:
               1
     1  O   -0.298091
     2  O   -0.342735
     3  H    0.252138
     4  H    0.457428
     5  O   -0.460227
     6  H    0.209390
     7  H    0.182096
 Sum of Mulliken charges =   0.00000
 Mulliken charges with hydrogens summed into heavy atoms:
               1
     1  O   -0.045952
     2  O    0.114693
     5  O   -0.068741
 Electronic spatial extent (au):  <R**2>=            286.6530
 Charge=              0.0000 electrons
 Dipole moment (field-independent basis, Debye):
    X=              3.5529    Y=             -1.2497    Z=              1.1165  Tot=              3.9282
 Quadrupole moment (field-independent basis, Debye-Ang):
   XX=             -8.3064   YY=            -18.6562   ZZ=            -18.3093
   XY=              0.0134   XZ=             -3.9340   YZ=              0.5571
 Traceless Quadrupole moment (field-independent basis, Debye-Ang):
   XX=              6.7843   YY=             -3.5656   ZZ=             -3.2187
   XY=              0.0134   XZ=             -3.9340   YZ=              0.5571
 Octapole moment (field-independent basis, Debye-Ang**2):
  XXX=             26.4430  YYY=             -2.7367  ZZZ=              1.3810  XYY=              6.1550
  XXY=             -2.7860  XXZ=              6.1095  XZZ=             -1.8320  YZZ=             -1.2857
  YYZ=             -0.3334  XYZ=              3.9663
 Hexadecapole moment (field-independent basis, Debye-Ang**3):
 XXXX=           -153.6668 YYYY=            -47.2185 ZZZZ=            -17.5756 XXXY=              3.7848
 XXXZ=            -12.5525 YYYX=             -1.8889 YYYZ=              1.1677 ZZZX=             -4.0850
 ZZZY=              0.1424 XXYY=            -43.2329 XXZZ=            -41.7638 YYZZ=            -11.2697
 XXYZ=              2.2064 YYXZ=             -2.8596 ZZXY=              0.7799
 N-N= 7.764333053136D+01 E-N=-6.940972880477D+02  KE= 2.264335761152D+02
 Calling FoFJK, ICntrl=  10002127 FMM=F ISym2X=0 I1Cent= 0 IOpClX= 0 NMat=1 NMatS=1 NMatT=0.
 ***** Axes restored to original set *****
 -------------------------------------------------------------------
 Center     Atomic                   Forces (Hartrees/Bohr)
 Number     Number              X              Y              Z
 -------------------------------------------------------------------
      1        8          -0.007300668   -0.008746829    0.007951981
      2        8           0.006938947    0.004772384   -0.012722666
      3        1          -0.006096754    0.005288085    0.000005327
      4        1           0.008443418   -0.002141506    0.009554083
      5        8          -0.004819508    0.005765764   -0.016258729
      6        1          -0.000422958   -0.001410984    0.006893811
      7        1           0.003257524   -0.003526915    0.004576193
 -------------------------------------------------------------------
 Cartesian Forces:  Max     0.016258729 RMS     0.007146855

 GradGradGradGradGradGradGradGradGradGradGradGradGradGradGradGradGradGrad
 Berny optimization.
 FormGI is forming the generalized inverse of G from B-inverse, IUseBI=4.
 Internal  Forces:  Max     0.014730857 RMS     0.006017395
 Search for a local minimum.
 Step number   1 out of a maximum of   27
 All quantities printed in internal units (Hartrees-Bohrs-Radians)
 Mixed Optimization -- RFO/linear search
 Second derivative matrix not updated -- first step.
 The second derivative matrix:
                          R1        R2        R3        R4        R5
           R1           0.37384
           R2           0.00000   0.52354
           R3           0.00000   0.00000   0.49810
           R4           0.00000   0.00000   0.00000   0.07131
           R5           0.00000   0.00000   0.00000   0.00000   0.52923
           R6           0.00000   0.00000   0.00000   0.00000   0.00000
           A1           0.00000   0.00000   0.00000   0.00000   0.00000
           A2           0.00000   0.00000   0.00000   0.00000   0.00000
           A3           0.00000   0.00000   0.00000   0.00000   0.00000
           A4           0.00000   0.00000   0.00000   0.00000   0.00000
           A5           0.00000   0.00000   0.00000   0.00000   0.00000
           A6           0.00000   0.00000   0.00000   0.00000   0.00000
           A7           0.00000   0.00000   0.00000   0.00000   0.00000
           D1           0.00000   0.00000   0.00000   0.00000   0.00000
           D2           0.00000   0.00000   0.00000   0.00000   0.00000
           D3           0.00000   0.00000   0.00000   0.00000   0.00000
           D4           0.00000   0.00000   0.00000   0.00000   0.00000
                          R6        A1        A2        A3        A4
           R6           0.52731
           A1           0.00000   0.16000
           A2           0.00000   0.00000   0.16000
           A3           0.00000   0.00000   0.00000   0.16000
           A4           0.00000   0.00000   0.00000   0.00000   0.16000
           A5           0.00000   0.00000   0.00000   0.00000   0.00000
           A6           0.00000   0.00000   0.00000   0.00000   0.00000
           A7           0.00000   0.00000   0.00000   0.00000   0.00000
           D1           0.00000   0.00000   0.00000   0.00000   0.00000
           D2           0.00000   0.00000   0.00000   0.00000   0.00000
           D3           0.00000   0.00000   0.00000   0.00000   0.00000
           D4           0.00000   0.00000   0.00000   0.00000   0.00000
                          A5        A6        A7        D1        D2
           A5           0.16000
           A6           0.00000   0.00230
           A7           0.00000   0.00000   0.00230
           D1           0.00000   0.00000   0.00000   0.00545
           D2           0.00000   0.00000   0.00000   0.00000   0.00230
           D3           0.00000   0.00000   0.00000   0.00000   0.00000
           D4           0.00000   0.00000   0.00000   0.00000   0.00000
                          D3        D4
           D3           0.00230
           D4           0.00000   0.01396
 ITU=  0
     Eigenvalues ---    0.00230   0.00230   0.00230   0.00545   0.01151
     Eigenvalues ---    0.07131   0.15837   0.16000   0.16000   0.16000
     Eigenvalues ---    0.37384   0.49810   0.52354   0.52731   0.52923
 RFO step:  Lambda=-4.29218020D-03 EMin= 2.30000000D-03
 Linear search not attempted -- first point.
 Maximum step size (   0.300) exceeded in Quadratic search.
    -- Step size scaled by   0.582
 Iteration  1 RMS(Cart)=  0.11069769 RMS(Int)=  0.02388733
 Iteration  2 RMS(Cart)=  0.06991662 RMS(Int)=  0.00155991
 Iteration  3 RMS(Cart)=  0.00232057 RMS(Int)=  0.00019671
 Iteration  4 RMS(Cart)=  0.00000080 RMS(Int)=  0.00019671
 Variable       Old X    -DE/DX   Delta X   Delta X   Delta X     New X
                                 (Linear)    (Quad)   (Total)
    R1        2.75271   0.01473   0.00000   0.02266   0.02266   2.77537
    R2        1.84262  -0.00434   0.00000  -0.00479  -0.00479   1.83784
    R3        1.86758  -0.00570   0.00000  -0.00660  -0.00659   1.86098
    R4        3.24914   0.00503   0.00000   0.03870   0.03869   3.28783
    R5        1.83726  -0.00588   0.00000  -0.00641  -0.00641   1.83084
    R6        1.83905  -0.00583   0.00000  -0.00638  -0.00638   1.83268
    A1        1.68407   0.01253   0.00000   0.04437   0.04437   1.72845
    A2        1.69904   0.00750   0.00000   0.02655   0.02656   1.72560
    A3        2.42946  -0.00293   0.00000  -0.01072  -0.01068   2.41878
    A4        2.02375  -0.00147   0.00000  -0.00567  -0.00569   2.01806
    A5        1.79635   0.00426   0.00000   0.01480   0.01488   1.81122
    A6        3.17181  -0.00327   0.00000  -0.29117  -0.29123   2.88058
    A7        3.09312  -0.00004   0.00000   0.00312   0.00335   3.09647
    D1        1.99791  -0.00027   0.00000  -0.01628  -0.01628   1.98163
    D2       -2.96487   0.00035   0.00000   0.01420   0.01381  -2.95106
    D3        0.53754  -0.00049   0.00000  -0.02671  -0.02624   0.51129
    D4       -2.83356   0.00042   0.00000   0.00634   0.00587  -2.82769
         Item               Value     Threshold  Converged?
 Maximum Force            0.014731     0.000450     NO 
 RMS     Force            0.006017     0.000300     NO 
 Maximum Displacement     0.396182     0.001800     NO 
 RMS     Displacement     0.176837     0.001200     NO 
 Predicted change in Energy=-1.966213D-03
 GradGradGradGradGradGradGradGradGradGradGradGradGradGradGradGradGradGrad

                          Input orientation:                          
 ---------------------------------------------------------------------
 Center     Atomic      Atomic             Coordinates (Angstroms)
 Number     Number       Type             X           Y           Z
 ---------------------------------------------------------------------
      1          8           0       -2.134467    2.243576   -0.276191
      2          8           0       -0.680887    2.146810   -0.462508
      3          1           0       -2.306882    1.343621    0.049678
      4          1           0       -0.647969    2.225760   -1.443576
      5          8           0       -1.032741    2.466624   -3.123160
      6          1           0       -0.591268    2.416594   -3.984118
      7          1           0       -1.824293    2.998299   -3.300074
 ---------------------------------------------------------------------
                    Distance matrix (angstroms):
                    1          2          3          4          5
     1  O    0.000000
     2  O    1.468664   0.000000
     3  H    0.972541   1.884491   0.000000
     4  H    1.890180   0.984790   2.399994   0.000000
     5  O    3.060846   2.702805   3.598815   1.739847   0.000000
     6  H    4.019965   3.533066   4.512883   2.548330   0.968840
     7  H    3.132041   3.175562   3.767186   2.329623   0.969810
                    6          7
     6  H    0.000000
     7  H    1.525336   0.000000
 Stoichiometry    H4O3
 Framework group  C1[X(H4O3)]
 Deg. of freedom    15
 Full point group                 C1      NOp   1
 Largest Abelian subgroup         C1      NOp   1
 Largest concise Abelian subgroup C1      NOp   1
                         Standard orientation:                         
 ---------------------------------------------------------------------
 Center     Atomic      Atomic             Coordinates (Angstroms)
 Number     Number       Type             X           Y           Z
 ---------------------------------------------------------------------
      1          8           0       -1.275053   -0.611805   -0.073007
      2          8           0       -0.822424    0.785013   -0.041372
      3          1           0       -1.740315   -0.640913    0.780526
      4          1           0        0.148095    0.628829    0.017879
      5          8           0        1.736972   -0.079650    0.042332
      6          1           0        2.654012    0.197643    0.186538
      7          1           0        1.822246   -0.934024   -0.408562
 ---------------------------------------------------------------------
 Rotational constants (GHZ):          27.1805466           5.0845352           4.3516837
 Standard basis: Aug-CC-pVDZ (5D, 7F)
 There are   111 symmetry adapted cartesian basis functions of A   symmetry.
 There are   105 symmetry adapted basis functions of A   symmetry.
   105 basis functions,   173 primitive gaussians,   111 cartesian basis functions
    14 alpha electrons       14 beta electrons
       nuclear repulsion energy        78.3333830189 Hartrees.
 NAtoms=    7 NActive=    7 NUniq=    7 SFac= 1.00D+00 NAtFMM=   60 NAOKFM=F Big=F
 Integral buffers will be    131072 words long.
 Raffenetti 1 integral format.
 Two-electron integral symmetry is turned on.
 One-electron integrals computed using PRISM.
 NBasis=   105 RedAO= T EigKep=  9.22D-04  NBF=   105
 NBsUse=   105 1.00D-06 EigRej= -1.00D+00 NBFU=   105
 Initial guess from the checkpoint file:  "/gscratch/scrubbed/gds001/Gau-10125.chk"
 B after Tr=    -0.000000    0.000000   -0.000000
         Rot=    0.999808   -0.014052   -0.001445   -0.013552 Ang=  -2.24 deg.
 ExpMin= 2.97D-02 ExpMax= 1.17D+04 ExpMxC= 4.01D+02 IAcc=3 IRadAn=         5 AccDes= 0.00D+00
 Harris functional with IExCor=  205 and IRadAn=       5 diagonalized for initial guess.
 HarFok:  IExCor=  205 AccDes= 0.00D+00 IRadAn=         5 IDoV= 1 UseB2=F ITyADJ=14
 ICtDFT=  3500011 ScaDFX=  1.000000  1.000000  1.000000  1.000000
 FoFCou: FMM=F IPFlag=           0 FMFlag=      100000 FMFlg1=           0
         NFxFlg=           0 DoJE=T BraDBF=F KetDBF=T FulRan=T
         wScrn=  0.000000 ICntrl=       500 IOpCl=  0 I1Cent=   200000004 NGrid=           0
         NMat0=    1 NMatS0=      1 NMatT0=    0 NMatD0=    1 NMtDS0=    0 NMtDT0=    0
 Petite list used in FoFCou.
 Keep R1 ints in memory in canonical form, NReq=21422345.
 Requested convergence on RMS density matrix=1.00D-08 within 128 cycles.
 Requested convergence on MAX density matrix=1.00D-06.
 Requested convergence on             energy=1.00D-06.
 No special actions if energy rises.
 SCF Done:  E(RHF) =  -226.846007496     A.U. after   14 cycles
            NFock= 14  Conv=0.46D-08     -V/T= 2.0019
 ExpMin= 2.97D-02 ExpMax= 1.17D+04 ExpMxC= 4.01D+02 IAcc=3 IRadAn=         5 AccDes= 0.00D+00
 HarFok:  IExCor=  205 AccDes= 0.00D+00 IRadAn=         5 IDoV=-2 UseB2=F ITyADJ=14
 ICtDFT= 12500011 ScaDFX=  1.000000  1.000000  1.000000  1.000000
 Range of M.O.s used for correlation:     4   105
 NBasis=   105 NAE=    14 NBE=    14 NFC=     3 NFV=     0
 NROrb=    102 NOA=    11 NOB=    11 NVA=    91 NVB=    91
 Fully direct method using O(ONN) memory.
 JobTyp=1 Pass  1:  I=   4 to  14 NPSUse= 28 ParTrn=T ParDer=T DoDerP=T.
 Spin components of T(2) and E(2):
     alpha-alpha T2 =       0.2350992700D-01 E2=     -0.8314970805D-01
     alpha-beta  T2 =       0.1324966417D+00 E2=     -0.4762932019D+00
     beta-beta   T2 =       0.2350992700D-01 E2=     -0.8314970805D-01
 ANorm=    0.1086055475D+01
 E2 =    -0.6425926180D+00 EUMP2 =    -0.22748860011424D+03
          IDoAtm=1111111
          Differentiating once with respect to electric field.
                with respect to dipole field.
          Differentiating once with respect to nuclear coordinates.
 Keep R1 ints in memory in canonical form, NReq=21426605.
          There are     1 degrees of freedom in the 1st order CPHF.  IDoFFX=0 NUNeed=     1.
 LinEq1:  Iter=  0 NonCon=     1 RMS=5.85D-03 Max=4.71D-02 NDo=     1
 AX will form     1 AO Fock derivatives at one time.
 LinEq1:  Iter=  1 NonCon=     1 RMS=9.89D-04 Max=7.07D-03 NDo=     1
 LinEq1:  Iter=  2 NonCon=     1 RMS=3.93D-04 Max=2.61D-03 NDo=     1
 LinEq1:  Iter=  3 NonCon=     1 RMS=9.11D-05 Max=7.00D-04 NDo=     1
 LinEq1:  Iter=  4 NonCon=     1 RMS=4.88D-05 Max=4.91D-04 NDo=     1
 LinEq1:  Iter=  5 NonCon=     1 RMS=1.51D-05 Max=1.77D-04 NDo=     1
 LinEq1:  Iter=  6 NonCon=     1 RMS=7.84D-06 Max=6.36D-05 NDo=     1
 LinEq1:  Iter=  7 NonCon=     1 RMS=1.89D-06 Max=1.41D-05 NDo=     1
 LinEq1:  Iter=  8 NonCon=     1 RMS=3.18D-07 Max=1.74D-06 NDo=     1
 LinEq1:  Iter=  9 NonCon=     1 RMS=7.57D-08 Max=6.63D-07 NDo=     1
 LinEq1:  Iter= 10 NonCon=     1 RMS=1.43D-08 Max=1.17D-07 NDo=     1
 LinEq1:  Iter= 11 NonCon=     1 RMS=2.47D-09 Max=2.58D-08 NDo=     1
 LinEq1:  Iter= 12 NonCon=     1 RMS=5.09D-10 Max=5.53D-09 NDo=     1
 LinEq1:  Iter= 13 NonCon=     1 RMS=1.13D-10 Max=8.86D-10 NDo=     1
 LinEq1:  Iter= 14 NonCon=     0 RMS=2.63D-11 Max=2.31D-10 NDo=     1
 Linear equations converged to 1.000D-10 1.000D-09 after    14 iterations.
 End of Minotr F.D. properties file   721 does not exist.
 End of Minotr F.D. properties file   722 does not exist.
 End of Minotr F.D. properties file   788 does not exist.
 Calling FoFJK, ICntrl=  10002127 FMM=F ISym2X=0 I1Cent= 0 IOpClX= 0 NMat=1 NMatS=1 NMatT=0.
 ***** Axes restored to original set *****
 -------------------------------------------------------------------
 Center     Atomic                   Forces (Hartrees/Bohr)
 Number     Number              X              Y              Z
 -------------------------------------------------------------------
      1        8          -0.001156191   -0.001197859    0.000456756
      2        8           0.002827893    0.000270271   -0.001568636
      3        1           0.000003704    0.001480845   -0.000991368
      4        1          -0.001190999   -0.000686041    0.006333160
      5        8          -0.002893445    0.002729238   -0.011557871
      6        1           0.000656401   -0.000635897    0.003669196
      7        1           0.001752638   -0.001960558    0.003658763
 -------------------------------------------------------------------
 Cartesian Forces:  Max     0.011557871 RMS     0.003399511

 GradGradGradGradGradGradGradGradGradGradGradGradGradGradGradGradGradGrad
 Berny optimization.
 Using GEDIIS/GDIIS optimizer.
 FormGI is forming the generalized inverse of G from B-inverse, IUseBI=4.
 Internal  Forces:  Max     0.004210019 RMS     0.002040576
 Search for a local minimum.
 Step number   2 out of a maximum of   27
 All quantities printed in internal units (Hartrees-Bohrs-Radians)
 Mixed Optimization -- RFO/linear search
 Update second derivatives using D2CorX and points    1    2
 DE= -1.31D-03 DEPred=-1.97D-03 R= 6.67D-01
 TightC=F SS=  1.41D+00  RLast= 3.02D-01 DXNew= 5.0454D-01 9.0601D-01
 Trust test= 6.67D-01 RLast= 3.02D-01 DXMaxT set to 5.05D-01
 The second derivative matrix:
                          R1        R2        R3        R4        R5
           R1           0.38424
           R2           0.00490   0.52054
           R3           0.00620  -0.00388   0.49307
           R4          -0.01735   0.00561   0.00734   0.06442
           R5           0.01020  -0.00474  -0.00617   0.00781   0.52203
           R6           0.01166  -0.00500  -0.00651   0.00783  -0.00747
           A1           0.01251   0.00337   0.00422  -0.01431   0.00773
           A2           0.02182  -0.00075  -0.00115  -0.00770   0.00152
           A3           0.00306  -0.00199  -0.00257   0.00381  -0.00317
           A4           0.01237  -0.00314  -0.00413   0.00267  -0.00402
           A5          -0.01434   0.00472   0.00617  -0.00591   0.00660
           A6          -0.01725   0.00279   0.00372   0.00039   0.00275
           A7          -0.00036   0.00008   0.00010  -0.00004   0.00009
           D1           0.00400  -0.00085  -0.00112   0.00043  -0.00100
           D2           0.00370  -0.00069  -0.00091   0.00015  -0.00075
           D3           0.00097  -0.00024  -0.00031   0.00019  -0.00030
           D4           0.00093  -0.00011  -0.00015  -0.00012  -0.00008
                          R6        A1        A2        A3        A4
           R6           0.51962
           A1           0.00903   0.17384
           A2           0.00262   0.02099   0.18280
           A3          -0.00335   0.00205  -0.00072   0.15868
           A4          -0.00388   0.01062   0.00729  -0.00216   0.15955
           A5           0.00663  -0.01179  -0.00620   0.00320   0.00235
           A6           0.00228  -0.01556  -0.01346   0.00199  -0.00205
           A7           0.00008  -0.00031  -0.00024   0.00005  -0.00001
           D1          -0.00092   0.00351   0.00270  -0.00059   0.00014
           D2          -0.00067   0.00329   0.00269  -0.00048   0.00029
           D3          -0.00029   0.00083   0.00059  -0.00016  -0.00002
           D4          -0.00005   0.00085   0.00080  -0.00008   0.00017
                          A5        A6        A7        D1        D2
           A5           0.15494
           A6           0.00015   0.00842
           A7          -0.00003   0.00009   0.00230
           D1           0.00040  -0.00101  -0.00001   0.00558
           D2           0.00016  -0.00112  -0.00002   0.00017   0.00250
           D3           0.00016  -0.00018  -0.00000   0.00002   0.00003
           D4          -0.00009  -0.00041  -0.00001   0.00007   0.00008
                          D3        D4
           D3           0.00230
           D4           0.00001   0.01398
 ITU=  1  0
 Use linear search instead of GDIIS.
     Eigenvalues ---    0.00227   0.00230   0.00513   0.00570   0.01149
     Eigenvalues ---    0.05996   0.14447   0.15958   0.16000   0.20336
     Eigenvalues ---    0.38941   0.49063   0.51528   0.52494   0.52843
 RFO step:  Lambda=-9.79959573D-04 EMin= 2.27246162D-03
 Quartic linear search produced a step of  0.04644.
 Iteration  1 RMS(Cart)=  0.09424523 RMS(Int)=  0.00909970
 Iteration  2 RMS(Cart)=  0.00801871 RMS(Int)=  0.00136189
 Iteration  3 RMS(Cart)=  0.00010083 RMS(Int)=  0.00135975
 Iteration  4 RMS(Cart)=  0.00000002 RMS(Int)=  0.00135975
 Variable       Old X    -DE/DX   Delta X   Delta X   Delta X     New X
                                 (Linear)    (Quad)   (Total)
    R1        2.77537   0.00109   0.00105   0.01604   0.01709   2.79246
    R2        1.83784  -0.00170  -0.00022  -0.00618  -0.00640   1.83144
    R3        1.86098  -0.00220  -0.00031  -0.00843  -0.00874   1.85224
    R4        3.28783   0.00421   0.00180   0.08332   0.08511   3.37295
    R5        1.83084  -0.00293  -0.00030  -0.00952  -0.00982   1.82103
    R6        1.83268  -0.00317  -0.00030  -0.01001  -0.01030   1.82237
    A1        1.72845   0.00044   0.00206   0.02809   0.03015   1.75860
    A2        1.72560  -0.00225   0.00123   0.00033   0.00155   1.72715
    A3        2.41878  -0.00108  -0.00050  -0.01290  -0.01367   2.40511
    A4        2.01806  -0.00237  -0.00026  -0.01864  -0.01877   1.99929
    A5        1.81122   0.00344   0.00069   0.03147   0.03156   1.84279
    A6        2.88058   0.00068  -0.01352   0.13409   0.12076   3.00134
    A7        3.09647   0.00001   0.00016   0.03088   0.02961   3.12609
    D1        1.98163  -0.00085  -0.00076  -0.14628  -0.14703   1.83460
    D2       -2.95106  -0.00034   0.00064  -0.15632  -0.15276  -3.10382
    D3        0.51129  -0.00057  -0.00122  -0.13437  -0.13875   0.37255
    D4       -2.82769   0.00014   0.00027   0.00072   0.00422  -2.82347
         Item               Value     Threshold  Converged?
 Maximum Force            0.004210     0.000450     NO 
 RMS     Force            0.002041     0.000300     NO 
 Maximum Displacement     0.245706     0.001800     NO 
 RMS     Displacement     0.095771     0.001200     NO 
 Predicted change in Energy=-5.389117D-04
 GradGradGradGradGradGradGradGradGradGradGradGradGradGradGradGradGradGrad

                          Input orientation:                          
 ---------------------------------------------------------------------
 Center     Atomic      Atomic             Coordinates (Angstroms)
 Number     Number       Type             X           Y           Z
 ---------------------------------------------------------------------
      1          8           0       -2.094278    2.270053   -0.146169
      2          8           0       -0.659703    2.110443   -0.462617
      3          1           0       -2.342461    1.351309    0.037063
      4          1           0       -0.704883    2.220301   -1.435556
      5          8           0       -1.030127    2.473273   -3.172233
      6          1           0       -0.533944    2.477203   -3.998308
      7          1           0       -1.853111    2.938702   -3.362127
 ---------------------------------------------------------------------
                    Distance matrix (angstroms):
                    1          2          3          4          5
     1  O    0.000000
     2  O    1.477708   0.000000
     3  H    0.969154   1.912496   0.000000
     4  H    1.896158   0.980164   2.367576   0.000000
     5  O    3.214153   2.758782   3.644257   1.784888   0.000000
     6  H    4.161313   3.556886   4.563178   2.581262   0.963645
     7  H    3.293575   3.243053   3.783355   2.355038   0.964358
                    6          7
     6  H    0.000000
     7  H    1.535548   0.000000
 Stoichiometry    H4O3
 Framework group  C1[X(H4O3)]
 Deg. of freedom    15
 Full point group                 C1      NOp   1
 Largest Abelian subgroup         C1      NOp   1
 Largest concise Abelian subgroup C1      NOp   1
                         Standard orientation:                         
 ---------------------------------------------------------------------
 Center     Atomic      Atomic             Coordinates (Angstroms)
 Number     Number       Type             X           Y           Z
 ---------------------------------------------------------------------
      1          8           0       -1.370580   -0.582590   -0.088532
      2          8           0       -0.811276    0.783786   -0.026764
      3          1           0       -1.708282   -0.680867    0.814551
      4          1           0        0.141694    0.557186    0.008182
      5          8           0        1.803566   -0.093264    0.038504
      6          1           0        2.702540    0.247609    0.103800
      7          1           0        1.890363   -0.987389   -0.312200
 ---------------------------------------------------------------------
 Rotational constants (GHZ):          27.9064450           4.7107807           4.0892747
 Standard basis: Aug-CC-pVDZ (5D, 7F)
 There are   111 symmetry adapted cartesian basis functions of A   symmetry.
 There are   105 symmetry adapted basis functions of A   symmetry.
   105 basis functions,   173 primitive gaussians,   111 cartesian basis functions
    14 alpha electrons       14 beta electrons
       nuclear repulsion energy        77.2338353243 Hartrees.
 NAtoms=    7 NActive=    7 NUniq=    7 SFac= 1.00D+00 NAtFMM=   60 NAOKFM=F Big=F
 Integral buffers will be    131072 words long.
 Raffenetti 1 integral format.
 Two-electron integral symmetry is turned on.
 One-electron integrals computed using PRISM.
 NBasis=   105 RedAO= T EigKep=  9.57D-04  NBF=   105
 NBsUse=   105 1.00D-06 EigRej= -1.00D+00 NBFU=   105
 Initial guess from the checkpoint file:  "/gscratch/scrubbed/gds001/Gau-10125.chk"
 B after Tr=     0.000000    0.000000   -0.000000
         Rot=    0.999977   -0.002806   -0.001498    0.005929 Ang=  -0.77 deg.
 ExpMin= 2.97D-02 ExpMax= 1.17D+04 ExpMxC= 4.01D+02 IAcc=3 IRadAn=         5 AccDes= 0.00D+00
 Harris functional with IExCor=  205 and IRadAn=       5 diagonalized for initial guess.
 HarFok:  IExCor=  205 AccDes= 0.00D+00 IRadAn=         5 IDoV= 1 UseB2=F ITyADJ=14
 ICtDFT=  3500011 ScaDFX=  1.000000  1.000000  1.000000  1.000000
 FoFCou: FMM=F IPFlag=           0 FMFlag=      100000 FMFlg1=           0
         NFxFlg=           0 DoJE=T BraDBF=F KetDBF=T FulRan=T
         wScrn=  0.000000 ICntrl=       500 IOpCl=  0 I1Cent=   200000004 NGrid=           0
         NMat0=    1 NMatS0=      1 NMatT0=    0 NMatD0=    1 NMtDS0=    0 NMtDT0=    0
 Petite list used in FoFCou.
 Keep R1 ints in memory in canonical form, NReq=21420968.
 Requested convergence on RMS density matrix=1.00D-08 within 128 cycles.
 Requested convergence on MAX density matrix=1.00D-06.
 Requested convergence on             energy=1.00D-06.
 No special actions if energy rises.
 SCF Done:  E(RHF) =  -226.846909509     A.U. after   13 cycles
            NFock= 13  Conv=0.89D-08     -V/T= 2.0019
 ExpMin= 2.97D-02 ExpMax= 1.17D+04 ExpMxC= 4.01D+02 IAcc=3 IRadAn=         5 AccDes= 0.00D+00
 HarFok:  IExCor=  205 AccDes= 0.00D+00 IRadAn=         5 IDoV=-2 UseB2=F ITyADJ=14
 ICtDFT= 12500011 ScaDFX=  1.000000  1.000000  1.000000  1.000000
 Range of M.O.s used for correlation:     4   105
 NBasis=   105 NAE=    14 NBE=    14 NFC=     3 NFV=     0
 NROrb=    102 NOA=    11 NOB=    11 NVA=    91 NVB=    91

 **** Warning!!: The largest alpha MO coefficient is  0.10623535D+02

 Fully direct method using O(ONN) memory.
 JobTyp=1 Pass  1:  I=   4 to  14 NPSUse= 28 ParTrn=T ParDer=T DoDerP=T.
 Spin components of T(2) and E(2):
     alpha-alpha T2 =       0.2347108052D-01 E2=     -0.8296512467D-01
     alpha-beta  T2 =       0.1325963726D+00 E2=     -0.4760189188D+00
     beta-beta   T2 =       0.2347108052D-01 E2=     -0.8296512467D-01
 ANorm=    0.1086065621D+01
 E2 =    -0.6419491681D+00 EUMP2 =    -0.22748885867701D+03
          IDoAtm=1111111
          Differentiating once with respect to electric field.
                with respect to dipole field.
          Differentiating once with respect to nuclear coordinates.
 Keep R1 ints in memory in canonical form, NReq=21425285.
          There are     1 degrees of freedom in the 1st order CPHF.  IDoFFX=0 NUNeed=     1.
 LinEq1:  Iter=  0 NonCon=     1 RMS=5.86D-03 Max=4.54D-02 NDo=     1
 AX will form     1 AO Fock derivatives at one time.
 LinEq1:  Iter=  1 NonCon=     1 RMS=9.85D-04 Max=6.57D-03 NDo=     1
 LinEq1:  Iter=  2 NonCon=     1 RMS=3.95D-04 Max=2.40D-03 NDo=     1
 LinEq1:  Iter=  3 NonCon=     1 RMS=9.29D-05 Max=7.03D-04 NDo=     1
 LinEq1:  Iter=  4 NonCon=     1 RMS=5.06D-05 Max=4.86D-04 NDo=     1
 LinEq1:  Iter=  5 NonCon=     1 RMS=1.56D-05 Max=1.71D-04 NDo=     1
 LinEq1:  Iter=  6 NonCon=     1 RMS=7.94D-06 Max=6.12D-05 NDo=     1
 LinEq1:  Iter=  7 NonCon=     1 RMS=1.95D-06 Max=1.40D-05 NDo=     1
 LinEq1:  Iter=  8 NonCon=     1 RMS=3.52D-07 Max=2.26D-06 NDo=     1
 LinEq1:  Iter=  9 NonCon=     1 RMS=8.60D-08 Max=6.47D-07 NDo=     1
 LinEq1:  Iter= 10 NonCon=     1 RMS=1.46D-08 Max=1.07D-07 NDo=     1
 LinEq1:  Iter= 11 NonCon=     1 RMS=2.40D-09 Max=1.76D-08 NDo=     1
 LinEq1:  Iter= 12 NonCon=     1 RMS=4.76D-10 Max=3.18D-09 NDo=     1
 LinEq1:  Iter= 13 NonCon=     0 RMS=9.22D-11 Max=4.60D-10 NDo=     1
 Linear equations converged to 1.000D-10 1.000D-09 after    13 iterations.
 End of Minotr F.D. properties file   721 does not exist.
 End of Minotr F.D. properties file   722 does not exist.
 End of Minotr F.D. properties file   788 does not exist.
 Calling FoFJK, ICntrl=  10002127 FMM=F ISym2X=0 I1Cent= 0 IOpClX= 0 NMat=1 NMatS=1 NMatT=0.
 ***** Axes restored to original set *****
 -------------------------------------------------------------------
 Center     Atomic                   Forces (Hartrees/Bohr)
 Number     Number              X              Y              Z
 -------------------------------------------------------------------
      1        8           0.002632326    0.004773085   -0.002753988
      2        8          -0.004569507   -0.002076895    0.002766904
      3        1           0.002672779   -0.003022571    0.000174653
      4        1           0.000135369    0.000162009    0.001837617
      5        8          -0.000584176   -0.001282865   -0.000902743
      6        1           0.000780920    0.000467305   -0.000980428
      7        1          -0.001067711    0.000979932   -0.000142014
 -------------------------------------------------------------------
 Cartesian Forces:  Max     0.004773085 RMS     0.002144639

 GradGradGradGradGradGradGradGradGradGradGradGradGradGradGradGradGradGrad
 Berny optimization.
 Using GEDIIS/GDIIS optimizer.
 FormGI is forming the generalized inverse of G from B-inverse, IUseBI=4.
 Internal  Forces:  Max     0.006146660 RMS     0.002341217
 Search for a local minimum.
 Step number   3 out of a maximum of   27
 All quantities printed in internal units (Hartrees-Bohrs-Radians)
 Mixed Optimization -- RFO/linear search
 Update second derivatives using D2CorX and points    1    2    3
 DE= -2.59D-04 DEPred=-5.39D-04 R= 4.80D-01
 Trust test= 4.80D-01 RLast= 3.00D-01 DXMaxT set to 5.05D-01
 The second derivative matrix:
                          R1        R2        R3        R4        R5
           R1           0.43801
           R2          -0.01693   0.52941
           R3          -0.00065  -0.00139   0.49027
           R4          -0.02846   0.01072   0.01647   0.05046
           R5          -0.00547   0.00140  -0.00722   0.01746   0.52409
           R6          -0.00557   0.00179  -0.00731   0.01768  -0.00490
           A1           0.06991  -0.02012  -0.00531  -0.02148  -0.01086
           A2           0.04800  -0.01152  -0.00672  -0.00840  -0.00794
           A3           0.00092  -0.00128  -0.00434   0.00853  -0.00424
           A4           0.00993  -0.00230  -0.00613   0.00804  -0.00520
           A5          -0.00928   0.00297   0.00976  -0.01587   0.00862
           A6          -0.00456  -0.00266  -0.00106   0.00443  -0.00362
           A7           0.00054  -0.00030  -0.00010  -0.00005  -0.00024
           D1          -0.00345   0.00223   0.00029   0.00099   0.00157
           D2           0.00530  -0.00136  -0.00148   0.00058  -0.00152
           D3          -0.00337   0.00156   0.00058   0.00038   0.00125
           D4          -0.00121   0.00080   0.00060  -0.00070   0.00095
                          R6        A1        A2        A3        A4
           R6           0.52272
           A1          -0.01119   0.23379
           A2          -0.00756   0.04757   0.19423
           A3          -0.00433  -0.00147  -0.00301   0.15764
           A4          -0.00496   0.00660   0.00472  -0.00335   0.15823
           A5           0.00844  -0.00381  -0.00118   0.00535   0.00477
           A6          -0.00443  -0.00390  -0.00928  -0.00027  -0.00467
           A7          -0.00027   0.00060   0.00014  -0.00003  -0.00011
           D1           0.00186  -0.00417  -0.00061  -0.00004   0.00079
           D2          -0.00147   0.00478   0.00326  -0.00075  -0.00001
           D3           0.00139  -0.00360  -0.00131   0.00019   0.00040
           D4           0.00104  -0.00114   0.00006   0.00027   0.00058
                          A5        A6        A7        D1        D2
           A5           0.15055
           A6           0.00505   0.00878
           A7           0.00015   0.00024   0.00231
           D1          -0.00086  -0.00240  -0.00013   0.00657
           D2           0.00073  -0.00106   0.00000  -0.00000   0.00251
           D3          -0.00064  -0.00093  -0.00007   0.00058  -0.00007
           D4          -0.00085  -0.00050  -0.00003   0.00031   0.00006
                          D3        D4
           D3           0.00262
           D4           0.00014   0.01400
 ITU=  0  1  0
 Use linear search instead of GDIIS.
     Eigenvalues ---    0.00202   0.00233   0.00457   0.00931   0.01170
     Eigenvalues ---    0.04135   0.14792   0.15960   0.16364   0.23005
     Eigenvalues ---    0.46113   0.49159   0.52186   0.52839   0.54477
 RFO step:  Lambda=-6.00420595D-04 EMin= 2.02333832D-03
 Quartic linear search produced a step of -0.32125.
 Iteration  1 RMS(Cart)=  0.13633259 RMS(Int)=  0.01781961
 Iteration  2 RMS(Cart)=  0.05298458 RMS(Int)=  0.00245380
 Iteration  3 RMS(Cart)=  0.00096103 RMS(Int)=  0.00232067
 Iteration  4 RMS(Cart)=  0.00000197 RMS(Int)=  0.00232067
 Iteration  5 RMS(Cart)=  0.00000001 RMS(Int)=  0.00232067
 Variable       Old X    -DE/DX   Delta X   Delta X   Delta X     New X
                                 (Linear)    (Quad)   (Total)
    R1        2.79246  -0.00551  -0.00549   0.00039  -0.00511   2.78736
    R2        1.83144   0.00221   0.00206  -0.00194   0.00012   1.83155
    R3        1.85224   0.00026   0.00281  -0.00617  -0.00340   1.84884
    R4        3.37295   0.00215  -0.02734   0.08951   0.06219   3.43514
    R5        1.82103   0.00124   0.00315  -0.00598  -0.00283   1.81819
    R6        1.82237   0.00141   0.00331  -0.00623  -0.00292   1.81945
    A1        1.75860  -0.00615  -0.00969  -0.00871  -0.01840   1.74020
    A2        1.72715  -0.00295  -0.00050  -0.01751  -0.01793   1.70921
    A3        2.40511  -0.00005   0.00439  -0.01179  -0.00719   2.39792
    A4        1.99929  -0.00009   0.00603  -0.01809  -0.01222   1.98707
    A5        1.84279   0.00004  -0.01014   0.02433   0.01530   1.85809
    A6        3.00134  -0.00156  -0.03879  -0.21821  -0.25701   2.74434
    A7        3.12609  -0.00015  -0.00951  -0.03403  -0.04077   3.08531
    D1        1.83460   0.00068   0.04724  -0.04415   0.00308   1.83768
    D2       -3.10382  -0.00022   0.04908  -0.12854  -0.08398   3.09539
    D3        0.37255   0.00019   0.04457  -0.09595  -0.04574   0.32681
    D4       -2.82347   0.00041  -0.00136   0.02493   0.01805  -2.80542
         Item               Value     Threshold  Converged?
 Maximum Force            0.006147     0.000450     NO 
 RMS     Force            0.002341     0.000300     NO 
 Maximum Displacement     0.373055     0.001800     NO 
 RMS     Displacement     0.186192     0.001200     NO 
 Predicted change in Energy=-3.971471D-04
 GradGradGradGradGradGradGradGradGradGradGradGradGradGradGradGradGradGrad

                          Input orientation:                          
 ---------------------------------------------------------------------
 Center     Atomic      Atomic             Coordinates (Angstroms)
 Number     Number       Type             X           Y           Z
 ---------------------------------------------------------------------
      1          8           0       -2.097464    2.313643   -0.343581
      2          8           0       -0.635237    2.131149   -0.408618
      3          1           0       -2.366665    1.405011   -0.140356
      4          1           0       -0.536537    2.177416   -1.380892
      5          8           0       -1.047581    2.446066   -3.104567
      6          1           0       -0.626127    2.501082   -3.967746
      7          1           0       -1.908896    2.866917   -3.194188
 ---------------------------------------------------------------------
                    Distance matrix (angstroms):
                    1          2          3          4          5
     1  O    0.000000
     2  O    1.475006   0.000000
     3  H    0.969217   1.896597   0.000000
     4  H    1.879113   0.978366   2.341988   0.000000
     5  O    2.956828   2.745422   3.407393   1.817800   0.000000
     6  H    3.915933   3.578313   4.345084   2.608562   0.962147
     7  H    2.909919   3.150073   3.416520   2.376304   0.962813
                    6          7
     6  H    0.000000
     7  H    1.541986   0.000000
 Stoichiometry    H4O3
 Framework group  C1[X(H4O3)]
 Deg. of freedom    15
 Full point group                 C1      NOp   1
 Largest Abelian subgroup         C1      NOp   1
 Largest concise Abelian subgroup C1      NOp   1
                         Standard orientation:                         
 ---------------------------------------------------------------------
 Center     Atomic      Atomic             Coordinates (Angstroms)
 Number     Number       Type             X           Y           Z
 ---------------------------------------------------------------------
      1          8           0       -1.178063   -0.650867   -0.091577
      2          8           0       -0.897941    0.795712   -0.023884
      3          1           0       -1.522267   -0.792709    0.803290
      4          1           0        0.076498    0.741445    0.044850
      5          8           0        1.713772   -0.048298    0.038942
      6          1           0        2.634469    0.230375    0.058577
      7          1           0        1.709158   -0.951493   -0.294565
 ---------------------------------------------------------------------
 Rotational constants (GHZ):          25.3185026           5.3146187           4.4602808
 Standard basis: Aug-CC-pVDZ (5D, 7F)
 There are   111 symmetry adapted cartesian basis functions of A   symmetry.
 There are   105 symmetry adapted basis functions of A   symmetry.
   105 basis functions,   173 primitive gaussians,   111 cartesian basis functions
    14 alpha electrons       14 beta electrons
       nuclear repulsion energy        78.6330207049 Hartrees.
 NAtoms=    7 NActive=    7 NUniq=    7 SFac= 1.00D+00 NAtFMM=   60 NAOKFM=F Big=F
 Integral buffers will be    131072 words long.
 Raffenetti 1 integral format.
 Two-electron integral symmetry is turned on.
 One-electron integrals computed using PRISM.
 NBasis=   105 RedAO= T EigKep=  8.46D-04  NBF=   105
 NBsUse=   105 1.00D-06 EigRej= -1.00D+00 NBFU=   105
 Initial guess from the checkpoint file:  "/gscratch/scrubbed/gds001/Gau-10125.chk"
 B after Tr=    -0.000000   -0.000000    0.000000
         Rot=    0.999750   -0.003436   -0.000862   -0.022056 Ang=  -2.56 deg.
 ExpMin= 2.97D-02 ExpMax= 1.17D+04 ExpMxC= 4.01D+02 IAcc=3 IRadAn=         5 AccDes= 0.00D+00
 Harris functional with IExCor=  205 and IRadAn=       5 diagonalized for initial guess.
 HarFok:  IExCor=  205 AccDes= 0.00D+00 IRadAn=         5 IDoV= 1 UseB2=F ITyADJ=14
 ICtDFT=  3500011 ScaDFX=  1.000000  1.000000  1.000000  1.000000
 FoFCou: FMM=F IPFlag=           0 FMFlag=      100000 FMFlg1=           0
         NFxFlg=           0 DoJE=T BraDBF=F KetDBF=T FulRan=T
         wScrn=  0.000000 ICntrl=       500 IOpCl=  0 I1Cent=   200000004 NGrid=           0
         NMat0=    1 NMatS0=      1 NMatT0=    0 NMatD0=    1 NMtDS0=    0 NMtDT0=    0
 Petite list used in FoFCou.
 Keep R1 ints in memory in canonical form, NReq=21423225.
 Requested convergence on RMS density matrix=1.00D-08 within 128 cycles.
 Requested convergence on MAX density matrix=1.00D-06.
 Requested convergence on             energy=1.00D-06.
 No special actions if energy rises.
 SCF Done:  E(RHF) =  -226.847262394     A.U. after   15 cycles
            NFock= 15  Conv=0.31D-08     -V/T= 2.0019
 ExpMin= 2.97D-02 ExpMax= 1.17D+04 ExpMxC= 4.01D+02 IAcc=3 IRadAn=         5 AccDes= 0.00D+00
 HarFok:  IExCor=  205 AccDes= 0.00D+00 IRadAn=         5 IDoV=-2 UseB2=F ITyADJ=14
 ICtDFT= 12500011 ScaDFX=  1.000000  1.000000  1.000000  1.000000
 Range of M.O.s used for correlation:     4   105
 NBasis=   105 NAE=    14 NBE=    14 NFC=     3 NFV=     0
 NROrb=    102 NOA=    11 NOB=    11 NVA=    91 NVB=    91

 **** Warning!!: The largest alpha MO coefficient is  0.10305354D+02

 Fully direct method using O(ONN) memory.
 JobTyp=1 Pass  1:  I=   4 to  14 NPSUse= 28 ParTrn=T ParDer=T DoDerP=T.
 Spin components of T(2) and E(2):
     alpha-alpha T2 =       0.2345598961D-01 E2=     -0.8299499644D-01
     alpha-beta  T2 =       0.1324035592D+00 E2=     -0.4758934862D+00
     beta-beta   T2 =       0.2345598961D-01 E2=     -0.8299499644D-01
 ANorm=    0.1085962954D+01
 E2 =    -0.6418834791D+00 EUMP2 =    -0.22748914587294D+03
          IDoAtm=1111111
          Differentiating once with respect to electric field.
                with respect to dipole field.
          Differentiating once with respect to nuclear coordinates.
 Keep R1 ints in memory in canonical form, NReq=21426781.
          There are     1 degrees of freedom in the 1st order CPHF.  IDoFFX=0 NUNeed=     1.
 LinEq1:  Iter=  0 NonCon=     1 RMS=5.85D-03 Max=3.85D-02 NDo=     1
 AX will form     1 AO Fock derivatives at one time.
 LinEq1:  Iter=  1 NonCon=     1 RMS=9.91D-04 Max=6.63D-03 NDo=     1
 LinEq1:  Iter=  2 NonCon=     1 RMS=3.96D-04 Max=2.91D-03 NDo=     1
 LinEq1:  Iter=  3 NonCon=     1 RMS=9.32D-05 Max=7.25D-04 NDo=     1
 LinEq1:  Iter=  4 NonCon=     1 RMS=5.06D-05 Max=5.22D-04 NDo=     1
 LinEq1:  Iter=  5 NonCon=     1 RMS=1.57D-05 Max=1.76D-04 NDo=     1
 LinEq1:  Iter=  6 NonCon=     1 RMS=7.94D-06 Max=6.11D-05 NDo=     1
 LinEq1:  Iter=  7 NonCon=     1 RMS=1.92D-06 Max=1.43D-05 NDo=     1
 LinEq1:  Iter=  8 NonCon=     1 RMS=3.30D-07 Max=1.99D-06 NDo=     1
 LinEq1:  Iter=  9 NonCon=     1 RMS=7.86D-08 Max=5.81D-07 NDo=     1
 LinEq1:  Iter= 10 NonCon=     1 RMS=1.39D-08 Max=1.12D-07 NDo=     1
 LinEq1:  Iter= 11 NonCon=     1 RMS=2.32D-09 Max=2.17D-08 NDo=     1
 LinEq1:  Iter= 12 NonCon=     1 RMS=4.56D-10 Max=2.55D-09 NDo=     1
 LinEq1:  Iter= 13 NonCon=     0 RMS=9.46D-11 Max=7.81D-10 NDo=     1
 Linear equations converged to 1.000D-10 1.000D-09 after    13 iterations.
 End of Minotr F.D. properties file   721 does not exist.
 End of Minotr F.D. properties file   722 does not exist.
 End of Minotr F.D. properties file   788 does not exist.
 Calling FoFJK, ICntrl=  10002127 FMM=F ISym2X=0 I1Cent= 0 IOpClX= 0 NMat=1 NMatS=1 NMatT=0.
 ***** Axes restored to original set *****
 -------------------------------------------------------------------
 Center     Atomic                   Forces (Hartrees/Bohr)
 Number     Number              X              Y              Z
 -------------------------------------------------------------------
      1        8           0.002212125    0.002725736   -0.000594049
      2        8          -0.003042565   -0.001204879    0.001957474
      3        1           0.000485714   -0.002212356    0.000868031
      4        1          -0.000377285    0.001180726   -0.000264259
      5        8           0.002798541   -0.003256916    0.000627534
      6        1          -0.000106385    0.001283649   -0.002668278
      7        1          -0.001970145    0.001484040    0.000073548
 -------------------------------------------------------------------
 Cartesian Forces:  Max     0.003256916 RMS     0.001804862

 GradGradGradGradGradGradGradGradGradGradGradGradGradGradGradGradGradGrad
 Berny optimization.
 Using GEDIIS/GDIIS optimizer.
 FormGI is forming the generalized inverse of G from B-inverse, IUseBI=4.
 Internal  Forces:  Max     0.002600292 RMS     0.001651159
 Search for a local minimum.
 Step number   4 out of a maximum of   27
 All quantities printed in internal units (Hartrees-Bohrs-Radians)
 Mixed Optimization -- RFO/linear search
 Update second derivatives using D2CorX and points    1    2    3    4
 DE= -2.87D-04 DEPred=-3.97D-04 R= 7.23D-01
 TightC=F SS=  1.41D+00  RLast= 2.87D-01 DXNew= 8.4853D-01 8.6018D-01
 Trust test= 7.23D-01 RLast= 2.87D-01 DXMaxT set to 8.49D-01
 The second derivative matrix:
                          R1        R2        R3        R4        R5
           R1           0.42832
           R2          -0.02011   0.53573
           R3          -0.00831   0.00810   0.50231
           R4          -0.02484   0.00916   0.01915   0.03885
           R5          -0.01295   0.01108   0.00536   0.01929   0.53722
           R6          -0.01315   0.01149   0.00527   0.01953   0.00824
           A1           0.05702  -0.01995  -0.00922  -0.01567  -0.01433
           A2           0.02747  -0.00013   0.00599  -0.00564   0.00556
           A3          -0.00493   0.00576   0.00464   0.01026   0.00514
           A4           0.01138  -0.00403  -0.01079   0.01356  -0.00948
           A5          -0.00258  -0.00345   0.00310  -0.02070   0.00134
           A6          -0.01039   0.00357   0.00711   0.00589   0.00475
           A7          -0.00103   0.00131   0.00211  -0.00014   0.00203
           D1          -0.00597   0.00510   0.00448   0.00000   0.00586
           D2           0.00463  -0.00166  -0.00210   0.00083  -0.00214
           D3          -0.00311   0.00211   0.00125   0.00063   0.00201
           D4          -0.00251   0.00207   0.00274  -0.00185   0.00306
                          R6        A1        A2        A3        A4
           R6           0.53589
           A1          -0.01477   0.21873
           A2           0.00585   0.03075   0.19515
           A3           0.00506  -0.00450   0.00626   0.16434
           A4          -0.00920   0.00582   0.00133  -0.00661   0.15657
           A5           0.00115   0.00123  -0.00731   0.00031   0.00896
           A6           0.00390  -0.00706  -0.00169   0.00574  -0.00785
           A7           0.00199  -0.00023   0.00205   0.00160  -0.00060
           D1           0.00616  -0.00522   0.00319   0.00305   0.00037
           D2          -0.00210   0.00386   0.00167  -0.00123   0.00010
           D3           0.00216  -0.00316   0.00023   0.00074   0.00011
           D4           0.00315  -0.00160   0.00166   0.00182   0.00071
                          A5        A6        A7        D1        D2
           A5           0.15327
           A6           0.00062   0.01471
           A7          -0.00121   0.00168   0.00268
           D1          -0.00370   0.00017   0.00053   0.00775
           D2           0.00126  -0.00150  -0.00013  -0.00023   0.00247
           D3          -0.00109  -0.00059   0.00009   0.00093  -0.00007
           D4          -0.00244   0.00084   0.00026   0.00077  -0.00005
                          D3        D4
           D3           0.00268
           D4           0.00032   0.01413
 ITU=  1  0  1  0
 Use linear search instead of GDIIS.
     Eigenvalues ---    0.00199   0.00239   0.00700   0.01029   0.01406
     Eigenvalues ---    0.03006   0.14811   0.16305   0.17974   0.22131
     Eigenvalues ---    0.43926   0.50105   0.52433   0.52842   0.57409
 RFO step:  Lambda=-2.82709202D-04 EMin= 1.98932871D-03
 Quartic linear search produced a step of -0.21839.
 Iteration  1 RMS(Cart)=  0.06411077 RMS(Int)=  0.00164678
 Iteration  2 RMS(Cart)=  0.00161933 RMS(Int)=  0.00056618
 Iteration  3 RMS(Cart)=  0.00000251 RMS(Int)=  0.00056618
 Iteration  4 RMS(Cart)=  0.00000000 RMS(Int)=  0.00056618
 Variable       Old X    -DE/DX   Delta X   Delta X   Delta X     New X
                                 (Linear)    (Quad)   (Total)
    R1        2.78736  -0.00260   0.00112  -0.00114  -0.00002   2.78733
    R2        1.83155   0.00212  -0.00003   0.00153   0.00151   1.83306
    R3        1.84884   0.00228   0.00074  -0.00056   0.00019   1.84903
    R4        3.43514   0.00159  -0.01358   0.05951   0.04593   3.48107
    R5        1.81819   0.00242   0.00062  -0.00015   0.00046   1.81866
    R6        1.81945   0.00240   0.00064  -0.00018   0.00046   1.81991
    A1        1.74020  -0.00200   0.00402  -0.00599  -0.00197   1.73824
    A2        1.70921   0.00160   0.00392   0.00470   0.00862   1.71783
    A3        2.39792   0.00189   0.00157  -0.00135  -0.00003   2.39790
    A4        1.98707  -0.00115   0.00267  -0.01495  -0.01241   1.97466
    A5        1.85809  -0.00079  -0.00334   0.00600   0.00220   1.86029
    A6        2.74434   0.00153   0.05613  -0.01419   0.04190   2.78624
    A7        3.08531   0.00045   0.00890   0.05949   0.06775   3.15306
    D1        1.83768   0.00080  -0.00067   0.09187   0.09120   1.92888
    D2        3.09539  -0.00037   0.01834  -0.11679  -0.09734   2.99805
    D3        0.32681   0.00008   0.00999  -0.08118  -0.07255   0.25426
    D4       -2.80542   0.00058  -0.00394   0.04436   0.04170  -2.76372
         Item               Value     Threshold  Converged?
 Maximum Force            0.002600     0.000450     NO 
 RMS     Force            0.001651     0.000300     NO 
 Maximum Displacement     0.149995     0.001800     NO 
 RMS     Displacement     0.063901     0.001200     NO 
 Predicted change in Energy=-1.691567D-04
 GradGradGradGradGradGradGradGradGradGradGradGradGradGradGradGradGradGrad

                          Input orientation:                          
 ---------------------------------------------------------------------
 Center     Atomic      Atomic             Coordinates (Angstroms)
 Number     Number       Type             X           Y           Z
 ---------------------------------------------------------------------
      1          8           0       -2.096794    2.311913   -0.303569
      2          8           0       -0.642917    2.089310   -0.414467
      3          1           0       -2.379432    1.416260   -0.060982
      4          1           0       -0.556413    2.187512   -1.384141
      5          8           0       -1.037077    2.448534   -3.143166
      6          1           0       -0.593328    2.550447   -3.991046
      7          1           0       -1.912546    2.837308   -3.242577
 ---------------------------------------------------------------------
                    Distance matrix (angstroms):
                    1          2          3          4          5
     1  O    0.000000
     2  O    1.474994   0.000000
     3  H    0.970014   1.895635   0.000000
     4  H    1.885705   0.978465   2.380961   0.000000
     5  O    3.033971   2.780325   3.516726   1.842103   0.000000
     6  H    3.989335   3.606525   4.463401   2.632307   0.962393
     7  H    2.991280   3.188991   3.515666   2.390631   0.963054
                    6          7
     6  H    0.000000
     7  H    1.543643   0.000000
 Stoichiometry    H4O3
 Framework group  C1[X(H4O3)]
 Deg. of freedom    15
 Full point group                 C1      NOp   1
 Largest Abelian subgroup         C1      NOp   1
 Largest concise Abelian subgroup C1      NOp   1
                         Standard orientation:                         
 ---------------------------------------------------------------------
 Center     Atomic      Atomic             Coordinates (Angstroms)
 Number     Number       Type             X           Y           Z
 ---------------------------------------------------------------------
      1          8           0       -1.220945   -0.640602   -0.095765
      2          8           0       -0.893152    0.795356   -0.017118
      3          1           0       -1.610519   -0.765895    0.783700
      4          1           0        0.081958    0.718601    0.008610
      5          8           0        1.752976   -0.055953    0.041915
      6          1           0        2.669568    0.235574    0.009195
      7          1           0        1.747961   -0.978693   -0.233762
 ---------------------------------------------------------------------
 Rotational constants (GHZ):          25.6872921           5.0884219           4.3060012
 Standard basis: Aug-CC-pVDZ (5D, 7F)
 There are   111 symmetry adapted cartesian basis functions of A   symmetry.
 There are   105 symmetry adapted basis functions of A   symmetry.
   105 basis functions,   173 primitive gaussians,   111 cartesian basis functions
    14 alpha electrons       14 beta electrons
       nuclear repulsion energy        78.0048233428 Hartrees.
 NAtoms=    7 NActive=    7 NUniq=    7 SFac= 1.00D+00 NAtFMM=   60 NAOKFM=F Big=F
 Integral buffers will be    131072 words long.
 Raffenetti 1 integral format.
 Two-electron integral symmetry is turned on.
 One-electron integrals computed using PRISM.
 NBasis=   105 RedAO= T EigKep=  8.86D-04  NBF=   105
 NBsUse=   105 1.00D-06 EigRej= -1.00D+00 NBFU=   105
 Initial guess from the checkpoint file:  "/gscratch/scrubbed/gds001/Gau-10125.chk"
 B after Tr=     0.000000    0.000000   -0.000000
         Rot=    0.999989    0.001580    0.000632    0.004296 Ang=   0.53 deg.
 ExpMin= 2.97D-02 ExpMax= 1.17D+04 ExpMxC= 4.01D+02 IAcc=3 IRadAn=         5 AccDes= 0.00D+00
 Harris functional with IExCor=  205 and IRadAn=       5 diagonalized for initial guess.
 HarFok:  IExCor=  205 AccDes= 0.00D+00 IRadAn=         5 IDoV= 1 UseB2=F ITyADJ=14
 ICtDFT=  3500011 ScaDFX=  1.000000  1.000000  1.000000  1.000000
 FoFCou: FMM=F IPFlag=           0 FMFlag=      100000 FMFlg1=           0
         NFxFlg=           0 DoJE=T BraDBF=F KetDBF=T FulRan=T
         wScrn=  0.000000 ICntrl=       500 IOpCl=  0 I1Cent=   200000004 NGrid=           0
         NMat0=    1 NMatS0=      1 NMatT0=    0 NMatD0=    1 NMtDS0=    0 NMtDT0=    0
 Petite list used in FoFCou.
 Keep R1 ints in memory in canonical form, NReq=21422477.
 Requested convergence on RMS density matrix=1.00D-08 within 128 cycles.
 Requested convergence on MAX density matrix=1.00D-06.
 Requested convergence on             energy=1.00D-06.
 No special actions if energy rises.
 SCF Done:  E(RHF) =  -226.847682650     A.U. after   13 cycles
            NFock= 13  Conv=0.47D-08     -V/T= 2.0019
 ExpMin= 2.97D-02 ExpMax= 1.17D+04 ExpMxC= 4.01D+02 IAcc=3 IRadAn=         5 AccDes= 0.00D+00
 HarFok:  IExCor=  205 AccDes= 0.00D+00 IRadAn=         5 IDoV=-2 UseB2=F ITyADJ=14
 ICtDFT= 12500011 ScaDFX=  1.000000  1.000000  1.000000  1.000000
 Range of M.O.s used for correlation:     4   105
 NBasis=   105 NAE=    14 NBE=    14 NFC=     3 NFV=     0
 NROrb=    102 NOA=    11 NOB=    11 NVA=    91 NVB=    91

 **** Warning!!: The largest alpha MO coefficient is  0.10059170D+02

 Fully direct method using O(ONN) memory.
 JobTyp=1 Pass  1:  I=   4 to  14 NPSUse= 28 ParTrn=T ParDer=T DoDerP=T.
 Spin components of T(2) and E(2):
     alpha-alpha T2 =       0.2344184055D-01 E2=     -0.8292444136D-01
     alpha-beta  T2 =       0.1324351688D+00 E2=     -0.4758033064D+00
     beta-beta   T2 =       0.2344184055D-01 E2=     -0.8292444136D-01
 ANorm=    0.1085964479D+01
 E2 =    -0.6416521891D+00 EUMP2 =    -0.22748933483932D+03
          IDoAtm=1111111
          Differentiating once with respect to electric field.
                with respect to dipole field.
          Differentiating once with respect to nuclear coordinates.
 Keep R1 ints in memory in canonical form, NReq=21426429.
          There are     1 degrees of freedom in the 1st order CPHF.  IDoFFX=0 NUNeed=     1.
 LinEq1:  Iter=  0 NonCon=     1 RMS=5.84D-03 Max=3.96D-02 NDo=     1
 AX will form     1 AO Fock derivatives at one time.
 LinEq1:  Iter=  1 NonCon=     1 RMS=9.86D-04 Max=6.60D-03 NDo=     1
 LinEq1:  Iter=  2 NonCon=     1 RMS=3.94D-04 Max=2.46D-03 NDo=     1
 LinEq1:  Iter=  3 NonCon=     1 RMS=9.11D-05 Max=7.21D-04 NDo=     1
 LinEq1:  Iter=  4 NonCon=     1 RMS=4.92D-05 Max=4.96D-04 NDo=     1
 LinEq1:  Iter=  5 NonCon=     1 RMS=1.55D-05 Max=1.75D-04 NDo=     1
 LinEq1:  Iter=  6 NonCon=     1 RMS=7.92D-06 Max=6.19D-05 NDo=     1
 LinEq1:  Iter=  7 NonCon=     1 RMS=1.91D-06 Max=1.37D-05 NDo=     1
 LinEq1:  Iter=  8 NonCon=     1 RMS=3.19D-07 Max=1.80D-06 NDo=     1
 LinEq1:  Iter=  9 NonCon=     1 RMS=7.53D-08 Max=5.63D-07 NDo=     1
 LinEq1:  Iter= 10 NonCon=     1 RMS=1.37D-08 Max=1.01D-07 NDo=     1
 LinEq1:  Iter= 11 NonCon=     1 RMS=2.29D-09 Max=1.84D-08 NDo=     1
 LinEq1:  Iter= 12 NonCon=     1 RMS=4.53D-10 Max=2.93D-09 NDo=     1
 LinEq1:  Iter= 13 NonCon=     0 RMS=8.89D-11 Max=6.51D-10 NDo=     1
 Linear equations converged to 1.000D-10 1.000D-09 after    13 iterations.
 End of Minotr F.D. properties file   721 does not exist.
 End of Minotr F.D. properties file   722 does not exist.
 End of Minotr F.D. properties file   788 does not exist.
 Calling FoFJK, ICntrl=  10002127 FMM=F ISym2X=0 I1Cent= 0 IOpClX= 0 NMat=1 NMatS=1 NMatT=0.
 ***** Axes restored to original set *****
 -------------------------------------------------------------------
 Center     Atomic                   Forces (Hartrees/Bohr)
 Number     Number              X              Y              Z
 -------------------------------------------------------------------
      1        8           0.002029996    0.001945727   -0.001150100
      2        8          -0.002027518   -0.000379580    0.002001202
      3        1           0.000866572   -0.001510501    0.000239765
      4        1          -0.001413848    0.000204220   -0.000314302
      5        8           0.002639194   -0.003213221    0.002160967
      6        1          -0.000440455    0.001446998   -0.002389798
      7        1          -0.001653941    0.001506357   -0.000547733
 -------------------------------------------------------------------
 Cartesian Forces:  Max     0.003213221 RMS     0.001661643

 GradGradGradGradGradGradGradGradGradGradGradGradGradGradGradGradGradGrad
 Berny optimization.
 Using GEDIIS/GDIIS optimizer.
 FormGI is forming the generalized inverse of G from B-inverse, IUseBI=4.
 Internal  Forces:  Max     0.002858016 RMS     0.001395675
 Search for a local minimum.
 Step number   5 out of a maximum of   27
 All quantities printed in internal units (Hartrees-Bohrs-Radians)
 Mixed Optimization -- RFO/linear search
 Update second derivatives using D2CorX and points    2    3    4    5
 DE= -1.89D-04 DEPred=-1.69D-04 R= 1.12D+00
 TightC=F SS=  1.41D+00  RLast= 1.83D-01 DXNew= 1.4270D+00 5.4900D-01
 Trust test= 1.12D+00 RLast= 1.83D-01 DXMaxT set to 8.49D-01
 The second derivative matrix:
                          R1        R2        R3        R4        R5
           R1           0.41076
           R2          -0.00694   0.52731
           R3           0.00181   0.00176   0.49799
           R4          -0.00231  -0.00071   0.01036   0.03369
           R5          -0.00370   0.00227  -0.00058   0.00332   0.53362
           R6          -0.00436   0.00249  -0.00076   0.00284   0.00508
           A1           0.03996  -0.00792   0.00042   0.00284  -0.00402
           A2           0.03507  -0.00098   0.00566   0.00371  -0.00316
           A3          -0.00156   0.00145   0.00205   0.00064   0.00539
           A4          -0.00443   0.00375  -0.00436   0.02162  -0.00021
           A5          -0.00296   0.00126   0.00571  -0.00678  -0.00184
           A6          -0.00359   0.00127   0.00557   0.00346   0.00119
           A7           0.00177   0.00106   0.00183   0.00227  -0.00092
           D1          -0.00028   0.00254   0.00245  -0.00002   0.00070
           D2           0.00295  -0.00030  -0.00110   0.00378  -0.00183
           D3          -0.00524   0.00215   0.00149  -0.00083   0.00391
           D4           0.00187  -0.00093   0.00045  -0.00607   0.00081
                          R6        A1        A2        A3        A4
           R6           0.53323
           A1          -0.00469   0.20292
           A2          -0.00409   0.03580   0.20706
           A3           0.00573   0.00021  -0.00017   0.16623
           A4           0.00024  -0.00813  -0.00238  -0.00182   0.14891
           A5          -0.00285  -0.00175   0.00504  -0.00403   0.00274
           A6           0.00016  -0.00105   0.00272   0.00375  -0.00509
           A7          -0.00130   0.00155   0.00627  -0.00071  -0.00104
           D1           0.00060  -0.00074   0.00621  -0.00028   0.00166
           D2          -0.00193   0.00202   0.00291  -0.00146  -0.00173
           D3           0.00425  -0.00450  -0.00304   0.00232   0.00008
           D4           0.00096   0.00265   0.00050   0.00105   0.00365
                          A5        A6        A7        D1        D2
           A5           0.16242
           A6           0.00378   0.01445
           A7           0.00287   0.00256   0.00407
           D1           0.00139   0.00051   0.00169   0.00798
           D2           0.00211  -0.00059   0.00044   0.00057   0.00238
           D3          -0.00380  -0.00084  -0.00087  -0.00002  -0.00054
           D4          -0.00198  -0.00035  -0.00026  -0.00046   0.00030
                          D3        D4
           D3           0.00323
           D4           0.00069   0.01324
 ITU=  1  1  0  1  0
 Use linear search instead of GDIIS.
[...]
 005245,-0.00000848,0.00002113,0.00007012,0.00001313,-0.00008850,-0.000
 04363,0.00004487,0.00000649,0.00002133,0.00005702,-0.00009206,0.000047
 52,0.00007858,0.00002805,0.00001156,-0.00002167,0.00000101,-0.00005445
 ,-0.00018294,0.00006201,0.00031537,0.00022157,0.00004313,0.00017159,-0
 .00012755,-0.00001686,-0.00011678,0.00001264,-0.00004680,-0.00029385,-
 0.00019249,0.00014723,0.00012302,0.00000916,-0.00002526,-0.00002415,0.
 00025962,-0.00016345,-0.00017520,0.09358740,-0.40701214,-0.85334135,0.
 18761710,0.40806540,-0.12632493,-0.03626617,0.07966134,-0.03002888,0.0
 7507293,-0.03228742,0.06274131,-0.00653284,-0.00715963,-0.02880844,0.0
 0700869,-0.00684972,0.04487253,0.02981012,-0.01724999,-0.15848043,-0.0
 5455198,0.32928654,-0.14802493,-0.02367895,0.03745039,-0.01962427,0.07
 653967,0.44213208,0.78661724,-0.39964802,-0.07203849,-0.02094561,0.010
 26213,-0.36807686,-0.76477998,-0.20388686,-0.39973124,0.08296772,0.033
 86633,0.00799154,0.00054971,0.16756207,0.39040594,-0.08224319,-0.00322
 704,-0.00218449,-0.01062187,-0.01493861,0.00173446,-0.01680638,0.00267
 868,-0.00165759,0.00247666,0.01559866,-0.00308402,0.00430241,-0.002037
 70,-0.00058733,-0.01285621,0.01359801,0.00155804,-0.00125627,0.0019111
 3,0.00198958,0.00968547,0.00850443,-0.00057564,-0.00200157,-0.03581962
 ,0.01507693,0.11449207,0.00236898,-0.00092851,-0.00120865,0.02608323,-
 0.01357606,-0.11293182,0.00072630,-0.00025926,0.00097956,0.00062528,0.
 00039959,-0.00033206,-0.00144137,-0.00028074,0.00008417,0.00020320,-0.
 00003013,-0.00017674,-0.00041291,-0.00018528,-0.00005030,-0.00037387,0
 .00008819,-0.00015326,0.00044454,0.00021541,0.00018004,0.00012785,-0.0
 0025623,-0.00018252,-0.00058327,0.00035242,-0.00062832,-0.00028565,-0.
 00066198,-0.00064859,0.00123480,0.00038982,-0.00100892,-0.00048613,0.0
 0020856,-0.00016295,-0.00051331,-0.00004448,0.00173371,0.00069189,0.00
 050974,-0.00113119,0.00001776,0.00020512,0.00010859,0.00005151,0.00001
 578,-0.00018479,-0.00007786,-0.00012631,-0.00000867,-0.00014259,0.0000
 3736,0.00028927,0.00002731,-0.00017247,-0.00025592,0.00003146,-0.00005
 805,0.00006919,0.00002052,-0.00010113,-0.00000451,-0.00012678,0.000050
 43,-0.00003752,-0.00002686,0.00016757,0.00001653,0.00031565,-0.0000804
 9,0.00037027,-0.00064672,0.00012001,-0.00033818,0.00002054,-0.00000078
 ,-0.00008658,0.00014364,0.00005314,-0.00015288,-0.00006302,-0.00004052
 ,0.00001677,-0.00008658,0.00002759,0.00031997,-0.00019645,-0.00036530,
 0.00013080,0.00016136,0.00036133,-0.00022263,-0.00028625,0.00030289,-0
 .00002957,-0.00086596,-0.00015317,0.00012869,0.00053181,0.00004791,-0.
 00009371,-0.00017230,0.00011650,-0.00124955,0.00027217,-0.00004204,-0.
 00038568,0.00009241,-0.00009835,0.00002052,0.00042811,0.00049483,-0.00
 033848,0.00050651,0.00013705,0.00002671,-0.00007819,-0.00048395,0.0002
 2210,-0.00067835,0.00020669,0.00029059,0.00027090,-0.00010140,0.000464
 10,0.00024506,-0.00007949,-0.00007578,-0.00003545,-0.00017373,-0.00058
 924,0.00102175,-0.00024604,0.00122144,0.00079363,0.00027141,-0.0002720
 6,-0.00173271,-0.00025957,0.00008059,-0.00053176,0.00012151,-0.0004037
 2,-0.00105036,0.00024030,0.00108712,-0.00010985,0.00010286,-0.00000545
 ,0.00160930,-0.00023047,-0.00170793,0.03897471,-0.04428469,-0.09771371
 ,0.00424952,0.04202531,-0.05623180,-0.02868005,0.01420673,0.04321711,0
 .15538746,-0.00101218,0.04682854,-0.01297566,0.00375084,0.02741807,-0.
 07108353,0.00993934,0.07240456,0.24513795,-0.08071096,-1.01981742,0.00
 633621,0.02038808,-0.00252009,-0.00934772,0.01152639,-0.01132968,-0.00
 412526,0.03552110,0.05421246,-0.03303635,-0.00564340,-0.00311209,-0.00
 082096,-0.02850217,-0.05340617,-0.01520239,-0.03374691,0.00999216,0.00
 314850,0.00091843,-0.00001443,0.01145172,0.03117266,-0.00863037,-0.017
 30307,0.00984291,-0.04562203,-0.11690317,-0.01411395,-0.16357376,0.007
 29122,-0.00142870,0.00061379,0.12449022,0.00989285,-0.00334657,0.00380
 771,-0.01224359,-0.07085238,0.07140546,-0.00335574,0.00231596,0.001732
 30,0.00348051,0.06932044,0.08183014,-0.01808315,-0.02576842,-0.2935303
 2,0.09271440,0.95102842,0.00306048,0.00296346,-0.00097936,0.22150502,-
 0.07900367,-0.92166355,0.00035545,-0.00027305,0.00020361,-0.00008699,0
 .00019193,-0.00024377,-0.00030268,-0.00005554,-0.00015389,0.00405046,0
 .00035149,-0.00579872,-0.01001770,0.00016588,-0.00012798,0.00057703,0.
 00029257,-0.00003798,0.00134903,0.00005148,0.00003181,0.00001266,-0.00
 129226,0.00079537,-0.00398075,0.00488857,-0.01287663,-0.00046361,-0.00
 011815,0.00013952,0.00071048,-0.00004038,-0.00478549,-0.00046776,-0.00
 014085,-0.00007899,-0.00672043,0.00028657,0.00181743,0.01037693,0.0065
 6964,-0.00875020,0.00001363,0.00009030,0.00015360,-0.00040802,0.000070
 05,-0.00061210,0.00000513,0.00000686,-0.00003148,-0.00208805,-0.000108
 45,0.00092672,0.00144787,0.00115243,-0.00144091,0.00075915,-0.00000252
 ,0.00000741,-0.00030804,-0.00045841,-0.00003276,-0.00081882,-0.0000453
 6,-0.00004134,0.00000808,0.00111096,0.00010075,0.00278917,0.00181668,0
 .00927134,-0.01016462,-0.00260468,-0.00863333,-0.00013451,0.00013898,-
 0.00006230,0.00027601,-0.00001237,-0.00068883,0.00003507,-0.00001785,-
 0.00004997,-0.00145871,-0.00028737,0.00188053,0.00047582,-0.00740450,0
 .00636321,0.00056334,0.00843104,-0.00636824,0.00030314,0.00002972,0.00
 031828,0.00003852,-0.00041309,0.00170488,0.00014310,0.00010186,0.00017
 375,0.00046240,0.00198292,-0.00799333,0.00455357,-0.00525867,-0.001994
 70,0.00027029,0.00018332,0.00024298,-0.00577103,-0.00028044,0.00013985
 ,-0.00009000,0.00009526,-0.00021138,-0.00034309,-0.00006269,-0.0000006
 3,-0.00009722,0.00240053,0.00166643,0.00260054,-0.00692009,0.00294406,
 0.00360779,0.00139349,-0.00067207,-0.00084793,0.00337394,-0.00386625,0
 .00080439,-0.00015542,-0.00047372,0.00104026,0.00010654,0.00187324,-0.
 00022975,-0.00012011,-0.00023905,-0.00474388,0.00205900,-0.00631506,-0
 .00485998,0.00287689,0.00529451,0.00044083,0.00006318,-0.00107440,0.00
 754813,-0.00483008,0.00093448,0.00072206,0.00037574,0.00065285,0.00037
 982,-0.00089042,-0.00316532,-0.00018472,0.00009744,-0.00004308,0.00303
 672,-0.00034975,0.00087946,0.00017094,0.00013220,-0.00043143,-0.001362
 98,0.00047032,0.00120358,0.00422481,-0.00166809,-0.01620591,0.00046316
 ,-0.00003969,0.00015466,0.00011202,0.00027665,0.00006856,-0.00062795,0
 .00019308,0.00000811,-0.00054783,-0.00001470,-0.00007353,-0.00000339,-
 0.00016207,-0.00042976,-0.00003042,-0.00104745,-0.00011083,-0.00008465
 ,-0.00003294,-0.00007295,-0.00034636,0.00031995,0.00129175,-0.00024535
 ,-0.00000814,-0.00054211,-0.00221834,-0.00029318,-0.00183254,0.0000513
 0,-0.00000466,-0.00006847,0.00443093,0.00009589,0.00001682,-0.00004672
 ,-0.00017836,-0.00051234,0.00130269,-0.00002796,-0.00000582,-0.0000426
 7,0.00129283,-0.00048801,0.00150742,-0.00059056,-0.00139061,-0.0038587
 2,0.00156569,0.01774966,0.00005830,-0.00001504,-0.00007771,0.00378552,
 0.00005960,-0.01836183,-0.00042181,-0.00003064,0.00578428,-0.00101798,
 -0.00056064,-0.00205752,0.00015778,0.00039227,0.00033547,-0.00064109,0
 .00107929,0.00233325,-0.42097164,-0.00029675,0.00018127,0.00260641,-0.
 00003043,0.00033398,-0.00099513,0.00027340,0.00026072,-0.00027076,-0.0
 0080486,-0.00078191,0.00022333,0.19509647,-0.54287422,0.00070757,-0.00
 072850,-0.00493254,0.00049001,0.00025027,0.00036141,-0.00021878,-0.000
 39311,0.00009317,0.00024100,0.00001026,0.00078569,0.22560791,0.1736463
 6,-0.24343523,-0.00006917,0.00055681,-0.00002501,0.00026063,0.00014633
 ,0.00002987,0.00005482,0.00002024,-0.00024995,-0.00008000,-0.00055463,
 0.00004483,-0.04386886,0.02256608,0.00963302,0.07298414,0.00030792,0.0
 0024292,-0.00151596,-0.00010037,-0.00002221,0.00077093,-0.00007448,-0.
 00013172,0.00003742,0.00029881,0.00012181,-0.00056057,0.12556793,0.442
 84369,-0.35250162,-0.08960454,-0.40170507,-0.00011181,-0.00000675,0.00
 028107,0.00015970,-0.00025367,-0.00006532,0.00000698,0.00005175,0.0000
 1111,0.00031068,-0.00001332,-0.00048565,-0.04886380,-0.27375848,0.1840
 7766,0.00425822,0.29922888,-0.16778223,-0.00026416,-0.00095152,-0.0057
 0856,0.00001168,0.00064839,0.00092979,-0.00021113,-0.00042416,0.000444
 38,-0.00129744,-0.00170706,-0.00387060,0.46676358,-0.21680390,-0.23646
 074,-0.02928156,-0.03639527,0.04424002,-0.43572097,-0.00032612,-0.0019
 8141,0.00022358,0.00009422,-0.00017393,0.00012267,-0.00024586,0.000372
 00,0.00103644,-0.00048080,0.00164945,-0.00068246,-0.32154467,0.1000364
 8,0.17971635,0.06686971,-0.04134942,-0.02524841,0.25563352,-0.05855318
 ,-0.00108960,0.00279337,0.00811465,-0.00088808,-0.00003219,-0.00297046
 ,0.00027664,0.00058767,-0.00113455,-0.00189409,-0.00126985,0.00178044,
 -0.18313960,0.09854827,0.06304984,-0.01369098,0.05454092,-0.01603664,0
 .20042572,-0.15516818,-0.05280328,-0.03790475,0.00628504,0.00656537,0.
 00224704,0.00086518,-0.00452896,0.05055820,-0.00669997,-0.01889442,-0.
 85023665,-0.01316812,-0.00307233,0.00333245,-0.14700255,-1.23520857,0.
 01365639,-0.00126752,-0.00893091,-1.67056289,0.60048978,5.77675697,0.0
 0250111,-0.00204086,0.00153166,0.00323042,0.00215795,0.00025759,-0.002
 48831,0.00220305,-0.00034632,-0.00018273,-0.00272568,-0.00051548,-0.00
 143694,0.00079245,0.00051384,0.00105457,-0.00042249,0.00006479,-0.0021
 6049,-0.00169894,-0.00045553,-0.00003118,0.00010077,0.00068435,-0.0182
 1672,0.00264318,0.01381880,0.80000094,0.15714046,1.66272853,-0.0032613
 9,0.00039817,0.00115367,-0.77109699,0.00562993,-0.00246476,-0.00226828
 ,0.15525309,1.23762153,-0.60116337,-0.00096312,0.00018495,0.00171520,-
 0.15690898,-1.22607777,-0.02226061,0.00080272,0.00604705,1.69776440,-0
 .60236626,-5.75181684,-0.00182688,0.00269623,-0.00015590,-1.69379069,0
 .60719463,5.71072477,0.00325810,-0.00059090,0.00233388,-0.00294660,0.0
 0116295,-0.00437340,0.00009627,-0.00054929,0.00003551,-0.00634910,-0.0
 0719751,0.01450633,0.05440011,-0.00091515,-0.00015729,-0.00170298,0.00
 015268,0.00174631,0.00474140,0.00004839,0.00019404,0.00008499,-0.00426
 265,-0.00779052,-0.01039568,-0.00880449,0.00317995,0.00473245,0.000516
 64,0.00352184,-0.00544772,0.00076502,-0.01120721,-0.00006599,-0.001172
 43,-0.00046929,0.01228298,-0.00641120,0.02293324,-0.04120513,0.0128147
 7,-0.00380928,0.00083237,0.00015015,0.00057725,-0.00024050,-0.00027069
 ,-0.00247840,-0.00000109,-0.00015661,-0.00003562,0.00358171,0.00211445
 ,0.00665903,-0.00542502,-0.00800205,-0.00167196,0.00074621,0.00018049,
 -0.00006688,0.00009107,0.00052934,-0.00026322,-0.00163923,-0.00001626,
 -0.00005563,0.00001954,0.00161970,-0.00060930,0.00347299,-0.00847994,-
 0.00502041,0.00530303,0.00684203,0.00549916,-0.00012789,0.00011792,0.0
 0077481,0.00009318,-0.00035128,-0.00068205,0.00002929,0.00002871,0.000
 03572,0.00213589,0.00176490,-0.00042104,-0.00240802,0.00578470,-0.0023
 2064,-0.00177799,-0.00748912,0.00313091,-0.00102828,0.00025335,-0.0016
 1422,-0.00036579,-0.00002002,0.00077218,-0.00007701,0.00003790,-0.0000
 1646,-0.00465845,0.00207215,-0.00105158,-0.04303380,0.02178326,0.03137
 537,0.00050632,-0.00067535,0.00205555,0.04865701,-0.00021524,-0.000457
 76,-0.00013471,0.00049308,-0.00030826,0.00027589,0.00002144,0.00002459
 ,0.00020092,-0.00062989,-0.00086412,-0.00140464,0.02445918,0.00784790,
 -0.01181582,-0.00067729,0.00051627,0.00014417,-0.02345129,-0.00675863,
 0.00069804,-0.00061245,0.00305138,-0.00079205,-0.00017077,-0.00366442,
 0.00010552,-0.00003362,0.00029586,0.00167082,-0.00083189,0.01268872,0.
 03111083,-0.01132718,-0.00864866,-0.00127231,0.00024173,-0.00051771,-0
 .03152083,0.01273418,-0.00320517,-0.00595378,0.03433611,0.06164185,-0.
 01584689,-0.03308318,-0.00514410,0.00360909,-0.00055133,-0.00063695,-0
 .01307680,-0.00083077,-0.00012113,-0.00003017,-0.00168642,-0.01565774,
 0.00169745,-0.00036552,-0.00162277,-0.02324942,0.00881032,0.07318103,0
 .00463649,-0.03305381,0.01390910,-0.00020883,-0.00004880,-0.00020969,-
 0.00463876,-0.03348803,-0.06111819,0.03505644,0.00008327,-0.00008329,-
 0.00000612,0.03304530,0.06142477,0.01412061,0.03605918,0.00268605,-0.0
 0012312,0.00023268,0.00006287,-0.01442459,-0.03615817,-0.00370903,-0.0
 0047292,0.00010461,0.00104040,0.00936776,0.00258589,0.02241492,0.00006
 873,0.00005591,0.00008272,-0.01075538,0.00043568,-0.00009107,-0.000176
 78,0.00246231,0.01599824,-0.00839500,-0.00002132,0.00006937,0.00000018
 ,-0.00250060,-0.01588904,-0.00041092,0.00069644,-0.00114778,0.02279281
 ,-0.00871450,-0.07366913,-0.00009642,-0.00014486,-0.00028847,-0.023818
 06,0.00869787,0.07413699,0.00001659,-0.00131669,0.00377486,0.00025765,
 0.00024629,-0.00092554,0.00043960,0.00049495,0.00003122,-0.00077070,-0
 .00052335,0.00157393,2.98060086,0.00043408,0.00050456,-0.00078815,-0.0
 0015796,0.00040744,-0.00022117,-0.00017674,-0.00021626,-0.00000016,0.0
 0080409,-0.00121199,-0.00043827,-1.28255720,0.28972104,-0.00052448,0.0
 0118262,-0.00166892,-0.00074099,0.00033630,-0.00088672,-0.00032226,-0.
 00042628,-0.00005855,0.00245530,-0.00093205,0.00269166,-2.54535693,0.0
 8545117,0.59027513,-0.00001358,-0.00025304,-0.00011203,-0.00007251,-0.
 00013766,0.00035182,-0.00001007,0.00009319,0.00013907,0.00054619,0.000
 26875,-0.00105347,0.13231529,-0.30388870,0.28140049,-0.13044881,-0.000
 31353,0.00003741,-0.00061869,-0.00004806,-0.00015958,0.00014298,-0.000
 01576,-0.00003740,-0.00007085,-0.00019782,0.00030298,0.00030080,-0.360
 89017,-0.64133195,0.79136456,0.35513676,0.62557536,0.00009593,-0.00005
 478,0.00047032,0.00011153,-0.00011836,0.00012240,0.00005372,0.00003400
 ,0.00006537,-0.00031194,0.00048835,-0.00020737,0.31193485,0.74764041,-
 0.38072053,-0.33315906,-0.79456203,0.39495587,-0.00182185,0.00073415,-
 0.00212849,0.00012366,-0.00012852,-0.00007955,-0.00028715,-0.00028459,
 0.00017409,0.00201633,-0.00012146,0.00101212,-3.11285929,1.58554244,2.
 26308887,-0.00231652,0.00632857,0.02127495,3.11514483,-0.00057353,-0.0
 0085343,-0.00035947,-0.00010181,-0.00038394,0.00003451,0.00027113,-0.0
 0003900,-0.00006287,-0.00085208,0.00082151,-0.00039747,1.64454618,0.35
 212718,-0.87697634,-0.05121931,0.01561316,0.04657241,-1.59207059,-0.36
 728549,0.00086829,-0.00443476,0.00642722,0.00184613,-0.00051627,0.0028
 1234,0.00109013,0.00164499,0.00124175,-0.00186335,0.00031742,-0.001515
 90,2.22896760,-0.83164383,-0.20963206,0.05243318,0.00344322,-0.0146860
 8,-2.28334200,0.83118922,0.21535272,-0.42363251,2.35055996,4.41731713,
 -1.07149838,-2.63494707,-0.18038162,0.08275627,-0.02018438,0.01679942,
 -0.06042002,-0.00669554,-0.01370084,0.00171986,0.01745312,-0.00215524,
 -0.00139330,0.00419337,-0.01074754,-0.00552199,0.00644795,0.01216510,0
 .33643964,-2.32851115,1.05583904,-0.02234430,-0.00985131,0.00584149,-0
 .31147578,-2.34889242,-4.40006858,2.63447538,0.00636522,0.01258431,-0.
 00810732,2.33981690,4.38634394,1.06959749,2.63131519,0.18923275,-0.008
 37024,-0.00787370,0.00236798,-1.06183174,-2.62599736,-0.19044068,0.005
 06406,-0.00171089,-0.00078609,-0.00030256,-0.00071695,0.00100920,-0.00
 332565,0.00235770,0.00063545,-0.00129900,0.00508069,-0.00327640,-0.001
 00842,-0.00357963,0.00328208,-0.00259109,-0.00167348,0.00071163,0.0022
 4500,0.00016542,-0.00066589,0.00423485,-0.00118950,0.00154678,-0.00284
 100,0.00003218,-0.00365638,-0.00083655,-0.00009280,-0.00061853,-0.0008
 9180,0.00139302,0.00219830,-0.00088338,0.00042980,-0.00063060,0.000211
 07,-0.00026937,0.00005700,0.00065328,-0.00021665,0.00015372,-0.0001296
 0,-0.00006273,0.00017318,0.03812612,-0.00024389,0.00016677,0.00056102,
 0.00013513,-0.00021159,0.00003253,0.00002143,-0.00013189,-0.00046389,-
 0.00005530,-0.00002870,-0.00008902,-0.01540621,0.00672655,-0.00183673,
 0.00033646,0.00011454,0.00103930,-0.00079585,-0.00004584,0.00070210,0.
 00037212,-0.00014305,0.00002616,0.00000508,0.00072426,-0.03332046,-0.0
 0223110,0.00836771,-0.00002549,-0.00007255,-0.00009174,0.00001382,0.00
 001026,-0.00004481,0.00002848,0.00005046,0.00002635,0.00002235,0.00001
 515,0.00007927,0.00231418,-0.00510516,0.00455387,-0.00227032,-0.000108
 77,-0.00019712,-0.00011704,0.00007135,-0.00004216,-0.00001908,-0.00000
 641,0.00015788,0.00015571,0.00002229,0.00003129,0.00004106,-0.00596114
 ,-0.01085104,0.01341672,0.00581321,0.01061644,0.00015567,-0.00017735,-
 0.00016410,-0.00017475,0.00010704,-0.00002719,-0.00002162,0.00004599,0
 .00021876,0.00005077,0.00000843,-0.00003899,0.00500191,0.01276767,-0.0
 0644824,-0.00540113,-0.01340719,0.00669483,0.00028144,-0.00051079,0.00
 036836,0.00008574,0.00006979,0.00005241,0.00002432,0.00051878,-0.00021
 104,-0.00002959,0.00005459,0.00008205,-0.04029170,0.02065400,0.0288357
 5,-0.00008302,0.00016948,0.00038915,0.04001282,0.00029997,-0.00024092,
 -0.00068372,-0.00026081,0.00024344,0.00004363,0.00020403,0.00040271,0.
 00061905,-0.00006227,-0.00005401,-0.00009495,0.02148630,0.00432991,-0.
 01110343,-0.00071137,0.00028472,0.00065541,-0.02095585,-0.00496585,0.0
 0074040,0.00046889,0.00039922,-0.00093075,0.00036252,-0.00005612,0.000
 30729,-0.00069601,-0.00061723,-0.00004369,-0.00005203,-0.00015545,0.02
 856524,-0.01057721,-0.00256938,0.00087819,-0.00007017,-0.00023507,-0.0
 2951669,0.01056401,0.00323404,0.00007670,0.00078419,0.00044526,0.00004
 267,0.00096612,-0.00136382,0.00061112,0.00022806,-0.00040500,-0.000551
 53,-0.00030049,0.00013803,0.00009927,-0.00004947,-0.00025635,0.0005041
 7,-0.00009344,-0.00040503,-0.00041748,-0.00016044,0.00073740,0.0001788
 5,-0.00060037,-0.00017348,-0.00007811,0.00011940,-0.00015250,-0.000219
 90,-0.00038670,-0.00019990,-0.00031369,-0.00014095,-0.00007184,0.00000
 280,0.00042068,0.00037260,-0.00033331,-0.00006445,-0.00051562,0.000087
 88,0.00010698,0.00003272,0.00009117,-0.00009398,0.00000845,-0.00013409
 ,0.00008478,0.00025806,-0.00010008,0.00021672,0.00039771,0.00003296,0.
 00000381,-0.00003215,0.00013834,0.00011449,-0.00002060,-0.00006211,0.0
 0005497,0.00021804,0.00040331,0.00000241,0.00000898,-0.00002411,-0.000
 20418,0.00025404,-0.00016508,0.00036906,-0.00042358,0.00014605,0.00000
 031,-0.00035512,-0.00005098,-0.00003397,-0.00012087,-0.00103958,-0.000
 45870,-0.00105364,0.00010234,-0.00080687,0.00031255,0.00047247,0.00035
 765,0.00000387,0.00020040,0.00021218,0.00009986,-0.00129004,-0.0006498
 0,0.00111924,0.22595703,-0.00004967,0.00028855,0.00071798,0.00027738,0
 .00047126,-0.00009122,-0.00009234,-0.00013835,0.00008445,-0.00006090,-
 0.00195981,0.00105210,0.66280279,2.46932317,-0.00019198,0.00053931,0.0
 0011301,-0.00010616,0.00029916,-0.00007846,-0.00015394,-0.00017511,-0.
 00011536,0.00075693,-0.00086887,0.00225177,-1.67434324,-2.72774636,1.3
 1628498,-0.00003305,0.00018840,0.00115822,-0.00003129,-0.00027161,-0.0
 0043559,0.00000308,0.00002491,-0.00003590,0.00069004,0.00058280,0.0001
 9175,0.72118412,-1.19952427,1.00038065,-0.71323304,-0.00001015,-0.0000
 6996,-0.00199062,-0.00010122,-0.00031902,-0.00018641,-0.00004836,-0.00
 005711,-0.00010787,0.00092100,0.00104218,-0.00002300,-1.20379879,-2.55
 623261,3.00294104,1.19634562,2.54237667,0.00004985,-0.00005738,-0.0003
 1199,-0.00000012,-0.00020416,-0.00059436,0.00004526,0.00010130,0.00004
 452,-0.00007005,0.00095102,-0.00069928,1.00370060,2.99797332,-1.293059
 77,-1.00512632,-2.98926725,1.29057508,-0.00080185,0.00012180,-0.001193
 01,-0.00032257,-0.00007220,0.00009983,-0.00011729,-0.00013392,0.000122
 44,0.00066287,0.00009932,-0.00020140,-0.94662634,0.53664700,0.67365774
 ,-0.00857987,0.00669190,0.00140077,0.95578504,-0.00015167,-0.00058137,
 0.00058305,-0.00026876,-0.00018011,0.00012540,0.00019857,0.00008562,0.
 00009899,-0.00096123,0.00045718,-0.00090580,0.54188284,0.08824778,-0.2
 7498917,0.00265414,0.01325985,-0.00949684,-0.54335389,-0.10128894,0.00
 009369,-0.00165922,0.00290704,0.00069483,-0.00014111,0.00066288,0.0003
 9447,0.00051266,0.00066617,-0.00027092,0.00005946,0.00040072,0.6691071
 3,-0.27199027,-0.02539618,0.00386718,-0.01136590,0.00404582,-0.6738863
 9,0.28458437,0.01671354\\@


 WHEN YOU'VE SEEN ONE NUCLEAR WAR YOU'VE SEEN THEM ALL.
 Job cpu time:       0 days  9 hours  3 minutes  7.7 seconds.
 Elapsed time:       0 days  0 hours 19 minutes 59.7 seconds.
 File lengths (MBytes):  RWF=    812 Int=      0 D2E=      0 Chk=     44 Scr=      8
 Normal termination of Gaussian 16 at Tue Dec  7 15:49:23 2021.
