 Entering Gaussian System, Link 0=g16
 Input=h2o2_h2o_mp2_avtz_opt_anharm.gjf
 Output=h2o2_h2o_mp2_avtz_opt_anharm.log
 Initial command:
 /sw/contrib/gaussian/g16/A03/g16/l1.exe "/gscratch/scrubbed/gds001/Gau-12557.inp" -scrdir="/gscratch/scrubbed/gds001/"
 Entering Link 1 = /sw/contrib/gaussian/g16/A03/g16/l1.exe PID=     12558.
  
 Copyright (c) 1988,1990,1992,1993,1995,1998,2003,2009,2016,
            Gaussian, Inc.  All Rights Reserved.
  
 This is part of the Gaussian(R) 16 program.  It is based on
 the Gaussian(R) 09 system (copyright 2009, Gaussian, Inc.),
 the Gaussian(R) 03 system (copyright 2003, Gaussian, Inc.),
 the Gaussian(R) 98 system (copyright 1998, Gaussian, Inc.),
 the Gaussian(R) 94 system (copyright 1995, Gaussian, Inc.),
 the Gaussian 92(TM) system (copyright 1992, Gaussian, Inc.),
 the Gaussian 90(TM) system (copyright 1990, Gaussian, Inc.),
 the Gaussian 88(TM) system (copyright 1988, Gaussian, Inc.),
 the Gaussian 86(TM) system (copyright 1986, Carnegie Mellon
 University), and the Gaussian 82(TM) system (copyright 1983,
 Carnegie Mellon University). Gaussian is a federally registered
 trademark of Gaussian, Inc.
  
 This software contains proprietary and confidential information,
 including trade secrets, belonging to Gaussian, Inc.
  
 This software is provided under written license and may be
 used, copied, transmitted, or stored only in accord with that
 written license.
  
 The following legend is applicable only to US Government
 contracts under FAR:
  
                    RESTRICTED RIGHTS LEGEND
  
 Use, reproduction and disclosure by the US Government is
 subject to restrictions as set forth in subparagraphs (a)
 and (c) of the Commercial Computer Software - Restricted
 Rights clause in FAR 52.227-19.
  
 Gaussian, Inc.
 340 Quinnipiac St., Bldg. 40, Wallingford CT 06492
  
  
 ---------------------------------------------------------------
 Warning -- This program may not be used in any manner that
 competes with the business of Gaussian, Inc. or will provide
 assistance to any competitor of Gaussian, Inc.  The licensee
 of this program is prohibited from giving any competitor of
 Gaussian, Inc. access to this program.  By using this program,
 the user acknowledges that Gaussian, Inc. is engaged in the
 business of creating and licensing software in the field of
 computational chemistry and represents and warrants to the
 licensee that it is not a competitor of Gaussian, Inc. and that
 it will not use this program in any manner prohibited above.
 ---------------------------------------------------------------
  

 Cite this work as:
 Gaussian 16, Revision A.03,
 M. J. Frisch, G. W. Trucks, H. B. Schlegel, G. E. Scuseria, 
 M. A. Robb, J. R. Cheeseman, G. Scalmani, V. Barone, 
 G. A. Petersson, H. Nakatsuji, X. Li, M. Caricato, A. V. Marenich, 
 J. Bloino, B. G. Janesko, R. Gomperts, B. Mennucci, H. P. Hratchian, 
 J. V. Ortiz, A. F. Izmaylov, J. L. Sonnenberg, D. Williams-Young, 
 F. Ding, F. Lipparini, F. Egidi, J. Goings, B. Peng, A. Petrone, 
 T. Henderson, D. Ranasinghe, V. G. Zakrzewski, J. Gao, N. Rega, 
 G. Zheng, W. Liang, M. Hada, M. Ehara, K. Toyota, R. Fukuda, 
 J. Hasegawa, M. Ishida, T. Nakajima, Y. Honda, O. Kitao, H. Nakai, 
 T. Vreven, K. Throssell, J. A. Montgomery, Jr., J. E. Peralta, 
 F. Ogliaro, M. J. Bearpark, J. J. Heyd, E. N. Brothers, K. N. Kudin, 
 V. N. Staroverov, T. A. Keith, R. Kobayashi, J. Normand, 
 K. Raghavachari, A. P. Rendell, J. C. Burant, S. S. Iyengar, 
 J. Tomasi, M. Cossi, J. M. Millam, M. Klene, C. Adamo, R. Cammi, 
 J. W. Ochterski, R. L. Martin, K. Morokuma, O. Farkas, 
 J. B. Foresman, and D. J. Fox, Gaussian, Inc., Wallingford CT, 2016.
 
 ******************************************
 Gaussian 16:  ES64L-G16RevA.03 25-Dec-2016
                 7-Dec-2021 
 ******************************************
 %nprocshared=28
 Will use up to   28 processors via shared memory.
 %mem=41GB
 ----------------------------------------------
 # mp2/aug-cc-pVTZ opt freq=(vibrot,anharmonic)
 ----------------------------------------------
 1/18=20,19=15,38=1,80=1/1,3;
 2/9=110,12=2,17=6,18=5,40=1/2;
 3/5=16,6=1,7=10,11=9,25=1,30=1,71=1/1,2,3;
 4//1;
 5/5=2,38=5/2;
 8/6=4,10=1/1;
 9/15=2,16=-3/6;
 10/5=1/2;
 6/7=2,8=2,9=2,10=2/1;
 7/12=2/1,2,3,16;
 1/18=20,19=15,80=1/3(2);
 2/9=110/2;
 99//99;
 2/9=110/2;
 3/5=16,6=1,7=10,11=9,25=1,30=1,71=1/1,2,3;
 4/5=5,16=3,69=1/1;
 5/5=2,38=5/2;
 8/6=4,10=1/1;
 9/15=2,16=-3/6;
 10/5=1/2;
 7/12=2/1,2,3,16;
 1/18=20,19=15,80=1/3(-8);
 2/9=110/2;
 6/7=2,8=2,9=2,10=2/1;
 99//99;
 ----
 bleh
 ----
 Symbolic Z-matrix:
 Charge =  0 Multiplicity = 1
 O                    -2.12577   2.22539  -0.12302 
 O                    -0.72701   2.11231  -0.51361 
 H                    -2.22437   1.3106    0.19978 
 H                    -0.85762   2.22839  -1.48632 
 O                    -1.0256    2.48748  -3.17774 
 H                    -0.49562   2.41499  -3.98959 
 H                    -1.76251   3.06213  -3.44946 
 
 Add virtual bond connecting atoms O5         and H4         Dist= 3.25D+00.

 GradGradGradGradGradGradGradGradGradGradGradGradGradGradGradGradGradGrad
 Berny optimization.
 Initialization pass.
                           ----------------------------
                           !    Initial Parameters    !
                           ! (Angstroms and Degrees)  !
 --------------------------                            --------------------------
 ! Name  Definition              Value          Derivative Info.                !
 --------------------------------------------------------------------------------
 ! R1    R(1,2)                  1.4567         estimate D2E/DX2                !
 ! R2    R(1,3)                  0.9751         estimate D2E/DX2                !
 ! R3    R(2,4)                  0.9883         estimate D2E/DX2                !
 ! R4    R(4,5)                  1.7194         estimate D2E/DX2                !
 ! R5    R(5,6)                  0.9722         estimate D2E/DX2                !
 ! R6    R(5,7)                  0.9732         estimate D2E/DX2                !
 ! A1    A(2,1,3)               96.4904         estimate D2E/DX2                !
 ! A2    A(1,2,4)               97.3479         estimate D2E/DX2                !
 ! A3    A(4,5,6)              139.1979         estimate D2E/DX2                !
 ! A4    A(4,5,7)              115.9525         estimate D2E/DX2                !
 ! A5    A(6,5,7)              102.9232         estimate D2E/DX2                !
 ! A6    L(2,4,5,1,-1)         181.7314         estimate D2E/DX2                !
 ! A7    L(2,4,5,1,-2)         177.2228         estimate D2E/DX2                !
 ! D1    D(3,1,2,4)            114.4718         estimate D2E/DX2                !
 ! D2    D(1,2,5,6)           -169.8743         estimate D2E/DX2                !
 ! D3    D(1,2,5,7)             30.7987         estimate D2E/DX2                !
 ! D4    D(4,5,6,7)           -162.3511         estimate D2E/DX2                !
 --------------------------------------------------------------------------------
 Trust Radius=3.00D-01 FncErr=1.00D-07 GrdErr=1.00D-07 EigMax=2.50D+02 EigMin=1.00D-04
 Number of steps in this run=     27 maximum allowed number of steps=    100.
 GradGradGradGradGradGradGradGradGradGradGradGradGradGradGradGradGradGrad

                          Input orientation:                          
 ---------------------------------------------------------------------
 Center     Atomic      Atomic             Coordinates (Angstroms)
 Number     Number       Type             X           Y           Z
 ---------------------------------------------------------------------
      1          8           0       -2.125773    2.225392   -0.123016
      2          8           0       -0.727010    2.112308   -0.513610
      3          1           0       -2.224374    1.310598    0.199781
      4          1           0       -0.857620    2.228390   -1.486319
      5          8           0       -1.025600    2.487479   -3.177736
      6          1           0       -0.495623    2.414986   -3.989591
      7          1           0       -1.762508    3.062130   -3.449457
 ---------------------------------------------------------------------
                    Distance matrix (angstroms):
                    1          2          3          4          5
     1  O    0.000000
     2  O    1.456671   0.000000
     3  H    0.975074   1.842217   0.000000
     4  H    1.861939   0.988279   2.356543   0.000000
     5  O    3.257358   2.706931   3.772232   1.719371   0.000000
     6  H    4.200444   3.496797   4.664664   2.536184   0.972234
     7  H    3.449246   3.254783   4.074080   2.316864   0.973185
                    6          7
     6  H    0.000000
     7  H    1.521689   0.000000
 Stoichiometry    H4O3
 Framework group  C1[X(H4O3)]
 Deg. of freedom    15
 Full point group                 C1      NOp   1
 Largest Abelian subgroup         C1      NOp   1
 Largest concise Abelian subgroup C1      NOp   1
                         Standard orientation:                         
 ---------------------------------------------------------------------
 Center     Atomic      Atomic             Coordinates (Angstroms)
 Number     Number       Type             X           Y           Z
 ---------------------------------------------------------------------
      1          8           0       -1.417377   -0.554088   -0.066536
      2          8           0       -0.761811    0.746665   -0.053698
      3          1           0       -1.874922   -0.455363    0.788844
      4          1           0        0.168578    0.418718    0.005657
      5          8           0        1.806559   -0.102464    0.045952
      6          1           0        2.693783    0.268984    0.187725
      7          1           0        1.993584   -0.953238   -0.387976
 ---------------------------------------------------------------------
 Rotational constants (GHZ):          31.0217271           4.6238178           4.0846134
 Standard basis: Aug-CC-pVTZ (5D, 7F)
 There are   265 symmetry adapted cartesian basis functions of A   symmetry.
 There are   230 symmetry adapted basis functions of A   symmetry.
   230 basis functions,   324 primitive gaussians,   265 cartesian basis functions
    14 alpha electrons       14 beta electrons
       nuclear repulsion energy        77.6433305314 Hartrees.
 NAtoms=    7 NActive=    7 NUniq=    7 SFac= 1.00D+00 NAtFMM=   60 NAOKFM=F Big=F
 Integral buffers will be    131072 words long.
 Raffenetti 1 integral format.
 Two-electron integral symmetry is turned on.
 One-electron integrals computed using PRISM.
 NBasis=   230 RedAO= T EigKep=  1.74D-04  NBF=   230
 NBsUse=   230 1.00D-06 EigRej= -1.00D+00 NBFU=   230
 ExpMin= 2.53D-02 ExpMax= 1.53D+04 ExpMxC= 5.22D+02 IAcc=3 IRadAn=         5 AccDes= 0.00D+00
 Harris functional with IExCor=  205 and IRadAn=       5 diagonalized for initial guess.
 HarFok:  IExCor=  205 AccDes= 0.00D+00 IRadAn=         5 IDoV= 1 UseB2=F ITyADJ=14
 ICtDFT=  3500011 ScaDFX=  1.000000  1.000000  1.000000  1.000000
 FoFCou: FMM=F IPFlag=           0 FMFlag=      100000 FMFlg1=           0
         NFxFlg=           0 DoJE=T BraDBF=F KetDBF=T FulRan=T
         wScrn=  0.000000 ICntrl=       500 IOpCl=  0 I1Cent=   200000004 NGrid=           0
         NMat0=    1 NMatS0=      1 NMatT0=    0 NMatD0=    1 NMtDS0=    0 NMtDT0=    0
 Petite list used in FoFCou.
 Keep R1 ints in memory in canonical form, NReq=366787689.
 Requested convergence on RMS density matrix=1.00D-08 within 128 cycles.
 Requested convergence on MAX density matrix=1.00D-06.
 Requested convergence on             energy=1.00D-06.
 No special actions if energy rises.
 SCF Done:  E(RHF) =  -226.900684215     A.U. after   12 cycles
            NFock= 12  Conv=0.84D-08     -V/T= 2.0019
 ExpMin= 2.53D-02 ExpMax= 1.53D+04 ExpMxC= 5.22D+02 IAcc=3 IRadAn=         5 AccDes= 0.00D+00
 HarFok:  IExCor=  205 AccDes= 0.00D+00 IRadAn=         5 IDoV=-2 UseB2=F ITyADJ=14
 ICtDFT= 12500011 ScaDFX=  1.000000  1.000000  1.000000  1.000000
 Range of M.O.s used for correlation:     4   230
 NBasis=   230 NAE=    14 NBE=    14 NFC=     3 NFV=     0
 NROrb=    227 NOA=    11 NOB=    11 NVA=   216 NVB=   216

 **** Warning!!: The largest alpha MO coefficient is  0.16054816D+02

 Fully direct method using O(ONN) memory.
 JobTyp=1 Pass  1:  I=   4 to  14 NPSUse= 28 ParTrn=T ParDer=T DoDerP=T.
 Spin components of T(2) and E(2):
     alpha-alpha T2 =       0.2475354600D-01 E2=     -0.9715042812D-01
     alpha-beta  T2 =       0.1423381897D+00 E2=     -0.5901202326D+00
     beta-beta   T2 =       0.2475354600D-01 E2=     -0.9715042812D-01
 ANorm=    0.1091716667D+01
 E2 =    -0.7844210889D+00 EUMP2 =    -0.22768510530379D+03
          IDoAtm=1111111
          Differentiating once with respect to electric field.
                with respect to dipole field.
          Differentiating once with respect to nuclear coordinates.
 Keep R1 ints in memory in canonical form, NReq=366793112.
          There are     1 degrees of freedom in the 1st order CPHF.  IDoFFX=0 NUNeed=     1.
 LinEq1:  Iter=  0 NonCon=     1 RMS=3.46D-03 Max=2.88D-02 NDo=     1
 AX will form     1 AO Fock derivatives at one time.
 LinEq1:  Iter=  1 NonCon=     1 RMS=4.02D-04 Max=3.69D-03 NDo=     1
 LinEq1:  Iter=  2 NonCon=     1 RMS=1.60D-04 Max=1.55D-03 NDo=     1
 LinEq1:  Iter=  3 NonCon=     1 RMS=5.06D-05 Max=6.67D-04 NDo=     1
 LinEq1:  Iter=  4 NonCon=     1 RMS=1.83D-05 Max=2.71D-04 NDo=     1
 LinEq1:  Iter=  5 NonCon=     1 RMS=9.63D-06 Max=1.64D-04 NDo=     1
 LinEq1:  Iter=  6 NonCon=     1 RMS=2.89D-06 Max=2.81D-05 NDo=     1
 LinEq1:  Iter=  7 NonCon=     1 RMS=1.07D-06 Max=9.89D-06 NDo=     1
 LinEq1:  Iter=  8 NonCon=     1 RMS=4.08D-07 Max=4.02D-06 NDo=     1
 LinEq1:  Iter=  9 NonCon=     1 RMS=9.64D-08 Max=9.51D-07 NDo=     1
 LinEq1:  Iter= 10 NonCon=     1 RMS=1.61D-08 Max=1.37D-07 NDo=     1
 LinEq1:  Iter= 11 NonCon=     1 RMS=3.67D-09 Max=5.29D-08 NDo=     1
 LinEq1:  Iter= 12 NonCon=     1 RMS=8.37D-10 Max=1.08D-08 NDo=     1
 LinEq1:  Iter= 13 NonCon=     1 RMS=1.67D-10 Max=2.66D-09 NDo=     1
 LinEq1:  Iter= 14 NonCon=     0 RMS=3.76D-11 Max=5.08D-10 NDo=     1
 Linear equations converged to 1.000D-10 1.000D-09 after    14 iterations.
 End of Minotr F.D. properties file   721 does not exist.
 End of Minotr F.D. properties file   722 does not exist.
 End of Minotr F.D. properties file   788 does not exist.

 **********************************************************************

            Population analysis using the SCF density.

 **********************************************************************

 Orbital symmetries:
       Occupied  (A) (A) (A) (A) (A) (A) (A) (A) (A) (A) (A) (A)
                 (A) (A)
       Virtual   (A) (A) (A) (A) (A) (A) (A) (A) (A) (A) (A) (A)
                 (A) (A) (A) (A) (A) (A) (A) (A) (A) (A) (A) (A)
                 (A) (A) (A) (A) (A) (A) (A) (A) (A) (A) (A) (A)
                 (A) (A) (A) (A) (A) (A) (A) (A) (A) (A) (A) (A)
                 (A) (A) (A) (A) (A) (A) (A) (A) (A) (A) (A) (A)
                 (A) (A) (A) (A) (A) (A) (A) (A) (A) (A) (A) (A)
                 (A) (A) (A) (A) (A) (A) (A) (A) (A) (A) (A) (A)
                 (A) (A) (A) (A) (A) (A) (A) (A) (A) (A) (A) (A)
                 (A) (A) (A) (A) (A) (A) (A) (A) (A) (A) (A) (A)
                 (A) (A) (A) (A) (A) (A) (A) (A) (A) (A) (A) (A)
                 (A) (A) (A) (A) (A) (A) (A) (A) (A) (A) (A) (A)
                 (A) (A) (A) (A) (A) (A) (A) (A) (A) (A) (A) (A)
                 (A) (A) (A) (A) (A) (A) (A) (A) (A) (A) (A) (A)
                 (A) (A) (A) (A) (A) (A) (A) (A) (A) (A) (A) (A)
                 (A) (A) (A) (A) (A) (A) (A) (A) (A) (A) (A) (A)
                 (A) (A) (A) (A) (A) (A) (A) (A) (A) (A) (A) (A)
                 (A) (A) (A) (A) (A) (A) (A) (A) (A) (A) (A) (A)
                 (A) (A) (A) (A) (A) (A) (A) (A) (A) (A) (A) (A)
 The electronic state is 1-A.
 Alpha  occ. eigenvalues --  -20.60546 -20.60481 -20.59283  -1.44265  -1.38543
 Alpha  occ. eigenvalues --   -1.17702  -0.74381  -0.70064  -0.68025  -0.61214
 Alpha  occ. eigenvalues --   -0.57644  -0.54789  -0.48805  -0.45327
 Alpha virt. eigenvalues --    0.01974   0.04265   0.04761   0.07166   0.12730
 Alpha virt. eigenvalues --    0.13312   0.13626   0.16103   0.16720   0.18217
 Alpha virt. eigenvalues --    0.19459   0.19859   0.20664   0.21753   0.23278
 Alpha virt. eigenvalues --    0.25190   0.26868   0.28137   0.30171   0.30647
 Alpha virt. eigenvalues --    0.33538   0.34320   0.37372   0.37599   0.38180
 Alpha virt. eigenvalues --    0.39775   0.41155   0.42557   0.44139   0.44400
 Alpha virt. eigenvalues --    0.45401   0.48101   0.58562   0.60888   0.63705
 Alpha virt. eigenvalues --    0.66544   0.70574   0.71947   0.73124   0.74985
 Alpha virt. eigenvalues --    0.76562   0.77585   0.79409   0.80601   0.81501
 Alpha virt. eigenvalues --    0.82989   0.84571   0.86687   0.87864   0.90566
 Alpha virt. eigenvalues --    0.91659   0.92436   0.94722   0.96591   0.97856
 Alpha virt. eigenvalues --    0.98006   0.99367   1.01741   1.02223   1.03257
 Alpha virt. eigenvalues --    1.04096   1.06094   1.07531   1.09058   1.10431
 Alpha virt. eigenvalues --    1.12300   1.14588   1.18604   1.19302   1.21000
 Alpha virt. eigenvalues --    1.26576   1.30583   1.31372   1.34901   1.35597
 Alpha virt. eigenvalues --    1.41470   1.45318   1.46291   1.52062   1.53242
 Alpha virt. eigenvalues --    1.56694   1.61937   1.62707   1.64707   1.67562
 Alpha virt. eigenvalues --    1.68924   1.75011   1.78902   1.83935   1.84587
 Alpha virt. eigenvalues --    1.98633   1.99951   2.01107   2.10051   2.14496
 Alpha virt. eigenvalues --    2.20108   2.24086   2.24550   2.27461   2.30541
 Alpha virt. eigenvalues --    2.31501   2.34158   2.37462   2.40562   2.42704
 Alpha virt. eigenvalues --    2.44713   2.46450   2.49904   2.54041   2.56642
 Alpha virt. eigenvalues --    2.60276   2.62929   2.63707   2.66473   2.70208
 Alpha virt. eigenvalues --    2.71795   2.72522   2.76898   2.77825   2.79667
 Alpha virt. eigenvalues --    2.85756   2.86202   2.87810   2.95744   2.99949
 Alpha virt. eigenvalues --    3.01710   3.05773   3.22541   3.23800   3.30898
 Alpha virt. eigenvalues --    3.35945   3.37281   3.76635   3.80925   3.92322
 Alpha virt. eigenvalues --    4.02556   4.07952   4.14820   4.17894   4.21698
 Alpha virt. eigenvalues --    4.24086   4.25978   4.26663   4.29354   4.31400
 Alpha virt. eigenvalues --    4.34916   4.41228   4.44929   4.49015   4.52758
 Alpha virt. eigenvalues --    4.54553   4.58730   4.62129   4.63715   4.67979
 Alpha virt. eigenvalues --    4.79360   4.80846   4.85503   4.88273   5.03546
 Alpha virt. eigenvalues --    5.08975   5.11235   5.15639   5.24227   5.29875
 Alpha virt. eigenvalues --    5.35558   5.38910   5.44930   5.49435   5.53457
 Alpha virt. eigenvalues --    5.73664   5.92336   6.03081   6.22965   6.27477
 Alpha virt. eigenvalues --    6.42042   6.49147   6.53444   6.58143   6.66101
 Alpha virt. eigenvalues --    6.75601   6.79926   6.81668   6.98227   7.01915
 Alpha virt. eigenvalues --    7.03545   7.09731   7.12347   7.21877   7.23563
 Alpha virt. eigenvalues --    7.23866   7.24707   7.27886   7.28345   7.31374
 Alpha virt. eigenvalues --    7.34213   7.38281   7.39873   7.41224   7.47353
 Alpha virt. eigenvalues --    7.49459   7.57380   7.62540   7.70171   7.75477
 Alpha virt. eigenvalues --    7.86220   7.89704   7.92828   8.07322   8.25193
 Alpha virt. eigenvalues --    8.53672   8.67027   8.83754  14.72597  15.56197
 Alpha virt. eigenvalues --   16.04243
          Condensed to atoms (all electrons):
               1          2          3          4          5          6
     1  O    8.180199  -0.092650   0.254550  -0.029334   0.006688   0.000267
     2  O   -0.092650   8.260217  -0.019786   0.237552  -0.047262   0.001597
     3  H    0.254550  -0.019786   0.475210   0.012999   0.002579  -0.000117
     4  H   -0.029334   0.237552   0.012999   0.447596  -0.021619  -0.003781
     5  O    0.006688  -0.047262   0.002579  -0.021619   7.908916   0.270136
     6  H    0.000267   0.001597  -0.000117  -0.003781   0.270136   0.516236
     7  H    0.001515   0.001651  -0.000207   0.002304   0.295532  -0.000597
               7
     1  O    0.001515
     2  O    0.001651
     3  H   -0.000207
     4  H    0.002304
     5  O    0.295532
     6  H   -0.000597
     7  H    0.467588
 Mulliken charges:
               1
     1  O   -0.321235
     2  O   -0.341318
     3  H    0.274771
     4  H    0.354282
     5  O   -0.414970
     6  H    0.216258
     7  H    0.232213
 Sum of Mulliken charges =  -0.00000
 Mulliken charges with hydrogens summed into heavy atoms:
               1
     1  O   -0.046465
     2  O    0.012964
     5  O    0.033500
 Electronic spatial extent (au):  <R**2>=            286.5122
 Charge=              0.0000 electrons
 Dipole moment (field-independent basis, Debye):
    X=              3.5396    Y=             -1.2397    Z=              1.1028  Tot=              3.9092
 Quadrupole moment (field-independent basis, Debye-Ang):
   XX=             -8.2814   YY=            -18.6340   ZZ=            -18.1671
   XY=             -0.0216   XZ=             -3.8868   YZ=              0.5504
 Traceless Quadrupole moment (field-independent basis, Debye-Ang):
   XX=              6.7461   YY=             -3.6065   ZZ=             -3.1396
   XY=             -0.0216   XZ=             -3.8868   YZ=              0.5504
 Octapole moment (field-independent basis, Debye-Ang**2):
  XXX=             26.2128  YYY=             -2.7450  ZZZ=              1.3477  XYY=              6.2010
  XXY=             -2.5656  XXZ=              6.0429  XZZ=             -1.8940  YZZ=             -1.2589
  YYZ=             -0.3689  XYZ=              3.9593
 Hexadecapole moment (field-independent basis, Debye-Ang**3):
 XXXX=           -153.3365 YYYY=            -47.0370 ZZZZ=            -17.2867 XXXY=              3.9041
 XXXZ=            -12.2158 YYYX=             -1.9879 YYYZ=              1.1774 ZZZX=             -3.9778
 ZZZY=              0.1241 XXYY=            -43.0890 XXZZ=            -41.4159 YYZZ=            -11.1635
 XXYZ=              2.2224 YYXZ=             -2.8408 ZZXY=              0.7561
 N-N= 7.764333053136D+01 E-N=-6.943430265053D+02  KE= 2.264763773796D+02
 Calling FoFJK, ICntrl=  10002127 FMM=F ISym2X=0 I1Cent= 0 IOpClX= 0 NMat=1 NMatS=1 NMatT=0.
 ***** Axes restored to original set *****
 -------------------------------------------------------------------
 Center     Atomic                   Forces (Hartrees/Bohr)
 Number     Number              X              Y              Z
 -------------------------------------------------------------------
      1        8          -0.000693506   -0.013015086    0.007061128
      2        8          -0.000804189    0.005383070   -0.013635269
      3        1          -0.005200038    0.009244896   -0.001460431
      4        1           0.008649399   -0.002396650    0.012345359
      5        8          -0.005606301    0.007738990   -0.019924134
      6        1          -0.002380186   -0.001234075    0.009960743
      7        1           0.006034821   -0.005721145    0.005652605
 -------------------------------------------------------------------
 Cartesian Forces:  Max     0.019924134 RMS     0.008391276

 GradGradGradGradGradGradGradGradGradGradGradGradGradGradGradGradGradGrad
 Berny optimization.
 FormGI is forming the generalized inverse of G from B-inverse, IUseBI=4.
 Internal  Forces:  Max     0.011674257 RMS     0.006097931
 Search for a local minimum.
 Step number   1 out of a maximum of   27
 All quantities printed in internal units (Hartrees-Bohrs-Radians)
 Mixed Optimization -- RFO/linear search
 Second derivative matrix not updated -- first step.
 The second derivative matrix:
                          R1        R2        R3        R4        R5
           R1           0.37384
           R2           0.00000   0.52354
           R3           0.00000   0.00000   0.49810
           R4           0.00000   0.00000   0.00000   0.07131
           R5           0.00000   0.00000   0.00000   0.00000   0.52923
           R6           0.00000   0.00000   0.00000   0.00000   0.00000
           A1           0.00000   0.00000   0.00000   0.00000   0.00000
           A2           0.00000   0.00000   0.00000   0.00000   0.00000
           A3           0.00000   0.00000   0.00000   0.00000   0.00000
           A4           0.00000   0.00000   0.00000   0.00000   0.00000
           A5           0.00000   0.00000   0.00000   0.00000   0.00000
           A6           0.00000   0.00000   0.00000   0.00000   0.00000
           A7           0.00000   0.00000   0.00000   0.00000   0.00000
           D1           0.00000   0.00000   0.00000   0.00000   0.00000
           D2           0.00000   0.00000   0.00000   0.00000   0.00000
           D3           0.00000   0.00000   0.00000   0.00000   0.00000
           D4           0.00000   0.00000   0.00000   0.00000   0.00000
                          R6        A1        A2        A3        A4
           R6           0.52731
           A1           0.00000   0.16000
           A2           0.00000   0.00000   0.16000
           A3           0.00000   0.00000   0.00000   0.16000
           A4           0.00000   0.00000   0.00000   0.00000   0.16000
           A5           0.00000   0.00000   0.00000   0.00000   0.00000
           A6           0.00000   0.00000   0.00000   0.00000   0.00000
           A7           0.00000   0.00000   0.00000   0.00000   0.00000
           D1           0.00000   0.00000   0.00000   0.00000   0.00000
           D2           0.00000   0.00000   0.00000   0.00000   0.00000
           D3           0.00000   0.00000   0.00000   0.00000   0.00000
           D4           0.00000   0.00000   0.00000   0.00000   0.00000
                          A5        A6        A7        D1        D2
           A5           0.16000
           A6           0.00000   0.00230
           A7           0.00000   0.00000   0.00230
           D1           0.00000   0.00000   0.00000   0.00545
           D2           0.00000   0.00000   0.00000   0.00000   0.00230
           D3           0.00000   0.00000   0.00000   0.00000   0.00000
           D4           0.00000   0.00000   0.00000   0.00000   0.00000
                          D3        D4
           D3           0.00230
           D4           0.00000   0.01396
 ITU=  0
     Eigenvalues ---    0.00230   0.00230   0.00230   0.00545   0.01151
     Eigenvalues ---    0.07131   0.15837   0.16000   0.16000   0.16000
     Eigenvalues ---    0.37384   0.49810   0.52354   0.52731   0.52923
 RFO step:  Lambda=-4.12006845D-03 EMin= 2.30000000D-03
 Linear search not attempted -- first point.
 Maximum step size (   0.300) exceeded in Quadratic search.
    -- Step size scaled by   0.563
 Iteration  1 RMS(Cart)=  0.11152099 RMS(Int)=  0.02403783
 Iteration  2 RMS(Cart)=  0.07002990 RMS(Int)=  0.00156588
 Iteration  3 RMS(Cart)=  0.00232823 RMS(Int)=  0.00013677
 Iteration  4 RMS(Cart)=  0.00000074 RMS(Int)=  0.00013677
 Variable       Old X    -DE/DX   Delta X   Delta X   Delta X     New X
                                 (Linear)    (Quad)   (Total)
    R1        2.75271   0.00687   0.00000   0.01023   0.01023   2.76294
    R2        1.84262  -0.00863   0.00000  -0.00921  -0.00921   1.83341
    R3        1.86758  -0.00898   0.00000  -0.01007  -0.01007   1.85751
    R4        3.24914   0.00455   0.00000   0.03396   0.03396   3.28310
    R5        1.83726  -0.00952   0.00000  -0.01006  -0.01006   1.82720
    R6        1.83905  -0.00953   0.00000  -0.01010  -0.01010   1.82896
    A1        1.68407   0.01167   0.00000   0.04006   0.04006   1.72413
    A2        1.69904   0.00707   0.00000   0.02427   0.02428   1.72332
    A3        2.42946  -0.00298   0.00000  -0.01049  -0.01046   2.41900
    A4        2.02375  -0.00149   0.00000  -0.00549  -0.00550   2.01825
    A5        1.79635   0.00433   0.00000   0.01468   0.01473   1.81108
    A6        3.17181  -0.00331   0.00000  -0.29289  -0.29294   2.87888
    A7        3.09312  -0.00006   0.00000   0.00267   0.00283   3.09595
    D1        1.99791  -0.00015   0.00000  -0.00875  -0.00875   1.98916
    D2       -2.96487   0.00041   0.00000   0.01767   0.01739  -2.94747
    D3        0.53754  -0.00049   0.00000  -0.02466  -0.02434   0.51320
    D4       -2.83356   0.00040   0.00000   0.00502   0.00469  -2.82887
         Item               Value     Threshold  Converged?
 Maximum Force            0.011674     0.000450     NO 
 RMS     Force            0.006098     0.000300     NO 
 Maximum Displacement     0.392287     0.001800     NO 
 RMS     Displacement     0.178675     0.001200     NO 
 Predicted change in Energy=-1.854254D-03
 GradGradGradGradGradGradGradGradGradGradGradGradGradGradGradGradGradGrad

                          Input orientation:                          
 ---------------------------------------------------------------------
 Center     Atomic      Atomic             Coordinates (Angstroms)
 Number     Number       Type             X           Y           Z
 ---------------------------------------------------------------------
      1          8           0       -2.132692    2.242980   -0.284335
      2          8           0       -0.684855    2.146395   -0.463600
      3          1           0       -2.301137    1.346704    0.046725
      4          1           0       -0.650030    2.225101   -1.442775
      5          8           0       -1.033670    2.466478   -3.119949
      6          1           0       -0.593474    2.415175   -3.979318
      7          1           0       -1.822648    2.998450   -3.296695
 ---------------------------------------------------------------------
                    Distance matrix (angstroms):
                    1          2          3          4          5
     1  O    0.000000
     2  O    1.462087   0.000000
     3  H    0.970199   1.874115   0.000000
     4  H    1.881646   0.982951   2.390889   0.000000
     5  O    3.049346   2.698206   3.590013   1.737341   0.000000
     6  H    4.006463   3.527162   4.501863   2.544283   0.966913
     7  H    3.121086   3.169701   3.759745   2.325966   0.967843
                    6          7
     6  H    0.000000
     7  H    1.522187   0.000000
 Stoichiometry    H4O3
 Framework group  C1[X(H4O3)]
 Deg. of freedom    15
 Full point group                 C1      NOp   1
 Largest Abelian subgroup         C1      NOp   1
 Largest concise Abelian subgroup C1      NOp   1
                         Standard orientation:                         
 ---------------------------------------------------------------------
 Center     Atomic      Atomic             Coordinates (Angstroms)
 Number     Number       Type             X           Y           Z
 ---------------------------------------------------------------------
      1          8           0       -1.267759   -0.611265   -0.072136
      2          8           0       -0.823897    0.781489   -0.041797
      3          1           0       -1.737147   -0.635725    0.776606
      4          1           0        0.145188    0.628126    0.017761
      5          8           0        1.732402   -0.077922    0.042249
      6          1           0        2.647271    0.199119    0.187798
      7          1           0        1.818720   -0.929933   -0.408691
 ---------------------------------------------------------------------
 Rotational constants (GHZ):          27.3636552           5.1142890           4.3776594
 Standard basis: Aug-CC-pVTZ (5D, 7F)
 There are   265 symmetry adapted cartesian basis functions of A   symmetry.
 There are   230 symmetry adapted basis functions of A   symmetry.
   230 basis functions,   324 primitive gaussians,   265 cartesian basis functions
    14 alpha electrons       14 beta electrons
       nuclear repulsion energy        78.5808942444 Hartrees.
 NAtoms=    7 NActive=    7 NUniq=    7 SFac= 1.00D+00 NAtFMM=   60 NAOKFM=F Big=F
 Integral buffers will be    131072 words long.
 Raffenetti 1 integral format.
 Two-electron integral symmetry is turned on.
 One-electron integrals computed using PRISM.
 NBasis=   230 RedAO= T EigKep=  1.83D-04  NBF=   230
 NBsUse=   230 1.00D-06 EigRej= -1.00D+00 NBFU=   230
 Initial guess from the checkpoint file:  "/gscratch/scrubbed/gds001/Gau-12558.chk"
 B after Tr=    -0.000000   -0.000000    0.000000
         Rot=    0.999805   -0.013653   -0.001413   -0.014193 Ang=  -2.26 deg.
 ExpMin= 2.53D-02 ExpMax= 1.53D+04 ExpMxC= 5.22D+02 IAcc=3 IRadAn=         5 AccDes= 0.00D+00
 Harris functional with IExCor=  205 and IRadAn=       5 diagonalized for initial guess.
 HarFok:  IExCor=  205 AccDes= 0.00D+00 IRadAn=         5 IDoV= 1 UseB2=F ITyADJ=14
 ICtDFT=  3500011 ScaDFX=  1.000000  1.000000  1.000000  1.000000
 FoFCou: FMM=F IPFlag=           0 FMFlag=      100000 FMFlg1=           0
         NFxFlg=           0 DoJE=T BraDBF=F KetDBF=T FulRan=T
         wScrn=  0.000000 ICntrl=       500 IOpCl=  0 I1Cent=   200000004 NGrid=           0
         NMat0=    1 NMatS0=      1 NMatT0=    0 NMatD0=    1 NMtDS0=    0 NMtDT0=    0
 Petite list used in FoFCou.
 Keep R1 ints in memory in canonical form, NReq=366789486.
 Requested convergence on RMS density matrix=1.00D-08 within 128 cycles.
 Requested convergence on MAX density matrix=1.00D-06.
 Requested convergence on             energy=1.00D-06.
 No special actions if energy rises.
 SCF Done:  E(RHF) =  -226.902994203     A.U. after   13 cycles
            NFock= 13  Conv=0.66D-08     -V/T= 2.0018
 ExpMin= 2.53D-02 ExpMax= 1.53D+04 ExpMxC= 5.22D+02 IAcc=3 IRadAn=         5 AccDes= 0.00D+00
 HarFok:  IExCor=  205 AccDes= 0.00D+00 IRadAn=         5 IDoV=-2 UseB2=F ITyADJ=14
 ICtDFT= 12500011 ScaDFX=  1.000000  1.000000  1.000000  1.000000
 Range of M.O.s used for correlation:     4   230
 NBasis=   230 NAE=    14 NBE=    14 NFC=     3 NFV=     0
 NROrb=    227 NOA=    11 NOB=    11 NVA=   216 NVB=   216

 **** Warning!!: The largest alpha MO coefficient is  0.15448990D+02

 Fully direct method using O(ONN) memory.
 JobTyp=1 Pass  1:  I=   4 to  14 NPSUse= 28 ParTrn=T ParDer=T DoDerP=T.
 Spin components of T(2) and E(2):
     alpha-alpha T2 =       0.2466930045D-01 E2=     -0.9697933101D-01
     alpha-beta  T2 =       0.1419653213D+00 E2=     -0.5894412001D+00
     beta-beta   T2 =       0.2466930045D-01 E2=     -0.9697933101D-01
 ANorm=    0.1091468700D+01
 E2 =    -0.7833998621D+00 EUMP2 =    -0.22768639406487D+03
          IDoAtm=1111111
          Differentiating once with respect to electric field.
                with respect to dipole field.
          Differentiating once with respect to nuclear coordinates.
 Keep R1 ints in memory in canonical form, NReq=366794919.
          There are     1 degrees of freedom in the 1st order CPHF.  IDoFFX=0 NUNeed=     1.
 LinEq1:  Iter=  0 NonCon=     1 RMS=3.45D-03 Max=3.11D-02 NDo=     1
 AX will form     1 AO Fock derivatives at one time.
 LinEq1:  Iter=  1 NonCon=     1 RMS=4.01D-04 Max=3.56D-03 NDo=     1
 LinEq1:  Iter=  2 NonCon=     1 RMS=1.62D-04 Max=1.56D-03 NDo=     1
 LinEq1:  Iter=  3 NonCon=     1 RMS=5.13D-05 Max=7.26D-04 NDo=     1
 LinEq1:  Iter=  4 NonCon=     1 RMS=1.95D-05 Max=3.21D-04 NDo=     1
 LinEq1:  Iter=  5 NonCon=     1 RMS=1.00D-05 Max=2.07D-04 NDo=     1
 LinEq1:  Iter=  6 NonCon=     1 RMS=2.96D-06 Max=3.47D-05 NDo=     1
 LinEq1:  Iter=  7 NonCon=     1 RMS=1.06D-06 Max=1.12D-05 NDo=     1
 LinEq1:  Iter=  8 NonCon=     1 RMS=4.09D-07 Max=3.72D-06 NDo=     1
 LinEq1:  Iter=  9 NonCon=     1 RMS=9.66D-08 Max=1.11D-06 NDo=     1
 LinEq1:  Iter= 10 NonCon=     1 RMS=1.61D-08 Max=1.42D-07 NDo=     1
 LinEq1:  Iter= 11 NonCon=     1 RMS=3.66D-09 Max=5.61D-08 NDo=     1
 LinEq1:  Iter= 12 NonCon=     1 RMS=8.15D-10 Max=1.18D-08 NDo=     1
 LinEq1:  Iter= 13 NonCon=     1 RMS=1.65D-10 Max=2.75D-09 NDo=     1
 LinEq1:  Iter= 14 NonCon=     0 RMS=3.68D-11 Max=5.20D-10 NDo=     1
 Linear equations converged to 1.000D-10 1.000D-09 after    14 iterations.
 End of Minotr F.D. properties file   721 does not exist.
 End of Minotr F.D. properties file   722 does not exist.
 End of Minotr F.D. properties file   788 does not exist.
 Calling FoFJK, ICntrl=  10002127 FMM=F ISym2X=0 I1Cent= 0 IOpClX= 0 NMat=1 NMatS=1 NMatT=0.
 ***** Axes restored to original set *****
 -------------------------------------------------------------------
 Center     Atomic                   Forces (Hartrees/Bohr)
 Number     Number              X              Y              Z
 -------------------------------------------------------------------
      1        8           0.002847220   -0.004196066    0.001189153
      2        8          -0.001466936    0.001137666   -0.003602962
      3        1          -0.000272514    0.003741310   -0.001655821
      4        1          -0.000661000   -0.000822155    0.007996624
      5        8          -0.003577550    0.003880202   -0.013524125
      6        1          -0.000041367   -0.000744406    0.005409551
      7        1           0.003172147   -0.002996550    0.004187580
 -------------------------------------------------------------------
 Cartesian Forces:  Max     0.013524125 RMS     0.004378416

 GradGradGradGradGradGradGradGradGradGradGradGradGradGradGradGradGradGrad
 Berny optimization.
 Using GEDIIS/GDIIS optimizer.
 FormGI is forming the generalized inverse of G from B-inverse, IUseBI=4.
 Internal  Forces:  Max     0.004997687 RMS     0.002765461
 Search for a local minimum.
 Step number   2 out of a maximum of   27
 All quantities printed in internal units (Hartrees-Bohrs-Radians)
 Mixed Optimization -- RFO/linear search
 Update second derivatives using D2CorX and points    1    2
 DE= -1.29D-03 DEPred=-1.85D-03 R= 6.95D-01
 TightC=F SS=  1.41D+00  RLast= 3.02D-01 DXNew= 5.0454D-01 9.0504D-01
 Trust test= 6.95D-01 RLast= 3.02D-01 DXMaxT set to 5.05D-01
 The second derivative matrix:
                          R1        R2        R3        R4        R5
           R1           0.40171
           R2          -0.00155   0.50904
           R3          -0.00155  -0.01511   0.48236
           R4          -0.00702   0.01110   0.01155   0.06521
           R5           0.00014  -0.01691  -0.01761   0.01237   0.50966
           R6           0.00109  -0.01738  -0.01810   0.01244  -0.02006
           A1           0.01937   0.01079   0.01128  -0.01359   0.01384
           A2           0.02174   0.00164   0.00176  -0.00757   0.00341
           A3          -0.00116  -0.00473  -0.00493   0.00381  -0.00556
           A4           0.00810  -0.00676  -0.00702   0.00259  -0.00726
           A5          -0.00682   0.01080   0.01123  -0.00593   0.01204
           A6          -0.01512   0.00528   0.00546   0.00055   0.00506
           A7          -0.00019   0.00011   0.00012  -0.00003   0.00012
           D1           0.00276  -0.00150  -0.00156   0.00030  -0.00155
           D2           0.00292  -0.00130  -0.00135   0.00010  -0.00131
           D3           0.00065  -0.00050  -0.00052   0.00017  -0.00053
           D4           0.00112  -0.00034  -0.00035  -0.00008  -0.00032
                          R6        A1        A2        A3        A4
           R6           0.50680
           A1           0.01485   0.16381
           A2           0.00424   0.01279   0.17640
           A3          -0.00574   0.00309   0.00003   0.15847
           A4          -0.00717   0.01076   0.00755  -0.00241   0.15963
           A5           0.01210  -0.01322  -0.00735   0.00371   0.00252
           A6           0.00467  -0.01412  -0.01266   0.00209  -0.00248
           A7           0.00012  -0.00022  -0.00017   0.00004  -0.00001
           D1          -0.00149   0.00302   0.00242  -0.00056   0.00022
           D2          -0.00124   0.00296   0.00250  -0.00050   0.00036
           D3          -0.00052   0.00083   0.00060  -0.00018  -0.00001
           D4          -0.00029   0.00101   0.00093  -0.00014   0.00020
                          A5        A6        A7        D1        D2
           A5           0.15422
           A6           0.00053   0.00915
           A7          -0.00003   0.00007   0.00230
           D1           0.00029  -0.00109  -0.00001   0.00560
           D2           0.00010  -0.00124  -0.00001   0.00018   0.00252
           D3           0.00017  -0.00021  -0.00000   0.00002   0.00003
           D4          -0.00007  -0.00052  -0.00001   0.00009   0.00010
                          D3        D4
           D3           0.00230
           D4           0.00002   0.01400
 ITU=  1  0
 Use linear search instead of GDIIS.
     Eigenvalues ---    0.00227   0.00230   0.00526   0.00647   0.01149
     Eigenvalues ---    0.05966   0.13838   0.15962   0.16000   0.19047
     Eigenvalues ---    0.40719   0.45342   0.50732   0.52504   0.52841
 RFO step:  Lambda=-1.15784653D-03 EMin= 2.27257723D-03
 Quartic linear search produced a step of  0.11690.
 Iteration  1 RMS(Cart)=  0.09116170 RMS(Int)=  0.00784613
 Iteration  2 RMS(Cart)=  0.00673693 RMS(Int)=  0.00120976
 Iteration  3 RMS(Cart)=  0.00007601 RMS(Int)=  0.00120845
 Iteration  4 RMS(Cart)=  0.00000001 RMS(Int)=  0.00120845
 Variable       Old X    -DE/DX   Delta X   Delta X   Delta X     New X
                                 (Linear)    (Quad)   (Total)
    R1        2.76294  -0.00264   0.00120  -0.00144  -0.00024   2.76271
    R2        1.83341  -0.00397  -0.00108  -0.01453  -0.01560   1.81781
    R3        1.85751  -0.00415  -0.00118  -0.01591  -0.01709   1.84041
    R4        3.28310   0.00391   0.00397   0.08242   0.08640   3.36949
    R5        1.82720  -0.00479  -0.00118  -0.01672  -0.01790   1.80930
    R6        1.82896  -0.00500  -0.00118  -0.01724  -0.01842   1.81054
    A1        1.72413   0.00171   0.00468   0.03748   0.04216   1.76629
    A2        1.72332  -0.00115   0.00284   0.00732   0.01014   1.73346
    A3        2.41900  -0.00123  -0.00122  -0.01467  -0.01612   2.40288
    A4        2.01825  -0.00247  -0.00064  -0.02042  -0.02095   1.99730
    A5        1.81108   0.00371   0.00172   0.03630   0.03749   1.84858
    A6        2.87888   0.00059  -0.03424   0.14875   0.11469   2.99357
    A7        3.09595  -0.00002   0.00033   0.02569   0.02476   3.12072
    D1        1.98916  -0.00071  -0.00102  -0.12507  -0.12609   1.86307
    D2       -2.94747  -0.00026   0.00203  -0.14384  -0.13921  -3.08669
    D3        0.51320  -0.00058  -0.00285  -0.12544  -0.13110   0.38210
    D4       -2.82887   0.00010   0.00055  -0.00501  -0.00159  -2.83046
         Item               Value     Threshold  Converged?
 Maximum Force            0.004998     0.000450     NO 
 RMS     Force            0.002765     0.000300     NO 
 Maximum Displacement     0.233575     0.001800     NO 
 RMS     Displacement     0.092093     0.001200     NO 
 Predicted change in Energy=-6.434020D-04
 GradGradGradGradGradGradGradGradGradGradGradGradGradGradGradGradGradGrad

                          Input orientation:                          
 ---------------------------------------------------------------------
 Center     Atomic      Atomic             Coordinates (Angstroms)
 Number     Number       Type             X           Y           Z
 ---------------------------------------------------------------------
      1          8           0       -2.091952    2.262372   -0.160732
      2          8           0       -0.670970    2.111773   -0.469700
      3          1           0       -2.334791    1.355445    0.048659
      4          1           0       -0.707673    2.218873   -1.437002
      5          8           0       -1.030524    2.476250   -3.171599
      6          1           0       -0.536292    2.473715   -3.991614
      7          1           0       -1.846305    2.942856   -3.357959
 ---------------------------------------------------------------------
                    Distance matrix (angstroms):
                    1          2          3          4          5
     1  O    0.000000
     2  O    1.461961   0.000000
     3  H    0.961941   1.899744   0.000000
     4  H    1.883344   0.973905   2.366476   0.000000
     5  O    3.199639   2.749978   3.650668   1.783059   0.000000
     6  H    4.140096   3.543024   4.561680   2.573005   0.957442
     7  H    3.278057   3.227096   3.789925   2.347490   0.958097
                    6          7
     6  H    0.000000
     7  H    1.528969   0.000000
 Stoichiometry    H4O3
 Framework group  C1[X(H4O3)]
 Deg. of freedom    15
 Full point group                 C1      NOp   1
 Largest Abelian subgroup         C1      NOp   1
 Largest concise Abelian subgroup C1      NOp   1
                         Standard orientation:                         
 ---------------------------------------------------------------------
 Center     Atomic      Atomic             Coordinates (Angstroms)
 Number     Number       Type             X           Y           Z
 ---------------------------------------------------------------------
      1          8           0       -1.361624   -0.577730   -0.085861
      2          8           0       -0.810317    0.775076   -0.028336
      3          1           0       -1.724841   -0.669322    0.800150
      4          1           0        0.138175    0.557362    0.009817
      5          8           0        1.798503   -0.092094    0.038419
      6          1           0        2.690443    0.247966    0.112561
      7          1           0        1.883730   -0.978019   -0.316299
 ---------------------------------------------------------------------
 Rotational constants (GHZ):          28.4857256           4.7445058           4.1254447
 Standard basis: Aug-CC-pVTZ (5D, 7F)
 There are   265 symmetry adapted cartesian basis functions of A   symmetry.
 There are   230 symmetry adapted basis functions of A   symmetry.
   230 basis functions,   324 primitive gaussians,   265 cartesian basis functions
    14 alpha electrons       14 beta electrons
       nuclear repulsion energy        77.7410567569 Hartrees.
 NAtoms=    7 NActive=    7 NUniq=    7 SFac= 1.00D+00 NAtFMM=   60 NAOKFM=F Big=F
 Integral buffers will be    131072 words long.
 Raffenetti 1 integral format.
 Two-electron integral symmetry is turned on.
 One-electron integrals computed using PRISM.
 NBasis=   230 RedAO= T EigKep=  1.75D-04  NBF=   230
 NBsUse=   230 1.00D-06 EigRej= -1.00D+00 NBFU=   230
 Initial guess from the checkpoint file:  "/gscratch/scrubbed/gds001/Gau-12558.chk"
 B after Tr=    -0.000000   -0.000000   -0.000000
         Rot=    0.999976   -0.002592   -0.001186    0.006281 Ang=  -0.79 deg.
 ExpMin= 2.53D-02 ExpMax= 1.53D+04 ExpMxC= 5.22D+02 IAcc=3 IRadAn=         5 AccDes= 0.00D+00
 Harris functional with IExCor=  205 and IRadAn=       5 diagonalized for initial guess.
 HarFok:  IExCor=  205 AccDes= 0.00D+00 IRadAn=         5 IDoV= 1 UseB2=F ITyADJ=14
 ICtDFT=  3500011 ScaDFX=  1.000000  1.000000  1.000000  1.000000
 FoFCou: FMM=F IPFlag=           0 FMFlag=      100000 FMFlg1=           0
         NFxFlg=           0 DoJE=T BraDBF=F KetDBF=T FulRan=T
         wScrn=  0.000000 ICntrl=       500 IOpCl=  0 I1Cent=   200000004 NGrid=           0
         NMat0=    1 NMatS0=      1 NMatT0=    0 NMatD0=    1 NMtDS0=    0 NMtDT0=    0
 Petite list used in FoFCou.
 Keep R1 ints in memory in canonical form, NReq=366788150.
 Requested convergence on RMS density matrix=1.00D-08 within 128 cycles.
 Requested convergence on MAX density matrix=1.00D-06.
 Requested convergence on             energy=1.00D-06.
 No special actions if energy rises.
 SCF Done:  E(RHF) =  -226.905667018     A.U. after   12 cycles
            NFock= 12  Conv=0.62D-08     -V/T= 2.0016
 ExpMin= 2.53D-02 ExpMax= 1.53D+04 ExpMxC= 5.22D+02 IAcc=3 IRadAn=         5 AccDes= 0.00D+00
 HarFok:  IExCor=  205 AccDes= 0.00D+00 IRadAn=         5 IDoV=-2 UseB2=F ITyADJ=14
 ICtDFT= 12500011 ScaDFX=  1.000000  1.000000  1.000000  1.000000
 Range of M.O.s used for correlation:     4   230
 NBasis=   230 NAE=    14 NBE=    14 NFC=     3 NFV=     0
 NROrb=    227 NOA=    11 NOB=    11 NVA=   216 NVB=   216

 **** Warning!!: The largest alpha MO coefficient is  0.14542574D+02

 Fully direct method using O(ONN) memory.
 JobTyp=1 Pass  1:  I=   4 to  14 NPSUse= 28 ParTrn=T ParDer=T DoDerP=T.
 Spin components of T(2) and E(2):
     alpha-alpha T2 =       0.2446000233D-01 E2=     -0.9659173886D-01
     alpha-beta  T2 =       0.1408822587D+00 E2=     -0.5878418516D+00
     beta-beta   T2 =       0.2446000233D-01 E2=     -0.9659173886D-01
 ANorm=    0.1090780575D+01
 E2 =    -0.7810253293D+00 EUMP2 =    -0.22768669234759D+03
          IDoAtm=1111111
          Differentiating once with respect to electric field.
                with respect to dipole field.
          Differentiating once with respect to nuclear coordinates.
 Keep R1 ints in memory in canonical form, NReq=366793591.
          There are     1 degrees of freedom in the 1st order CPHF.  IDoFFX=0 NUNeed=     1.
 LinEq1:  Iter=  0 NonCon=     1 RMS=3.42D-03 Max=2.86D-02 NDo=     1
 AX will form     1 AO Fock derivatives at one time.
 LinEq1:  Iter=  1 NonCon=     1 RMS=3.98D-04 Max=3.53D-03 NDo=     1
 LinEq1:  Iter=  2 NonCon=     1 RMS=1.63D-04 Max=1.73D-03 NDo=     1
 LinEq1:  Iter=  3 NonCon=     1 RMS=5.12D-05 Max=7.10D-04 NDo=     1
 LinEq1:  Iter=  4 NonCon=     1 RMS=2.00D-05 Max=3.22D-04 NDo=     1
 LinEq1:  Iter=  5 NonCon=     1 RMS=1.00D-05 Max=2.04D-04 NDo=     1
 LinEq1:  Iter=  6 NonCon=     1 RMS=2.84D-06 Max=3.33D-05 NDo=     1
 LinEq1:  Iter=  7 NonCon=     1 RMS=1.01D-06 Max=1.11D-05 NDo=     1
 LinEq1:  Iter=  8 NonCon=     1 RMS=3.92D-07 Max=3.33D-06 NDo=     1
 LinEq1:  Iter=  9 NonCon=     1 RMS=9.06D-08 Max=1.05D-06 NDo=     1
 LinEq1:  Iter= 10 NonCon=     1 RMS=1.47D-08 Max=1.52D-07 NDo=     1
 LinEq1:  Iter= 11 NonCon=     1 RMS=3.07D-09 Max=3.07D-08 NDo=     1
 LinEq1:  Iter= 12 NonCon=     1 RMS=6.85D-10 Max=6.40D-09 NDo=     1
 LinEq1:  Iter= 13 NonCon=     1 RMS=1.24D-10 Max=1.19D-09 NDo=     1
 LinEq1:  Iter= 14 NonCon=     0 RMS=2.38D-11 Max=2.77D-10 NDo=     1
 Linear equations converged to 1.000D-10 1.000D-09 after    14 iterations.
 End of Minotr F.D. properties file   721 does not exist.
 End of Minotr F.D. properties file   722 does not exist.
 End of Minotr F.D. properties file   788 does not exist.
 Calling FoFJK, ICntrl=  10002127 FMM=F ISym2X=0 I1Cent= 0 IOpClX= 0 NMat=1 NMatS=1 NMatT=0.
 ***** Axes restored to original set *****
 -------------------------------------------------------------------
 Center     Atomic                   Forces (Hartrees/Bohr)
 Number     Number              X              Y              Z
 -------------------------------------------------------------------
      1        8           0.003664194    0.007061474   -0.003263453
      2        8          -0.005117439   -0.002173794    0.004778540
      3        1           0.002247809   -0.005245711    0.000558318
      4        1           0.000034698    0.000157132   -0.000089588
      5        8           0.000269562   -0.002248176    0.001619447
      6        1           0.001895239    0.000407162   -0.002943750
      7        1          -0.002994062    0.002041912   -0.000659514
 -------------------------------------------------------------------
 Cartesian Forces:  Max     0.007061474 RMS     0.003042135

 GradGradGradGradGradGradGradGradGradGradGradGradGradGradGradGradGradGrad
 Berny optimization.
 Using GEDIIS/GDIIS optimizer.
 FormGI is forming the generalized inverse of G from B-inverse, IUseBI=4.
 Internal  Forces:  Max     0.006451234 RMS     0.002911565
 Search for a local minimum.
 Step number   3 out of a maximum of   27
 All quantities printed in internal units (Hartrees-Bohrs-Radians)
 Mixed Optimization -- RFO/linear search
 Update second derivatives using D2CorX and points    1    2    3
 DE= -2.98D-04 DEPred=-6.43D-04 R= 4.64D-01
 Trust test= 4.64D-01 RLast= 2.81D-01 DXMaxT set to 5.05D-01
 The second derivative matrix:
                          R1        R2        R3        R4        R5
           R1           0.43397
           R2          -0.03756   0.53852
           R3          -0.02706   0.00090   0.48802
           R4          -0.00627   0.02022   0.02254   0.05597
           R5          -0.03329   0.00734  -0.00638   0.02374   0.52836
           R6          -0.03346   0.00794  -0.00619   0.02395  -0.00041
           A1           0.06457  -0.03002  -0.01323  -0.02151  -0.02123
           A2           0.04053  -0.01559  -0.00875  -0.01061  -0.01150
           A3          -0.00621  -0.00317  -0.00568   0.00749  -0.00530
           A4           0.00279  -0.00497  -0.00763   0.00631  -0.00681
           A5           0.00322   0.00829   0.01342  -0.01379   0.01225
           A6          -0.01064  -0.00329  -0.00224   0.00398  -0.00394
           A7           0.00026  -0.00037  -0.00021  -0.00004  -0.00032
           D1          -0.00039   0.00156   0.00040   0.00065   0.00116
           D2           0.00387  -0.00242  -0.00217   0.00018  -0.00236
           D3          -0.00218   0.00250   0.00153   0.00026   0.00220
           D4           0.00039   0.00076   0.00055  -0.00036   0.00078
                          R6        A1        A2        A3        A4
           R6           0.52743
           A1          -0.02163   0.21845
           A2          -0.01126   0.03575   0.18603
           A3          -0.00537  -0.00030  -0.00148   0.15771
           A4          -0.00659   0.00705   0.00590  -0.00315   0.15891
           A5           0.01211  -0.00699  -0.00455   0.00545   0.00423
           A6          -0.00454  -0.00463  -0.00880   0.00002  -0.00459
           A7          -0.00034   0.00039   0.00009  -0.00002  -0.00008
           D1           0.00132  -0.00099   0.00074  -0.00024   0.00056
           D2          -0.00233   0.00434   0.00307  -0.00067   0.00018
           D3           0.00231  -0.00299  -0.00099   0.00020   0.00039
           D4           0.00084  -0.00027   0.00041   0.00008   0.00043
                          A5        A6        A7        D1        D2
           A5           0.15029
           A6           0.00483   0.00858
           A7           0.00009   0.00014   0.00231
           D1          -0.00032  -0.00168  -0.00005   0.00589
           D2           0.00044  -0.00112   0.00000   0.00009   0.00254
           D3          -0.00058  -0.00066  -0.00004   0.00029  -0.00005
           D4          -0.00053  -0.00053  -0.00002   0.00017   0.00008
                          D3        D4
           D3           0.00255
           D4           0.00009   0.01401
 ITU=  0  1  0
 Use linear search instead of GDIIS.
     Eigenvalues ---    0.00214   0.00232   0.00478   0.00823   0.01164
     Eigenvalues ---    0.04591   0.14642   0.15968   0.16397   0.21559
     Eigenvalues ---    0.41002   0.49808   0.52360   0.52839   0.59278
 RFO step:  Lambda=-5.43492188D-04 EMin= 2.14425627D-03
 Quartic linear search produced a step of -0.33255.
 Iteration  1 RMS(Cart)=  0.13517816 RMS(Int)=  0.01413620
 Iteration  2 RMS(Cart)=  0.03991118 RMS(Int)=  0.00189002
 Iteration  3 RMS(Cart)=  0.00049846 RMS(Int)=  0.00184062
 Iteration  4 RMS(Cart)=  0.00000085 RMS(Int)=  0.00184062
 Variable       Old X    -DE/DX   Delta X   Delta X   Delta X     New X
                                 (Linear)    (Quad)   (Total)
    R1        2.76271  -0.00613   0.00008  -0.01439  -0.01432   2.74839
    R2        1.81781   0.00450   0.00519  -0.00303   0.00216   1.81997
    R3        1.84041   0.00213   0.00568  -0.00677  -0.00110   1.83931
    R4        3.36949   0.00211  -0.02873   0.07348   0.04476   3.41426
    R5        1.80930   0.00350   0.00595  -0.00581   0.00014   1.80945
    R6        1.81054   0.00367   0.00612  -0.00595   0.00018   1.81072
    A1        1.76629  -0.00645  -0.01402  -0.00801  -0.02203   1.74426
    A2        1.73346  -0.00275  -0.00337  -0.01157  -0.01488   1.71858
    A3        2.40288  -0.00002   0.00536  -0.01015  -0.00460   2.39829
    A4        1.99730  -0.00003   0.00697  -0.01545  -0.00860   1.98870
    A5        1.84858  -0.00003  -0.01247   0.02197   0.01036   1.85894
    A6        2.99357  -0.00143  -0.03814  -0.20328  -0.24150   2.75207
    A7        3.12072  -0.00015  -0.00824  -0.03727  -0.04333   3.07739
    D1        1.86307   0.00035   0.04193  -0.04597  -0.00404   1.85902
    D2       -3.08669  -0.00019   0.04630  -0.10325  -0.06054   3.13596
    D3        0.38210   0.00016   0.04360  -0.07906  -0.03100   0.35110
    D4       -2.83046   0.00034   0.00053   0.01675   0.01289  -2.81757
         Item               Value     Threshold  Converged?
 Maximum Force            0.006451     0.000450     NO 
 RMS     Force            0.002912     0.000300     NO 
 Maximum Displacement     0.346638     0.001800     NO 
 RMS     Displacement     0.172550     0.001200     NO 
 Predicted change in Energy=-3.840715D-04
 GradGradGradGradGradGradGradGradGradGradGradGradGradGradGradGradGradGrad

                          Input orientation:                          
 ---------------------------------------------------------------------
 Center     Atomic      Atomic             Coordinates (Angstroms)
 Number     Number       Type             X           Y           Z
 ---------------------------------------------------------------------
      1          8           0       -2.094301    2.301831   -0.344165
      2          8           0       -0.651433    2.135854   -0.420434
      3          1           0       -2.353470    1.401989   -0.119114
      4          1           0       -0.552959    2.180536   -1.387731
      5          8           0       -1.046778    2.450493   -3.104589
      6          1           0       -0.623059    2.488000   -3.962433
      7          1           0       -1.896507    2.882582   -3.201481
 ---------------------------------------------------------------------
                    Distance matrix (angstroms):
                    1          2          3          4          5
     1  O    0.000000
     2  O    1.454384   0.000000
     3  H    0.963085   1.877839   0.000000
     4  H    1.865335   0.973323   2.336100   0.000000
     5  O    2.956238   2.731297   3.423428   1.806747   0.000000
     6  H    3.910380   3.559575   4.352567   2.593943   0.957519
     7  H    2.922439   3.137202   3.449921   2.363827   0.958190
                    6          7
     6  H    0.000000
     7  H    1.535061   0.000000
 Stoichiometry    H4O3
 Framework group  C1[X(H4O3)]
 Deg. of freedom    15
 Full point group                 C1      NOp   1
 Largest Abelian subgroup         C1      NOp   1
 Largest concise Abelian subgroup C1      NOp   1
                         Standard orientation:                         
 ---------------------------------------------------------------------
 Center     Atomic      Atomic             Coordinates (Angstroms)
 Number     Number       Type             X           Y           Z
 ---------------------------------------------------------------------
      1          8           0       -1.182970   -0.638314   -0.087974
      2          8           0       -0.887819    0.784482   -0.026561
      3          1           0       -1.549341   -0.770250    0.792876
      4          1           0        0.081081    0.726857    0.046044
      5          8           0        1.711640   -0.051316    0.038556
      6          1           0        2.626484    0.228473    0.078815
      7          1           0        1.714964   -0.943893   -0.309903
 ---------------------------------------------------------------------
 Rotational constants (GHZ):          26.1332300           5.3239999           4.4906955
 Standard basis: Aug-CC-pVTZ (5D, 7F)
 There are   265 symmetry adapted cartesian basis functions of A   symmetry.
 There are   230 symmetry adapted basis functions of A   symmetry.
   230 basis functions,   324 primitive gaussians,   265 cartesian basis functions
    14 alpha electrons       14 beta electrons
       nuclear repulsion energy        79.1745124434 Hartrees.
 NAtoms=    7 NActive=    7 NUniq=    7 SFac= 1.00D+00 NAtFMM=   60 NAOKFM=F Big=F
 Integral buffers will be    131072 words long.
 Raffenetti 1 integral format.
 Two-electron integral symmetry is turned on.
 One-electron integrals computed using PRISM.
 NBasis=   230 RedAO= T EigKep=  1.74D-04  NBF=   230
 NBsUse=   230 1.00D-06 EigRej= -1.00D+00 NBFU=   230
 Initial guess from the checkpoint file:  "/gscratch/scrubbed/gds001/Gau-12558.chk"
 B after Tr=     0.000000    0.000000    0.000000
         Rot=    0.999795   -0.003370   -0.000895   -0.019968 Ang=  -2.32 deg.
 ExpMin= 2.53D-02 ExpMax= 1.53D+04 ExpMxC= 5.22D+02 IAcc=3 IRadAn=         5 AccDes= 0.00D+00
 Harris functional with IExCor=  205 and IRadAn=       5 diagonalized for initial guess.
 HarFok:  IExCor=  205 AccDes= 0.00D+00 IRadAn=         5 IDoV= 1 UseB2=F ITyADJ=14
 ICtDFT=  3500011 ScaDFX=  1.000000  1.000000  1.000000  1.000000
 FoFCou: FMM=F IPFlag=           0 FMFlag=      100000 FMFlg1=           0
         NFxFlg=           0 DoJE=T BraDBF=F KetDBF=T FulRan=T
         wScrn=  0.000000 ICntrl=       500 IOpCl=  0 I1Cent=   200000004 NGrid=           0
         NMat0=    1 NMatS0=      1 NMatT0=    0 NMatD0=    1 NMtDS0=    0 NMtDT0=    0
 Petite list used in FoFCou.
 Keep R1 ints in memory in canonical form, NReq=366790607.
 Requested convergence on RMS density matrix=1.00D-08 within 128 cycles.
 Requested convergence on MAX density matrix=1.00D-06.
 Requested convergence on             energy=1.00D-06.
 No special actions if energy rises.
 SCF Done:  E(RHF) =  -226.906007103     A.U. after   13 cycles
            NFock= 13  Conv=0.55D-08     -V/T= 2.0016
 ExpMin= 2.53D-02 ExpMax= 1.53D+04 ExpMxC= 5.22D+02 IAcc=3 IRadAn=         5 AccDes= 0.00D+00
 HarFok:  IExCor=  205 AccDes= 0.00D+00 IRadAn=         5 IDoV=-2 UseB2=F ITyADJ=14
 ICtDFT= 12500011 ScaDFX=  1.000000  1.000000  1.000000  1.000000
 Range of M.O.s used for correlation:     4   230
 NBasis=   230 NAE=    14 NBE=    14 NFC=     3 NFV=     0
 NROrb=    227 NOA=    11 NOB=    11 NVA=   216 NVB=   216

 **** Warning!!: The largest alpha MO coefficient is  0.16399495D+02

 Fully direct method using O(ONN) memory.
 JobTyp=1 Pass  1:  I=   4 to  14 NPSUse= 28 ParTrn=T ParDer=T DoDerP=T.
 Spin components of T(2) and E(2):
     alpha-alpha T2 =       0.2443340749D-01 E2=     -0.9665776103D-01
     alpha-beta  T2 =       0.1405098808D+00 E2=     -0.5876675766D+00
     beta-beta   T2 =       0.2443340749D-01 E2=     -0.9665776103D-01
 ANorm=    0.1090585483D+01
 E2 =    -0.7809830987D+00 EUMP2 =    -0.22768699020135D+03
          IDoAtm=1111111
          Differentiating once with respect to electric field.
                with respect to dipole field.
          Differentiating once with respect to nuclear coordinates.
 Keep R1 ints in memory in canonical form, NReq=366796084.
          There are     1 degrees of freedom in the 1st order CPHF.  IDoFFX=0 NUNeed=     1.
 LinEq1:  Iter=  0 NonCon=     1 RMS=3.40D-03 Max=2.86D-02 NDo=     1
 AX will form     1 AO Fock derivatives at one time.
 LinEq1:  Iter=  1 NonCon=     1 RMS=3.96D-04 Max=3.38D-03 NDo=     1
 LinEq1:  Iter=  2 NonCon=     1 RMS=1.59D-04 Max=1.65D-03 NDo=     1
 LinEq1:  Iter=  3 NonCon=     1 RMS=5.08D-05 Max=7.37D-04 NDo=     1
 LinEq1:  Iter=  4 NonCon=     1 RMS=1.94D-05 Max=3.13D-04 NDo=     1
 LinEq1:  Iter=  5 NonCon=     1 RMS=9.78D-06 Max=2.01D-04 NDo=     1
 LinEq1:  Iter=  6 NonCon=     1 RMS=2.81D-06 Max=3.21D-05 NDo=     1
 LinEq1:  Iter=  7 NonCon=     1 RMS=9.66D-07 Max=9.95D-06 NDo=     1
 LinEq1:  Iter=  8 NonCon=     1 RMS=3.78D-07 Max=3.25D-06 NDo=     1
 LinEq1:  Iter=  9 NonCon=     1 RMS=8.68D-08 Max=9.75D-07 NDo=     1
 LinEq1:  Iter= 10 NonCon=     1 RMS=1.41D-08 Max=1.57D-07 NDo=     1
 LinEq1:  Iter= 11 NonCon=     1 RMS=3.03D-09 Max=3.60D-08 NDo=     1
 LinEq1:  Iter= 12 NonCon=     1 RMS=6.69D-10 Max=8.23D-09 NDo=     1
 LinEq1:  Iter= 13 NonCon=     1 RMS=1.22D-10 Max=1.19D-09 NDo=     1
 LinEq1:  Iter= 14 NonCon=     0 RMS=2.32D-11 Max=2.01D-10 NDo=     1
 Linear equations converged to 1.000D-10 1.000D-09 after    14 iterations.
 End of Minotr F.D. properties file   721 does not exist.
 End of Minotr F.D. properties file   722 does not exist.
 End of Minotr F.D. properties file   788 does not exist.
 Calling FoFJK, ICntrl=  10002127 FMM=F ISym2X=0 I1Cent= 0 IOpClX= 0 NMat=1 NMatS=1 NMatT=0.
 ***** Axes restored to original set *****
 -------------------------------------------------------------------
 Center     Atomic                   Forces (Hartrees/Bohr)
 Number     Number              X              Y              Z
 -------------------------------------------------------------------
      1        8           0.000677604    0.003502568   -0.000551254
      2        8          -0.000738474   -0.001021604    0.002368510
      3        1          -0.000432896   -0.003072927    0.001027895
      4        1          -0.000061786    0.001020373   -0.000775053
      5        8           0.002761026   -0.003245913    0.001054463
      6        1           0.000535238    0.001088248   -0.003256339
      7        1          -0.002740713    0.001729256    0.000131777
 -------------------------------------------------------------------
 Cartesian Forces:  Max     0.003502568 RMS     0.001882592

 GradGradGradGradGradGradGradGradGradGradGradGradGradGradGradGradGradGrad
 Berny optimization.
 Using GEDIIS/GDIIS optimizer.
 FormGI is forming the generalized inverse of G from B-inverse, IUseBI=4.
 Internal  Forces:  Max     0.003227826 RMS     0.001751400
 Search for a local minimum.
 Step number   4 out of a maximum of   27
 All quantities printed in internal units (Hartrees-Bohrs-Radians)
 Mixed Optimization -- RFO/linear search
 Update second derivatives using D2CorX and points    1    2    3    4
 DE= -2.98D-04 DEPred=-3.84D-04 R= 7.76D-01
 TightC=F SS=  1.41D+00  RLast= 2.61D-01 DXNew= 8.4853D-01 7.8307D-01
 Trust test= 7.76D-01 RLast= 2.61D-01 DXMaxT set to 7.83D-01
 The second derivative matrix:
                          R1        R2        R3        R4        R5
           R1           0.42111
           R2          -0.02184   0.55332
           R3          -0.01599   0.01957   0.50844
           R4           0.00584   0.01753   0.02522   0.04471
           R5          -0.01973   0.02566   0.01464   0.02437   0.54965
           R6          -0.01986   0.02622   0.01482   0.02445   0.02086
           A1           0.05236  -0.02464  -0.01102  -0.01522  -0.01771
           A2           0.04022  -0.00071   0.00633  -0.00801   0.00435
           A3          -0.00127   0.00734   0.00535   0.00990   0.00623
           A4          -0.00402  -0.00722  -0.01277   0.01108  -0.01104
           A5           0.00417  -0.00101   0.00548  -0.01910   0.00324
           A6          -0.00696   0.00657   0.00802   0.00678   0.00676
           A7           0.00205   0.00251   0.00309   0.00002   0.00301
           D1           0.00191   0.00463   0.00410   0.00021   0.00484
           D2           0.00240  -0.00317  -0.00321   0.00036  -0.00336
           D3          -0.00154   0.00275   0.00169   0.00057   0.00244
           D4           0.00206   0.00225   0.00271  -0.00130   0.00279
                          R6        A1        A2        A3        A4
           R6           0.54868
           A1          -0.01813   0.20876
           A2           0.00454   0.03014   0.19028
           A3           0.00616   0.00026   0.00646   0.16362
           A4          -0.01073   0.00443   0.00274  -0.00635   0.15775
           A5           0.00307  -0.00446  -0.00904   0.00156   0.00807
           A6           0.00613  -0.00458  -0.00189   0.00544  -0.00812
           A7           0.00298   0.00065   0.00224   0.00179  -0.00069
           D1           0.00499  -0.00062   0.00306   0.00183   0.00019
           D2          -0.00333   0.00353   0.00175  -0.00128   0.00034
           D3           0.00256  -0.00246  -0.00015   0.00030   0.00026
           D4           0.00284   0.00005   0.00152   0.00133   0.00053
                          A5        A6        A7        D1        D2
           A5           0.15162
           A6           0.00150   0.01403
           A7          -0.00127   0.00183   0.00282
           D1          -0.00203   0.00016   0.00049   0.00647
           D2           0.00105  -0.00171  -0.00018  -0.00012   0.00255
           D3          -0.00066  -0.00075   0.00003   0.00043  -0.00003
           D4          -0.00173   0.00068   0.00027   0.00042  -0.00004
                          D3        D4
           D3           0.00255
           D4           0.00018   0.01406
 ITU=  1  0  1  0
 Use linear search instead of GDIIS.
     Eigenvalues ---    0.00200   0.00243   0.00619   0.01034   0.01337
     Eigenvalues ---    0.03485   0.14665   0.16384   0.17151   0.21298
     Eigenvalues ---    0.43128   0.50104   0.52439   0.52840   0.62549
 RFO step:  Lambda=-2.39610821D-04 EMin= 1.99768827D-03
 Quartic linear search produced a step of -0.19385.
 Iteration  1 RMS(Cart)=  0.04569816 RMS(Int)=  0.00151381
 Iteration  2 RMS(Cart)=  0.00138261 RMS(Int)=  0.00031309
 Iteration  3 RMS(Cart)=  0.00000256 RMS(Int)=  0.00031309
 Iteration  4 RMS(Cart)=  0.00000000 RMS(Int)=  0.00031309
 Variable       Old X    -DE/DX   Delta X   Delta X   Delta X     New X
                                 (Linear)    (Quad)   (Total)
    R1        2.74839  -0.00017   0.00278  -0.00469  -0.00192   2.74647
    R2        1.81997   0.00323  -0.00042   0.00313   0.00272   1.82268
    R3        1.83931   0.00290   0.00021   0.00096   0.00117   1.84048
    R4        3.41426   0.00175  -0.00868   0.04868   0.04001   3.45426
    R5        1.80945   0.00320  -0.00003   0.00180   0.00177   1.81122
    R6        1.81072   0.00320  -0.00003   0.00184   0.00181   1.81252
    A1        1.74426  -0.00078   0.00427  -0.00410   0.00017   1.74443
    A2        1.71858   0.00156   0.00288   0.00610   0.00898   1.72757
    A3        2.39829   0.00160   0.00089  -0.00010   0.00063   2.39892
    A4        1.98870  -0.00116   0.00167  -0.01231  -0.01074   1.97797
    A5        1.85894  -0.00047  -0.00201   0.00447   0.00220   1.86114
    A6        2.75207   0.00130   0.04681  -0.02272   0.02410   2.77617
    A7        3.07739   0.00049   0.00840   0.08252   0.09056   3.16795
    D1        1.85902   0.00051   0.00078   0.06050   0.06128   1.92031
    D2        3.13596  -0.00034   0.01174  -0.09634  -0.08399   3.05197
    D3        0.35110  -0.00005   0.00601  -0.08451  -0.07925   0.27185
    D4       -2.81757   0.00048  -0.00250   0.03565   0.03386  -2.78371
         Item               Value     Threshold  Converged?
 Maximum Force            0.003228     0.000450     NO 
 RMS     Force            0.001751     0.000300     NO 
 Maximum Displacement     0.078762     0.001800     NO 
 RMS     Displacement     0.045579     0.001200     NO 
 Predicted change in Energy=-1.415224D-04
 GradGradGradGradGradGradGradGradGradGradGradGradGradGradGradGradGradGrad

                          Input orientation:                          
 ---------------------------------------------------------------------
 Center     Atomic      Atomic             Coordinates (Angstroms)
 Number     Number       Type             X           Y           Z
 ---------------------------------------------------------------------
      1          8           0       -2.086505    2.307619   -0.309478
      2          8           0       -0.653219    2.094175   -0.420911
      3          1           0       -2.371147    1.413778   -0.085140
      4          1           0       -0.558089    2.200553   -1.384340
      5          8           0       -1.040177    2.450660   -3.129710
      6          1           0       -0.602813    2.524991   -3.979314
      7          1           0       -1.906556    2.849507   -3.231054
 ---------------------------------------------------------------------
                    Distance matrix (angstroms):
                    1          2          3          4          5
     1  O    0.000000
     2  O    1.453370   0.000000
     3  H    0.964522   1.878020   0.000000
     4  H    1.871589   0.973941   2.365188   0.000000
     5  O    3.011473   2.759422   3.480807   1.827917   0.000000
     6  H    3.964377   3.584742   4.418868   2.615559   0.958456
     7  H    2.976849   3.168325   3.489117   2.376943   0.959147
                    6          7
     6  H    0.000000
     7  H    1.537839   0.000000
 Stoichiometry    H4O3
 Framework group  C1[X(H4O3)]
 Deg. of freedom    15
 Full point group                 C1      NOp   1
 Largest Abelian subgroup         C1      NOp   1
 Largest concise Abelian subgroup C1      NOp   1
                         Standard orientation:                         
 ---------------------------------------------------------------------
 Center     Atomic      Atomic             Coordinates (Angstroms)
 Number     Number       Type             X           Y           Z
 ---------------------------------------------------------------------
      1          8           0       -1.212893   -0.631031   -0.094010
      2          8           0       -0.888513    0.783581   -0.016988
      3          1           0       -1.585016   -0.764804    0.785723
      4          1           0        0.082958    0.716164   -0.000858
      5          8           0        1.739893   -0.054686    0.039582
      6          1           0        2.653575    0.234821    0.036398
      7          1           0        1.740584   -0.969093   -0.249936
 ---------------------------------------------------------------------
 Rotational constants (GHZ):          26.3751243           5.1594126           4.3765144
 Standard basis: Aug-CC-pVTZ (5D, 7F)
 There are   265 symmetry adapted cartesian basis functions of A   symmetry.
 There are   230 symmetry adapted basis functions of A   symmetry.
   230 basis functions,   324 primitive gaussians,   265 cartesian basis functions
    14 alpha electrons       14 beta electrons
       nuclear repulsion energy        78.7081887939 Hartrees.
 NAtoms=    7 NActive=    7 NUniq=    7 SFac= 1.00D+00 NAtFMM=   60 NAOKFM=F Big=F
 Integral buffers will be    131072 words long.
 Raffenetti 1 integral format.
 Two-electron integral symmetry is turned on.
 One-electron integrals computed using PRISM.
 NBasis=   230 RedAO= T EigKep=  1.77D-04  NBF=   230
 NBsUse=   230 1.00D-06 EigRej= -1.00D+00 NBFU=   230
 Initial guess from the checkpoint file:  "/gscratch/scrubbed/gds001/Gau-12558.chk"
 B after Tr=     0.000000   -0.000000    0.000000
         Rot=    0.999997    0.000479    0.000055    0.002273 Ang=   0.27 deg.
 ExpMin= 2.53D-02 ExpMax= 1.53D+04 ExpMxC= 5.22D+02 IAcc=3 IRadAn=         5 AccDes= 0.00D+00
 Harris functional with IExCor=  205 and IRadAn=       5 diagonalized for initial guess.
 HarFok:  IExCor=  205 AccDes= 0.00D+00 IRadAn=         5 IDoV= 1 UseB2=F ITyADJ=14
 ICtDFT=  3500011 ScaDFX=  1.000000  1.000000  1.000000  1.000000
 FoFCou: FMM=F IPFlag=           0 FMFlag=      100000 FMFlg1=           0
         NFxFlg=           0 DoJE=T BraDBF=F KetDBF=T FulRan=T
         wScrn=  0.000000 ICntrl=       500 IOpCl=  0 I1Cent=   200000004 NGrid=           0
         NMat0=    1 NMatS0=      1 NMatT0=    0 NMatD0=    1 NMtDS0=    0 NMtDT0=    0
 Petite list used in FoFCou.
 Keep R1 ints in memory in canonical form, NReq=366789965.
 Requested convergence on RMS density matrix=1.00D-08 within 128 cycles.
 Requested convergence on MAX density matrix=1.00D-06.
 Requested convergence on             energy=1.00D-06.
 No special actions if energy rises.
 SCF Done:  E(RHF) =  -226.906340041     A.U. after   11 cycles
            NFock= 11  Conv=0.94D-08     -V/T= 2.0016
 ExpMin= 2.53D-02 ExpMax= 1.53D+04 ExpMxC= 5.22D+02 IAcc=3 IRadAn=         5 AccDes= 0.00D+00
 HarFok:  IExCor=  205 AccDes= 0.00D+00 IRadAn=         5 IDoV=-2 UseB2=F ITyADJ=14
 ICtDFT= 12500011 ScaDFX=  1.000000  1.000000  1.000000  1.000000
 Range of M.O.s used for correlation:     4   230
 NBasis=   230 NAE=    14 NBE=    14 NFC=     3 NFV=     0
 NROrb=    227 NOA=    11 NOB=    11 NVA=   216 NVB=   216

 **** Warning!!: The largest alpha MO coefficient is  0.15684874D+02

 Fully direct method using O(ONN) memory.
 JobTyp=1 Pass  1:  I=   4 to  14 NPSUse= 28 ParTrn=T ParDer=T DoDerP=T.
 Spin components of T(2) and E(2):
     alpha-alpha T2 =       0.2442564404D-01 E2=     -0.9660238924D-01
     alpha-beta  T2 =       0.1405462970D+00 E2=     -0.5875950936D+00
     beta-beta   T2 =       0.2442564404D-01 E2=     -0.9660238924D-01
 ANorm=    0.1090595060D+01
 E2 =    -0.7807998720D+00 EUMP2 =    -0.22768713991269D+03
          IDoAtm=1111111
          Differentiating once with respect to electric field.
                with respect to dipole field.
          Differentiating once with respect to nuclear coordinates.
 Keep R1 ints in memory in canonical form, NReq=366795209.
          There are     1 degrees of freedom in the 1st order CPHF.  IDoFFX=0 NUNeed=     1.
 LinEq1:  Iter=  0 NonCon=     1 RMS=3.40D-03 Max=2.87D-02 NDo=     1
 AX will form     1 AO Fock derivatives at one time.
 LinEq1:  Iter=  1 NonCon=     1 RMS=3.95D-04 Max=3.39D-03 NDo=     1
 LinEq1:  Iter=  2 NonCon=     1 RMS=1.58D-04 Max=1.57D-03 NDo=     1
 LinEq1:  Iter=  3 NonCon=     1 RMS=5.00D-05 Max=7.24D-04 NDo=     1
 LinEq1:  Iter=  4 NonCon=     1 RMS=1.87D-05 Max=3.02D-04 NDo=     1
 LinEq1:  Iter=  5 NonCon=     1 RMS=9.54D-06 Max=1.99D-04 NDo=     1
 LinEq1:  Iter=  6 NonCon=     1 RMS=2.78D-06 Max=3.22D-05 NDo=     1
 LinEq1:  Iter=  7 NonCon=     1 RMS=9.71D-07 Max=1.00D-05 NDo=     1
 LinEq1:  Iter=  8 NonCon=     1 RMS=3.76D-07 Max=3.35D-06 NDo=     1
 LinEq1:  Iter=  9 NonCon=     1 RMS=8.55D-08 Max=9.62D-07 NDo=     1
 LinEq1:  Iter= 10 NonCon=     1 RMS=1.38D-08 Max=1.49D-07 NDo=     1
 LinEq1:  Iter= 11 NonCon=     1 RMS=2.96D-09 Max=3.29D-08 NDo=     1
 LinEq1:  Iter= 12 NonCon=     1 RMS=6.49D-10 Max=7.36D-09 NDo=     1
 LinEq1:  Iter= 13 NonCon=     1 RMS=1.20D-10 Max=1.13D-09 NDo=     1
 LinEq1:  Iter= 14 NonCon=     0 RMS=2.25D-11 Max=2.23D-10 NDo=     1
 Linear equations converged to 1.000D-10 1.000D-09 after    14 iterations.
 End of Minotr F.D. properties file   721 does not exist.
 End of Minotr F.D. properties file   722 does not exist.
 End of Minotr F.D. properties file   788 does not exist.
 Calling FoFJK, ICntrl=  10002127 FMM=F ISym2X=0 I1Cent= 0 IOpClX= 0 NMat=1 NMatS=1 NMatT=0.
 ***** Axes restored to original set *****
 -------------------------------------------------------------------
 Center     Atomic                   Forces (Hartrees/Bohr)
 Number     Number              X              Y              Z
 -------------------------------------------------------------------
      1        8          -0.000066639    0.002312564   -0.000885178
      2        8           0.000633426   -0.000292768    0.001905013
      3        1           0.000184398   -0.001824359    0.000381152
      4        1          -0.001231476   -0.000087449   -0.000329755
      5        8           0.002375425   -0.002734894    0.001625533
      6        1          -0.000155708    0.001240911   -0.002366317
      7        1          -0.001739426    0.001385995   -0.000330448
 -------------------------------------------------------------------
 Cartesian Forces:  Max     0.002734894 RMS     0.001437200

 GradGradGradGradGradGradGradGradGradGradGradGradGradGradGradGradGradGrad
 Berny optimization.
 Using GEDIIS/GDIIS optimizer.
 FormGI is forming the generalized inverse of G from B-inverse, IUseBI=4.
 Internal  Forces:  Max     0.002182449 RMS     0.001147352
 Search for a local minimum.
 Step number   5 out of a maximum of   27
 All quantities printed in internal units (Hartrees-Bohrs-Radians)
 Mixed Optimization -- RFO/linear search
 Update second derivatives using D2CorX and points    2    3    4    5
[...]
 04521,0.00000747,-0.00000152,0.00001865,0.00006050,-0.00005545,0.00003
 702,0.00006592,0.00004593,0.00002339,-0.00001587,-0.00006632,-0.000058
 54,-0.00010272,0.00009179,0.00036461,0.00016431,0.00001752,0.00016397,
 -0.00014534,-0.00003004,-0.00010178,0.00001499,-0.00002896,-0.00032214
 ,-0.00019035,0.00015554,0.00018436,0.00001135,-0.00003674,-0.00002888,
 0.00024776,-0.00016911,-0.00026013,0.08661906,-0.41509124,-0.82895147,
 0.19647258,0.40597737,-0.12952296,-0.03616841,0.08039181,-0.03135278,0
 .07764642,-0.03057026,0.06401807,-0.00733561,-0.00753205,-0.02841379,0
 .00586873,-0.00689938,0.04625413,0.03304220,-0.01902340,-0.16443565,-0
 .04821587,0.33713610,-0.15511821,-0.02537425,0.03559256,-0.02024534,0.
 07157657,0.44889385,0.76008701,-0.39680568,-0.07263977,-0.02218587,0.0
 1084740,-0.37438965,-0.73649083,-0.21217414,-0.39757826,0.08478604,0.0
 3534528,0.00929102,0.00074946,0.17482308,0.38702277,-0.08425394,-0.002
 57264,-0.00275693,-0.01088822,-0.01581807,0.00224426,-0.01839714,0.002
 81667,-0.00145529,0.00196719,0.01581115,-0.00365368,0.00527788,-0.0019
 8882,-0.00032133,-0.01346595,0.01481606,0.00201949,-0.00169795,0.00176
 569,0.00183321,0.00986142,0.00895655,-0.00089694,-0.00235856,-0.039154
 21,0.01637825,0.11886669,0.00305752,-0.00071067,-0.00127261,0.02860145
 ,-0.01478700,-0.11670683,0.00080316,-0.00029284,0.00092881,0.00062162,
 0.00039897,-0.00021658,-0.00142072,-0.00022563,0.00008768,0.00003298,-
 0.00004098,-0.00037127,-0.00006909,-0.00028179,0.00001315,-0.00035276,
 -0.00001294,-0.00013279,0.00041905,0.00032832,0.00014068,0.00014007,-0
 .00019634,-0.00024930,-0.00061078,0.00026680,-0.00040144,-0.00037278,-
 0.00050356,-0.00056906,0.00109907,0.00031386,-0.00094735,-0.00041609,0
 .00014125,-0.00016003,-0.00062954,-0.00001532,0.00156203,0.00108551,0.
 00057573,-0.00095826,-0.00002803,0.00011392,0.00005557,0.00001823,0.00
 000944,-0.00021697,-0.00003724,-0.00008249,0.00005584,-0.00011357,0.00
 003382,0.00035806,-0.00012451,-0.00018859,-0.00039421,0.00009414,-0.00
 002899,0.00001879,-0.00000328,-0.00008773,-0.00000433,-0.00013318,0.00
 004331,0.00000825,-0.00002793,0.00013153,-0.00001355,0.00034939,0.0000
 8734,0.00032158,-0.00071260,0.00001868,-0.00031717,0.00001438,-0.00002
 767,-0.00007721,0.00013818,0.00002640,-0.00015493,-0.00003569,-0.00001
 437,0.00000525,-0.00005379,0.00007119,0.00040264,-0.00036581,-0.000388
 27,-0.00014167,0.00029182,0.00042394,-0.00006277,-0.00043726,0.0004991
 8,-0.00009775,-0.00092553,-0.00014292,0.00016510,0.00065484,-0.0001010
 1,-0.00010493,-0.00015653,0.00012947,-0.00144810,0.00015653,0.00008453
 ,-0.00037197,0.00019097,-0.00016414,0.00001089,0.00051699,0.00073212,-
 0.00046341,0.00050878,0.00020202,0.00018466,-0.00002656,-0.00073014,0.
 00013871,-0.00061335,0.00019955,0.00028746,0.00027776,-0.00019366,0.00
 030809,0.00020064,0.00009523,-0.00001356,-0.00009123,-0.00030511,-0.00
 044194,0.00123468,-0.00007156,0.00148763,0.00088226,0.00034948,-0.0003
 3236,-0.00206528,-0.00048070,0.00014581,-0.00059994,0.00013820,-0.0004
 9338,-0.00114835,0.00021698,0.00121434,-0.00015012,0.00010365,0.000028
 68,0.00184675,-0.00025604,-0.00205072,0.03758642,-0.04746701,-0.099224
 61,0.00619778,0.04381852,-0.05777909,-0.02906152,0.01496952,0.04145327
 ,0.15606186,-0.00033221,0.04773453,-0.01338278,0.00353407,0.02673340,-
 0.07025377,0.00997202,0.07370700,0.25235662,-0.08248993,-0.99539360,0.
 00765479,0.02099781,-0.00283030,-0.01019790,0.01167382,-0.01271763,-0.
 00753862,0.03836429,0.05459281,-0.03453235,-0.00597257,-0.00329924,-0.
 00071425,-0.03030893,-0.05369279,-0.01706890,-0.03427008,0.01061362,0.
 00390045,0.00115289,0.00095081,0.01417696,0.03218852,-0.01030009,-0.01
 695140,0.01165489,-0.04505346,-0.11652230,-0.01499591,-0.17122235,0.01
 018592,-0.00211547,-0.00094819,0.12204371,0.00941043,-0.00300106,0.003
 82104,-0.01252385,-0.07140134,0.07294483,-0.00229134,0.00239704,0.0010
 4138,0.00336446,0.07008539,0.08140037,-0.01932638,-0.02627948,-0.29932
 896,0.09463418,0.92469306,0.00205862,0.00328113,-0.00093463,0.23053069
 ,-0.08005468,-0.89450887,0.00035061,-0.00035313,0.00003091,0.00050654,
 0.00028300,0.00110167,-0.00030704,-0.00004130,-0.00014921,0.00232054,0
 .00033728,-0.00717778,-0.00859290,0.00016440,-0.00028754,0.00064137,0.
 00034600,0.00031685,0.00121343,0.00001753,0.00005412,0.00005334,-0.001
 39401,0.00029147,-0.00414352,0.00458263,-0.01252570,-0.00082176,-0.000
 17546,0.00017005,0.00047719,0.00013102,-0.00474358,-0.00041022,-0.0001
 4778,-0.00000195,-0.00744627,0.00017269,0.00113695,0.01091092,0.006200
 31,-0.00769376,-0.00001066,0.00008584,0.00018098,-0.00051592,0.0000095
 1,-0.00091796,-0.00003116,0.00000792,0.00000772,-0.00175696,-0.0001103
 3,0.00135885,0.00133910,0.00128469,-0.00143146,0.00059031,0.00001345,-
 0.00004709,-0.00037195,-0.00043053,0.00004311,-0.00080872,-0.00005623,
 -0.00001645,-0.00001445,0.00106052,-0.00014481,0.00280970,0.00189698,0
 .00923675,-0.00948466,-0.00266184,-0.00846096,-0.00018284,0.00012992,0
 .00003114,0.00021840,-0.00015029,-0.00075560,-0.00000722,-0.00001574,-
 0.00002316,-0.00105849,-0.00009069,0.00229683,0.00024951,-0.00695306,0
 .00519368,0.00059790,0.00788776,-0.00588050,0.00043177,0.00011208,0.00
 002081,-0.00027076,-0.00017228,0.00165343,0.00023401,0.00006605,0.0000
 8117,0.00068050,0.00181336,-0.00884179,0.00438315,-0.00500124,-0.00127
 841,0.00038530,0.00017765,0.00018275,-0.00584397,-0.00015333,0.0002329
 9,0.00000614,0.00007736,-0.00012731,-0.00011738,-0.00003267,-0.0000355
 1,-0.00015161,0.00242551,0.00177331,0.00279958,-0.00670546,0.00291405,
 0.00330388,0.00138420,-0.00061055,-0.00080789,0.00300438,-0.00414698,0
 .00072911,-0.00014855,-0.00046324,0.00092303,0.00010491,0.00154190,-0.
 00027020,-0.00005953,-0.00030460,-0.00480193,0.00216544,-0.00640386,-0
 .00496603,0.00298813,0.00593861,0.00020396,-0.00001768,-0.00086238,0.0
 0818205,-0.00503272,0.00055357,0.00065015,0.00036499,-0.00026027,0.000
 32260,-0.00062692,-0.00354852,-0.00031998,0.00021963,-0.00032616,0.003
 05992,-0.00035145,0.00098447,-0.00041334,0.00001039,-0.00064742,-0.001
 47201,0.00047330,0.00139148,0.00398336,-0.00143173,-0.01538596,0.00033
 622,-0.00031557,0.00037315,0.00026658,0.00041922,0.00003707,-0.0007062
 4,0.00021500,0.00027809,-0.00059521,-0.00007106,-0.00007498,0.00003963
 ,-0.00006007,-0.00065985,0.00008827,-0.00097283,-0.00003284,0.00010004
 ,0.00027685,-0.00000296,-0.00056884,0.00021977,0.00103594,-0.00008039,
 0.00003465,-0.00037919,-0.00239417,-0.00032617,-0.00165853,0.00010806,
 -0.00005720,-0.00008030,0.00429045,-0.00004671,0.00018956,0.00018439,-
 0.00003088,-0.00041957,0.00097658,-0.00003815,0.00001275,-0.00007754,0
 .00131286,-0.00069179,0.00159878,-0.00068940,-0.00147987,-0.00357529,0
 .00162400,0.01672023,0.00002707,-0.00002298,-0.00010483,0.00357455,0.0
 0013728,-0.01680806,-0.00038998,0.00039837,0.00628914,-0.00104654,-0.0
 0051732,-0.00206963,0.00019581,0.00039857,0.00022490,-0.00058999,0.000
 99034,0.00252398,-0.41657325,-0.00053396,-0.00004928,0.00247285,0.0001
 3160,0.00046573,-0.00087005,0.00022532,0.00028864,-0.00002241,-0.00080
 515,-0.00120352,-0.00035858,0.19774316,-0.54339451,0.00075534,-0.00056
 802,-0.00507518,0.00041852,0.00024718,0.00031779,-0.00019986,-0.000392
 19,-0.00004237,-0.00000494,-0.00026586,0.00042555,0.22380387,0.1681779
 4,-0.23610938,-0.00016338,0.00006544,-0.00053374,0.00034520,0.00022366
 ,0.00013269,-0.00001835,-0.00002887,-0.00005756,-0.00012771,-0.0006865
 0,-0.00050021,-0.04339136,0.01785098,0.01412060,0.06356904,0.00032683,
 0.00009654,-0.00157278,-0.00012676,-0.00007297,0.00083437,-0.00006935,
 -0.00014349,-0.00003723,0.00023157,0.00020884,-0.00040262,0.12614097,0
 .44430293,-0.34950527,-0.09205620,-0.40311274,-0.00026525,0.00002429,0
 .00054963,0.00017471,-0.00024959,-0.00029135,0.00003023,0.00005407,-0.
 00000107,0.00018317,0.00030190,-0.00028531,-0.04737847,-0.26761030,0.1
 7526993,0.01182098,0.29864721,-0.16770733,-0.00003263,-0.00076750,-0.0
 0574579,0.00008902,0.00054166,0.00104705,-0.00018208,-0.00039638,0.000
 29349,-0.00120626,-0.00150096,-0.00364888,0.46179529,-0.21461195,-0.23
 889355,-0.02021343,-0.03444706,0.03543463,-0.44024992,0.00002530,-0.00
 123910,0.00055099,-0.00013292,-0.00023524,-0.00002210,-0.00016141,0.00
 029883,0.00061339,-0.00039057,0.00190372,-0.00028771,-0.32515409,0.099
 58998,0.18230622,0.07463150,-0.04127911,-0.03116758,0.25118219,-0.0590
 3908,-0.00102773,0.00235959,0.00819527,-0.00077518,-0.00005338,-0.0027
 4924,0.00030118,0.00069690,-0.00085188,-0.00163476,-0.00125676,0.00153
 229,-0.18339380,0.09821055,0.06521364,-0.02498275,0.05203632,-0.007534
 50,0.21151305,-0.15199323,-0.06380559,-0.03490320,0.00586458,0.0059494
 3,0.00022990,0.00155374,-0.00274472,0.05243704,-0.00759229,-0.02077280
 ,-0.81145448,-0.01374422,-0.00270730,0.00370444,-0.15797312,-1.2255810
 0,0.01453299,-0.00169709,-0.01128283,-1.70762707,0.61294544,5.63442784
 ,0.00192249,-0.00214067,0.00188609,0.00268503,0.00198174,0.00023756,-0
 .00230781,0.00214221,-0.00032026,-0.00018392,-0.00282026,-0.00036948,-
 0.00140652,0.00100990,0.00042873,0.00142383,-0.00055429,-0.00069086,-0
 .00168538,-0.00179199,-0.00071707,-0.00003223,0.00005046,0.00091485,-0
 .02242255,0.00404568,0.01717186,0.75854804,0.16908060,1.69872144,-0.00
 230866,0.00037322,0.00038255,-0.72456302,0.00667927,-0.00219728,-0.003
 21552,0.16755653,1.22760357,-0.61340133,-0.00091910,0.00007503,0.00202
 166,-0.17061768,-1.21653326,-0.02162486,0.00073096,0.00675258,1.734721
 80,-0.61490668,-5.60933067,-0.00218718,0.00273879,0.00064856,-1.730820
 82,0.62071760,5.56695168,0.00344119,-0.00061441,0.00252760,-0.00204834
 ,0.00118112,-0.00355199,0.00010125,-0.00057282,-0.00000867,-0.00761170
 ,-0.00715331,0.01296894,0.06313563,-0.00098838,-0.00020205,-0.00181712
 ,0.00009085,0.00161739,0.00489529,0.00006780,0.00020696,0.00007768,-0.
 00421739,-0.00729005,-0.01136715,-0.01264305,0.00204132,0.00503549,0.0
 0047025,0.00369415,-0.00380744,0.00058972,-0.00838094,-0.00004416,-0.0
 0115566,-0.00047678,0.01042245,-0.00676688,0.02092784,-0.04683435,0.01
 484945,-0.00150361,0.00082849,0.00014742,0.00061536,-0.00044236,-0.000
 33199,-0.00229634,-0.00000736,-0.00015981,-0.00001787,0.00397190,0.001
 93187,0.00691254,-0.00554612,-0.00788378,-0.00150771,0.00052210,0.0002
 1645,-0.00004837,0.00002667,0.00041757,-0.00015064,-0.00144198,-0.0000
 4434,-0.00006113,0.00002546,0.00174027,-0.00085027,0.00344904,-0.00890
 327,-0.00529880,0.00608026,0.00718498,0.00593465,-0.00020475,0.0001231
 1,0.00086611,0.00015658,-0.00054579,-0.00088858,0.00002018,-0.00000311
 ,0.00002590,0.00220829,0.00162673,0.00126886,-0.00185802,0.00698923,-0
 .00378558,-0.00246616,-0.00849101,0.00276926,-0.00130345,0.00028970,-0
 .00165800,0.00027509,-0.00019413,-0.00001658,-0.00008495,0.00002756,-0
 .00006223,-0.00561402,0.00252241,0.00002959,-0.05147193,0.02557395,0.0
 3673572,0.00067334,-0.00061167,0.00214389,0.05752593,-0.00016989,-0.00
 047414,-0.00006829,0.00032072,-0.00041253,0.00010620,0.00004466,0.0000
 4013,0.00017104,-0.00040471,-0.00080774,-0.00136256,0.02870575,0.00892
 521,-0.01406713,-0.00088870,0.00047456,0.00030085,-0.02760784,-0.00774
 550,0.00060740,-0.00062667,0.00340560,-0.00098567,0.00000487,-0.003827
 76,0.00011975,-0.00004003,0.00029539,0.00191423,-0.00098226,0.01278115
 ,0.03675649,-0.01362737,-0.01047508,-0.00123981,0.00035157,-0.00025598
 ,-0.03717237,0.01491990,-0.00192331,-0.00353067,0.02868127,0.04759030,
 -0.01361635,-0.02507372,-0.00495188,0.00359393,-0.00043073,-0.00144019
 ,-0.01425499,-0.00089163,0.00004776,-0.00060073,-0.00228180,-0.0187982
 9,0.00185430,-0.00054657,-0.00185682,-0.02785778,0.01071608,0.08488855
 ,0.00267703,-0.02761948,0.01187908,-0.00007763,0.00009912,-0.00029046,
 -0.00295836,-0.02772543,-0.04714754,0.02774278,-0.00005901,-0.00011474
 ,0.00006012,0.02746207,0.04750774,0.01186001,0.02853654,0.00135036,0.0
 0013103,0.00058641,0.00015816,-0.01237893,-0.02906046,-0.00245461,-0.0
 0052077,0.00018035,0.00138623,0.01066980,0.00307424,0.02718642,0.00012
 902,0.00001730,0.00002226,-0.01234711,0.00033708,0.00001125,0.00006220
 ,0.00307348,0.01905053,-0.01028431,-0.00002143,0.00007419,-0.00005478,
 -0.00300467,-0.01913246,-0.00027397,0.00067569,-0.00120467,0.02756125,
 -0.01025073,-0.08523306,-0.00013857,-0.00016609,-0.00027930,-0.0287356
 0,0.01050678,0.08599482,-0.00015961,-0.00145106,0.00259940,0.00049912,
 0.00029126,-0.00001776,0.00021097,0.00049099,0.00026186,-0.00014324,-0
 .00060374,0.00035849,3.02825123,0.00052899,0.00072714,-0.00012424,-0.0
 0016943,0.00024766,-0.00060691,-0.00010563,-0.00023522,-0.00016419,0.0
 0093124,-0.00122938,0.00034216,-1.33003998,0.19803133,-0.00024567,0.00
 119477,-0.00139637,-0.00064752,0.00019256,-0.00118923,-0.00019128,-0.0
 0036659,-0.00020953,0.00245489,-0.00097814,0.00184266,-2.57697657,0.19
 765061,0.57415547,-0.00004369,-0.00015116,0.00000252,-0.00005114,-0.00
 009578,0.00039146,0.00000108,0.00008399,0.00011434,0.00060146,0.000164
 68,-0.00074086,0.11443253,-0.27237879,0.25073227,-0.12353762,-0.000221
 08,0.00011589,-0.00060537,-0.00008539,-0.00010376,0.00020215,-0.000020
 34,-0.00003073,-0.00005417,-0.00024878,0.00047330,-0.00007562,-0.32784
 894,-0.57249070,0.70190283,0.31871415,0.55805209,0.00012839,-0.0000316
 7,0.00035750,0.00017425,-0.00005589,0.00007560,0.00002542,0.00004037,0
 .00001835,-0.00053057,0.00018229,0.00024915,0.28005455,0.65948498,-0.3
 3320123,-0.29097541,-0.70291398,0.33724497,-0.00201622,0.00079081,-0.0
 0081070,-0.00037909,-0.00019542,-0.00126617,0.00001789,-0.00026991,-0.
 00001058,0.00161085,0.00005460,0.00196926,-3.14309102,1.60123361,2.324
 87388,0.00859737,0.00971039,0.01112337,3.13526022,-0.00070920,-0.00134
 478,-0.00140093,-0.00004713,-0.00032916,0.00045945,0.00020569,-0.00005
 370,0.00021064,-0.00094968,0.00075258,-0.00103219,1.65916148,0.3749491
 5,-0.89959606,-0.04633709,0.01398392,0.04329390,-1.61132407,-0.3879580
 0,0.00029330,-0.00475504,0.00770188,0.00207895,-0.00058771,0.00315678,
 0.00109473,0.00174986,0.00141657,-0.00178364,0.00056595,-0.00136960,2.
 29372004,-0.85658240,-0.24000177,0.04047568,0.00154416,-0.00474434,-2.
 33587904,0.85806518,0.23384048,-0.35756276,2.40500584,4.27855559,-1.12
 527177,-2.64252146,-0.14958620,0.08770862,-0.02044248,0.01750671,-0.05
 879382,-0.00600505,-0.01635005,0.00284123,0.02005770,-0.00112220,-0.00
 186165,0.00555657,-0.01162015,-0.00676219,0.00600704,0.01150979,0.2653
 7661,-2.38214336,1.10844085,-0.02834408,-0.01325857,0.00718183,-0.2353
 8893,-2.40357676,-4.25820857,2.64067158,0.00431924,0.01434831,-0.00901
 392,2.39585883,4.24201021,1.12337742,2.63742894,0.15971583,-0.00802102
 ,-0.00878168,0.00375567,-1.11529448,-2.63089335,-0.16248646,0.00478003
 ,-0.00227275,-0.00023260,-0.00094772,-0.00066604,0.00130541,-0.0020612
 9,0.00309472,-0.00006832,-0.00160387,0.00476598,-0.00333889,-0.0008201
 0,-0.00381853,0.00306911,-0.00260216,-0.00081584,0.00100812,0.00208619
 ,-0.00012860,-0.00065170,0.00472644,-0.00106691,0.00150106,-0.00259315
 ,0.00021030,-0.00345189,-0.00139959,-0.00044722,-0.00057307,-0.0010336
 3,0.00144293,0.00206823,-0.00066659,0.00069791,-0.00077007,0.00024371,
 -0.00025639,0.00008243,0.00042565,-0.00046483,0.00030685,-0.00015063,-
 0.00007015,0.00014516,0.03032080,-0.00009251,0.00038742,0.00033563,0.0
 0013210,-0.00022966,0.00002329,-0.00015344,-0.00038279,-0.00024406,0.0
 0000786,-0.00003429,-0.00008191,-0.01207507,0.00512807,-0.00210865,-0.
 00022611,0.00028074,0.00110808,-0.00085198,0.00000617,0.00098859,0.000
 96629,-0.00038623,0.00005277,-0.00000760,0.00068203,-0.02661744,-0.001
 46335,0.00671001,-0.00001338,0.00000534,-0.00003028,0.00001448,-0.0000
 2091,-0.00004987,0.00004420,0.00000449,-0.00005824,0.00002260,0.000031
 59,0.00009853,0.00175200,-0.00407088,0.00358098,-0.00187484,-0.0000544
 3,-0.00007753,-0.00004708,0.00008179,-0.00002112,-0.00002291,-0.000034
 11,0.00010698,0.00009239,0.00000386,0.00000437,0.00002889,-0.00471392,
 -0.00855340,0.01045295,0.00457411,0.00838139,0.00017681,-0.00015022,0.
 00007025,-0.00018835,0.00010714,-0.00004681,-0.00000147,0.00009613,-0.
 00000977,0.00004127,-0.00000183,-0.00001967,0.00390342,0.00993202,-0.0
 0495891,-0.00411465,-0.01038614,0.00504944,0.00037748,-0.00085051,0.00
 035716,0.00011883,0.00014925,0.00010405,-0.00005217,0.00076430,-0.0002
 4220,-0.00003913,0.00003554,0.00005625,-0.03192494,0.01625194,0.022995
 67,0.00005494,0.00014270,0.00018298,0.03146500,-0.00004307,-0.00096794
 ,-0.00045980,-0.00032983,0.00030560,0.00005210,0.00054648,0.00111772,0
 .00031157,-0.00003906,-0.00005672,-0.00008607,0.01688243,0.00368463,-0
 .00887019,-0.00052374,0.00015932,0.00040290,-0.01649321,-0.00424260,0.
 00096141,0.00097920,-0.00036152,-0.00105009,0.00046796,-0.00015276,0.0
 0008427,-0.00137951,-0.00001598,-0.00006489,-0.00009743,-0.00020669,0.
 02294966,-0.00850162,-0.00233382,0.00057354,-0.00011810,-0.00008453,-0
 .02345390,0.00864950,0.00315530,0.00037083,0.00089216,0.00006756,-0.00
 006895,0.00135022,-0.00126277,0.00037998,0.00030092,-0.00079759,-0.000
 29451,-0.00023633,0.00024691,-0.00054986,-0.00012352,-0.00047737,0.000
 44007,-0.00023081,-0.00046542,-0.00018623,0.00019560,0.00034689,-0.000
 02390,-0.00087225,0.00018898,0.00008677,0.00026236,-0.00020849,-0.0002
 2556,-0.00048066,-0.00007341,-0.00025404,-0.00017295,-0.00005940,0.000
 06460,0.00058721,0.00022962,-0.00016912,-0.00028227,-0.00073494,0.0002
 9081,0.00040914,0.00010163,-0.00024439,-0.00016800,0.00025148,0.000085
 02,0.00008148,0.00030514,-0.00027709,0.00004349,0.00034746,0.00006841,
 -0.00003871,-0.00003502,0.00004827,-0.00008083,0.00011258,0.00020910,0
 .00011569,0.00026570,0.00003176,-0.00000680,0.00001768,-0.00003445,-0.
 00001681,-0.00003523,-0.00004002,0.00032488,-0.00040445,0.00003685,0.0
 0007537,-0.00003493,-0.00004634,-0.00005615,-0.00011923,-0.00085282,-0
 .00018779,-0.00128129,0.00005641,-0.00071261,-0.00025323,0.00046986,0.
 00064385,0.00044735,0.00012448,0.00018673,0.00005311,-0.00083796,-0.00
 113857,0.00083161,0.10182582,0.00008626,0.00033161,0.00118709,0.000236
 41,0.00062724,-0.00037180,-0.00003102,-0.00017897,-0.00012331,-0.00036
 342,-0.00237019,0.00142853,0.75944584,2.54584396,-0.00007625,0.0004521
 4,0.00021922,-0.00004000,0.00013996,0.00010337,-0.00015253,-0.00011560
 ,-0.00001652,0.00064532,-0.00034424,0.00104790,-1.62862147,-2.80214861
 ,1.30709323,-0.00011389,0.00008367,0.00117161,-0.00001192,-0.00046644,
 -0.00049979,0.00000299,0.00003280,0.00005615,0.00047852,0.00084455,-0.
 00004008,0.73515476,-1.23636588,1.02156437,-0.72593126,-0.00008575,-0.
 00018392,-0.00211479,-0.00003433,-0.00050708,0.00003492,-0.00008819,0.
 00001228,0.00009970,0.00102641,0.00160611,-0.00089677,-1.23958144,-2.6
 2461547,3.04975588,1.23232594,2.60874555,0.00010404,0.00007390,-0.0002
 8058,-0.00000040,-0.00012652,-0.00071134,0.00007527,0.00004335,-0.0000
 7622,-0.00015155,0.00023112,0.00061740,1.02315640,3.04527936,-1.280152
 30,-1.02634292,-3.03494994,1.27687138,-0.00075446,0.00022663,-0.000545
 96,-0.00035306,-0.00012341,-0.00034035,-0.00003319,-0.00011441,0.00004
 845,0.00043483,0.00028277,0.00011080,-0.83679340,0.47699182,0.60668056
 ,-0.00957921,0.00643735,0.00315916,0.84707849,-0.00009484,-0.00050132,
 0.00017227,-0.00032224,-0.00009599,0.00027574,0.00014869,0.00005220,0.
 00009920,-0.00073243,0.00040335,-0.00068808,0.48115621,0.08036179,-0.2
 4773952,0.00354537,0.01494253,-0.01055126,-0.48370076,-0.09516256,-0.0
 0018977,-0.00168806,0.00292896,0.00069657,-0.00014368,0.00065981,0.000
 38750,0.00048585,0.00059380,-0.00025853,0.00009449,0.00017460,0.604386
 22,-0.24525126,-0.02829491,0.00409066,-0.01192900,0.00373168,-0.609112
 65,0.25843166,0.02020606\\@


 A MAN THINKING OR WORKING IS ALWAYS ALONE, 
 LET HIM BE WHERE HE WILL.

                                    -- THOREAU
 Job cpu time:       4 days 10 hours 11 minutes 25.3 seconds.
 Elapsed time:       0 days  3 hours 51 minutes 48.0 seconds.
 File lengths (MBytes):  RWF=   8440 Int=      0 D2E=      0 Chk=     52 Scr=      8
 Normal termination of Gaussian 16 at Tue Dec  7 19:42:38 2021.
