 Entering Gaussian System, Link 0=g16
 Input=h2o2_nh3_mp2_avdz_opt_anharm.gjf
 Output=h2o2_nh3_mp2_avdz_opt_anharm.log
 Initial command:
 /sw/contrib/gaussian/g16/A03/g16/l1.exe "/gscratch/scrubbed/gds001/Gau-30467.inp" -scrdir="/gscratch/scrubbed/gds001/"
 Entering Link 1 = /sw/contrib/gaussian/g16/A03/g16/l1.exe PID=     30468.
  
 Copyright (c) 1988,1990,1992,1993,1995,1998,2003,2009,2016,
            Gaussian, Inc.  All Rights Reserved.
  
 This is part of the Gaussian(R) 16 program.  It is based on
 the Gaussian(R) 09 system (copyright 2009, Gaussian, Inc.),
 the Gaussian(R) 03 system (copyright 2003, Gaussian, Inc.),
 the Gaussian(R) 98 system (copyright 1998, Gaussian, Inc.),
 the Gaussian(R) 94 system (copyright 1995, Gaussian, Inc.),
 the Gaussian 92(TM) system (copyright 1992, Gaussian, Inc.),
 the Gaussian 90(TM) system (copyright 1990, Gaussian, Inc.),
 the Gaussian 88(TM) system (copyright 1988, Gaussian, Inc.),
 the Gaussian 86(TM) system (copyright 1986, Carnegie Mellon
 University), and the Gaussian 82(TM) system (copyright 1983,
 Carnegie Mellon University). Gaussian is a federally registered
 trademark of Gaussian, Inc.
  
 This software contains proprietary and confidential information,
 including trade secrets, belonging to Gaussian, Inc.
  
 This software is provided under written license and may be
 used, copied, transmitted, or stored only in accord with that
 written license.
  
 The following legend is applicable only to US Government
 contracts under FAR:
  
                    RESTRICTED RIGHTS LEGEND
  
 Use, reproduction and disclosure by the US Government is
 subject to restrictions as set forth in subparagraphs (a)
 and (c) of the Commercial Computer Software - Restricted
 Rights clause in FAR 52.227-19.
  
 Gaussian, Inc.
 340 Quinnipiac St., Bldg. 40, Wallingford CT 06492
  
  
 ---------------------------------------------------------------
 Warning -- This program may not be used in any manner that
 competes with the business of Gaussian, Inc. or will provide
 assistance to any competitor of Gaussian, Inc.  The licensee
 of this program is prohibited from giving any competitor of
 Gaussian, Inc. access to this program.  By using this program,
 the user acknowledges that Gaussian, Inc. is engaged in the
 business of creating and licensing software in the field of
 computational chemistry and represents and warrants to the
 licensee that it is not a competitor of Gaussian, Inc. and that
 it will not use this program in any manner prohibited above.
 ---------------------------------------------------------------
  

 Cite this work as:
 Gaussian 16, Revision A.03,
 M. J. Frisch, G. W. Trucks, H. B. Schlegel, G. E. Scuseria, 
 M. A. Robb, J. R. Cheeseman, G. Scalmani, V. Barone, 
 G. A. Petersson, H. Nakatsuji, X. Li, M. Caricato, A. V. Marenich, 
 J. Bloino, B. G. Janesko, R. Gomperts, B. Mennucci, H. P. Hratchian, 
 J. V. Ortiz, A. F. Izmaylov, J. L. Sonnenberg, D. Williams-Young, 
 F. Ding, F. Lipparini, F. Egidi, J. Goings, B. Peng, A. Petrone, 
 T. Henderson, D. Ranasinghe, V. G. Zakrzewski, J. Gao, N. Rega, 
 G. Zheng, W. Liang, M. Hada, M. Ehara, K. Toyota, R. Fukuda, 
 J. Hasegawa, M. Ishida, T. Nakajima, Y. Honda, O. Kitao, H. Nakai, 
 T. Vreven, K. Throssell, J. A. Montgomery, Jr., J. E. Peralta, 
 F. Ogliaro, M. J. Bearpark, J. J. Heyd, E. N. Brothers, K. N. Kudin, 
 V. N. Staroverov, T. A. Keith, R. Kobayashi, J. Normand, 
 K. Raghavachari, A. P. Rendell, J. C. Burant, S. S. Iyengar, 
 J. Tomasi, M. Cossi, J. M. Millam, M. Klene, C. Adamo, R. Cammi, 
 J. W. Ochterski, R. L. Martin, K. Morokuma, O. Farkas, 
 J. B. Foresman, and D. J. Fox, Gaussian, Inc., Wallingford CT, 2016.
 
 ******************************************
 Gaussian 16:  ES64L-G16RevA.03 25-Dec-2016
                 7-Dec-2021 
 ******************************************
 %nprocshared=28
 Will use up to   28 processors via shared memory.
 %mem=41GB
 ----------------------------------------------
 # mp2/aug-cc-pVDZ opt freq=(vibrot,anharmonic)
 ----------------------------------------------
 1/18=20,19=15,38=1,80=1/1,3;
 2/9=110,12=2,17=6,18=5,40=1/2;
 3/5=16,7=10,11=9,25=1,30=1,71=1/1,2,3;
 4//1;
 5/5=2,38=5/2;
 8/6=4,10=1/1;
 9/15=2,16=-3/6;
 10/5=1/2;
 6/7=2,8=2,9=2,10=2/1;
 7/12=2/1,2,3,16;
 1/18=20,19=15,80=1/3(2);
 2/9=110/2;
 99//99;
 2/9=110/2;
 3/5=16,7=10,11=9,25=1,30=1,71=1/1,2,3;
 4/5=5,16=3,69=1/1;
 5/5=2,38=5/2;
 8/6=4,10=1/1;
 9/15=2,16=-3/6;
 10/5=1/2;
 7/12=2/1,2,3,16;
 1/18=20,19=15,80=1/3(-8);
 2/9=110/2;
 6/7=2,8=2,9=2,10=2/1;
 99//99;
 ----
 bleh
 ----
 Symbolic Z-matrix:
 Charge =  0 Multiplicity = 1
 O                    -2.10966   2.40613  -0.07525 
 O                    -0.75617   2.00583  -0.43569 
 H                    -2.37823   1.55179   0.31006 
 H                    -0.85517   2.08876  -1.41716 
 N                    -0.8831    2.25244  -3.17235 
 H                    -0.02908   2.6934   -3.52473 
 H                    -1.06167   1.47991  -3.8186 
 H                    -1.62409   2.93218  -3.36736 
 
 Add virtual bond connecting atoms N5         and H4         Dist= 3.33D+00.

 GradGradGradGradGradGradGradGradGradGradGradGradGradGradGradGradGradGrad
 Berny optimization.
 Initialization pass.
                           ----------------------------
                           !    Initial Parameters    !
                           ! (Angstroms and Degrees)  !
 --------------------------                            --------------------------
 ! Name  Definition              Value          Derivative Info.                !
 --------------------------------------------------------------------------------
 ! R1    R(1,2)                  1.4567         estimate D2E/DX2                !
 ! R2    R(1,3)                  0.9749         estimate D2E/DX2                !
 ! R3    R(2,4)                  0.9899         estimate D2E/DX2                !
 ! R4    R(4,5)                  1.763          estimate D2E/DX2                !
 ! R5    R(5,6)                  1.0237         estimate D2E/DX2                !
 ! R6    R(5,7)                  1.0229         estimate D2E/DX2                !
 ! R7    R(5,8)                  1.0243         estimate D2E/DX2                !
 ! A1    A(2,1,3)               96.4847         estimate D2E/DX2                !
 ! A2    A(1,2,4)               97.4335         estimate D2E/DX2                !
 ! A3    A(4,5,6)              111.6821         estimate D2E/DX2                !
 ! A4    A(4,5,7)              124.1675         estimate D2E/DX2                !
 ! A5    A(4,5,8)              105.2253         estimate D2E/DX2                !
 ! A6    A(6,5,7)              104.6838         estimate D2E/DX2                !
 ! A7    A(6,5,8)              104.6034         estimate D2E/DX2                !
 ! A8    A(7,5,8)              104.752          estimate D2E/DX2                !
 ! A9    L(2,4,5,1,-1)         184.4365         estimate D2E/DX2                !
 ! A10   L(2,4,5,1,-2)         177.3607         estimate D2E/DX2                !
 ! D1    D(3,1,2,4)            115.4307         estimate D2E/DX2                !
 ! D2    D(1,2,5,6)            137.4265         estimate D2E/DX2                !
 ! D3    D(1,2,5,7)            -97.1007         estimate D2E/DX2                !
 ! D4    D(1,2,5,8)             24.6556         estimate D2E/DX2                !
 --------------------------------------------------------------------------------
 Trust Radius=3.00D-01 FncErr=1.00D-07 GrdErr=1.00D-07 EigMax=2.50D+02 EigMin=1.00D-04
 Number of steps in this run=     31 maximum allowed number of steps=    100.
 GradGradGradGradGradGradGradGradGradGradGradGradGradGradGradGradGradGrad

                          Input orientation:                          
 ---------------------------------------------------------------------
 Center     Atomic      Atomic             Coordinates (Angstroms)
 Number     Number       Type             X           Y           Z
 ---------------------------------------------------------------------
      1          8           0       -2.109660    2.406131   -0.075248
      2          8           0       -0.756172    2.005832   -0.435686
      3          1           0       -2.378234    1.551787    0.310058
      4          1           0       -0.855171    2.088763   -1.417156
      5          7           0       -0.883104    2.252445   -3.172353
      6          1           0       -0.029077    2.693405   -3.524726
      7          1           0       -1.061665    1.479907   -3.818595
      8          1           0       -1.624090    2.932181   -3.367361
 ---------------------------------------------------------------------
                    Distance matrix (angstroms):
                    1          2          3          4          5
     1  O    0.000000
     2  O    1.456738   0.000000
     3  H    0.974934   1.842111   0.000000
     4  H    1.864184   0.989930   2.364599   0.000000
     5  N    3.334684   2.750686   3.854026   1.763033   0.000000
     6  H    4.038595   3.247089   4.639762   2.343048   1.023706
     7  H    3.996103   3.437149   4.334085   2.486012   1.022902
     8  H    3.369053   3.194702   3.999704   2.259621   1.024271
                    6          7          8
     6  H    0.000000
     7  H    1.620239   0.000000
     8  H    1.620445   1.621430   0.000000
 Stoichiometry    H5NO2
 Framework group  C1[X(H5NO2)]
 Deg. of freedom    18
 Full point group                 C1      NOp   1
 Largest Abelian subgroup         C1      NOp   1
 Largest concise Abelian subgroup C1      NOp   1
                         Standard orientation:                         
 ---------------------------------------------------------------------
 Center     Atomic      Atomic             Coordinates (Angstroms)
 Number     Number       Type             X           Y           Z
 ---------------------------------------------------------------------
      1          8           0       -1.458981   -0.538213   -0.101076
      2          8           0       -0.770080    0.741579   -0.002926
      3          1           0       -1.920674   -0.480724    0.755681
      4          1           0        0.154005    0.387735    0.025737
      5          7           0        1.845530   -0.109286    0.026804
      6          1           0        2.417197    0.493395   -0.571482
      7          1           0        2.405168   -0.240622    0.872903
      8          1           0        1.858086   -1.021708   -0.438448
 ---------------------------------------------------------------------
 Rotational constants (GHZ):          29.1559700           4.5233661           4.0411297
 Standard basis: Aug-CC-pVDZ (5D, 7F)
 There are   120 symmetry adapted cartesian basis functions of A   symmetry.
 There are   114 symmetry adapted basis functions of A   symmetry.
   114 basis functions,   184 primitive gaussians,   120 cartesian basis functions
    14 alpha electrons       14 beta electrons
       nuclear repulsion energy        79.4842672531 Hartrees.
 NAtoms=    8 NActive=    8 NUniq=    8 SFac= 1.00D+00 NAtFMM=   60 NAOKFM=F Big=F
 Integral buffers will be    131072 words long.
 Raffenetti 1 integral format.
 Two-electron integral symmetry is turned on.
 One-electron integrals computed using PRISM.
 NBasis=   114 RedAO= T EigKep=  8.47D-04  NBF=   114
 NBsUse=   114 1.00D-06 EigRej= -1.00D+00 NBFU=   114
 ExpMin= 2.97D-02 ExpMax= 1.17D+04 ExpMxC= 4.01D+02 IAcc=3 IRadAn=         5 AccDes= 0.00D+00
 Harris functional with IExCor=  205 and IRadAn=       5 diagonalized for initial guess.
 HarFok:  IExCor=  205 AccDes= 0.00D+00 IRadAn=         5 IDoV= 1 UseB2=F ITyADJ=14
 ICtDFT=  3500011 ScaDFX=  1.000000  1.000000  1.000000  1.000000
 FoFCou: FMM=F IPFlag=           0 FMFlag=      100000 FMFlg1=           0
         NFxFlg=           0 DoJE=T BraDBF=F KetDBF=T FulRan=T
         wScrn=  0.000000 ICntrl=       500 IOpCl=  0 I1Cent=   200000004 NGrid=           0
         NMat0=    1 NMatS0=      1 NMatT0=    0 NMatD0=    1 NMtDS0=    0 NMtDT0=    0
 Petite list used in FoFCou.
 Keep R1 ints in memory in canonical form, NReq=27452811.
 Requested convergence on RMS density matrix=1.00D-08 within 128 cycles.
 Requested convergence on MAX density matrix=1.00D-06.
 Requested convergence on             energy=1.00D-06.
 No special actions if energy rises.
 SCF Done:  E(RHF) =  -207.012423902     A.U. after   13 cycles
            NFock= 13  Conv=0.71D-08     -V/T= 2.0019
 ExpMin= 2.97D-02 ExpMax= 1.17D+04 ExpMxC= 4.01D+02 IAcc=3 IRadAn=         5 AccDes= 0.00D+00
 HarFok:  IExCor=  205 AccDes= 0.00D+00 IRadAn=         5 IDoV=-2 UseB2=F ITyADJ=14
 ICtDFT= 12500011 ScaDFX=  1.000000  1.000000  1.000000  1.000000
 Range of M.O.s used for correlation:     4   114
 NBasis=   114 NAE=    14 NBE=    14 NFC=     3 NFV=     0
 NROrb=    111 NOA=    11 NOB=    11 NVA=   100 NVB=   100
 Fully direct method using O(ONN) memory.
 JobTyp=1 Pass  1:  I=   4 to  14 NPSUse= 28 ParTrn=T ParDer=T DoDerP=T.
 Spin components of T(2) and E(2):
     alpha-alpha T2 =       0.2339853252D-01 E2=     -0.7873773311D-01
     alpha-beta  T2 =       0.1359691624D+00 E2=     -0.4666064812D+00
     beta-beta   T2 =       0.2339853252D-01 E2=     -0.7873773311D-01
 ANorm=    0.1087550563D+01
 E2 =    -0.6240819474D+00 EUMP2 =    -0.20763650584954D+03
          IDoAtm=11111111
          Differentiating once with respect to electric field.
                with respect to dipole field.
          Differentiating once with respect to nuclear coordinates.
 Keep R1 ints in memory in canonical form, NReq=27457350.
          There are     1 degrees of freedom in the 1st order CPHF.  IDoFFX=0 NUNeed=     1.
 LinEq1:  Iter=  0 NonCon=     1 RMS=5.33D-03 Max=3.70D-02 NDo=     1
 AX will form     1 AO Fock derivatives at one time.
 LinEq1:  Iter=  1 NonCon=     1 RMS=7.97D-04 Max=5.32D-03 NDo=     1
 LinEq1:  Iter=  2 NonCon=     1 RMS=3.21D-04 Max=2.02D-03 NDo=     1
 LinEq1:  Iter=  3 NonCon=     1 RMS=7.24D-05 Max=6.17D-04 NDo=     1
 LinEq1:  Iter=  4 NonCon=     1 RMS=4.15D-05 Max=4.62D-04 NDo=     1
 LinEq1:  Iter=  5 NonCon=     1 RMS=1.19D-05 Max=1.20D-04 NDo=     1
 LinEq1:  Iter=  6 NonCon=     1 RMS=3.48D-06 Max=2.24D-05 NDo=     1
 LinEq1:  Iter=  7 NonCon=     1 RMS=1.40D-06 Max=8.23D-06 NDo=     1
 LinEq1:  Iter=  8 NonCon=     1 RMS=2.97D-07 Max=1.93D-06 NDo=     1
 LinEq1:  Iter=  9 NonCon=     1 RMS=7.61D-08 Max=5.82D-07 NDo=     1
 LinEq1:  Iter= 10 NonCon=     1 RMS=1.42D-08 Max=1.20D-07 NDo=     1
 LinEq1:  Iter= 11 NonCon=     1 RMS=2.38D-09 Max=1.84D-08 NDo=     1
 LinEq1:  Iter= 12 NonCon=     1 RMS=4.98D-10 Max=4.15D-09 NDo=     1
 LinEq1:  Iter= 13 NonCon=     1 RMS=1.18D-10 Max=1.04D-09 NDo=     1
 LinEq1:  Iter= 14 NonCon=     0 RMS=2.38D-11 Max=1.63D-10 NDo=     1
 Linear equations converged to 1.000D-10 1.000D-09 after    14 iterations.
 End of Minotr F.D. properties file   721 does not exist.
 End of Minotr F.D. properties file   722 does not exist.
 End of Minotr F.D. properties file   788 does not exist.

 **********************************************************************

            Population analysis using the SCF density.

 **********************************************************************

 Orbital symmetries:
       Occupied  (A) (A) (A) (A) (A) (A) (A) (A) (A) (A) (A) (A)
                 (A) (A)
       Virtual   (A) (A) (A) (A) (A) (A) (A) (A) (A) (A) (A) (A)
                 (A) (A) (A) (A) (A) (A) (A) (A) (A) (A) (A) (A)
                 (A) (A) (A) (A) (A) (A) (A) (A) (A) (A) (A) (A)
                 (A) (A) (A) (A) (A) (A) (A) (A) (A) (A) (A) (A)
                 (A) (A) (A) (A) (A) (A) (A) (A) (A) (A) (A) (A)
                 (A) (A) (A) (A) (A) (A) (A) (A) (A) (A) (A) (A)
                 (A) (A) (A) (A) (A) (A) (A) (A) (A) (A) (A) (A)
                 (A) (A) (A) (A) (A) (A) (A) (A) (A) (A) (A) (A)
                 (A) (A) (A) (A)
 The electronic state is 1-A.
 Alpha  occ. eigenvalues --  -20.60823 -20.59136 -15.58892  -1.43948  -1.18464
 Alpha  occ. eigenvalues --   -1.16838  -0.68540  -0.67141  -0.65497  -0.65323
 Alpha  occ. eigenvalues --   -0.57110  -0.50085  -0.46462  -0.44028
 Alpha virt. eigenvalues --    0.02692   0.05104   0.05540   0.06088   0.08886
 Alpha virt. eigenvalues --    0.15688   0.16794   0.18329   0.18815   0.20117
 Alpha virt. eigenvalues --    0.21323   0.23859   0.24352   0.25102   0.26136
 Alpha virt. eigenvalues --    0.27331   0.28669   0.29141   0.32964   0.35773
 Alpha virt. eigenvalues --    0.38314   0.38839   0.42110   0.45081   0.47754
 Alpha virt. eigenvalues --    0.49479   0.51437   0.51723   0.53194   0.53894
 Alpha virt. eigenvalues --    0.54157   0.56583   0.58433   0.61672   0.65562
 Alpha virt. eigenvalues --    0.66596   0.67673   0.74411   0.77372   0.84112
 Alpha virt. eigenvalues --    0.90435   0.91288   0.93928   0.94751   1.03540
 Alpha virt. eigenvalues --    1.08942   1.12206   1.14296   1.16993   1.19812
 Alpha virt. eigenvalues --    1.20342   1.25196   1.27205   1.31849   1.40637
 Alpha virt. eigenvalues --    1.42206   1.49656   1.54490   1.59110   1.63610
 Alpha virt. eigenvalues --    1.75524   1.77958   1.80175   1.84306   1.91769
 Alpha virt. eigenvalues --    1.92429   1.98223   2.03042   2.07587   2.13446
 Alpha virt. eigenvalues --    2.17413   2.25584   2.27839   2.34121   2.34815
 Alpha virt. eigenvalues --    2.36978   2.40843   2.42889   2.46070   2.60325
 Alpha virt. eigenvalues --    2.68976   2.79337   2.84180   2.87491   2.92782
 Alpha virt. eigenvalues --    2.94986   3.10734   3.45644   3.51813   3.53454
 Alpha virt. eigenvalues --    3.59075   3.61391   3.69011   3.74996   3.76083
 Alpha virt. eigenvalues --    3.83152   3.85177   4.13474   4.21239   4.42598
          Condensed to atoms (all electrons):
               1          2          3          4          5          6
     1  O    8.107890  -0.025420   0.336628  -0.126370   0.004880   0.000276
     2  O   -0.025420   8.306573  -0.070979   0.251713  -0.058580  -0.003411
     3  H    0.336628  -0.070979   0.483165   0.006836   0.001754  -0.000426
     4  H   -0.126370   0.251713   0.006836   0.442137  -0.074693  -0.014195
     5  N    0.004880  -0.058580   0.001754  -0.074693   6.201470   0.404247
     6  H    0.000276  -0.003411  -0.000426  -0.014195   0.404247   0.702395
     7  H   -0.002227   0.000117  -0.000081  -0.002583   0.389138  -0.079547
     8  H    0.006562  -0.006218   0.000498  -0.016209   0.401619  -0.064954
               7          8
     1  O   -0.002227   0.006562
     2  O    0.000117  -0.006218
     3  H   -0.000081   0.000498
     4  H   -0.002583  -0.016209
     5  N    0.389138   0.401619
     6  H   -0.079547  -0.064954
     7  H    0.696609  -0.073852
     8  H   -0.073852   0.690716
 Mulliken charges:
               1
     1  O   -0.302218
     2  O   -0.393795
     3  H    0.242606
     4  H    0.533365
     5  N   -0.269836
     6  H    0.055615
     7  H    0.072425
     8  H    0.061839
 Sum of Mulliken charges =  -0.00000
 Mulliken charges with hydrogens summed into heavy atoms:
               1
     1  O   -0.059612
     2  O    0.139569
     5  N   -0.079957
 Electronic spatial extent (au):  <R**2>=            304.2405
 Charge=             -0.0000 electrons
 Dipole moment (field-independent basis, Debye):
    X=              3.5435    Y=             -1.1851    Z=              1.2627  Tot=              3.9440
 Quadrupole moment (field-independent basis, Debye-Ang):
   XX=            -11.8265   YY=            -20.0891   ZZ=            -17.6613
   XY=              0.7014   XZ=             -3.3992   YZ=             -0.8815
 Traceless Quadrupole moment (field-independent basis, Debye-Ang):
   XX=              4.6991   YY=             -3.5634   ZZ=             -1.1357
   XY=              0.7014   XZ=             -3.3992   YZ=             -0.8815
 Octapole moment (field-independent basis, Debye-Ang**2):
  XXX=              8.7167  YYY=             -2.0240  ZZZ=              1.9320  XYY=              3.4339
  XXY=             -1.6325  XXZ=              7.3003  XZZ=              0.7513  YZZ=             -1.2509
  YYZ=             -0.3589  XYZ=              0.9692
 Hexadecapole moment (field-independent basis, Debye-Ang**3):
 XXXX=           -237.7750 YYYY=            -50.8118 ZZZZ=            -20.9329 XXXY=              7.9798
 XXXZ=            -11.4191 YYYX=              0.5333 YYYZ=              0.3017 ZZZX=             -1.7293
 ZZZY=             -1.1876 XXYY=            -51.9800 XXZZ=            -39.1324 YYZZ=            -12.3129
 XXYZ=             -5.7956 YYXZ=             -2.9383 ZZXY=              1.0149
 N-N= 7.948426725314D+01 E-N=-6.491693233164D+02  KE= 2.066216976822D+02
 Calling FoFJK, ICntrl=  10002127 FMM=F ISym2X=0 I1Cent= 0 IOpClX= 0 NMat=1 NMatS=1 NMatT=0.
 ***** Axes restored to original set *****
 -------------------------------------------------------------------
 Center     Atomic                   Forces (Hartrees/Bohr)
 Number     Number              X              Y              Z
 -------------------------------------------------------------------
      1        8          -0.009292785   -0.006612234    0.008525201
      2        8           0.008826485    0.002462841   -0.004364734
      3        1          -0.004857778    0.006425010   -0.000359736
      4        1           0.006370117   -0.004151492   -0.000637012
      5        7          -0.001221957    0.004605504   -0.010459641
      6        1          -0.000134012   -0.000637763    0.002365778
      7        1          -0.000080143   -0.001212655    0.003173268
      8        1           0.000390073   -0.000879211    0.001756876
 -------------------------------------------------------------------
 Cartesian Forces:  Max     0.010459641 RMS     0.004927368

 GradGradGradGradGradGradGradGradGradGradGradGradGradGradGradGradGradGrad
 Berny optimization.
 FormGI is forming the generalized inverse of G from B-inverse, IUseBI=4.
 Internal  Forces:  Max     0.015124461 RMS     0.005040466
 Search for a local minimum.
 Step number   1 out of a maximum of   31
 All quantities printed in internal units (Hartrees-Bohrs-Radians)
 Mixed Optimization -- RFO/linear search
 Second derivative matrix not updated -- first step.
 ITU=  0
     Eigenvalues ---    0.00230   0.00230   0.00230   0.00544   0.06554
     Eigenvalues ---    0.07952   0.10056   0.16000   0.16000   0.16000
     Eigenvalues ---    0.16000   0.16000   0.37376   0.43664   0.43752
     Eigenvalues ---    0.43878   0.49503   0.52381
 RFO step:  Lambda=-4.46488368D-03 EMin= 2.30000000D-03
 Linear search not attempted -- first point.
 Maximum step size (   0.300) exceeded in Quadratic search.
    -- Step size scaled by   0.537
 Iteration  1 RMS(Cart)=  0.09866245 RMS(Int)=  0.01909720
 Iteration  2 RMS(Cart)=  0.05326092 RMS(Int)=  0.00119422
 Iteration  3 RMS(Cart)=  0.00151543 RMS(Int)=  0.00071372
 Iteration  4 RMS(Cart)=  0.00000044 RMS(Int)=  0.00071372
 Variable       Old X    -DE/DX   Delta X   Delta X   Delta X     New X
                                 (Linear)    (Quad)   (Total)
    R1        2.75284   0.01512   0.00000   0.02147   0.02147   2.77430
    R2        1.84236  -0.00443   0.00000  -0.00451  -0.00451   1.83785
    R3        1.87070   0.00304   0.00000   0.00327   0.00325   1.87394
    R4        3.33165   0.00334   0.00000   0.02559   0.02561   3.35726
    R5        1.93452  -0.00120   0.00000  -0.00146  -0.00146   1.93307
    R6        1.93300  -0.00107   0.00000  -0.00130  -0.00130   1.93170
    R7        1.93559  -0.00120   0.00000  -0.00146  -0.00146   1.93413
    A1        1.68398   0.01241   0.00000   0.04050   0.04050   1.72448
    A2        1.70054   0.00780   0.00000   0.02547   0.02548   1.72602
    A3        1.94922  -0.00162   0.00000  -0.00584  -0.00588   1.94334
    A4        2.16713  -0.00350   0.00000  -0.01219  -0.01286   2.15427
    A5        1.83653  -0.00050   0.00000  -0.00034   0.00015   1.83667
    A6        1.82708   0.00235   0.00000   0.00584   0.00511   1.83218
    A7        1.82567   0.00196   0.00000   0.00826   0.00990   1.83558
    A8        1.82827   0.00241   0.00000   0.00854   0.00815   1.83641
    A9        3.21902  -0.00373   0.00000  -0.28146  -0.28124   2.93778
   A10        3.09553  -0.00112   0.00000  -0.08328  -0.08303   3.01250
    D1        2.01465   0.00004   0.00000   0.00203   0.00203   2.01668
    D2        2.39855   0.00036   0.00000  -0.03839  -0.04026   2.35828
    D3       -1.69473   0.00014   0.00000   0.05074   0.05092  -1.64381
    D4        0.43032  -0.00058   0.00000  -0.01968  -0.01796   0.41236
         Item               Value     Threshold  Converged?
 Maximum Force            0.015124     0.000450     NO 
 RMS     Force            0.005040     0.000300     NO 
 Maximum Displacement     0.344934     0.001800     NO 
 RMS     Displacement     0.146650     0.001200     NO 
 Predicted change in Energy=-1.961934D-03
 GradGradGradGradGradGradGradGradGradGradGradGradGradGradGradGradGradGrad

                          Input orientation:                          
 ---------------------------------------------------------------------
 Center     Atomic      Atomic             Coordinates (Angstroms)
 Number     Number       Type             X           Y           Z
 ---------------------------------------------------------------------
      1          8           0       -2.117826    2.413456   -0.235320
      2          8           0       -0.711942    2.022922   -0.397440
      3          1           0       -2.445823    1.610059    0.203796
      4          1           0       -0.672640    1.999295   -1.388027
      5          7           0       -0.888734    2.245316   -3.134173
      6          1           0       -0.090109    2.737075   -3.542545
      7          1           0       -1.094964    1.487448   -3.788408
      8          1           0       -1.675135    2.894880   -3.218951
 ---------------------------------------------------------------------
                    Distance matrix (angstroms):
                    1          2          3          4          5
     1  O    0.000000
     2  O    1.468098   0.000000
     3  H    0.972549   1.881033   0.000000
     4  H    1.894419   0.991648   2.414453   0.000000
     5  N    3.153139   2.751440   3.737663   1.776584   0.000000
     6  H    3.892827   3.284566   4.566687   2.350661   1.022934
     7  H    3.811583   3.454288   4.216343   2.490416   1.022213
     8  H    3.054471   3.106280   3.736298   2.271421   1.023498
                    6          7          8
     6  H    0.000000
     7  H    1.622267   0.000000
     8  H    1.625399   1.625345   0.000000
 Stoichiometry    H5NO2
 Framework group  C1[X(H5NO2)]
 Deg. of freedom    18
 Full point group                 C1      NOp   1
 Largest Abelian subgroup         C1      NOp   1
 Largest concise Abelian subgroup C1      NOp   1
                         Standard orientation:                         
 ---------------------------------------------------------------------
 Center     Atomic      Atomic             Coordinates (Angstroms)
 Number     Number       Type             X           Y           Z
 ---------------------------------------------------------------------
      1          8           0       -1.325856   -0.594527   -0.102560
      2          8           0       -0.824747    0.781666   -0.001107
      3          1           0       -1.850926   -0.622465    0.715593
      4          1           0        0.143220    0.586093    0.089210
      5          7           0        1.784237   -0.091737    0.027086
      6          1           0        2.390776    0.457098   -0.587149
      7          1           0        2.348813   -0.277173    0.858823
      8          1           0        1.683283   -0.998497   -0.436749
 ---------------------------------------------------------------------
 Rotational constants (GHZ):          25.8920768           4.9178782           4.2686734
 Standard basis: Aug-CC-pVDZ (5D, 7F)
 There are   120 symmetry adapted cartesian basis functions of A   symmetry.
 There are   114 symmetry adapted basis functions of A   symmetry.
   114 basis functions,   184 primitive gaussians,   120 cartesian basis functions
    14 alpha electrons       14 beta electrons
       nuclear repulsion energy        79.9964298123 Hartrees.
 NAtoms=    8 NActive=    8 NUniq=    8 SFac= 1.00D+00 NAtFMM=   60 NAOKFM=F Big=F
 Integral buffers will be    131072 words long.
 Raffenetti 1 integral format.
 Two-electron integral symmetry is turned on.
 One-electron integrals computed using PRISM.
 NBasis=   114 RedAO= T EigKep=  8.12D-04  NBF=   114
 NBsUse=   114 1.00D-06 EigRej= -1.00D+00 NBFU=   114
 Initial guess from the checkpoint file:  "/gscratch/scrubbed/gds001/Gau-30468.chk"
 B after Tr=    -0.000000   -0.000000   -0.000000
         Rot=    0.999925   -0.005908    0.000396   -0.010701 Ang=  -1.40 deg.
 ExpMin= 2.97D-02 ExpMax= 1.17D+04 ExpMxC= 4.01D+02 IAcc=3 IRadAn=         5 AccDes= 0.00D+00
 Harris functional with IExCor=  205 and IRadAn=       5 diagonalized for initial guess.
 HarFok:  IExCor=  205 AccDes= 0.00D+00 IRadAn=         5 IDoV= 1 UseB2=F ITyADJ=14
 ICtDFT=  3500011 ScaDFX=  1.000000  1.000000  1.000000  1.000000
 FoFCou: FMM=F IPFlag=           0 FMFlag=      100000 FMFlg1=           0
         NFxFlg=           0 DoJE=T BraDBF=F KetDBF=T FulRan=T
         wScrn=  0.000000 ICntrl=       500 IOpCl=  0 I1Cent=   200000004 NGrid=           0
         NMat0=    1 NMatS0=      1 NMatT0=    0 NMatD0=    1 NMtDS0=    0 NMtDT0=    0
 Petite list used in FoFCou.
 Keep R1 ints in memory in canonical form, NReq=27453867.
 Requested convergence on RMS density matrix=1.00D-08 within 128 cycles.
 Requested convergence on MAX density matrix=1.00D-06.
 Requested convergence on             energy=1.00D-06.
 No special actions if energy rises.
 SCF Done:  E(RHF) =  -207.013013150     A.U. after   14 cycles
            NFock= 14  Conv=0.35D-08     -V/T= 2.0021
 ExpMin= 2.97D-02 ExpMax= 1.17D+04 ExpMxC= 4.01D+02 IAcc=3 IRadAn=         5 AccDes= 0.00D+00
 HarFok:  IExCor=  205 AccDes= 0.00D+00 IRadAn=         5 IDoV=-2 UseB2=F ITyADJ=14
 ICtDFT= 12500011 ScaDFX=  1.000000  1.000000  1.000000  1.000000
 Range of M.O.s used for correlation:     4   114
 NBasis=   114 NAE=    14 NBE=    14 NFC=     3 NFV=     0
 NROrb=    111 NOA=    11 NOB=    11 NVA=   100 NVB=   100
 Fully direct method using O(ONN) memory.
 JobTyp=1 Pass  1:  I=   4 to  14 NPSUse= 28 ParTrn=T ParDer=T DoDerP=T.
 Spin components of T(2) and E(2):
     alpha-alpha T2 =       0.2345538982D-01 E2=     -0.7874080101D-01
     alpha-beta  T2 =       0.1365081824D+00 E2=     -0.4670124485D+00
     beta-beta   T2 =       0.2345538982D-01 E2=     -0.7874080101D-01
 ANorm=    0.1087850616D+01
 E2 =    -0.6244940505D+00 EUMP2 =    -0.20763750720093D+03
          IDoAtm=11111111
          Differentiating once with respect to electric field.
                with respect to dipole field.
          Differentiating once with respect to nuclear coordinates.
 Keep R1 ints in memory in canonical form, NReq=27458054.
          There are     1 degrees of freedom in the 1st order CPHF.  IDoFFX=0 NUNeed=     1.
 LinEq1:  Iter=  0 NonCon=     1 RMS=5.37D-03 Max=3.78D-02 NDo=     1
 AX will form     1 AO Fock derivatives at one time.
 LinEq1:  Iter=  1 NonCon=     1 RMS=8.05D-04 Max=5.20D-03 NDo=     1
 LinEq1:  Iter=  2 NonCon=     1 RMS=3.27D-04 Max=2.14D-03 NDo=     1
 LinEq1:  Iter=  3 NonCon=     1 RMS=7.76D-05 Max=6.43D-04 NDo=     1
 LinEq1:  Iter=  4 NonCon=     1 RMS=4.49D-05 Max=4.70D-04 NDo=     1
 LinEq1:  Iter=  5 NonCon=     1 RMS=1.22D-05 Max=1.22D-04 NDo=     1
 LinEq1:  Iter=  6 NonCon=     1 RMS=3.40D-06 Max=2.18D-05 NDo=     1
 LinEq1:  Iter=  7 NonCon=     1 RMS=1.42D-06 Max=9.03D-06 NDo=     1
 LinEq1:  Iter=  8 NonCon=     1 RMS=2.92D-07 Max=1.82D-06 NDo=     1
 LinEq1:  Iter=  9 NonCon=     1 RMS=7.16D-08 Max=5.64D-07 NDo=     1
 LinEq1:  Iter= 10 NonCon=     1 RMS=1.40D-08 Max=1.07D-07 NDo=     1
 LinEq1:  Iter= 11 NonCon=     1 RMS=2.45D-09 Max=1.99D-08 NDo=     1
 LinEq1:  Iter= 12 NonCon=     1 RMS=5.28D-10 Max=4.32D-09 NDo=     1
 LinEq1:  Iter= 13 NonCon=     1 RMS=1.22D-10 Max=8.79D-10 NDo=     1
 LinEq1:  Iter= 14 NonCon=     0 RMS=2.48D-11 Max=1.76D-10 NDo=     1
 Linear equations converged to 1.000D-10 1.000D-09 after    14 iterations.
 End of Minotr F.D. properties file   721 does not exist.
 End of Minotr F.D. properties file   722 does not exist.
 End of Minotr F.D. properties file   788 does not exist.
 Calling FoFJK, ICntrl=  10002127 FMM=F ISym2X=0 I1Cent= 0 IOpClX= 0 NMat=1 NMatS=1 NMatT=0.
 ***** Axes restored to original set *****
 -------------------------------------------------------------------
 Center     Atomic                   Forces (Hartrees/Bohr)
 Number     Number              X              Y              Z
 -------------------------------------------------------------------
      1        8          -0.002138771   -0.001449668    0.000840344
      2        8           0.004059720   -0.000865192    0.002802038
      3        1           0.000045281    0.001785916   -0.001082320
      4        1          -0.003049684    0.000323397    0.000104442
      5        7           0.000483413    0.002541951   -0.008765183
      6        1          -0.000137654   -0.000316594    0.001256668
      7        1           0.000140021   -0.000999612    0.002215986
      8        1           0.000597675   -0.001020199    0.002628025
 -------------------------------------------------------------------
 Cartesian Forces:  Max     0.008765183 RMS     0.002463892

 GradGradGradGradGradGradGradGradGradGradGradGradGradGradGradGradGradGrad
 Berny optimization.
 Using GEDIIS/GDIIS optimizer.
 FormGI is forming the generalized inverse of G from B-inverse, IUseBI=4.
 Internal  Forces:  Max     0.002858548 RMS     0.001656987
 Search for a local minimum.
 Step number   2 out of a maximum of   31
 All quantities printed in internal units (Hartrees-Bohrs-Radians)
 Mixed Optimization -- RFO/linear search
 Update second derivatives using D2CorX and points    1    2
 DE= -1.00D-03 DEPred=-1.96D-03 R= 5.10D-01
 TightC=F SS=  1.41D+00  RLast= 3.07D-01 DXNew= 5.0454D-01 9.2157D-01
 Trust test= 5.10D-01 RLast= 3.07D-01 DXMaxT set to 5.05D-01
 ITU=  1  0
 Use linear search instead of GDIIS.
     Eigenvalues ---    0.00229   0.00230   0.00541   0.00830   0.06031
     Eigenvalues ---    0.07906   0.10144   0.13680   0.16000   0.16000
     Eigenvalues ---    0.16000   0.19090   0.36271   0.43687   0.43735
     Eigenvalues ---    0.43867   0.49339   0.52082
 RFO step:  Lambda=-9.87178589D-04 EMin= 2.29239222D-03
 Quartic linear search produced a step of -0.14595.
 Iteration  1 RMS(Cart)=  0.13149862 RMS(Int)=  0.01363122
 Iteration  2 RMS(Cart)=  0.02745759 RMS(Int)=  0.00081605
 Iteration  3 RMS(Cart)=  0.00072021 RMS(Int)=  0.00070117
 Iteration  4 RMS(Cart)=  0.00000011 RMS(Int)=  0.00070117
 Variable       Old X    -DE/DX   Delta X   Delta X   Delta X     New X
                                 (Linear)    (Quad)   (Total)
    R1        2.77430   0.00206  -0.00313   0.02944   0.02631   2.80061
    R2        1.83785  -0.00198   0.00066  -0.00846  -0.00780   1.83005
    R3        1.87394   0.00247  -0.00047   0.00810   0.00763   1.88158
    R4        3.35726   0.00252  -0.00374   0.06232   0.05858   3.41583
    R5        1.93307  -0.00076   0.00021  -0.00319  -0.00298   1.93009
    R6        1.93170  -0.00071   0.00019  -0.00289  -0.00270   1.92900
    R7        1.93413  -0.00132   0.00021  -0.00432  -0.00410   1.93003
    A1        1.72448   0.00114  -0.00591   0.05269   0.04678   1.77126
    A2        1.72602  -0.00190  -0.00372   0.01900   0.01528   1.74130
    A3        1.94334   0.00008   0.00086  -0.00444  -0.00451   1.93883
    A4        2.15427  -0.00223   0.00188  -0.02665  -0.02506   2.12921
    A5        1.83667  -0.00286  -0.00002  -0.01737  -0.01652   1.82016
    A6        1.83218   0.00207  -0.00075   0.01947   0.01729   1.84947
    A7        1.83558   0.00162  -0.00145   0.02039   0.01921   1.85479
    A8        1.83641   0.00194  -0.00119   0.01665   0.01659   1.85300
    A9        2.93778   0.00219   0.04105   0.20184   0.24343   3.18121
   A10        3.01250   0.00025   0.01212  -0.01932  -0.00725   3.00525
    D1        2.01668  -0.00044  -0.00030  -0.05701  -0.05731   1.95937
    D2        2.35828  -0.00005   0.00588  -0.01698  -0.01230   2.34598
    D3       -1.64381   0.00010  -0.00743  -0.09611  -0.10178  -1.74559
    D4        0.41236  -0.00064   0.00262  -0.04446  -0.04245   0.36991
         Item               Value     Threshold  Converged?
 Maximum Force            0.002859     0.000450     NO 
 RMS     Force            0.001657     0.000300     NO 
 Maximum Displacement     0.389141     0.001800     NO 
 RMS     Displacement     0.154239     0.001200     NO 
 Predicted change in Energy=-5.656824D-04
 GradGradGradGradGradGradGradGradGradGradGradGradGradGradGradGradGradGrad

                          Input orientation:                          
 ---------------------------------------------------------------------
 Center     Atomic      Atomic             Coordinates (Angstroms)
 Number     Number       Type             X           Y           Z
 ---------------------------------------------------------------------
      1          8           0       -2.102300    2.408387   -0.029396
      2          8           0       -0.737112    1.993639   -0.430178
      3          1           0       -2.446420    1.590294    0.358083
      4          1           0       -0.831723    2.035483   -1.420476
      5          7           0       -0.873742    2.260205   -3.213543
      6          1           0       -0.034484    2.739698   -3.543555
      7          1           0       -1.020382    1.478421   -3.853313
      8          1           0       -1.651011    2.904324   -3.368689
 ---------------------------------------------------------------------
                    Distance matrix (angstroms):
                    1          2          3          4          5
     1  O    0.000000
     2  O    1.482019   0.000000
     3  H    0.968419   1.925040   0.000000
     4  H    1.920554   0.995687   2.443095   0.000000
     5  N    3.416153   2.799436   3.959623   1.807582   0.000000
     6  H    4.090837   3.277713   4.728779   2.374652   1.021360
     7  H    4.081388   3.473261   4.447692   2.502919   1.020782
     8  H    3.405950   3.209269   4.030904   2.285093   1.021326
                    6          7          8
     6  H    0.000000
     7  H    1.630572   0.000000
     8  H    1.634270   1.632713   0.000000
 Stoichiometry    H5NO2
 Framework group  C1[X(H5NO2)]
 Deg. of freedom    18
 Full point group                 C1      NOp   1
 Largest Abelian subgroup         C1      NOp   1
 Largest concise Abelian subgroup C1      NOp   1
                         Standard orientation:                         
 ---------------------------------------------------------------------
 Center     Atomic      Atomic             Coordinates (Angstroms)
 Number     Number       Type             X           Y           Z
 ---------------------------------------------------------------------
      1          8           0       -1.498815   -0.532937   -0.103793
      2          8           0       -0.770253    0.753416    0.000472
      3          1           0       -1.981241   -0.549914    0.735739
      4          1           0        0.163055    0.413748    0.070857
      5          7           0        1.889764   -0.118733    0.022984
      6          1           0        2.435996    0.462513   -0.614949
      7          1           0        2.451375   -0.209747    0.870512
      8          1           0        1.855019   -1.049298   -0.396478
 ---------------------------------------------------------------------
 Rotational constants (GHZ):          28.6254619           4.3393361           3.8834976
 Standard basis: Aug-CC-pVDZ (5D, 7F)
 There are   120 symmetry adapted cartesian basis functions of A   symmetry.
 There are   114 symmetry adapted basis functions of A   symmetry.
   114 basis functions,   184 primitive gaussians,   120 cartesian basis functions
    14 alpha electrons       14 beta electrons
       nuclear repulsion energy        78.3680597633 Hartrees.
 NAtoms=    8 NActive=    8 NUniq=    8 SFac= 1.00D+00 NAtFMM=   60 NAOKFM=F Big=F
 Integral buffers will be    131072 words long.
 Raffenetti 1 integral format.
 Two-electron integral symmetry is turned on.
 One-electron integrals computed using PRISM.
 NBasis=   114 RedAO= T EigKep=  8.97D-04  NBF=   114
 NBsUse=   114 1.00D-06 EigRej= -1.00D+00 NBFU=   114
 Initial guess from the checkpoint file:  "/gscratch/scrubbed/gds001/Gau-30468.chk"
 B after Tr=    -0.000000   -0.000000    0.000000
         Rot=    0.999900    0.005339   -0.000890    0.013059 Ang=   1.62 deg.
 ExpMin= 2.97D-02 ExpMax= 1.17D+04 ExpMxC= 4.01D+02 IAcc=3 IRadAn=         5 AccDes= 0.00D+00
 Harris functional with IExCor=  205 and IRadAn=       5 diagonalized for initial guess.
 HarFok:  IExCor=  205 AccDes= 0.00D+00 IRadAn=         5 IDoV= 1 UseB2=F ITyADJ=14
 ICtDFT=  3500011 ScaDFX=  1.000000  1.000000  1.000000  1.000000
 FoFCou: FMM=F IPFlag=           0 FMFlag=      100000 FMFlg1=           0
         NFxFlg=           0 DoJE=T BraDBF=F KetDBF=T FulRan=T
         wScrn=  0.000000 ICntrl=       500 IOpCl=  0 I1Cent=   200000004 NGrid=           0
         NMat0=    1 NMatS0=      1 NMatT0=    0 NMatD0=    1 NMtDS0=    0 NMtDT0=    0
 Petite list used in FoFCou.
 Keep R1 ints in memory in canonical form, NReq=27451623.
 Requested convergence on RMS density matrix=1.00D-08 within 128 cycles.
 Requested convergence on MAX density matrix=1.00D-06.
 Requested convergence on             energy=1.00D-06.
 No special actions if energy rises.
 SCF Done:  E(RHF) =  -207.012650913     A.U. after   14 cycles
            NFock= 14  Conv=0.86D-08     -V/T= 2.0023
 ExpMin= 2.97D-02 ExpMax= 1.17D+04 ExpMxC= 4.01D+02 IAcc=3 IRadAn=         5 AccDes= 0.00D+00
 HarFok:  IExCor=  205 AccDes= 0.00D+00 IRadAn=         5 IDoV=-2 UseB2=F ITyADJ=14
 ICtDFT= 12500011 ScaDFX=  1.000000  1.000000  1.000000  1.000000
 Range of M.O.s used for correlation:     4   114
 NBasis=   114 NAE=    14 NBE=    14 NFC=     3 NFV=     0
 NROrb=    111 NOA=    11 NOB=    11 NVA=   100 NVB=   100

 **** Warning!!: The largest alpha MO coefficient is  0.10103514D+02

 Fully direct method using O(ONN) memory.
 JobTyp=1 Pass  1:  I=   4 to  14 NPSUse= 28 ParTrn=T ParDer=T DoDerP=T.
 Spin components of T(2) and E(2):
     alpha-alpha T2 =       0.2350165069D-01 E2=     -0.7863790700D-01
     alpha-beta  T2 =       0.1372387553D+00 E2=     -0.4674385158D+00
     beta-beta   T2 =       0.2350165069D-01 E2=     -0.7863790700D-01
 ANorm=    0.1088228862D+01
 E2 =    -0.6247143298D+00 EUMP2 =    -0.20763736524229D+03
          IDoAtm=11111111
          Differentiating once with respect to electric field.
                with respect to dipole field.
          Differentiating once with respect to nuclear coordinates.
 Keep R1 ints in memory in canonical form, NReq=27456382.
          There are     1 degrees of freedom in the 1st order CPHF.  IDoFFX=0 NUNeed=     1.
 LinEq1:  Iter=  0 NonCon=     1 RMS=5.41D-03 Max=3.35D-02 NDo=     1
 AX will form     1 AO Fock derivatives at one time.
 LinEq1:  Iter=  1 NonCon=     1 RMS=8.01D-04 Max=5.24D-03 NDo=     1
 LinEq1:  Iter=  2 NonCon=     1 RMS=3.31D-04 Max=2.10D-03 NDo=     1
 LinEq1:  Iter=  3 NonCon=     1 RMS=8.24D-05 Max=6.78D-04 NDo=     1
 LinEq1:  Iter=  4 NonCon=     1 RMS=4.80D-05 Max=4.33D-04 NDo=     1
 LinEq1:  Iter=  5 NonCon=     1 RMS=1.27D-05 Max=1.30D-04 NDo=     1
 LinEq1:  Iter=  6 NonCon=     1 RMS=3.57D-06 Max=2.26D-05 NDo=     1
 LinEq1:  Iter=  7 NonCon=     1 RMS=1.49D-06 Max=9.46D-06 NDo=     1
 LinEq1:  Iter=  8 NonCon=     1 RMS=3.39D-07 Max=2.24D-06 NDo=     1
 LinEq1:  Iter=  9 NonCon=     1 RMS=8.65D-08 Max=6.14D-07 NDo=     1
 LinEq1:  Iter= 10 NonCon=     1 RMS=1.57D-08 Max=1.13D-07 NDo=     1
 LinEq1:  Iter= 11 NonCon=     1 RMS=2.71D-09 Max=1.92D-08 NDo=     1
 LinEq1:  Iter= 12 NonCon=     1 RMS=5.92D-10 Max=4.30D-09 NDo=     1
 LinEq1:  Iter= 13 NonCon=     1 RMS=1.38D-10 Max=9.43D-10 NDo=     1
 LinEq1:  Iter= 14 NonCon=     0 RMS=2.90D-11 Max=1.91D-10 NDo=     1
 Linear equations converged to 1.000D-10 1.000D-09 after    14 iterations.
 End of Minotr F.D. properties file   721 does not exist.
 End of Minotr F.D. properties file   722 does not exist.
 End of Minotr F.D. properties file   788 does not exist.
 Calling FoFJK, ICntrl=  10002127 FMM=F ISym2X=0 I1Cent= 0 IOpClX= 0 NMat=1 NMatS=1 NMatT=0.
 ***** Axes restored to original set *****
 -------------------------------------------------------------------
 Center     Atomic                   Forces (Hartrees/Bohr)
 Number     Number              X              Y              Z
 -------------------------------------------------------------------
      1        8           0.003745341    0.005903249   -0.004896866
      2        8          -0.006414464   -0.001540241    0.001751808
      3        1           0.003753902   -0.004624132   -0.000177229
      4        1          -0.000356889   -0.000430060    0.004139331
      5        7          -0.000301852    0.000910444   -0.003022833
      6        1          -0.000606505    0.000116113    0.000791427
      7        1          -0.000180644   -0.000374388    0.001310264
      8        1           0.000361111    0.000039015    0.000104097
 -------------------------------------------------------------------
 Cartesian Forces:  Max     0.006414464 RMS     0.002780074

 GradGradGradGradGradGradGradGradGradGradGradGradGradGradGradGradGradGrad
 Berny optimization.
 Using GEDIIS/GDIIS optimizer.
 FormGI is forming the generalized inverse of G from B-inverse, IUseBI=4.
 Internal  Forces:  Max     0.009893864 RMS     0.003177063
 Search for a local minimum.
 Step number   3 out of a maximum of   31
 All quantities printed in internal units (Hartrees-Bohrs-Radians)
 Mixed Optimization -- RFO/linear search
 Update second derivatives using D2CorX and points    1    3    2
 DE=  1.42D-04 DEPred=-5.66D-04 R=-2.51D-01
 Trust test=-2.51D-01 RLast= 2.89D-01 DXMaxT set to 2.52D-01
 ITU= -1  1  0
 Use linear search instead of GDIIS.
     Eigenvalues ---    0.00225   0.00239   0.00529   0.01678   0.05363
     Eigenvalues ---    0.08419   0.10124   0.13534   0.16000   0.16000
     Eigenvalues ---    0.16528   0.21111   0.40957   0.43501   0.43759
     Eigenvalues ---    0.43862   0.50225   0.52717
 RFO step:  Lambda=-3.31379580D-04 EMin= 2.24979288D-03
 Quartic linear search produced a step of -0.57743.
 Iteration  1 RMS(Cart)=  0.12532526 RMS(Int)=  0.00602701
 Iteration  2 RMS(Cart)=  0.00983797 RMS(Int)=  0.00060534
 Iteration  3 RMS(Cart)=  0.00002218 RMS(Int)=  0.00060489
 Iteration  4 RMS(Cart)=  0.00000001 RMS(Int)=  0.00060489
 Variable       Old X    -DE/DX   Delta X   Delta X   Delta X     New X
                                 (Linear)    (Quad)   (Total)
    R1        2.80061  -0.00792  -0.01519   0.00044  -0.01475   2.78586
    R2        1.83005   0.00250   0.00451  -0.00207   0.00244   1.83249
    R3        1.88158  -0.00319  -0.00441   0.00206  -0.00233   1.87925
    R4        3.41583   0.00091  -0.03382   0.04160   0.00777   3.42360
    R5        1.93009  -0.00070   0.00172  -0.00241  -0.00069   1.92940
    R6        1.92900  -0.00051   0.00156  -0.00208  -0.00052   1.92848
    R7        1.93003  -0.00027   0.00237  -0.00303  -0.00066   1.92936
    A1        1.77126  -0.00989  -0.02701  -0.01110  -0.03811   1.73314
    A2        1.74130  -0.00494  -0.00882  -0.01664  -0.02546   1.71584
    A3        1.93883  -0.00038   0.00261  -0.00094   0.00246   1.94128
    A4        2.12921  -0.00149   0.01447  -0.01815  -0.00346   2.12575
    A5        1.82016   0.00038   0.00954  -0.01450  -0.00571   1.81445
    A6        1.84947   0.00096  -0.00998   0.01522   0.00633   1.85580
    A7        1.85479  -0.00002  -0.01109   0.01058  -0.00055   1.85424
    A8        1.85300   0.00073  -0.00958   0.01137   0.00063   1.85364
    A9        3.18121  -0.00215  -0.14056  -0.01545  -0.15647   3.02474
   A10        3.00525   0.00026   0.00418   0.08982   0.09404   3.09930
    D1        1.95937  -0.00025   0.03309  -0.06372  -0.03063   1.92875
    D2        2.34598  -0.00020   0.00711  -0.03171  -0.02385   2.32213
    D3       -1.74559   0.00019   0.05877  -0.02376   0.03345  -1.71214
    D4        0.36991  -0.00006   0.02451  -0.04682  -0.02147   0.34844
         Item               Value     Threshold  Converged?
 Maximum Force            0.009894     0.000450     NO 
 RMS     Force            0.003177     0.000300     NO 
 Maximum Displacement     0.357845     0.001800     NO 
 RMS     Displacement     0.129941     0.001200     NO 
 Predicted change in Energy=-3.507297D-04
 GradGradGradGradGradGradGradGradGradGradGradGradGradGradGradGradGradGrad

                          Input orientation:                          
 ---------------------------------------------------------------------
 Center     Atomic      Atomic             Coordinates (Angstroms)
 Number     Number       Type             X           Y           Z
 ---------------------------------------------------------------------
      1          8           0       -2.088981    2.432158   -0.144666
      2          8           0       -0.703490    1.987933   -0.382125
      3          1           0       -2.469752    1.597208    0.168720
      4          1           0       -0.704771    2.037849   -1.375326
      5          7           0       -0.886838    2.254725   -3.164751
      6          1           0       -0.084254    2.745789   -3.561165
      7          1           0       -1.076438    1.467082   -3.785318
      8          1           0       -1.682651    2.887708   -3.256436
 ---------------------------------------------------------------------
                    Distance matrix (angstroms):
                    1          2          3          4          5
     1  O    0.000000
     2  O    1.474213   0.000000
     3  H    0.969710   1.890972   0.000000
     4  H    1.893684   0.994456   2.386084   0.000000
     5  N    3.255387   2.801393   3.748330   1.811692   0.000000
     6  H    3.973633   3.326274   4.574044   2.379940   1.020994
     7  H    3.900124   3.462962   4.194363   2.504391   1.020507
     8  H    3.171079   3.167020   3.743876   2.284094   1.020975
                    6          7          8
     6  H    0.000000
     7  H    1.633941   0.000000
     8  H    1.633363   1.632602   0.000000
 Stoichiometry    H5NO2
 Framework group  C1[X(H5NO2)]
 Deg. of freedom    18
 Full point group                 C1      NOp   1
 Largest Abelian subgroup         C1      NOp   1
 Largest concise Abelian subgroup C1      NOp   1
                         Standard orientation:                         
 ---------------------------------------------------------------------
 Center     Atomic      Atomic             Coordinates (Angstroms)
 Number     Number       Type             X           Y           Z
 ---------------------------------------------------------------------
      1          8           0       -1.384612   -0.579401   -0.110245
      2          8           0       -0.827659    0.780529    0.006790
      3          1           0       -1.799576   -0.654513    0.762969
      4          1           0        0.136342    0.538643    0.040473
      5          7           0        1.832315   -0.098177    0.021462
      6          1           0        2.422617    0.441184   -0.613410
      7          1           0        2.370583   -0.220015    0.879866
      8          1           0        1.741993   -1.027087   -0.392494
 ---------------------------------------------------------------------
 Rotational constants (GHZ):          26.1279199           4.6718122           4.0953659
 Standard basis: Aug-CC-pVDZ (5D, 7F)
 There are   120 symmetry adapted cartesian basis functions of A   symmetry.
 There are   114 symmetry adapted basis functions of A   symmetry.
   114 basis functions,   184 primitive gaussians,   120 cartesian basis functions
    14 alpha electrons       14 beta electrons
       nuclear repulsion energy        79.2303873436 Hartrees.
 NAtoms=    8 NActive=    8 NUniq=    8 SFac= 1.00D+00 NAtFMM=   60 NAOKFM=F Big=F
 Integral buffers will be    131072 words long.
 Raffenetti 1 integral format.
 Two-electron integral symmetry is turned on.
 One-electron integrals computed using PRISM.
 NBasis=   114 RedAO= T EigKep=  8.51D-04  NBF=   114
 NBsUse=   114 1.00D-06 EigRej= -1.00D+00 NBFU=   114
 Lowest energy guess from the checkpoint file:  "/gscratch/scrubbed/gds001/Gau-30468.chk"
 B after Tr=    -0.000000   -0.000000    0.000000
         Rot=    0.999994    0.002604   -0.001135    0.001968 Ang=   0.40 deg.
 B after Tr=     0.000000   -0.000000    0.000000
         Rot=    0.999935   -0.002904   -0.000128   -0.011000 Ang=  -1.30 deg.
 Keep R1 ints in memory in canonical form, NReq=27453339.
 Requested convergence on RMS density matrix=1.00D-08 within 128 cycles.
 Requested convergence on MAX density matrix=1.00D-06.
 Requested convergence on             energy=1.00D-06.
 No special actions if energy rises.
 SCF Done:  E(RHF) =  -207.013382434     A.U. after   13 cycles
            NFock= 13  Conv=0.49D-08     -V/T= 2.0022
 ExpMin= 2.97D-02 ExpMax= 1.17D+04 ExpMxC= 4.01D+02 IAcc=3 IRadAn=         5 AccDes= 0.00D+00
 HarFok:  IExCor=  205 AccDes= 0.00D+00 IRadAn=         5 IDoV=-2 UseB2=F ITyADJ=14
 ICtDFT= 12500011 ScaDFX=  1.000000  1.000000  1.000000  1.000000
 Range of M.O.s used for correlation:     4   114
 NBasis=   114 NAE=    14 NBE=    14 NFC=     3 NFV=     0
 NROrb=    111 NOA=    11 NOB=    11 NVA=   100 NVB=   100
 Fully direct method using O(ONN) memory.
 JobTyp=1 Pass  1:  I=   4 to  14 NPSUse= 28 ParTrn=T ParDer=T DoDerP=T.
 Spin components of T(2) and E(2):
     alpha-alpha T2 =       0.2346753883D-01 E2=     -0.7867344853D-01
     alpha-beta  T2 =       0.1368066574D+00 E2=     -0.4671448841D+00
     beta-beta   T2 =       0.2346753883D-01 E2=     -0.7867344853D-01
 ANorm=    0.1087998959D+01
 E2 =    -0.6244917812D+00 EUMP2 =    -0.20763787421517D+03
          IDoAtm=11111111
          Differentiating once with respect to electric field.
                with respect to dipole field.
          Differentiating once with respect to nuclear coordinates.
 Keep R1 ints in memory in canonical form, NReq=27457614.
          There are     1 degrees of freedom in the 1st order CPHF.  IDoFFX=0 NUNeed=     1.
 LinEq1:  Iter=  0 NonCon=     1 RMS=5.38D-03 Max=3.64D-02 NDo=     1
 AX will form     1 AO Fock derivatives at one time.
 LinEq1:  Iter=  1 NonCon=     1 RMS=8.00D-04 Max=5.31D-03 NDo=     1
 LinEq1:  Iter=  2 NonCon=     1 RMS=3.28D-04 Max=2.29D-03 NDo=     1
 LinEq1:  Iter=  3 NonCon=     1 RMS=8.01D-05 Max=6.16D-04 NDo=     1
 LinEq1:  Iter=  4 NonCon=     1 RMS=4.66D-05 Max=4.85D-04 NDo=     1
 LinEq1:  Iter=  5 NonCon=     1 RMS=1.25D-05 Max=1.32D-04 NDo=     1
 LinEq1:  Iter=  6 NonCon=     1 RMS=3.45D-06 Max=2.20D-05 NDo=     1
 LinEq1:  Iter=  7 NonCon=     1 RMS=1.43D-06 Max=9.49D-06 NDo=     1
 LinEq1:  Iter=  8 NonCon=     1 RMS=3.13D-07 Max=1.77D-06 NDo=     1
 LinEq1:  Iter=  9 NonCon=     1 RMS=7.91D-08 Max=6.23D-07 NDo=     1
 LinEq1:  Iter= 10 NonCon=     1 RMS=1.44D-08 Max=9.10D-08 NDo=     1
 LinEq1:  Iter= 11 NonCon=     1 RMS=2.42D-09 Max=1.51D-08 NDo=     1
 LinEq1:  Iter= 12 NonCon=     1 RMS=5.10D-10 Max=4.19D-09 NDo=     1
 LinEq1:  Iter= 13 NonCon=     1 RMS=1.13D-10 Max=6.85D-10 NDo=     1
 LinEq1:  Iter= 14 NonCon=     0 RMS=2.52D-11 Max=1.88D-10 NDo=     1
 Linear equations converged to 1.000D-10 1.000D-09 after    14 iterations.
 End of Minotr F.D. properties file   721 does not exist.
 End of Minotr F.D. properties file   722 does not exist.
 End of Minotr F.D. properties file   788 does not exist.
 Calling FoFJK, ICntrl=  10002127 FMM=F ISym2X=0 I1Cent= 0 IOpClX= 0 NMat=1 NMatS=1 NMatT=0.
 ***** Axes restored to original set *****
 -------------------------------------------------------------------
 Center     Atomic                   Forces (Hartrees/Bohr)
 Number     Number              X              Y              Z
 -------------------------------------------------------------------
      1        8           0.000794366    0.001171539   -0.000566761
      2        8          -0.000887979    0.000547246   -0.001906361
      3        1          -0.000024345   -0.001078467    0.000540566
      4        1          -0.000378982   -0.001471239    0.002571635
      5        7           0.000521771    0.001340108   -0.002364356
      6        1          -0.000424533   -0.000226470   -0.000064195
      7        1           0.000375306   -0.000308534    0.001044591
      8        1           0.000024396    0.000025817    0.000744880
 -------------------------------------------------------------------
 Cartesian Forces:  Max     0.002571635 RMS     0.001064612

 GradGradGradGradGradGradGradGradGradGradGradGradGradGradGradGradGradGrad
 Berny optimization.
 Using GEDIIS/GDIIS optimizer.
 FormGI is forming the generalized inverse of G from B-inverse, IUseBI=4.
 Internal  Forces:  Max     0.001968948 RMS     0.000778487
 Search for a local minimum.
 Step number   4 out of a maximum of   31
 All quantities printed in internal units (Hartrees-Bohrs-Radians)
 Mixed Optimization -- En-DIIS/RFO-DIIS
 Update second derivatives using D2CorX and points    1    3    2    4
 DE= -3.67D-04 DEPred=-3.51D-04 R= 1.05D+00
 TightC=F SS=  1.41D+00  RLast= 2.01D-01 DXNew= 4.2426D-01 6.0166D-01
 Trust test= 1.05D+00 RLast= 2.01D-01 DXMaxT set to 4.24D-01
 ITU=  1 -1  1  0
 Use linear search instead of GDIIS.
     Eigenvalues ---    0.00204   0.00345   0.00759   0.01600   0.03434
     Eigenvalues ---    0.08352   0.09965   0.11840   0.16000   0.16440
     Eigenvalues ---    0.16863   0.21405   0.41630   0.43236   0.43742
     Eigenvalues ---    0.43851   0.50853   0.54193
 RFO step:  Lambda=-4.76911215D-04 EMin= 2.03576165D-03
 Quartic linear search produced a step of -0.03311.
 Iteration  1 RMS(Cart)=  0.07680563 RMS(Int)=  0.01711366
 Iteration  2 RMS(Cart)=  0.02632489 RMS(Int)=  0.00165209
 Iteration  3 RMS(Cart)=  0.00065737 RMS(Int)=  0.00152324
 Iteration  4 RMS(Cart)=  0.00000080 RMS(Int)=  0.00152324
 Variable       Old X    -DE/DX   Delta X   Delta X   Delta X     New X
                                 (Linear)    (Quad)   (Total)
    R1        2.78586  -0.00070  -0.00038   0.00250   0.00212   2.78798
    R2        1.83249   0.00111   0.00018  -0.00187  -0.00169   1.83080
    R3        1.87925  -0.00197  -0.00018   0.00000  -0.00013   1.87912
    R4        3.42360   0.00068  -0.00220   0.07516   0.07293   3.49653
    R5        1.92940  -0.00042   0.00012  -0.00469  -0.00457   1.92483
    R6        1.92848  -0.00047   0.00011  -0.00429  -0.00418   1.92430
    R7        1.92936  -0.00007   0.00016  -0.00490  -0.00475   1.92462
    A1        1.73314  -0.00073  -0.00029  -0.01371  -0.01400   1.71914
    A2        1.71584   0.00050   0.00034  -0.01769  -0.01733   1.69851
    A3        1.94128   0.00081   0.00007   0.00371   0.00500   1.94628
    A4        2.12575  -0.00136   0.00094  -0.03702  -0.03530   2.09045
    A5        1.81445  -0.00074   0.00074  -0.02725  -0.02877   1.78568
    A6        1.85580   0.00030  -0.00078   0.02638   0.02809   1.88389
    A7        1.85424   0.00033  -0.00062   0.01998   0.01696   1.87120
    A8        1.85364   0.00084  -0.00057   0.02075   0.01819   1.87183
    A9        3.02474  -0.00004  -0.00288  -0.01120  -0.01517   3.00956
   A10        3.09930  -0.00113  -0.00287  -0.26617  -0.26902   2.83027
    D1        1.92875   0.00043   0.00291  -0.01922  -0.01631   1.91244
    D2        2.32213  -0.00007   0.00120  -0.10036  -0.09531   2.22681
    D3       -1.71214  -0.00005   0.00226  -0.07715  -0.07792  -1.79006
    D4        0.34844  -0.00023   0.00212  -0.07151  -0.06993   0.27851
         Item               Value     Threshold  Converged?
 Maximum Force            0.001969     0.000450     NO 
 RMS     Force            0.000778     0.000300     NO 
 Maximum Displacement     0.262300     0.001800     NO 
 RMS     Displacement     0.096730     0.001200     NO 
 Predicted change in Energy=-2.612753D-04
 GradGradGradGradGradGradGradGradGradGradGradGradGradGradGradGradGradGrad

                          Input orientation:                          
 ---------------------------------------------------------------------
 Center     Atomic      Atomic             Coordinates (Angstroms)
 Number     Number       Type             X           Y           Z
 ---------------------------------------------------------------------
      1          8           0       -2.090477    2.458094   -0.178663
      2          8           0       -0.707399    1.990729   -0.391452
      3          1           0       -2.445107    1.665240    0.250550
      4          1           0       -0.755440    1.899045   -1.380438
      5          7           0       -0.880303    2.253904   -3.192078
      6          1           0       -0.094834    2.814601   -3.517892
      7          1           0       -1.012719    1.487625   -3.849500
      8          1           0       -1.710896    2.841213   -3.241594
 ---------------------------------------------------------------------
                    Distance matrix (angstroms):
                    1          2          3          4          5
     1  O    0.000000
     2  O    1.475335   0.000000
     3  H    0.968815   1.880888   0.000000
     4  H    1.881256   0.994388   2.360034   0.000000
     5  N    3.253750   2.818274   3.827117   1.850285   0.000000
     6  H    3.906423   3.290688   4.587588   2.417302   1.018575
     7  H    3.946951   3.507767   4.346688   2.516292   1.018294
     8  H    3.110050   3.139051   3.757266   2.294445   1.018464
                    6          7          8
     6  H    0.000000
     7  H    1.647223   0.000000
     8  H    1.639727   1.639879   0.000000
 Stoichiometry    H5NO2
 Framework group  C1[X(H5NO2)]
 Deg. of freedom    18
 Full point group                 C1      NOp   1
 Largest Abelian subgroup         C1      NOp   1
 Largest concise Abelian subgroup C1      NOp   1
                         Standard orientation:                         
 ---------------------------------------------------------------------
 Center     Atomic      Atomic             Coordinates (Angstroms)
 Number     Number       Type             X           Y           Z
 ---------------------------------------------------------------------
      1          8           0       -1.369666   -0.589975   -0.102337
      2          8           0       -0.834115    0.781463   -0.007696
      3          1           0       -1.885571   -0.599141    0.717639
      4          1           0        0.111674    0.535672    0.176368
      5          7           0        1.843955   -0.095885    0.021796
      6          1           0        2.360693    0.403742   -0.699903
      7          1           0        2.436364   -0.154635    0.847945
      8          1           0        1.699403   -1.046346   -0.314356
 ---------------------------------------------------------------------
 Rotational constants (GHZ):          26.0404654           4.6601514           4.0806416
 Standard basis: Aug-CC-pVDZ (5D, 7F)
 There are   120 symmetry adapted cartesian basis functions of A   symmetry.
 There are   114 symmetry adapted basis functions of A   symmetry.
   114 basis functions,   184 primitive gaussians,   120 cartesian basis functions
    14 alpha electrons       14 beta electrons
       nuclear repulsion energy        79.1757910270 Hartrees.
 NAtoms=    8 NActive=    8 NUniq=    8 SFac= 1.00D+00 NAtFMM=   60 NAOKFM=F Big=F
 Integral buffers will be    131072 words long.
 Raffenetti 1 integral format.
 Two-electron integral symmetry is turned on.
 One-electron integrals computed using PRISM.
 NBasis=   114 RedAO= T EigKep=  8.22D-04  NBF=   114
 NBsUse=   114 1.00D-06 EigRej= -1.00D+00 NBFU=   114
 Initial guess from the checkpoint file:  "/gscratch/scrubbed/gds001/Gau-30468.chk"
 B after Tr=    -0.000000    0.000000    0.000000
         Rot=    0.999929    0.011890   -0.000550   -0.001000 Ang=   1.37 deg.
 ExpMin= 2.97D-02 ExpMax= 1.17D+04 ExpMxC= 4.01D+02 IAcc=3 IRadAn=         5 AccDes= 0.00D+00
 Harris functional with IExCor=  205 and IRadAn=       5 diagonalized for initial guess.
 HarFok:  IExCor=  205 AccDes= 0.00D+00 IRadAn=         5 IDoV= 1 UseB2=F ITyADJ=14
 ICtDFT=  3500011 ScaDFX=  1.000000  1.000000  1.000000  1.000000
 FoFCou: FMM=F IPFlag=           0 FMFlag=      100000 FMFlg1=           0
         NFxFlg=           0 DoJE=T BraDBF=F KetDBF=T FulRan=T
         wScrn=  0.000000 ICntrl=       500 IOpCl=  0 I1Cent=   200000004 NGrid=           0
         NMat0=    1 NMatS0=      1 NMatT0=    0 NMatD0=    1 NMtDS0=    0 NMtDT0=    0
 Petite list used in FoFCou.
 Keep R1 ints in memory in canonical form, NReq=27453295.
 Requested convergence on RMS density matrix=1.00D-08 within 128 cycles.
 Requested convergence on MAX density matrix=1.00D-06.
 Requested convergence on             energy=1.00D-06.
 No special actions if energy rises.
 SCF Done:  E(RHF) =  -207.013134767     A.U. after   13 cycles
            NFock= 13  Conv=0.72D-08     -V/T= 2.0021
 ExpMin= 2.97D-02 ExpMax= 1.17D+04 ExpMxC= 4.01D+02 IAcc=3 IRadAn=         5 AccDes= 0.00D+00
 HarFok:  IExCor=  205 AccDes= 0.00D+00 IRadAn=         5 IDoV=-2 UseB2=F ITyADJ=14
 ICtDFT= 12500011 ScaDFX=  1.000000  1.000000  1.000000  1.000000
 Range of M.O.s used for correlation:     4   114
 NBasis=   114 NAE=    14 NBE=    14 NFC=     3 NFV=     0
 NROrb=    111 NOA=    11 NOB=    11 NVA=   100 NVB=   100
 Fully direct method using O(ONN) memory.
 JobTyp=1 Pass  1:  I=   4 to  14 NPSUse= 28 ParTrn=T ParDer=T DoDerP=T.
 Spin components of T(2) and E(2):
     alpha-alpha T2 =       0.2345878992D-01 E2=     -0.7864165939D-01
     alpha-beta  T2 =       0.1368148293D+00 E2=     -0.4670812065D+00
     beta-beta   T2 =       0.2345878992D-01 E2=     -0.7864165939D-01
 ANorm=    0.1087994673D+01
 E2 =    -0.6243645252D+00 EUMP2 =    -0.20763749929186D+03
          IDoAtm=11111111
          Differentiating once with respect to electric field.
                with respect to dipole field.
          Differentiating once with respect to nuclear coordinates.
 Keep R1 ints in memory in canonical form, NReq=27457438.
          There are     1 degrees of freedom in the 1st order CPHF.  IDoFFX=0 NUNeed=     1.
 LinEq1:  Iter=  0 NonCon=     1 RMS=5.38D-03 Max=3.33D-02 NDo=     1
 AX will form     1 AO Fock derivatives at one time.
 LinEq1:  Iter=  1 NonCon=     1 RMS=7.96D-04 Max=5.45D-03 NDo=     1
 LinEq1:  Iter=  2 NonCon=     1 RMS=3.25D-04 Max=2.33D-03 NDo=     1
 LinEq1:  Iter=  3 NonCon=     1 RMS=8.10D-05 Max=5.88D-04 NDo=     1
 LinEq1:  Iter=  4 NonCon=     1 RMS=4.73D-05 Max=4.88D-04 NDo=     1
 LinEq1:  Iter=  5 NonCon=     1 RMS=1.30D-05 Max=1.67D-04 NDo=     1
 LinEq1:  Iter=  6 NonCon=     1 RMS=3.36D-06 Max=2.09D-05 NDo=     1
 LinEq1:  Iter=  7 NonCon=     1 RMS=1.39D-06 Max=1.03D-05 NDo=     1
 LinEq1:  Iter=  8 NonCon=     1 RMS=3.31D-07 Max=1.90D-06 NDo=     1
 LinEq1:  Iter=  9 NonCon=     1 RMS=8.38D-08 Max=6.58D-07 NDo=     1
 LinEq1:  Iter= 10 NonCon=     1 RMS=1.44D-08 Max=9.96D-08 NDo=     1
 LinEq1:  Iter= 11 NonCon=     1 RMS=2.36D-09 Max=1.51D-08 NDo=     1
 LinEq1:  Iter= 12 NonCon=     1 RMS=4.72D-10 Max=3.93D-09 NDo=     1
 LinEq1:  Iter= 13 NonCon=     1 RMS=1.05D-10 Max=5.64D-10 NDo=     1
 LinEq1:  Iter= 14 NonCon=     0 RMS=2.42D-11 Max=1.87D-10 NDo=     1
 Linear equations converged to 1.000D-10 1.000D-09 after    14 iterations.
 End of Minotr F.D. properties file   721 does not exist.
 End of Minotr F.D. properties file   722 does not exist.
 End of Minotr F.D. properties file   788 does not exist.
 Calling FoFJK, ICntrl=  10002127 FMM=F ISym2X=0 I1Cent= 0 IOpClX= 0 NMat=1 NMatS=1 NMatT=0.
 ***** Axes restored to original set *****
 -------------------------------------------------------------------
 Center     Atomic                   Forces (Hartrees/Bohr)
 Number     Number              X              Y              Z
 -------------------------------------------------------------------
      1        8           0.001060892    0.000714008    0.000703253
      2        8          -0.002760354   -0.001635030   -0.004821122
      3        1          -0.001876336   -0.000898342    0.001390984
      4        1           0.004074072    0.003287200    0.002734699
      5        7          -0.000358133   -0.002566259    0.002703641
      6        1           0.000024092   -0.000311400   -0.001033679
      7        1           0.000611601    0.000626271   -0.001498103
      8        1          -0.000775835    0.000783552   -0.000179672
 -------------------------------------------------------------------
 Cartesian Forces:  Max     0.004821122 RMS     0.002002698

 GradGradGradGradGradGradGradGradGradGradGradGradGradGradGradGradGradGrad
 Berny optimization.
 Using GEDIIS/GDIIS optimizer.
 FormGI is forming the generalized inverse of G from B-inverse, IUseBI=4.
 Internal  Forces:  Max     0.005028387 RMS     0.001769709
 Search for a local minimum.
 Step number   5 out of a maximum of   31
 All quantities printed in internal units (Hartrees-Bohrs-Radians)
 Mixed Optimization -- RFO/linear search
 Update second derivatives using D2CorX and points    1    3    2    5    4
 DE=  3.75D-04 DEPred=-2.61D-04 R=-1.43D+00
 Trust test=-1.43D+00 RLast= 3.20D-01 DXMaxT set to 2.12D-01
 ITU= -1  1 -1  1  0
 Use linear search instead of GDIIS.
     Eigenvalues ---    0.00210   0.00591   0.01460   0.01754   0.03383
     Eigenvalues ---    0.08242   0.10327   0.12113   0.16162   0.16325
     Eigenvalues ---    0.16742   0.22030   0.41430   0.43381   0.43735
     Eigenvalues ---    0.43847   0.50461   0.53330
 RFO step:  Lambda=-1.14634408D-04 EMin= 2.10270546D-03
 Quartic linear search produced a step of -0.72337.
 Iteration  1 RMS(Cart)=  0.05016182 RMS(Int)=  0.00394632
 Iteration  2 RMS(Cart)=  0.00444548 RMS(Int)=  0.00051570
 Iteration  3 RMS(Cart)=  0.00001829 RMS(Int)=  0.00051525
 Iteration  4 RMS(Cart)=  0.00000001 RMS(Int)=  0.00051525
 Variable       Old X    -DE/DX   Delta X   Delta X   Delta X     New X
                                 (Linear)    (Quad)   (Total)
    R1        2.78798   0.00091  -0.00153   0.00009  -0.00145   2.78653
    R2        1.83080   0.00204   0.00122   0.00215   0.00337   1.83417
    R3        1.87912  -0.00291   0.00009  -0.00452  -0.00444   1.87468
    R4        3.49653  -0.00024  -0.05276   0.02473  -0.02802   3.46852
    R5        1.92483   0.00018   0.00331  -0.00173   0.00157   1.92640
    R6        1.92430   0.00042   0.00303  -0.00156   0.00146   1.92576
    R7        1.92462   0.00109   0.00343  -0.00062   0.00282   1.92744
    A1        1.71914   0.00254   0.01013  -0.00206   0.00807   1.72721
    A2        1.69851   0.00503   0.01254   0.00692   0.01946   1.71797
    A3        1.94628   0.00049  -0.00362   0.00552   0.00156   1.94784
    A4        2.09045   0.00180   0.02553  -0.01217   0.01314   2.10359
    A5        1.78568  -0.00004   0.02081  -0.01046   0.01118   1.79686
    A6        1.88389  -0.00173  -0.02032   0.00516  -0.01598   1.86791
    A7        1.87120  -0.00046  -0.01227   0.00525  -0.00624   1.86496
    A8        1.87183  -0.00019  -0.01316   0.00787  -0.00452   1.86731
    A9        3.00956  -0.00005   0.01098  -0.00711   0.00425   3.01381
   A10        2.83027   0.00343   0.19460   0.01243   0.20707   3.03734
    D1        1.91244   0.00077   0.01180   0.09000   0.10180   2.01423
    D2        2.22681   0.00009   0.06895  -0.04652   0.02121   2.24802
    D3       -1.79006  -0.00010   0.05637  -0.04575   0.01172  -1.77834
    D4        0.27851   0.00008   0.05059  -0.05070  -0.00003   0.27848
         Item               Value     Threshold  Converged?
 Maximum Force            0.005028     0.000450     NO 
 RMS     Force            0.001770     0.000300     NO 
 Maximum Displacement     0.159220     0.001800     NO 
 RMS     Displacement     0.051580     0.001200     NO 
 Predicted change in Energy=-1.175579D-04
 GradGradGradGradGradGradGradGradGradGradGradGradGradGradGradGradGradGrad

                          Input orientation:                          
 ---------------------------------------------------------------------
 Center     Atomic      Atomic             Coordinates (Angstroms)
 Number     Number       Type             X           Y           Z
 ---------------------------------------------------------------------
      1          8           0       -2.093109    2.440979   -0.160449
      2          8           0       -0.718813    1.957554   -0.388411
      3          1           0       -2.467898    1.644174    0.247841
      4          1           0       -0.718168    1.983301   -1.380113
      5          7           0       -0.878146    2.259020   -3.187680
      6          1           0       -0.090866    2.790730   -3.557363
      7          1           0       -1.031083    1.474199   -3.819476
      8          1           0       -1.699091    2.860493   -3.255416
 ---------------------------------------------------------------------
                    Distance matrix (angstroms):
                    1          2          3          4          5
     1  O    0.000000
     2  O    1.474570   0.000000
     3  H    0.970600   1.887411   0.000000
     4  H    1.894073   0.992036   2.413875   0.000000
     5  N    3.267013   2.819960   3.835120   1.835460   0.000000
     6  H    3.958577   3.336279   4.630815   2.405383   1.019407
     7  H    3.930781   3.478987   4.316989   2.511492   1.019068
     8  H    3.148026   3.161639   3.787255   2.290947   1.019955
                    6          7          8
     6  H    0.000000
     7  H    1.638891   0.000000
     8  H    1.637812   1.638966   0.000000
 Stoichiometry    H5NO2
 Framework group  C1[X(H5NO2)]
 Deg. of freedom    18
 Full point group                 C1      NOp   1
 Largest Abelian subgroup         C1      NOp   1
 Largest concise Abelian subgroup C1      NOp   1
                         Standard orientation:                         
 ---------------------------------------------------------------------
 Center     Atomic      Atomic             Coordinates (Angstroms)
 Number     Number       Type             X           Y           Z
 ---------------------------------------------------------------------
      1          8           0       -1.380760   -0.585535   -0.103214
      2          8           0       -0.832965    0.779651   -0.000530
      3          1           0       -1.888525   -0.607297    0.723687
      4          1           0        0.128585    0.545718    0.068997
      5          7           0        1.847127   -0.097154    0.021687
      6          1           0        2.412644    0.393923   -0.669852
      7          1           0        2.402001   -0.154496    0.874521
      8          1           0        1.725208   -1.050691   -0.319210
 ---------------------------------------------------------------------
 Rotational constants (GHZ):          26.1883550           4.6265238           4.0578390
 Standard basis: Aug-CC-pVDZ (5D, 7F)
 There are   120 symmetry adapted cartesian basis functions of A   symmetry.
 There are   114 symmetry adapted basis functions of A   symmetry.
   114 basis functions,   184 primitive gaussians,   120 cartesian basis functions
    14 alpha electrons       14 beta electrons
       nuclear repulsion energy        79.0807561586 Hartrees.
 NAtoms=    8 NActive=    8 NUniq=    8 SFac= 1.00D+00 NAtFMM=   60 NAOKFM=F Big=F
 Integral buffers will be    131072 words long.
 Raffenetti 1 integral format.
 Two-electron integral symmetry is turned on.
 One-electron integrals computed using PRISM.
 NBasis=   114 RedAO= T EigKep=  8.44D-04  NBF=   114
 NBsUse=   114 1.00D-06 EigRej= -1.00D+00 NBFU=   114
 Lowest energy guess from the checkpoint file:  "/gscratch/scrubbed/gds001/Gau-30468.chk"
 B after Tr=    -0.000000    0.000000    0.000000
         Rot=    0.999930    0.011830    0.000432   -0.000026 Ang=   1.36 deg.
 B after Tr=    -0.000000    0.000000    0.000000
         Rot=    0.999999   -0.000018    0.000989    0.000929 Ang=  -0.16 deg.
 Keep R1 ints in memory in canonical form, NReq=27452987.
 Requested convergence on RMS density matrix=1.00D-08 within 128 cycles.
 Requested convergence on MAX density matrix=1.00D-06.
 Requested convergence on             energy=1.00D-06.
 No special actions if energy rises.
 SCF Done:  E(RHF) =  -207.013846746     A.U. after   12 cycles
            NFock= 12  Conv=0.49D-08     -V/T= 2.0022
 ExpMin= 2.97D-02 ExpMax= 1.17D+04 ExpMxC= 4.01D+02 IAcc=3 IRadAn=         5 AccDes= 0.00D+00
 HarFok:  IExCor=  205 AccDes= 0.00D+00 IRadAn=         5 IDoV=-2 UseB2=F ITyADJ=14
 ICtDFT= 12500011 ScaDFX=  1.000000  1.000000  1.000000  1.000000
 Range of M.O.s used for correlation:     4   114
 NBasis=   114 NAE=    14 NBE=    14 NFC=     3 NFV=     0
 NROrb=    111 NOA=    11 NOB=    11 NVA=   100 NVB=   100
 Fully direct method using O(ONN) memory.
 JobTyp=1 Pass  1:  I=   4 to  14 NPSUse= 28 ParTrn=T ParDer=T DoDerP=T.
 Spin components of T(2) and E(2):
     alpha-alpha T2 =       0.2343801711D-01 E2=     -0.7860575715D-01
     alpha-beta  T2 =       0.1367088456D+00 E2=     -0.4669328134D+00
     beta-beta   T2 =       0.2343801711D-01 E2=     -0.7860575715D-01
 ANorm=    0.1087926872D+01
 E2 =    -0.6241443277D+00 EUMP2 =    -0.20763799107331D+03
          IDoAtm=11111111
          Differentiating once with respect to electric field.
                with respect to dipole field.
          Differentiating once with respect to nuclear coordinates.
 Keep R1 ints in memory in canonical form, NReq=27457482.
          There are     1 degrees of freedom in the 1st order CPHF.  IDoFFX=0 NUNeed=     1.
 LinEq1:  Iter=  0 NonCon=     1 RMS=5.37D-03 Max=3.36D-02 NDo=     1
 AX will form     1 AO Fock derivatives at one time.
 LinEq1:  Iter=  1 NonCon=     1 RMS=7.93D-04 Max=5.45D-03 NDo=     1
 LinEq1:  Iter=  2 NonCon=     1 RMS=3.23D-04 Max=2.13D-03 NDo=     1
 LinEq1:  Iter=  3 NonCon=     1 RMS=7.90D-05 Max=6.09D-04 NDo=     1
 LinEq1:  Iter=  4 NonCon=     1 RMS=4.59D-05 Max=4.57D-04 NDo=     1
 LinEq1:  Iter=  5 NonCon=     1 RMS=1.24D-05 Max=1.34D-04 NDo=     1
 LinEq1:  Iter=  6 NonCon=     1 RMS=3.32D-06 Max=2.02D-05 NDo=     1
 LinEq1:  Iter=  7 NonCon=     1 RMS=1.40D-06 Max=9.80D-06 NDo=     1
 LinEq1:  Iter=  8 NonCon=     1 RMS=3.07D-07 Max=1.79D-06 NDo=     1
 LinEq1:  Iter=  9 NonCon=     1 RMS=7.72D-08 Max=6.08D-07 NDo=     1
 LinEq1:  Iter= 10 NonCon=     1 RMS=1.45D-08 Max=1.17D-07 NDo=     1
 LinEq1:  Iter= 11 NonCon=     1 RMS=2.50D-09 Max=2.14D-08 NDo=     1
 LinEq1:  Iter= 12 NonCon=     1 RMS=5.36D-10 Max=4.87D-09 NDo=     1
 LinEq1:  Iter= 13 NonCon=     1 RMS=1.23D-10 Max=8.51D-10 NDo=     1
 LinEq1:  Iter= 14 NonCon=     0 RMS=2.62D-11 Max=1.83D-10 NDo=     1
 Linear equations converged to 1.000D-10 1.000D-09 after    14 iterations.
 End of Minotr F.D. properties file   721 does not exist.
 End of Minotr F.D. properties file   722 does not exist.
 End of Minotr F.D. properties file   788 does not exist.
 Calling FoFJK, ICntrl=  10002127 FMM=F ISym2X=0 I1Cent= 0 IOpClX= 0 NMat=1 NMatS=1 NMatT=0.
 ***** Axes restored to original set *****
 -------------------------------------------------------------------
 Center     Atomic                   Forces (Hartrees/Bohr)
 Number     Number              X              Y              Z
 -------------------------------------------------------------------
[...]
 82,0.00011171,0.00020710,0.10590492,0.10418732,-0.04956138,-0.08733652
 ,-0.08895279,0.00002528,0.00007266,0.00005877,-0.00005481,-0.00002708,
 -0.00011084,-0.00001189,-0.00000972,-0.00004051,0.00014071,0.00003014,
 0.00021793,-0.05686555,-0.03687964,0.02913497,0.03269559,0.04529421,-0
 .02729929,-0.00008874,-0.00002888,-0.00017130,-0.00008860,-0.00020722,
 -0.00011347,0.00001628,-0.00002067,0.00008457,0.00027414,0.00051585,0.
 00010572,0.02240074,0.07944508,0.05037355,-0.00175752,0.00432124,0.002
 52199,0.00054182,-0.00004957,0.00000533,0.00013573,0.00020341,0.000081
 46,-0.00003494,0.00001067,0.00001566,0.00000406,-0.00031138,-0.0003878
 4,-0.00046868,0.02607846,0.10972149,0.08974341,0.00152634,-0.00028748,
 -0.00012612,-0.05602292,-0.11299755,-0.00003075,-0.00001944,0.00005434
 ,-0.00002602,0.00013086,-0.00008608,0.00000521,0.00000055,0.00001228,0
 .00002571,-0.00026001,-0.00012805,0.01591256,0.10860279,0.08260106,0.0
 0128746,-0.00091454,0.00031979,-0.03940152,-0.08830523,-0.07769567,0.0
 0012773,-0.00003983,-0.00020236,0.00015412,-0.00050134,0.00099058,0.00
 003884,-0.00002517,-0.00000445,-0.00086582,0.00120284,-0.00111089,0.41
 465835,-0.29009367,-0.03910592,-0.00334001,-0.02291480,0.02154869,-0.0
 2129813,0.02856499,0.02222735,-0.38947509,-0.00010977,-0.00000740,0.00
 023317,-0.00034032,-0.00015216,-0.00065799,-0.00001330,0.00003607,0.00
 003074,0.00095520,-0.00008763,0.00091151,-0.29438171,0.11800379,0.0151
 2802,0.03808539,-0.01498006,-0.00835445,-0.02800248,0.00384894,-0.0192
 3497,0.28380698,-0.10666154,-0.00006997,0.00019030,-0.00020533,-0.0001
 1065,-0.00011351,0.00019413,-0.00000992,-0.00002707,-0.00008023,0.0006
 6679,0.00003568,-0.00071127,0.01145862,-0.01608931,-0.01294663,0.00580
 769,0.00500816,-0.00228082,-0.01339956,-0.00094822,-0.00507767,-0.0043
 4300,0.01194398,0.02110782,-0.01890762,0.00907846,0.00003869,0.0116742
 5,-0.00271724,-0.01039372,0.02347221,-0.00634113,-0.02709793,-1.137786
 19,-0.01608130,0.00263287,0.01304657,-0.00872376,-1.17449870,0.0007057
 5,0.00035062,0.00159378,-0.25827775,-0.30839674,5.91569462,0.00424561,
 -0.00347291,0.00024582,0.00238948,0.00215385,-0.00078587,-0.00324004,0
 .00131003,0.00109576,-0.00086049,-0.00265095,-0.00014647,-0.00085634,0
 .00082768,-0.00085589,-0.00077644,0.00071613,-0.00068920,-0.00219995,-
 0.00191289,-0.00027802,0.00105155,-0.00025960,0.00071140,-0.01002732,0
 .00134221,0.01648486,1.11286680,0.02079992,0.25981945,-0.00332689,0.00
 080335,0.00191922,-1.07340305,0.00779532,-0.00358905,-0.00888403,0.014
 73766,1.17150351,0.30677750,0.00031614,-0.00040092,0.00099680,-0.02116
 169,-1.14199763,-0.01841122,0.00316175,0.00567429,0.29584883,0.2923580
 7,-5.90775861,-0.00014171,0.00344708,0.00096069,-0.28513513,-0.2867682
 0,5.85711291,0.00101299,-0.00054230,-0.00113465,-0.00023437,0.00143847
 ,-0.00124743,-0.00003339,-0.00021085,-0.00002442,-0.02673106,-0.002249
 76,0.00474167,0.04189982,-0.00169522,-0.00015188,-0.00022248,0.0021888
 3,0.00095373,0.00152157,0.00012210,0.00024872,0.00036544,-0.00229057,-
 0.02772501,-0.00824768,0.00006785,0.04410542,0.00529323,-0.00096653,0.
 00247676,-0.00602669,0.00359072,-0.00606017,-0.00033242,-0.00119076,-0
 .00068144,0.00591375,-0.01067668,0.03030141,0.00196714,0.00207376,0.00
 332452,0.00026188,-0.00001471,0.00011432,-0.00011188,0.00021278,-0.001
 36612,-0.00003665,-0.00005117,-0.00001031,0.00279538,0.00175071,0.0039
 0254,-0.01002187,-0.00793316,-0.00086776,0.00626471,-0.00004638,-0.000
 06782,-0.00030529,0.00028544,-0.00018407,-0.00051158,-0.00000293,0.000
 01029,0.00003043,-0.00046809,-0.00113080,0.00054909,-0.00325959,-0.001
 51989,0.00459611,0.00504439,0.00122932,0.00057128,0.00004049,0.0006548
 3,-0.00038462,0.00008517,-0.00050521,-0.00001819,-0.00006830,-0.000089
 03,0.00627007,0.00240255,0.00367959,-0.00965231,-0.00069831,-0.0094894
 3,0.00084022,-0.00252521,0.00354607,0.00008196,-0.00006348,0.00007617,
 -0.00035992,0.00014765,-0.00020474,-0.00000360,-0.00003188,0.00001758,
 -0.00106527,-0.00152802,0.00076244,0.00238285,0.00196370,-0.00242363,0
 .00071556,-0.00077503,0.00079350,-0.00275199,-0.00031124,0.00011008,-0
 .00007995,0.00022319,0.00001489,0.00161159,0.00003424,0.00006442,0.000
 03518,-0.00018190,0.00465917,-0.00430195,-0.00090436,-0.01452399,-0.00
 176893,0.00080466,0.00054487,0.00166584,0.00024569,0.00908418,0.000454
 12,-0.00033505,0.00039903,-0.00057629,0.00050461,-0.00031236,0.0000047
 8,-0.00010782,0.00000844,0.00052745,-0.00665705,0.00199429,-0.00263469
 ,0.00807165,-0.00873035,-0.00113940,-0.00167083,0.00136142,0.00171732,
 0.00149181,0.00423311,-0.00013971,0.00001387,-0.00036284,-0.00023611,0
 .00005238,0.00135671,0.00000548,0.00000379,0.00002277,-0.00110860,0.00
 033963,-0.00156741,-0.00827498,0.00757647,-0.00352362,0.00013287,-0.00
 077783,0.00158005,0.00100039,0.00008972,0.00164671,0.00862066,-0.00004
 966,-0.00006864,0.00002290,0.00028071,-0.00027576,-0.00049662,0.000021
 82,-0.00001592,0.00002850,0.00115677,-0.00131926,-0.00019817,0.0056605
 3,-0.00138710,0.00434231,0.00018649,0.00111810,-0.00090224,0.00004138,
 0.00004638,-0.00129733,-0.00729804,0.00190220,0.00048903,-0.00025017,0
 .00028423,-0.00128560,0.00072447,-0.00237403,-0.00002395,-0.00010377,0
 .00005714,-0.00579968,0.00280910,0.00803542,0.00798471,-0.00286395,-0.
 01114132,-0.00147349,-0.00016272,0.00084176,-0.00073865,0.00134640,0.0
 0104642,0.00084763,-0.00149936,0.00325038,0.00009805,0.00001099,0.0000
 8451,-0.00023582,0.00001875,-0.00024403,0.00019911,-0.00016131,0.00039
 130,-0.00631980,0.00001496,0.00003615,-0.00011618,0.00009812,-0.006207
 20,0.00007781,0.00004522,-0.00020146,-0.00177604,-0.00151418,0.0336835
 9,-0.00016900,0.00014212,-0.00004020,0.00009099,-0.00013513,0.00005122
 ,0.00011638,-0.00004060,-0.00008540,0.00005764,0.00003617,0.00002608,-
 0.00002027,-0.00002094,0.00006319,0.00004929,0.00001537,0.00011547,0.0
 0000087,-0.00000181,0.00000531,-0.00005310,-0.00003928,-0.00010688,-0.
 00004255,-0.00001317,0.00002611,0.00610486,0.00014313,0.00166645,-0.00
 000676,0.00001975,0.00000890,-0.00679931,0.00004348,-0.00003200,-0.000
 01978,0.00013211,0.00649539,0.00171922,0.00000748,-0.00000725,0.000005
 39,-0.00009911,-0.00709004,-0.00010917,0.00004311,0.00047720,0.0015952
 1,0.00181566,-0.03585949,0.00001940,-0.00006074,0.00001352,-0.00175550
 ,-0.00187931,0.03736272,-0.00002306,-0.00000119,-0.00010439,-0.0001315
 9,-0.00004845,-0.00006396,-0.00002869,0.00001885,-0.00000662,-0.000966
 24,-0.00011967,-0.00017327,1.53810112,0.00004177,-0.00005760,-0.000008
 04,-0.00002496,-0.00012274,-0.00012905,0.00000314,-0.00000463,0.000018
 33,-0.00017482,-0.00115035,0.00017863,-0.00715639,1.34232732,-0.000237
 61,0.00003247,-0.00020369,0.00012074,-0.00015569,0.00217747,-0.0000313
 3,0.00011674,0.00001509,0.00055562,-0.00050533,-0.00178087,-0.38159601
 ,0.43945630,0.10256341,-0.00003139,-0.00000986,-0.00004539,-0.00008528
 ,-0.00014529,0.00042255,0.00005371,0.00002831,0.00002735,0.00072415,0.
 00091131,-0.00131522,-0.59080198,-0.71959985,0.49740528,0.59799947,-0.
 00002429,-0.00001911,-0.00001064,0.00000539,-0.00008043,0.00018089,0.0
 0002823,0.00002337,0.00000341,0.00014867,0.00045950,-0.00069741,-0.740
 00112,-0.34820226,0.41558835,0.74355519,0.33664180,0.00003301,-0.00002
 402,0.00015046,-0.00023065,-0.00012716,-0.00023470,0.00001176,-0.00002
 168,0.00001073,0.00043618,0.00044925,0.00030974,0.53113055,0.43220837,
 -0.01266672,-0.51705101,-0.41901760,-0.01512678,-0.00001017,-0.0000135
 8,-0.00001649,0.00000497,0.00004054,0.00005085,-0.00000795,-0.00000959
 ,-0.00001204,0.00006912,-0.00012176,0.00000034,0.22921524,-0.19071600,
 -0.14995934,0.00556691,-0.02373004,-0.01554908,-0.24684514,-0.00000781
 ,0.00003244,-0.00002863,-0.00003938,-0.00013725,-0.00039850,-0.0000462
 9,-0.00005086,0.00004384,0.00036793,0.00099604,0.00142986,-0.17730214,
 -0.73605569,-0.82936610,0.00103209,-0.00676078,-0.01710308,0.18518482,
 0.74806652,0.00003763,-0.00002472,0.00010794,-0.00006404,0.00020717,-0
 .00033487,-0.00001337,-0.00003464,0.00002168,0.00000898,-0.00045569,0.
 00057513,-0.14598525,-0.86957251,-0.42746426,0.00657945,0.01203448,0.0
 1644230,0.14418768,0.86021557,0.40120497,-0.00002100,0.00004600,0.0000
 2487,0.00013675,0.00003210,-0.00042887,-0.00004869,-0.00003195,-0.0000
 1466,0.00091672,-0.00075383,0.00173820,-1.17536482,0.91762712,0.033742
 65,-0.01342559,0.02001796,0.00121924,0.01200701,-0.00918921,-0.0047510
 8,1.17579961,-0.00003849,0.00004100,0.00010688,-0.00004614,-0.00000999
 ,0.00011667,0.00002139,0.00003549,-0.00004525,-0.00039239,0.00032871,-
 0.00082980,0.92461010,-0.25673407,-0.02516674,-0.02577189,0.01793791,0
 .00363592,0.02936561,-0.00609042,-0.00236966,-0.92774818,0.24449137,0.
 00038485,-0.00010618,-0.00020190,-0.00003739,-0.00010781,0.00076416,0.
 00005562,0.00000222,-0.00007493,-0.00094674,0.00068625,-0.00109795,-0.
 00320105,-0.00215203,0.33735955,0.01397700,-0.00808148,0.01111496,0.02
 129807,-0.01479296,0.00944712,-0.03153036,0.02455199,-0.35731102,-0.00
 014136,-0.00001586,-0.00012653,-0.00013339,0.00017113,-0.00001234,0.00
 025340,-0.00002549,0.00002128,-0.00041045,-0.00008289,0.00006645,-0.00
 007114,0.00014713,0.00000058,0.00011665,-0.00008190,-0.00002705,-0.000
 23108,0.00011464,-0.00005128,-0.00004724,0.00002057,0.00000072,0.00005
 866,-0.00000484,-0.00000870,-0.00003922,0.00007810,0.00006093,-0.00011
 779,-0.00004239,-0.00000544,0.00002993,-0.00001182,-0.00003947,0.00000
 155,-0.00004733,0.00018406,0.00002215,0.00002849,-0.00001375,0.0000135
 4,0.00003176,-0.00014808,-0.00007260,0.00004662,0.00008749,-0.00009345
 ,0.00000460,0.00044849,0.00003152,-0.00001188,-0.00003368,0.00013609,0
 .00004192,-0.00004725,-0.00000377,0.00002202,-0.00008681,-0.00032439,0
 .00000158,-0.00001996,0.00001301,0.00014506,0.00029376,-0.00015569,0.0
 0007218,-0.00005651,0.00020061,-0.00010852,0.00005026,-0.00000404,0.00
 000311,-0.00000084,-0.00092283,0.00072944,-0.00033296,0.00041698,-0.00
 016525,0.00029552,0.00027752,-0.00000157,-0.00004921,0.00013618,0.0000
 2661,-0.00007860,-0.00334104,0.00041414,-0.00078971,2.49241913,-0.0001
 7208,0.00016949,-0.00024233,0.00024749,0.00045143,0.00034876,-0.000062
 10,-0.00004759,0.00000402,0.00025054,-0.00264781,0.00056385,-0.9995271
 2,1.07449663,-0.00024145,0.00008143,0.00016362,-0.00035589,0.00049971,
 -0.00057531,-0.00008965,0.00001505,0.00009270,0.00147677,-0.00157274,0
 .00103565,-0.31054759,-0.04550516,-0.52655178,-0.00007064,0.00003955,-
 0.00014176,-0.00005903,-0.00005882,-0.00026529,0.00000041,-0.00000417,
 0.00007634,0.00081861,0.00019333,-0.00000711,-0.44498953,-0.64329978,0
 .41303468,0.42973534,-0.00009963,-0.00003854,-0.00017360,-0.00021731,-
 0.00018067,-0.00014291,0.00001553,0.00001270,0.00005372,0.00057787,0.0
 0092008,-0.00062776,-0.65024649,-0.33569607,0.38072011,0.66057676,0.34
 206152,0.00003804,-0.00002125,0.00009248,-0.00000179,-0.00010404,0.000
 14683,0.00002716,0.00001445,-0.00003792,-0.00008549,0.00043158,-0.0004
 7559,0.43291345,0.39511135,0.01066349,-0.42121269,-0.38441261,-0.01544
 670,-0.00003772,-0.00002625,-0.00000449,-0.00005986,-0.00014701,0.0000
 2279,-0.00003726,0.00000057,0.00000771,0.00059194,0.00021440,0.0004231
 7,0.09009216,-0.11222799,-0.09104232,0.00534735,-0.00876064,-0.0087132
 9,-0.10447039,0.00003006,-0.00005051,0.00009592,-0.00005160,-0.0001798
 5,0.00002076,0.00000704,0.00001714,0.00002848,0.00001453,0.00064192,0.
 00038548,-0.10784365,-0.30714310,-0.33962289,-0.00468752,-0.00413359,-
 0.01353296,0.12523369,0.31101759,0.00004236,-0.00006493,0.00006471,0.0
 0001575,-0.00012859,0.00042894,0.00002833,0.00001063,-0.00002128,-0.00
 019754,0.00019558,-0.00052722,-0.09375495,-0.36523571,-0.17169044,0.00
 370228,0.00478875,0.00789158,0.09572153,0.36120895,0.16802839,-0.00030
 080,0.00012610,-0.00012537,0.00003324,0.00014339,-0.00003364,-0.000103
 05,-0.00003502,-0.00000901,0.00192893,-0.00103244,0.00125560,-2.135011
 39,1.75479104,-0.01223455,0.00921749,-0.00184609,-0.00296538,0.0085737
 8,-0.01270256,-0.00555776,2.11566180,0.00022039,-0.00003403,0.00034158
 ,-0.00007986,-0.00006569,0.00003511,0.00003403,0.00002169,-0.00011216,
 -0.00102734,0.00094608,-0.00101777,1.75734333,-0.42958298,0.00538449,-
 0.01275935,-0.00294544,0.00251348,-0.00428676,-0.00016959,-0.00077468,
 -1.73944443,0.43182996,0.00033193,-0.00010933,-0.00040895,0.00032899,-
 0.00023054,0.00004136,0.00003263,0.00001285,-0.00005489,-0.00077320,0.
 00053128,0.00030722,-0.02798892,0.01495522,0.68686207,0.00481357,-0.00
 020569,-0.00283416,0.00358491,-0.00858374,-0.00417468,0.01967010,-0.00
 637005,-0.67973797,0.00009771,-0.00006525,-0.00006133,0.00004882,0.000
 11730,0.00020789,-0.00002076,0.00007417,-0.00005431,0.00029467,0.00000
 141,0.00013306,-0.00001522,-0.00009403,-0.00005455,0.00012800,-0.00008
 061,-0.00001046,-0.00009841,0.00016489,0.00017305,-0.00003165,-0.00003
 122,-0.00001683,-0.00003588,0.00002270,0.00001772,0.00005726,0.0000456
 0,-0.00000899,-0.00003990,-0.00004367,0.00001088,0.00001557,0.00001913
 ,0.00001271,-0.00004921,-0.00004572,-0.00013009,0.00005593,-0.00001073
 ,0.00001230,0.00001174,0.00000125,0.00009164,-0.00005592,0.00002922,0.
 00000477,-0.00026874,0.00009326,-0.00017529,0.00002192,-0.00002715,-0.
 00002919,0.00055294,0.00003153,-0.00008831,-0.00000949,0.00008179,-0.0
 0012065,0.00000051,-0.00001079,0.00001381,0.00004422,-0.00023910,0.000
 30698,-0.00011655,0.00003330,0.00001034,0.00005931,-0.00002034,-0.0002
 1931,-0.00001633,0.00000985,0.00000485,0.00024949,-0.00001581,-0.00003
 669,0.00021563,0.00008628,-0.00005207,0.00034442,0.00029949,0.00077745
 ,-0.00004111,-0.00001207,-0.00003483,-0.00217182,-0.00103455,0.0002573
 3,0.32105551,0.00005928,0.00017829,0.00009001,0.00033586,0.00113652,-0
 .00075494,0.00003142,-0.00005639,-0.00014701,-0.00099553,-0.00357479,-
 0.00070670,1.43497986,1.81426349,0.00006935,0.00010489,-0.00010987,0.0
 0004605,-0.00002369,0.00057362,-0.00003483,-0.00002980,-0.00003307,0.0
 0004876,-0.00043664,-0.00054232,-0.51116319,1.07014648,0.91432473,-0.0
 0011126,-0.00005495,-0.00009679,-0.00025064,-0.00047859,-0.00052470,0.
 00003856,0.00001868,0.00009602,0.00137626,0.00144247,-0.00034715,-0.84
 201768,-1.07522690,0.79533861,0.84950480,0.00001785,-0.00005972,-0.000
 21514,-0.00004645,-0.00021614,-0.00002281,0.00000669,0.00000006,0.0000
 6286,0.00031364,0.00082452,-0.00004114,-1.08587615,-0.43387303,0.65393
 129,1.06636300,0.42030023,0.00005498,0.00001154,0.00005403,0.00004649,
 0.00009952,-0.00038181,0.00000890,-0.00001499,-0.00005497,-0.00028790,
 -0.00021889,0.00052401,0.81322085,0.66249836,-0.02686854,-0.80523867,-
 0.65954836,0.01979131,-0.00004294,-0.00005538,0.00022735,0.00005587,0.
 00010535,-0.00017692,0.00000717,-0.00000705,-0.00006088,0.00016682,-0.
 00013316,-0.00003609,0.54624638,-0.35366130,-0.29763103,-0.00219806,0.
 00385248,-0.00135571,-0.53816371,-0.00008617,-0.00007307,0.00004503,-0
 .00029494,-0.00075394,0.00081106,-0.00001646,0.00001430,0.00008071,0.0
 0067921,0.00235143,0.00047127,-0.34656868,-1.37590084,-1.71455425,0.00
 713922,0.00633142,-0.00153791,0.33522273,1.36428110,-0.00008024,-0.000
 11863,-0.00009072,-0.00005764,-0.00017156,-0.00050586,0.00000985,0.000
 03056,0.00011786,0.00016964,0.00060415,0.00072447,-0.29504633,-1.73554
 934,-0.87461077,0.00538389,0.00932922,-0.00083984,0.29203935,1.7156182
 4,0.86567367,-0.00005083,0.00001714,-0.00006093,-0.00011893,0.00005041
 ,0.00005215,-0.00001627,0.00000652,0.00001040,0.00037853,-0.00013819,-
 0.00005001,-0.02363133,-0.00552270,0.01332629,-0.00634195,0.01536894,-
 0.00644893,-0.00607153,0.00392510,-0.00241852,0.03585231,-0.00000424,-
 0.00001995,0.00002742,-0.00001274,-0.00013520,-0.00013368,-0.00002147,
 0.00001361,0.00001442,0.00014645,0.00028701,0.00026958,-0.00187418,-0.
 00217327,-0.00913828,0.00079708,0.00669265,-0.00128927,0.01467632,0.00
 374960,0.01025736,-0.01370723,-0.00841444,-0.00005515,-0.00002207,0.00
 006887,0.00000258,-0.00002287,0.00035850,0.00001979,0.00002746,-0.0000
 0852,0.00001972,0.00003195,-0.00046534,-0.00795921,0.00442315,-0.01273
 379,0.00538879,-0.00349594,0.00777582,0.00699394,-0.00093415,0.0095311
 8,-0.00441046,-0.00000754,-0.00452671,0.32178312,3.00021650,3.77648476
 ,-1.43858749,-2.48134500,-0.22057880,0.07386510,-0.04083440,-0.0057848
 9,-0.04874251,-0.02853438,-0.00371726,0.00467754,0.03101846,-0.0155160
 5,-0.02167346,0.01450834,-0.00854039,0.01285602,-0.00250129,0.00958156
 ,-0.40117677,-2.95551885,1.44671017,-0.02324390,-0.00280457,0.00886719
 ,0.42692995,-2.97443069,-3.76957980,2.47851199,0.01257854,0.01477681,-
 0.01061655,2.95893745,3.75500058,1.45647021,2.46878589,0.22912358,-0.0
 0304799,-0.00401333,0.00005564,-1.45520205,-2.46715209,-0.22909593,0.0
 0613211,-0.00395436,-0.00250492,-0.00215736,0.00058033,0.00000252,-0.0
 0289449,0.00280029,0.00216769,-0.00081396,0.00259492,-0.00321882,-0.00
 189021,-0.00260610,0.00454571,-0.00151640,-0.00059813,-0.00020245,0.00
 240818,0.00059012,-0.00095744,0.00561329,-0.00331182,-0.00020882,-0.00
 489864,0.00296314,-0.00054727,-0.00136365,-0.00042604,0.00025089,0.000
 38777,0.00109959,-0.00073363,-0.00064171,0.00030650,0.00027923,0.00031
 826,-0.00029673,-0.00008410,0.00026644,-0.00008129,-0.00032193,-0.0002
 5325,-0.00000513,0.00022597,0.00032920,0.00005226,0.00016349,-0.000030
 03,-0.00001315,-0.00015965,0.00002279,-0.00007978,-0.00009600,0.000054
 27,-0.00003968,-0.00028745,-0.00022233,-0.00003435,0.00053900,-0.00197
 723,0.00097080,0.00011112,0.00103196,-0.00117880,-0.00039316,0.0010164
 6,0.00013345,-0.00023552,0.00000557,-0.00010974,0.00106523,0.00026042,
 -0.00006771,0.00060716,0.00000980,-0.00002178,-0.00003018,0.00001295,0
 .00002934,-0.00003215,0.00001044,0.00000954,0.00000043,0.00000853,0.00
 000655,0.00004571,-0.00004637,0.00001232,-0.00005660,-0.00003056,-0.00
 005329,0.00000281,0.00004193,0.00000792,-0.00003828,-0.00001871,0.0000
 1515,0.00004605,-0.00000967,0.00001777,-0.00001860,0.00002311,0.000103
 21,-0.00003788,0.00010224,-0.00003163,0.00004209,0.00010484,-0.0001601
 3,-0.00007206,-0.00009328,0.00010261,-0.00002366,0.00002780,0.00010973
 ,0.00005817,0.00006563,0.00003839,0.00003816,-0.00025372,0.00000115,-0
 .00037178,0.00007694,-0.00009220,0.00028106,-0.00003454,-0.00003402,-0
 .00001003,-0.00000114,-0.00002258,0.00000959,0.00005865,0.00003844,-0.
 00003817,-0.00002455,0.,0.00001657,0.00000404,0.00005497,-0.00011923,0
 .00000022,-0.00001310,0.00005470,0.00000312,0.00015580,-0.00010036,0.0
 0000871,-0.00009807,0.00011296,0.00008134,-0.00006856,-0.00003699,-0.0
 0000913,0.00002173,0.00008885,-0.00011118,-0.00000044,-0.00015515,-0.0
 0001442,-0.00000924,0.00000532,0.00005568,-0.00002968,0.00005978,-0.00
 020542,0.00013832,0.00003034,0.00007455,-0.00024216,-0.00006349,0.0000
 8992,0.00003010,-0.00001812,-0.00000855,-0.00004013,0.00005368,-0.0000
 8784,0.00019518,-0.00038859,-0.00000815,-0.00000821,0.00004291,0.00009
 227,-0.00005134,0.00026987,0.00006287,-0.00015959,-0.00007189,-0.00005
 137,0.00003013,0.00005440,0.00004967,0.00014772,-0.00002819,0.00000296
 ,0.00001778,-0.00002701,0.00002338,0.00004742,-0.00016136,0.00003500,-
 0.00004603,0.00001710,-0.00000580,0.00002847,0.00005323,-0.00011672,-0
 .00000110,-0.00003482,0.00002506,-0.00005321,-0.00000421,0.00004050,0.
 00011730,0.00009180,-0.00006412,-0.00001620,0.00005021,-0.00001446,0.0
 0000823,0.00003365,0.00016417,0.00000490,-0.00000151,-0.00005522,0.000
 00598,0.00002558,-0.00002175,-0.00006589,-0.00016070,0.00025527,0.0004
 1360,0.00013504,-0.00013772,0.00019228,-0.00006920,-0.00014584,-0.0005
 9058,-0.00013871,-0.00011571,0.00001033,0.00008175,-0.00001801,0.00004
 668,-0.00039445,0.00000399,-0.00003848,0.00004720,-0.00000570,0.000040
 34,0.00007340,0.00016372,-0.00007417,0.00026497\\@


 SCIENCE IS LONG AND LIFE IS SHORT.

                     DON MOSER IN THE FEBRUARY 1979 SMITHSONIAN
 Job cpu time:       0 days 12 hours 36 minutes 46.1 seconds.
 Elapsed time:       0 days  0 hours 27 minutes 53.0 seconds.
 File lengths (MBytes):  RWF=    996 Int=      0 D2E=      0 Chk=     48 Scr=      8
 Normal termination of Gaussian 16 at Tue Dec  7 16:01:25 2021.
