 Entering Gaussian System, Link 0=g16
 Input=hclo4_h2o_mp2_opt_anharm.gjf
 Output=hclo4_h2o_mp2_opt_anharm.log
 Initial command:
 /sw/contrib/gaussian/g16/A03/g16/l1.exe "/gscratch/scrubbed/gds001/Gau-14126.inp" -scrdir="/gscratch/scrubbed/gds001/"
 Entering Link 1 = /sw/contrib/gaussian/g16/A03/g16/l1.exe PID=     14127.
  
 Copyright (c) 1988,1990,1992,1993,1995,1998,2003,2009,2016,
            Gaussian, Inc.  All Rights Reserved.
  
 This is part of the Gaussian(R) 16 program.  It is based on
 the Gaussian(R) 09 system (copyright 2009, Gaussian, Inc.),
 the Gaussian(R) 03 system (copyright 2003, Gaussian, Inc.),
 the Gaussian(R) 98 system (copyright 1998, Gaussian, Inc.),
 the Gaussian(R) 94 system (copyright 1995, Gaussian, Inc.),
 the Gaussian 92(TM) system (copyright 1992, Gaussian, Inc.),
 the Gaussian 90(TM) system (copyright 1990, Gaussian, Inc.),
 the Gaussian 88(TM) system (copyright 1988, Gaussian, Inc.),
 the Gaussian 86(TM) system (copyright 1986, Carnegie Mellon
 University), and the Gaussian 82(TM) system (copyright 1983,
 Carnegie Mellon University). Gaussian is a federally registered
 trademark of Gaussian, Inc.
  
 This software contains proprietary and confidential information,
 including trade secrets, belonging to Gaussian, Inc.
  
 This software is provided under written license and may be
 used, copied, transmitted, or stored only in accord with that
 written license.
  
 The following legend is applicable only to US Government
 contracts under FAR:
  
                    RESTRICTED RIGHTS LEGEND
  
 Use, reproduction and disclosure by the US Government is
 subject to restrictions as set forth in subparagraphs (a)
 and (c) of the Commercial Computer Software - Restricted
 Rights clause in FAR 52.227-19.
  
 Gaussian, Inc.
 340 Quinnipiac St., Bldg. 40, Wallingford CT 06492
  
  
 ---------------------------------------------------------------
 Warning -- This program may not be used in any manner that
 competes with the business of Gaussian, Inc. or will provide
 assistance to any competitor of Gaussian, Inc.  The licensee
 of this program is prohibited from giving any competitor of
 Gaussian, Inc. access to this program.  By using this program,
 the user acknowledges that Gaussian, Inc. is engaged in the
 business of creating and licensing software in the field of
 computational chemistry and represents and warrants to the
 licensee that it is not a competitor of Gaussian, Inc. and that
 it will not use this program in any manner prohibited above.
 ---------------------------------------------------------------
  

 Cite this work as:
 Gaussian 16, Revision A.03,
 M. J. Frisch, G. W. Trucks, H. B. Schlegel, G. E. Scuseria, 
 M. A. Robb, J. R. Cheeseman, G. Scalmani, V. Barone, 
 G. A. Petersson, H. Nakatsuji, X. Li, M. Caricato, A. V. Marenich, 
 J. Bloino, B. G. Janesko, R. Gomperts, B. Mennucci, H. P. Hratchian, 
 J. V. Ortiz, A. F. Izmaylov, J. L. Sonnenberg, D. Williams-Young, 
 F. Ding, F. Lipparini, F. Egidi, J. Goings, B. Peng, A. Petrone, 
 T. Henderson, D. Ranasinghe, V. G. Zakrzewski, J. Gao, N. Rega, 
 G. Zheng, W. Liang, M. Hada, M. Ehara, K. Toyota, R. Fukuda, 
 J. Hasegawa, M. Ishida, T. Nakajima, Y. Honda, O. Kitao, H. Nakai, 
 T. Vreven, K. Throssell, J. A. Montgomery, Jr., J. E. Peralta, 
 F. Ogliaro, M. J. Bearpark, J. J. Heyd, E. N. Brothers, K. N. Kudin, 
 V. N. Staroverov, T. A. Keith, R. Kobayashi, J. Normand, 
 K. Raghavachari, A. P. Rendell, J. C. Burant, S. S. Iyengar, 
 J. Tomasi, M. Cossi, J. M. Millam, M. Klene, C. Adamo, R. Cammi, 
 J. W. Ochterski, R. L. Martin, K. Morokuma, O. Farkas, 
 J. B. Foresman, and D. J. Fox, Gaussian, Inc., Wallingford CT, 2016.
 
 ******************************************
 Gaussian 16:  ES64L-G16RevA.03 25-Dec-2016
                 8-Sep-2020 
 ******************************************
 %nprocshared=28
 Will use up to   28 processors via shared memory.
 %mem=41GB
 %chk=hcl04_h2o.chk
 ----------------------------------------------
 # MP2/aug-cc-pVDZ Opt Freq=(vibrot,anharmonic)
 ----------------------------------------------
 1/18=20,19=15,38=1,80=1/1,3;
 2/9=110,12=2,17=6,18=5,40=1/2;
 3/5=16,7=10,11=9,25=1,30=1,71=1/1,2,3;
 4//1;
 5/5=2,38=5/2;
 8/6=4,10=1/1;
 9/15=2,16=-3/6;
 10/5=1/2;
 6/7=2,8=2,9=2,10=2/1;
 7/12=2/1,2,3,16;
 1/18=20,19=15,80=1/3(2);
 2/9=110/2;
 99//99;
 2/9=110/2;
 3/5=16,7=10,11=9,25=1,30=1,71=1/1,2,3;
 4/5=5,16=3,69=1/1;
 5/5=2,38=5/2;
 8/6=4,10=1/1;
 9/15=2,16=-3/6;
 10/5=1/2;
 7/12=2/1,2,3,16;
 1/18=20,19=15,80=1/3(-8);
 2/9=110/2;
 6/7=2,8=2,9=2,10=2/1;
 99//99;
 ---------
 hclo4_h2o
 ---------
 Symbolic Z-matrix:
 Charge =  0 Multiplicity = 1
 Cl                   -0.35084   0.48775   0.1986 
 O                     0.38694   0.79909  -1.00838 
 O                    -0.42042   1.66688   1.03885 
 O                     0.306    -0.58566   0.91478 
 O                    -1.89234   0.02346  -0.20959 
 H                    -2.337     0.85638  -0.46425 
 O                    -2.80553   2.37668  -0.79152 
 H                    -2.44009   3.14221  -0.30518 
 H                    -3.37365   2.81617  -1.45177 
 
 Add virtual bond connecting atoms O7         and H6         Dist= 3.07D+00.

 GradGradGradGradGradGradGradGradGradGradGradGradGradGradGradGradGradGrad
 Berny optimization.
 Initialization pass.
                           ----------------------------
                           !    Initial Parameters    !
                           ! (Angstroms and Degrees)  !
 --------------------------                            --------------------------
 ! Name  Definition              Value          Derivative Info.                !
 --------------------------------------------------------------------------------
 ! R1    R(1,2)                  1.4485         estimate D2E/DX2                !
 ! R2    R(1,3)                  1.4496         estimate D2E/DX2                !
 ! R3    R(1,4)                  1.448          estimate D2E/DX2                !
 ! R4    R(1,5)                  1.6608         estimate D2E/DX2                !
 ! R5    R(5,6)                  0.9779         estimate D2E/DX2                !
 ! R6    R(6,7)                  1.6242         estimate D2E/DX2                !
 ! R7    R(7,8)                  0.9778         estimate D2E/DX2                !
 ! R8    R(7,9)                  0.9756         estimate D2E/DX2                !
 ! A1    A(2,1,3)              109.4286         estimate D2E/DX2                !
 ! A2    A(2,1,4)              109.9035         estimate D2E/DX2                !
 ! A3    A(2,1,5)              109.1501         estimate D2E/DX2                !
 ! A4    A(3,1,4)              109.7607         estimate D2E/DX2                !
 ! A5    A(3,1,5)              108.9846         estimate D2E/DX2                !
 ! A6    A(4,1,5)              109.5941         estimate D2E/DX2                !
 ! A7    A(1,5,6)              104.3546         estimate D2E/DX2                !
 ! A8    A(6,7,8)              121.6547         estimate D2E/DX2                !
 ! A9    A(6,7,9)              136.5524         estimate D2E/DX2                !
 ! A10   A(8,7,9)              101.6282         estimate D2E/DX2                !
 ! A11   L(5,6,7,3,-1)         169.2795         estimate D2E/DX2                !
 ! A12   L(5,6,7,3,-2)         176.6634         estimate D2E/DX2                !
 ! D1    D(2,1,5,6)            -74.1602         estimate D2E/DX2                !
 ! D2    D(3,1,5,6)             45.3014         estimate D2E/DX2                !
 ! D3    D(4,1,5,6)            165.4325         estimate D2E/DX2                !
 ! D4    D(1,5,7,8)            -31.4142         estimate D2E/DX2                !
 ! D5    D(1,5,7,9)            139.2392         estimate D2E/DX2                !
 ! D6    D(6,7,8,9)            176.0567         estimate D2E/DX2                !
 --------------------------------------------------------------------------------
 Trust Radius=3.00D-01 FncErr=1.00D-07 GrdErr=1.00D-07 EigMax=2.50D+02 EigMin=1.00D-04
 Number of steps in this run=     36 maximum allowed number of steps=    100.
 GradGradGradGradGradGradGradGradGradGradGradGradGradGradGradGradGradGrad

                          Input orientation:                          
 ---------------------------------------------------------------------
 Center     Atomic      Atomic             Coordinates (Angstroms)
 Number     Number       Type             X           Y           Z
 ---------------------------------------------------------------------
      1         17           0       -0.350841    0.487755    0.198598
      2          8           0        0.386937    0.799086   -1.008378
      3          8           0       -0.420419    1.666880    1.038851
      4          8           0        0.305997   -0.585657    0.914778
      5          8           0       -1.892335    0.023460   -0.209587
      6          1           0       -2.336995    0.856384   -0.464252
      7          8           0       -2.805534    2.376682   -0.791516
      8          1           0       -2.440093    3.142207   -0.305182
      9          1           0       -3.373652    2.816165   -1.451766
 ---------------------------------------------------------------------
                    Distance matrix (angstroms):
                    1          2          3          4          5
     1  Cl   0.000000
     2  O    1.448459   0.000000
     3  O    1.449553   2.365594   0.000000
     4  O    1.447951   2.371200   2.370021   0.000000
     5  O    1.660840   2.536680   2.534949   2.543203   0.000000
     6  H    2.126045   2.778338   2.567000   3.311588   0.977926
     7  O    3.251752   3.567591   3.089148   4.622610   2.590411
     8  H    3.415390   3.738556   2.839384   4.788140   3.167927
     9  H    4.157233   4.290365   4.030585   5.541908   3.396544
                    6          7          8          9
     6  H    0.000000
     7  O    1.624173   0.000000
     8  H    2.293669   0.977801   0.000000
     9  H    2.427053   0.975619   1.514097   0.000000
 Stoichiometry    ClH3O5
 Framework group  C1[X(ClH3O5)]
 Deg. of freedom    21
 Full point group                 C1      NOp   1
 Largest Abelian subgroup         C1      NOp   1
 Largest concise Abelian subgroup C1      NOp   1
                         Standard orientation:                         
 ---------------------------------------------------------------------
 Center     Atomic      Atomic             Coordinates (Angstroms)
 Number     Number       Type             X           Y           Z
 ---------------------------------------------------------------------
      1         17           0        0.609638   -0.019532    0.004290
      2          8           0        0.618178   -0.495371    1.372331
      3          8           0        0.137838   -1.074825   -0.870333
      4          8           0        1.945229    0.380064   -0.386971
      5          8           0       -0.417703    1.280060   -0.114121
      6          1           0       -1.312050    0.886852   -0.070874
      7          8           0       -2.642019   -0.043010   -0.003967
      8          1           0       -2.655289   -0.947117   -0.376137
      9          1           0       -3.528694    0.016973    0.398579
 ---------------------------------------------------------------------
 Rotational constants (GHZ):           5.1673582           1.9410144           1.8864960
 Standard basis: Aug-CC-pVDZ (5D, 7F)
 There are   181 symmetry adapted cartesian basis functions of A   symmetry.
 There are   169 symmetry adapted basis functions of A   symmetry.
   169 basis functions,   329 primitive gaussians,   181 cartesian basis functions
    30 alpha electrons       30 beta electrons
       nuclear repulsion energy       377.0507043562 Hartrees.
 NAtoms=    9 NActive=    9 NUniq=    9 SFac= 1.00D+00 NAtFMM=   60 NAOKFM=F Big=F
 Integral buffers will be    131072 words long.
 Raffenetti 1 integral format.
 Two-electron integral symmetry is turned on.
 One-electron integrals computed using PRISM.
 NBasis=   169 RedAO= T EigKep=  1.28D-04  NBF=   169
 NBsUse=   169 1.00D-06 EigRej= -1.00D+00 NBFU=   169
 ExpMin= 2.97D-02 ExpMax= 1.28D+05 ExpMxC= 1.24D+03 IAcc=3 IRadAn=         5 AccDes= 0.00D+00
 Harris functional with IExCor=  205 and IRadAn=       5 diagonalized for initial guess.
 HarFok:  IExCor=  205 AccDes= 0.00D+00 IRadAn=         5 IDoV= 1 UseB2=F ITyADJ=14
 ICtDFT=  3500011 ScaDFX=  1.000000  1.000000  1.000000  1.000000
 FoFCou: FMM=F IPFlag=           0 FMFlag=      100000 FMFlg1=           0
         NFxFlg=           0 DoJE=T BraDBF=F KetDBF=T FulRan=T
         wScrn=  0.000000 ICntrl=       500 IOpCl=  0 I1Cent=   200000004 NGrid=           0
         NMat0=    1 NMatS0=      1 NMatT0=    0 NMatD0=    1 NMtDS0=    0 NMtDT0=    0
 Petite list used in FoFCou.
 Keep R1 ints in memory in canonical form, NReq=109459936.
 Requested convergence on RMS density matrix=1.00D-08 within 128 cycles.
 Requested convergence on MAX density matrix=1.00D-06.
 Requested convergence on             energy=1.00D-06.
 No special actions if energy rises.
 SCF Done:  E(RHF) =  -835.173980529     A.U. after   14 cycles
            NFock= 14  Conv=0.89D-08     -V/T= 2.0010
 ExpMin= 2.97D-02 ExpMax= 1.28D+05 ExpMxC= 1.24D+03 IAcc=3 IRadAn=         5 AccDes= 0.00D+00
 HarFok:  IExCor=  205 AccDes= 0.00D+00 IRadAn=         5 IDoV=-2 UseB2=F ITyADJ=14
 ICtDFT= 12500011 ScaDFX=  1.000000  1.000000  1.000000  1.000000
 Range of M.O.s used for correlation:    11   169
 NBasis=   169 NAE=    30 NBE=    30 NFC=    10 NFV=     0
 NROrb=    159 NOA=    20 NOB=    20 NVA=   139 NVB=   139

 **** Warning!!: The largest alpha MO coefficient is  0.32687265D+02

 Fully direct method using O(ONN) memory.
 JobTyp=1 Pass  1:  I=  11 to  30 NPSUse= 28 ParTrn=T ParDer=T DoDerP=T.
 Spin components of T(2) and E(2):
     alpha-alpha T2 =       0.5228197166D-01 E2=     -0.1705184736D+00
     alpha-beta  T2 =       0.2549186040D+00 E2=     -0.8773493689D+00
     beta-beta   T2 =       0.5228197166D-01 E2=     -0.1705184736D+00
 ANorm=    0.1165968502D+01
 E2 =    -0.1218386316D+01 EUMP2 =    -0.83639236684477D+03
          IDoAtm=111111111
          Differentiating once with respect to electric field.
                with respect to dipole field.
          Differentiating once with respect to nuclear coordinates.
 Keep R1 ints in memory in canonical form, NReq=109471395.
          There are     1 degrees of freedom in the 1st order CPHF.  IDoFFX=0 NUNeed=     1.
 LinEq1:  Iter=  0 NonCon=     1 RMS=6.48D-03 Max=9.30D-02 NDo=     1
 AX will form     1 AO Fock derivatives at one time.
 LinEq1:  Iter=  1 NonCon=     1 RMS=1.77D-03 Max=1.98D-02 NDo=     1
 LinEq1:  Iter=  2 NonCon=     1 RMS=7.54D-04 Max=1.53D-02 NDo=     1
 LinEq1:  Iter=  3 NonCon=     1 RMS=1.46D-04 Max=1.12D-03 NDo=     1
 LinEq1:  Iter=  4 NonCon=     1 RMS=6.87D-05 Max=1.40D-03 NDo=     1
 LinEq1:  Iter=  5 NonCon=     1 RMS=1.75D-05 Max=2.20D-04 NDo=     1
 LinEq1:  Iter=  6 NonCon=     1 RMS=6.37D-06 Max=8.09D-05 NDo=     1
 LinEq1:  Iter=  7 NonCon=     1 RMS=2.42D-06 Max=2.93D-05 NDo=     1
 LinEq1:  Iter=  8 NonCon=     1 RMS=7.89D-07 Max=1.12D-05 NDo=     1
 LinEq1:  Iter=  9 NonCon=     1 RMS=2.17D-07 Max=2.93D-06 NDo=     1
 LinEq1:  Iter= 10 NonCon=     1 RMS=7.60D-08 Max=8.30D-07 NDo=     1
 LinEq1:  Iter= 11 NonCon=     1 RMS=3.64D-08 Max=3.86D-07 NDo=     1
 LinEq1:  Iter= 12 NonCon=     1 RMS=1.06D-08 Max=1.24D-07 NDo=     1
 LinEq1:  Iter= 13 NonCon=     1 RMS=3.21D-09 Max=3.48D-08 NDo=     1
 LinEq1:  Iter= 14 NonCon=     1 RMS=7.64D-10 Max=7.55D-09 NDo=     1
 LinEq1:  Iter= 15 NonCon=     1 RMS=1.63D-10 Max=1.86D-09 NDo=     1
 LinEq1:  Iter= 16 NonCon=     0 RMS=3.79D-11 Max=5.11D-10 NDo=     1
 Linear equations converged to 1.000D-10 1.000D-09 after    16 iterations.
 End of Minotr F.D. properties file   721 does not exist.
 End of Minotr F.D. properties file   722 does not exist.
 End of Minotr F.D. properties file   788 does not exist.

 **********************************************************************

            Population analysis using the SCF density.

 **********************************************************************

 Orbital symmetries:
       Occupied  (A) (A) (A) (A) (A) (A) (A) (A) (A) (A) (A) (A)
                 (A) (A) (A) (A) (A) (A) (A) (A) (A) (A) (A) (A)
                 (A) (A) (A) (A) (A) (A)
       Virtual   (A) (A) (A) (A) (A) (A) (A) (A) (A) (A) (A) (A)
                 (A) (A) (A) (A) (A) (A) (A) (A) (A) (A) (A) (A)
                 (A) (A) (A) (A) (A) (A) (A) (A) (A) (A) (A) (A)
                 (A) (A) (A) (A) (A) (A) (A) (A) (A) (A) (A) (A)
                 (A) (A) (A) (A) (A) (A) (A) (A) (A) (A) (A) (A)
                 (A) (A) (A) (A) (A) (A) (A) (A) (A) (A) (A) (A)
                 (A) (A) (A) (A) (A) (A) (A) (A) (A) (A) (A) (A)
                 (A) (A) (A) (A) (A) (A) (A) (A) (A) (A) (A) (A)
                 (A) (A) (A) (A) (A) (A) (A) (A) (A) (A) (A) (A)
                 (A) (A) (A) (A) (A) (A) (A) (A) (A) (A) (A) (A)
                 (A) (A) (A) (A) (A) (A) (A) (A) (A) (A) (A) (A)
                 (A) (A) (A) (A) (A) (A) (A)
 The electronic state is 1-A.
 Alpha  occ. eigenvalues -- -105.30318 -20.69452 -20.64442 -20.63125 -20.62871
 Alpha  occ. eigenvalues --  -20.62529 -10.97580  -8.44588  -8.44576  -8.44571
 Alpha  occ. eigenvalues --   -1.68870  -1.45503  -1.43012  -1.42764  -1.41622
 Alpha  occ. eigenvalues --   -0.99364  -0.84307  -0.79257  -0.77860  -0.76810
 Alpha  occ. eigenvalues --   -0.73299  -0.64640  -0.63270  -0.58677  -0.58062
 Alpha  occ. eigenvalues --   -0.57464  -0.55865  -0.53075  -0.52066  -0.49416
 Alpha virt. eigenvalues --    0.01578   0.04951   0.05766   0.09886   0.11724
 Alpha virt. eigenvalues --    0.12008   0.12907   0.15478   0.16607   0.18617
 Alpha virt. eigenvalues --    0.19998   0.20602   0.21149   0.22462   0.23934
 Alpha virt. eigenvalues --    0.24257   0.25507   0.25850   0.26584   0.27823
 Alpha virt. eigenvalues --    0.28767   0.29845   0.30478   0.31660   0.33699
 Alpha virt. eigenvalues --    0.34723   0.35893   0.35983   0.37391   0.37752
 Alpha virt. eigenvalues --    0.39869   0.42359   0.44450   0.46136   0.46217
 Alpha virt. eigenvalues --    0.50253   0.52247   0.52708   0.55320   0.56741
 Alpha virt. eigenvalues --    0.62417   0.63318   0.64294   0.65182   0.67265
 Alpha virt. eigenvalues --    0.73886   0.78412   0.78806   0.81651   0.85930
 Alpha virt. eigenvalues --    0.87576   0.91470   0.93451   0.94230   1.04764
 Alpha virt. eigenvalues --    1.05511   1.06943   1.07760   1.08951   1.11294
 Alpha virt. eigenvalues --    1.13941   1.15252   1.16044   1.17980   1.20475
 Alpha virt. eigenvalues --    1.21767   1.22939   1.23914   1.24908   1.25337
 Alpha virt. eigenvalues --    1.28189   1.31890   1.33664   1.35429   1.38104
 Alpha virt. eigenvalues --    1.40125   1.41382   1.48239   1.51931   1.52613
 Alpha virt. eigenvalues --    1.54368   1.54764   1.57824   1.60119   1.62349
 Alpha virt. eigenvalues --    1.64981   1.66058   1.71484   1.72469   1.76967
 Alpha virt. eigenvalues --    1.81222   1.85643   1.95566   2.01257   2.04953
 Alpha virt. eigenvalues --    2.05172   2.10897   2.14049   2.16345   2.25131
 Alpha virt. eigenvalues --    2.31920   2.39886   2.41892   2.46484   2.55044
 Alpha virt. eigenvalues --    2.61965   2.68054   2.86376   2.92265   3.10807
 Alpha virt. eigenvalues --    3.21174   3.22910   3.30479   3.31681   3.59549
 Alpha virt. eigenvalues --    3.60579   3.61552   3.62006   3.62806   3.63488
 Alpha virt. eigenvalues --    3.65251   3.66652   3.67687   3.69435   3.70282
 Alpha virt. eigenvalues --    3.71032   3.72104   3.73612   3.74099   3.75657
 Alpha virt. eigenvalues --    3.76444   3.76889   3.79511   3.81149   3.91060
 Alpha virt. eigenvalues --    3.94102   4.02898   4.25134   4.43048
          Condensed to atoms (all electrons):
               1          2          3          4          5          6
     1  Cl  13.400885   0.094786   0.060004   0.084807  -0.069813  -0.017795
     2  O    0.094786   8.982441  -0.007174  -0.033263  -0.019175  -0.005855
     3  O    0.060004  -0.007174   9.038952  -0.031993  -0.014644  -0.005896
     4  O    0.084807  -0.033263  -0.031993   8.973999  -0.021086  -0.011034
     5  O   -0.069813  -0.019175  -0.014644  -0.021086   8.637237   0.312774
     6  H   -0.017795  -0.005855  -0.005896  -0.011034   0.312774   0.370230
     7  O    0.035286  -0.002627  -0.017198  -0.002035  -0.067279  -0.051092
     8  H   -0.005437   0.000356   0.006046  -0.000219   0.003339   0.001835
     9  H    0.001613  -0.000724  -0.000081  -0.000141  -0.003447  -0.002617
               7          8          9
     1  Cl   0.035286  -0.005437   0.001613
     2  O   -0.002627   0.000356  -0.000724
     3  O   -0.017198   0.006046  -0.000081
     4  O   -0.002035  -0.000219  -0.000141
     5  O   -0.067279   0.003339  -0.003447
     6  H   -0.051092   0.001835  -0.002617
     7  O    7.906325   0.355934   0.356929
     8  H    0.355934   0.465333  -0.039055
     9  H    0.356929  -0.039055   0.456542
 Mulliken charges:
               1
     1  Cl   3.415664
     2  O   -1.008765
     3  O   -1.028016
     4  O   -0.959036
     5  O   -0.757906
     6  H    0.409451
     7  O   -0.514241
     8  H    0.211868
     9  H    0.230980
 Sum of Mulliken charges =  -0.00000
 Mulliken charges with hydrogens summed into heavy atoms:
               1
     1  Cl   3.415664
     2  O   -1.008765
     3  O   -1.028016
     4  O   -0.959036
     5  O   -0.348455
     7  O   -0.071393
 Electronic spatial extent (au):  <R**2>=            686.7153
 Charge=             -0.0000 electrons
 Dipole moment (field-independent basis, Debye):
    X=             -6.0187    Y=             -0.0101    Z=             -0.0282  Tot=              6.0187
 Quadrupole moment (field-independent basis, Debye-Ang):
   XX=            -28.5394   YY=            -42.1397   ZZ=            -45.2280
   XY=              2.0235   XZ=             -1.0726   YZ=              0.8850
 Traceless Quadrupole moment (field-independent basis, Debye-Ang):
   XX=             10.0963   YY=             -3.5040   ZZ=             -6.5923
   XY=              2.0235   XZ=             -1.0726   YZ=              0.8850
 Octapole moment (field-independent basis, Debye-Ang**2):
  XXX=            -72.5291  YYY=             -1.9002  ZZZ=             -2.2207  XYY=             -7.7055
  XXY=             -9.8379  XXZ=              7.3291  XZZ=             -3.9653  YZZ=              1.6762
  YYZ=              0.3577  XYZ=             -2.0076
 Hexadecapole moment (field-independent basis, Debye-Ang**3):
 XXXX=           -282.8861 YYYY=           -145.4593 ZZZZ=           -133.9117 XXXY=             20.4052
 XXXZ=            -27.2882 YYYX=              4.0998 YYYZ=              1.3284 ZZZX=             -2.0391
 ZZZY=              0.2517 XXYY=            -92.1208 XXZZ=           -104.2666 YYZZ=            -46.5291
 XXYZ=              8.2979 YYXZ=              2.7094 ZZXY=              1.8088
 N-N= 3.770507043562D+02 E-N=-2.734196800588D+03  KE= 8.343326005055D+02
 Calling FoFJK, ICntrl=  10002127 FMM=F ISym2X=0 I1Cent= 0 IOpClX= 0 NMat=1 NMatS=1 NMatT=0.
 ***** Axes restored to original set *****
 -------------------------------------------------------------------
 Center     Atomic                   Forces (Hartrees/Bohr)
 Number     Number              X              Y              Z
 -------------------------------------------------------------------
      1       17           0.045459601    0.011870977    0.006332017
      2        8          -0.002815896    0.001217555   -0.039614670
      3        8          -0.027318372    0.030471810    0.020214493
      4        8          -0.015723418   -0.035619054    0.008840653
      5        8           0.007395944   -0.031118029    0.009894605
      6        1          -0.004975133    0.019778770   -0.005086327
      7        8          -0.006526586    0.025188382   -0.003391616
      8        1           0.001339514   -0.011770697    0.000187783
      9        1           0.003164346   -0.010019714    0.002623063
 -------------------------------------------------------------------
 Cartesian Forces:  Max     0.045459601 RMS     0.019257372

 GradGradGradGradGradGradGradGradGradGradGradGradGradGradGradGradGradGrad
 Berny optimization.
 FormGI is forming the generalized inverse of G from B-inverse, IUseBI=4.
 Internal  Forces:  Max     0.049964655 RMS     0.022012280
 Search for a local minimum.
 Step number   1 out of a maximum of   36
 All quantities printed in internal units (Hartrees-Bohrs-Radians)
 Mixed Optimization -- RFO/linear search
 Second derivative matrix not updated -- first step.
 ITU=  0
     Eigenvalues ---    0.00230   0.00230   0.00230   0.00834   0.01153
     Eigenvalues ---    0.08643   0.15829   0.15915   0.15957   0.16000
     Eigenvalues ---    0.16000   0.24996   0.25000   0.25000   0.41048
     Eigenvalues ---    0.51784   0.51814   0.52245   0.96138   0.96631
     Eigenvalues ---    0.96860
 RFO step:  Lambda=-3.58487397D-02 EMin= 2.30000000D-03
 Linear search not attempted -- first point.
 Maximum step size (   0.300) exceeded in Quadratic search.
    -- Step size scaled by   0.869
 Iteration  1 RMS(Cart)=  0.09314483 RMS(Int)=  0.00864760
 Iteration  2 RMS(Cart)=  0.00857971 RMS(Int)=  0.00438089
 Iteration  3 RMS(Cart)=  0.00013710 RMS(Int)=  0.00438007
 Iteration  4 RMS(Cart)=  0.00000252 RMS(Int)=  0.00438007
 Iteration  5 RMS(Cart)=  0.00000005 RMS(Int)=  0.00438007
 Variable       Old X    -DE/DX   Delta X   Delta X   Delta X     New X
                                 (Linear)    (Quad)   (Total)
    R1        2.73719   0.03184   0.00000   0.02762   0.02762   2.76481
    R2        2.73926   0.03784   0.00000   0.03299   0.03299   2.77224
    R3        2.73623   0.02365   0.00000   0.02046   0.02046   2.75670
    R4        3.13853   0.00079   0.00000   0.00154   0.00154   3.14007
    R5        1.84801   0.02441   0.00000   0.03831   0.03831   1.88632
    R6        3.06924   0.00387   0.00000   0.02757   0.02757   3.09681
    R7        1.84778  -0.00862   0.00000  -0.01353  -0.01353   1.83425
    R8        1.84365  -0.00813   0.00000  -0.01266  -0.01266   1.83099
    A1        1.90989   0.03502   0.00000   0.11162   0.10320   2.01309
    A2        1.91818   0.03771   0.00000   0.11264   0.10170   2.01987
    A3        1.90503  -0.02900   0.00000  -0.08674  -0.09337   1.81165
    A4        1.91569   0.03887   0.00000   0.11526   0.10352   2.01920
    A5        1.90214  -0.03351   0.00000  -0.10093  -0.10778   1.79436
    A6        1.91278  -0.04996   0.00000  -0.15444  -0.16231   1.75047
    A7        1.82133  -0.00830   0.00000  -0.03685  -0.03685   1.78448
    A8        2.12328  -0.00568   0.00000  -0.02541  -0.02545   2.09783
    A9        2.38329  -0.00373   0.00000  -0.01698  -0.01701   2.36628
   A10        1.77375   0.00931   0.00000   0.04127   0.04122   1.81497
   A11        2.95449  -0.00017   0.00000  -0.00237  -0.00238   2.95211
   A12        3.08336   0.00127   0.00000   0.03401   0.03395   3.11731
    D1       -1.29434  -0.00290   0.00000  -0.01758  -0.01513  -1.30947
    D2        0.79066   0.00253   0.00000   0.00661   0.00333   0.79399
    D3        2.88734  -0.00066   0.00000  -0.00764  -0.00683   2.88051
    D4       -0.54828  -0.00052   0.00000  -0.00327  -0.00337  -0.55166
    D5        2.43018   0.00060   0.00000   0.00594   0.00604   2.43622
    D6        3.07277  -0.00130   0.00000  -0.01374  -0.01388   3.05889
         Item               Value     Threshold  Converged?
 Maximum Force            0.049965     0.000450     NO 
 RMS     Force            0.022012     0.000300     NO 
 Maximum Displacement     0.260649     0.001800     NO 
 RMS     Displacement     0.097064     0.001200     NO 
 Predicted change in Energy=-1.907970D-02
 GradGradGradGradGradGradGradGradGradGradGradGradGradGradGradGradGradGrad

                          Input orientation:                          
 ---------------------------------------------------------------------
 Center     Atomic      Atomic             Coordinates (Angstroms)
 Number     Number       Type             X           Y           Z
 ---------------------------------------------------------------------
      1         17           0       -0.289556    0.535569    0.201181
      2          8           0        0.338397    0.783194   -1.096871
      3          8           0       -0.558348    1.731592    1.007031
      4          8           0        0.208522   -0.622645    0.935007
      5          8           0       -1.814674    0.005217   -0.191038
      6          1           0       -2.267943    0.850327   -0.468056
      7          8           0       -2.778140    2.378044   -0.770248
      8          1           0       -2.408628    3.123902   -0.270945
      9          1           0       -3.356564    2.797761   -1.424516
 ---------------------------------------------------------------------
                    Distance matrix (angstroms):
                    1          2          3          4          5
     1  Cl   0.000000
     2  O    1.463073   0.000000
     3  O    1.467008   2.475886   0.000000
     4  O    1.458781   2.474222   2.477036   0.000000
     5  O    1.661654   2.462011   2.448284   2.399064   0.000000
     6  H    2.112100   2.681962   2.423886   3.204857   0.998200
     7  O    3.245218   3.516110   2.916178   4.564228   2.625654
     8  H    3.378289   3.702325   2.644860   4.726564   3.175746
     9  H    4.143301   4.221205   3.857351   5.475068   3.420117
                    6          7          8          9
     6  H    0.000000
     7  O    1.638762   0.000000
     8  H    2.286436   0.970642   0.000000
     9  H    2.427429   0.968919   1.528293   0.000000
 Stoichiometry    ClH3O5
 Framework group  C1[X(ClH3O5)]
 Deg. of freedom    21
 Full point group                 C1      NOp   1
 Largest Abelian subgroup         C1      NOp   1
 Largest concise Abelian subgroup C1      NOp   1
                         Standard orientation:                         
 ---------------------------------------------------------------------
 Center     Atomic      Atomic             Coordinates (Angstroms)
 Number     Number       Type             X           Y           Z
 ---------------------------------------------------------------------
      1         17           0        0.638084   -0.110862    0.014648
      2          8           0        0.566847   -0.433062    1.440024
      3          8           0       -0.046248   -1.053482   -0.877131
      4          8           0        1.925119    0.386745   -0.458604
      5          8           0       -0.282634    1.265094   -0.127185
      6          1           0       -1.211461    0.906618   -0.055235
      7          8           0       -2.603418    0.043260   -0.004127
      8          1           0       -2.634623   -0.854823   -0.371031
      9          1           0       -3.478673    0.164418    0.393432
 ---------------------------------------------------------------------
 Rotational constants (GHZ):           5.0440546           1.9599626           1.9483431
 Standard basis: Aug-CC-pVDZ (5D, 7F)
 There are   181 symmetry adapted cartesian basis functions of A   symmetry.
 There are   169 symmetry adapted basis functions of A   symmetry.
   169 basis functions,   329 primitive gaussians,   181 cartesian basis functions
    30 alpha electrons       30 beta electrons
       nuclear repulsion energy       376.5537700633 Hartrees.
 NAtoms=    9 NActive=    9 NUniq=    9 SFac= 1.00D+00 NAtFMM=   60 NAOKFM=F Big=F
 Integral buffers will be    131072 words long.
 Raffenetti 1 integral format.
 Two-electron integral symmetry is turned on.
 One-electron integrals computed using PRISM.
 NBasis=   169 RedAO= T EigKep=  1.43D-04  NBF=   169
 NBsUse=   169 1.00D-06 EigRej= -1.00D+00 NBFU=   169
 Initial guess from the checkpoint file:  "hcl04_h2o.chk"
 B after Tr=    -0.000000    0.000000    0.000000
         Rot=    0.999692    0.010890   -0.004683    0.021817 Ang=   2.85 deg.
 ExpMin= 2.97D-02 ExpMax= 1.28D+05 ExpMxC= 1.24D+03 IAcc=3 IRadAn=         5 AccDes= 0.00D+00
 Harris functional with IExCor=  205 and IRadAn=       5 diagonalized for initial guess.
 HarFok:  IExCor=  205 AccDes= 0.00D+00 IRadAn=         5 IDoV= 1 UseB2=F ITyADJ=14
 ICtDFT=  3500011 ScaDFX=  1.000000  1.000000  1.000000  1.000000
 FoFCou: FMM=F IPFlag=           0 FMFlag=      100000 FMFlg1=           0
         NFxFlg=           0 DoJE=T BraDBF=F KetDBF=T FulRan=T
         wScrn=  0.000000 ICntrl=       500 IOpCl=  0 I1Cent=   200000004 NGrid=           0
         NMat0=    1 NMatS0=      1 NMatT0=    0 NMatD0=    1 NMtDS0=    0 NMtDT0=    0
 Petite list used in FoFCou.
 Keep R1 ints in memory in canonical form, NReq=109461660.
 Requested convergence on RMS density matrix=1.00D-08 within 128 cycles.
 Requested convergence on MAX density matrix=1.00D-06.
 Requested convergence on             energy=1.00D-06.
 No special actions if energy rises.
 SCF Done:  E(RHF) =  -835.178969316     A.U. after   15 cycles
            NFock= 15  Conv=0.27D-08     -V/T= 2.0012
 ExpMin= 2.97D-02 ExpMax= 1.28D+05 ExpMxC= 1.24D+03 IAcc=3 IRadAn=         5 AccDes= 0.00D+00
 HarFok:  IExCor=  205 AccDes= 0.00D+00 IRadAn=         5 IDoV=-2 UseB2=F ITyADJ=14
 ICtDFT= 12500011 ScaDFX=  1.000000  1.000000  1.000000  1.000000
 Range of M.O.s used for correlation:    11   169
 NBasis=   169 NAE=    30 NBE=    30 NFC=    10 NFV=     0
 NROrb=    159 NOA=    20 NOB=    20 NVA=   139 NVB=   139

 **** Warning!!: The largest alpha MO coefficient is  0.32611797D+02

 Fully direct method using O(ONN) memory.
 JobTyp=1 Pass  1:  I=  11 to  30 NPSUse= 28 ParTrn=T ParDer=T DoDerP=T.
 Spin components of T(2) and E(2):
     alpha-alpha T2 =       0.5311210458D-01 E2=     -0.1714900773D+00
     alpha-beta  T2 =       0.2584073472D+00 E2=     -0.8816877315D+00
     beta-beta   T2 =       0.5311210458D-01 E2=     -0.1714900773D+00
 ANorm=    0.1168174455D+01
 E2 =    -0.1224667886D+01 EUMP2 =    -0.83640363720224D+03
          IDoAtm=111111111
          Differentiating once with respect to electric field.
                with respect to dipole field.
          Differentiating once with respect to nuclear coordinates.
 Keep R1 ints in memory in canonical form, NReq=109471848.
          There are     1 degrees of freedom in the 1st order CPHF.  IDoFFX=0 NUNeed=     1.
 LinEq1:  Iter=  0 NonCon=     1 RMS=6.72D-03 Max=1.05D-01 NDo=     1
 AX will form     1 AO Fock derivatives at one time.
 LinEq1:  Iter=  1 NonCon=     1 RMS=1.82D-03 Max=1.52D-02 NDo=     1
 LinEq1:  Iter=  2 NonCon=     1 RMS=7.90D-04 Max=1.13D-02 NDo=     1
 LinEq1:  Iter=  3 NonCon=     1 RMS=1.42D-04 Max=1.21D-03 NDo=     1
 LinEq1:  Iter=  4 NonCon=     1 RMS=6.23D-05 Max=7.46D-04 NDo=     1
 LinEq1:  Iter=  5 NonCon=     1 RMS=1.57D-05 Max=1.45D-04 NDo=     1
 LinEq1:  Iter=  6 NonCon=     1 RMS=5.29D-06 Max=4.42D-05 NDo=     1
 LinEq1:  Iter=  7 NonCon=     1 RMS=2.14D-06 Max=2.14D-05 NDo=     1
 LinEq1:  Iter=  8 NonCon=     1 RMS=7.89D-07 Max=6.58D-06 NDo=     1
 LinEq1:  Iter=  9 NonCon=     1 RMS=2.43D-07 Max=2.24D-06 NDo=     1
 LinEq1:  Iter= 10 NonCon=     1 RMS=1.11D-07 Max=1.53D-06 NDo=     1
 LinEq1:  Iter= 11 NonCon=     1 RMS=4.57D-08 Max=4.36D-07 NDo=     1
 LinEq1:  Iter= 12 NonCon=     1 RMS=1.24D-08 Max=1.18D-07 NDo=     1
 LinEq1:  Iter= 13 NonCon=     1 RMS=3.46D-09 Max=3.25D-08 NDo=     1
 LinEq1:  Iter= 14 NonCon=     1 RMS=8.25D-10 Max=6.93D-09 NDo=     1
 LinEq1:  Iter= 15 NonCon=     1 RMS=3.27D-10 Max=4.43D-09 NDo=     1
 LinEq1:  Iter= 16 NonCon=     1 RMS=1.34D-10 Max=1.17D-09 NDo=     1
 LinEq1:  Iter= 17 NonCon=     0 RMS=3.80D-11 Max=4.46D-10 NDo=     1
 Linear equations converged to 1.000D-10 1.000D-09 after    17 iterations.
 End of Minotr F.D. properties file   721 does not exist.
 End of Minotr F.D. properties file   722 does not exist.
 End of Minotr F.D. properties file   788 does not exist.
 Calling FoFJK, ICntrl=  10002127 FMM=F ISym2X=0 I1Cent= 0 IOpClX= 0 NMat=1 NMatS=1 NMatT=0.
 ***** Axes restored to original set *****
 -------------------------------------------------------------------
 Center     Atomic                   Forces (Hartrees/Bohr)
 Number     Number              X              Y              Z
 -------------------------------------------------------------------
      1       17          -0.015540508   -0.014613884   -0.004056956
      2        8           0.011476308    0.005930846   -0.001189164
      3        8           0.009071647    0.011600579    0.006344354
      4        8           0.009580802    0.001437033    0.002928595
      5        8          -0.011625746   -0.006902908   -0.001944057
      6        1          -0.000633957   -0.000623310   -0.000833145
      7        8          -0.004825350    0.013401606   -0.002227131
      8        1           0.001557055   -0.005570386    0.000726495
      9        1           0.000939750   -0.004659576    0.000251009
 -------------------------------------------------------------------
 Cartesian Forces:  Max     0.015540508 RMS     0.007333175

 GradGradGradGradGradGradGradGradGradGradGradGradGradGradGradGradGradGrad
 Berny optimization.
 Using GEDIIS/GDIIS optimizer.
 FormGI is forming the generalized inverse of G from B-inverse, IUseBI=4.
 Internal  Forces:  Max     0.021366532 RMS     0.009380761
 Search for a local minimum.
 Step number   2 out of a maximum of   36
 All quantities printed in internal units (Hartrees-Bohrs-Radians)
 Mixed Optimization -- RFO/linear search
 Update second derivatives using D2CorX and points    1    2
 DE= -1.13D-02 DEPred=-1.91D-02 R= 5.91D-01
 TightC=F SS=  1.41D+00  RLast= 2.98D-01 DXNew= 5.0454D-01 8.9453D-01
 Trust test= 5.91D-01 RLast= 2.98D-01 DXMaxT set to 5.05D-01
 ITU=  1  0
 Use linear search instead of GDIIS.
     Eigenvalues ---    0.00230   0.00230   0.00231   0.00852   0.01153
     Eigenvalues ---    0.08599   0.15682   0.15952   0.16076   0.17484
     Eigenvalues ---    0.17822   0.24711   0.24997   0.38676   0.49583
     Eigenvalues ---    0.51276   0.52053   0.52331   0.91756   0.96474
     Eigenvalues ---    0.96836
 RFO step:  Lambda=-3.02610461D-03 EMin= 2.29745030D-03
 Quartic linear search produced a step of -0.22294.
 Iteration  1 RMS(Cart)=  0.20898327 RMS(Int)=  0.02449861
 Iteration  2 RMS(Cart)=  0.07723186 RMS(Int)=  0.00249195
 Iteration  3 RMS(Cart)=  0.00392408 RMS(Int)=  0.00130811
 Iteration  4 RMS(Cart)=  0.00000175 RMS(Int)=  0.00130811
 Iteration  5 RMS(Cart)=  0.00000000 RMS(Int)=  0.00130811
 Variable       Old X    -DE/DX   Delta X   Delta X   Delta X     New X
                                 (Linear)    (Quad)   (Total)
    R1        2.76481   0.00698  -0.00616   0.01570   0.00954   2.77435
    R2        2.77224   0.01129  -0.00735   0.02115   0.01379   2.78604
    R3        2.75670   0.00360  -0.00456   0.01037   0.00581   2.76251
    R4        3.14007   0.01573  -0.00034   0.03001   0.02968   3.16975
    R5        1.88632   0.00408  -0.00854   0.02076   0.01228   1.89861
    R6        3.09681   0.00391  -0.00615   0.04919   0.04299   3.13981
    R7        1.83425  -0.00331   0.00302  -0.01011  -0.00709   1.82716
    R8        1.83099  -0.00275   0.00282  -0.00890  -0.00607   1.82492
    A1        2.01309  -0.01645  -0.02301  -0.01354  -0.03541   1.97767
    A2        2.01987  -0.01228  -0.02267   0.00042  -0.02025   1.99963
    A3        1.81165   0.01980   0.02082   0.01693   0.03894   1.85060
    A4        2.01920  -0.01195  -0.02308   0.00272  -0.01818   2.00102
    A5        1.79436   0.02137   0.02403   0.01587   0.04118   1.83554
    A6        1.75047   0.01764   0.03619  -0.01762   0.02021   1.77068
    A7        1.78448   0.00511   0.00822   0.00720   0.01537   1.79985
    A8        2.09783  -0.00352   0.00567  -0.03003  -0.02454   2.07329
    A9        2.36628  -0.00181   0.00379  -0.01786  -0.01457   2.35171
   A10        1.81497   0.00530  -0.00919   0.04256   0.03312   1.84809
   A11        2.95211   0.00217   0.00053   0.29973   0.30048   3.25259
   A12        3.11731   0.00053  -0.00757   0.18640   0.18022   3.29753
    D1       -1.30947   0.00114   0.00337   0.02167   0.02423  -1.28523
    D2        0.79399  -0.00004  -0.00074   0.02024   0.02040   0.81439
    D3        2.88051   0.00070   0.00152   0.02211   0.02346   2.90398
    D4       -0.55166   0.00019   0.00075  -0.02522  -0.02201  -0.57367
    D5        2.43622  -0.00002  -0.00135   0.05682   0.05289   2.48911
    D6        3.05889  -0.00035   0.00309  -0.05406  -0.04749   3.01140
         Item               Value     Threshold  Converged?
 Maximum Force            0.021367     0.000450     NO 
 RMS     Force            0.009381     0.000300     NO 
 Maximum Displacement     0.593159     0.001800     NO 
 RMS     Displacement     0.272874     0.001200     NO 
 Predicted change in Energy=-2.849911D-03
 GradGradGradGradGradGradGradGradGradGradGradGradGradGradGradGradGradGrad

                          Input orientation:                          
 ---------------------------------------------------------------------
 Center     Atomic      Atomic             Coordinates (Angstroms)
 Number     Number       Type             X           Y           Z
 ---------------------------------------------------------------------
      1         17           0       -0.198832    0.436383    0.236595
      2          8           0        0.530326    0.662873   -1.017366
      3          8           0       -0.244462    1.624857    1.107817
      4          8           0        0.142384   -0.809089    0.921716
      5          8           0       -1.793035    0.150546   -0.199696
      6          1           0       -2.124063    1.061573   -0.464028
      7          8           0       -2.949216    2.460348   -0.814995
      8          1           0       -2.694755    3.276794   -0.363837
      9          1           0       -3.595282    2.718676   -1.484660
 ---------------------------------------------------------------------
                    Distance matrix (angstroms):
                    1          2          3          4          5
     1  Cl   0.000000
     2  O    1.468124   0.000000
     3  O    1.474307   2.458071   0.000000
     4  O    1.461855   2.465200   2.471513   0.000000
     5  O    1.677360   2.515764   2.506244   2.433991   0.000000
     6  H    2.142020   2.740607   2.514137   3.249069   1.004700
     7  O    3.573079   3.921618   3.422126   4.823213   2.655285
     8  H    3.828588   4.202479   3.301302   5.137747   3.257832
     9  H    4.439308   4.633070   4.375542   5.675026   3.390357
                    6          7          8          9
     6  H    0.000000
     7  O    1.661514   0.000000
     8  H    2.289745   0.966891   0.000000
     9  H    2.439706   0.965705   1.542300   0.000000
 Stoichiometry    ClH3O5
 Framework group  C1[X(ClH3O5)]
 Deg. of freedom    21
 Full point group                 C1      NOp   1
 Largest Abelian subgroup         C1      NOp   1
 Largest concise Abelian subgroup C1      NOp   1
                         Standard orientation:                         
 ---------------------------------------------------------------------
 Center     Atomic      Atomic             Coordinates (Angstroms)
 Number     Number       Type             X           Y           Z
 ---------------------------------------------------------------------
      1         17           0        0.699055   -0.074608    0.008091
      2          8           0        0.749368   -0.483578    1.417203
      3          8           0        0.222790   -1.140579   -0.892164
      4          8           0        1.887945    0.634387   -0.461895
      5          8           0       -0.464862    1.129741   -0.083435
      6          1           0       -1.326607    0.621768    0.010270
      7          8           0       -2.872915    0.013954   -0.000757
      8          1           0       -3.027461   -0.858809   -0.387122
      9          1           0       -3.708470    0.273975    0.407684
 ---------------------------------------------------------------------
 Rotational constants (GHZ):           4.9789248           1.7293416           1.7048498
 Standard basis: Aug-CC-pVDZ (5D, 7F)
 There are   181 symmetry adapted cartesian basis functions of A   symmetry.
 There are   169 symmetry adapted basis functions of A   symmetry.
   169 basis functions,   329 primitive gaussians,   181 cartesian basis functions
    30 alpha electrons       30 beta electrons
       nuclear repulsion energy       368.2425285654 Hartrees.
 NAtoms=    9 NActive=    9 NUniq=    9 SFac= 1.00D+00 NAtFMM=   60 NAOKFM=F Big=F
 Integral buffers will be    131072 words long.
 Raffenetti 1 integral format.
 Two-electron integral symmetry is turned on.
 One-electron integrals computed using PRISM.
 NBasis=   169 RedAO= T EigKep=  1.45D-04  NBF=   169
 NBsUse=   169 1.00D-06 EigRej= -1.00D+00 NBFU=   169
 Initial guess from the checkpoint file:  "hcl04_h2o.chk"
 B after Tr=    -0.000000   -0.000000    0.000000
         Rot=    0.999366   -0.013748   -0.003709   -0.032637 Ang=  -4.08 deg.
 ExpMin= 2.97D-02 ExpMax= 1.28D+05 ExpMxC= 1.24D+03 IAcc=3 IRadAn=         5 AccDes= 0.00D+00
 Harris functional with IExCor=  205 and IRadAn=       5 diagonalized for initial guess.
 HarFok:  IExCor=  205 AccDes= 0.00D+00 IRadAn=         5 IDoV= 1 UseB2=F ITyADJ=14
 ICtDFT=  3500011 ScaDFX=  1.000000  1.000000  1.000000  1.000000
 FoFCou: FMM=F IPFlag=           0 FMFlag=      100000 FMFlg1=           0
         NFxFlg=           0 DoJE=T BraDBF=F KetDBF=T FulRan=T
         wScrn=  0.000000 ICntrl=       500 IOpCl=  0 I1Cent=   200000004 NGrid=           0
         NMat0=    1 NMatS0=      1 NMatT0=    0 NMatD0=    1 NMtDS0=    0 NMtDT0=    0
 Petite list used in FoFCou.
 Keep R1 ints in memory in canonical form, NReq=109452934.
 Requested convergence on RMS density matrix=1.00D-08 within 128 cycles.
 Requested convergence on MAX density matrix=1.00D-06.
 Requested convergence on             energy=1.00D-06.
 No special actions if energy rises.
 SCF Done:  E(RHF) =  -835.179682078     A.U. after   14 cycles
            NFock= 14  Conv=0.76D-08     -V/T= 2.0013
 ExpMin= 2.97D-02 ExpMax= 1.28D+05 ExpMxC= 1.24D+03 IAcc=3 IRadAn=         5 AccDes= 0.00D+00
 HarFok:  IExCor=  205 AccDes= 0.00D+00 IRadAn=         5 IDoV=-2 UseB2=F ITyADJ=14
 ICtDFT= 12500011 ScaDFX=  1.000000  1.000000  1.000000  1.000000
 Range of M.O.s used for correlation:    11   169
 NBasis=   169 NAE=    30 NBE=    30 NFC=    10 NFV=     0
 NROrb=    159 NOA=    20 NOB=    20 NVA=   139 NVB=   139

 **** Warning!!: The largest alpha MO coefficient is  0.29506033D+02

 Fully direct method using O(ONN) memory.
 JobTyp=1 Pass  1:  I=  11 to  30 NPSUse= 28 ParTrn=T ParDer=T DoDerP=T.
 Spin components of T(2) and E(2):
     alpha-alpha T2 =       0.5333809366D-01 E2=     -0.1713488605D+00
     alpha-beta  T2 =       0.2600501866D+00 E2=     -0.8825178505D+00
     beta-beta   T2 =       0.5333809366D-01 E2=     -0.1713488605D+00
 ANorm=    0.1169070731D+01
 E2 =    -0.1225215572D+01 EUMP2 =    -0.83640489764978D+03
          IDoAtm=111111111
          Differentiating once with respect to electric field.
                with respect to dipole field.
          Differentiating once with respect to nuclear coordinates.
 Keep R1 ints in memory in canonical form, NReq=109463081.
          There are     1 degrees of freedom in the 1st order CPHF.  IDoFFX=0 NUNeed=     1.
 LinEq1:  Iter=  0 NonCon=     1 RMS=6.80D-03 Max=1.61D-01 NDo=     1
 AX will form     1 AO Fock derivatives at one time.
 LinEq1:  Iter=  1 NonCon=     1 RMS=1.85D-03 Max=2.02D-02 NDo=     1
 LinEq1:  Iter=  2 NonCon=     1 RMS=8.05D-04 Max=1.85D-02 NDo=     1
 LinEq1:  Iter=  3 NonCon=     1 RMS=1.45D-04 Max=1.01D-03 NDo=     1
 LinEq1:  Iter=  4 NonCon=     1 RMS=6.47D-05 Max=1.36D-03 NDo=     1
 LinEq1:  Iter=  5 NonCon=     1 RMS=1.71D-05 Max=1.68D-04 NDo=     1
 LinEq1:  Iter=  6 NonCon=     1 RMS=6.23D-06 Max=8.60D-05 NDo=     1
 LinEq1:  Iter=  7 NonCon=     1 RMS=2.54D-06 Max=2.72D-05 NDo=     1
 LinEq1:  Iter=  8 NonCon=     1 RMS=9.26D-07 Max=1.19D-05 NDo=     1
 LinEq1:  Iter=  9 NonCon=     1 RMS=2.80D-07 Max=2.83D-06 NDo=     1
 LinEq1:  Iter= 10 NonCon=     1 RMS=1.28D-07 Max=1.55D-06 NDo=     1
 LinEq1:  Iter= 11 NonCon=     1 RMS=5.15D-08 Max=5.78D-07 NDo=     1
 LinEq1:  Iter= 12 NonCon=     1 RMS=1.42D-08 Max=1.78D-07 NDo=     1
 LinEq1:  Iter= 13 NonCon=     1 RMS=4.20D-09 Max=6.06D-08 NDo=     1
 LinEq1:  Iter= 14 NonCon=     1 RMS=8.65D-10 Max=1.12D-08 NDo=     1
 LinEq1:  Iter= 15 NonCon=     1 RMS=1.76D-10 Max=2.73D-09 NDo=     1
 LinEq1:  Iter= 16 NonCon=     0 RMS=5.79D-11 Max=9.79D-10 NDo=     1
 Linear equations converged to 1.000D-10 1.000D-09 after    16 iterations.
 End of Minotr F.D. properties file   721 does not exist.
 End of Minotr F.D. properties file   722 does not exist.
 End of Minotr F.D. properties file   788 does not exist.
 Calling FoFJK, ICntrl=  10002127 FMM=F ISym2X=0 I1Cent= 0 IOpClX= 0 NMat=1 NMatS=1 NMatT=0.
 ***** Axes restored to original set *****
 -------------------------------------------------------------------
 Center     Atomic                   Forces (Hartrees/Bohr)
 Number     Number              X              Y              Z
 -------------------------------------------------------------------
      1       17           0.002895152   -0.003429769    0.002861993
      2        8           0.000898461    0.001026321   -0.001926957
      3        8          -0.000784246    0.002233290    0.000095419
      4        8           0.000922931   -0.000433097    0.000101540
      5        8          -0.002207597    0.003573253   -0.001389491
      6        1          -0.002646502   -0.005243318   -0.000291585
      7        8          -0.000088679    0.003998284    0.001100161
      8        1           0.000102311   -0.000529116   -0.000154458
      9        1           0.000908170   -0.001195847   -0.000396622
 -------------------------------------------------------------------
 Cartesian Forces:  Max     0.005243318 RMS     0.002060708

 GradGradGradGradGradGradGradGradGradGradGradGradGradGradGradGradGradGrad
 Berny optimization.
 Using GEDIIS/GDIIS optimizer.
 FormGI is forming the generalized inverse of G from B-inverse, IUseBI=4.
 Internal  Forces:  Max     0.004908082 RMS     0.001770829
 Search for a local minimum.
 Step number   3 out of a maximum of   36
 All quantities printed in internal units (Hartrees-Bohrs-Radians)
 Mixed Optimization -- RFO/linear search
 Update second derivatives using D2CorX and points    1    2    3
 DE= -1.26D-03 DEPred=-2.85D-03 R= 4.42D-01
 Trust test= 4.42D-01 RLast= 3.75D-01 DXMaxT set to 5.05D-01
 ITU=  0  1  0
 Use linear search instead of GDIIS.
     Eigenvalues ---    0.00229   0.00230   0.00617   0.00952   0.01182
     Eigenvalues ---    0.07656   0.13619   0.16008   0.16110   0.17122
     Eigenvalues ---    0.17461   0.24456   0.25169   0.35983   0.45513
     Eigenvalues ---    0.51533   0.52112   0.52238   0.85470   0.96498
     Eigenvalues ---    0.96842
 RFO step:  Lambda=-4.40779197D-03 EMin= 2.29083536D-03
 Quartic linear search produced a step of -0.33950.
 Maximum step size (   0.505) exceeded in Quadratic search.
    -- Step size scaled by   0.917
 Iteration  1 RMS(Cart)=  0.16460761 RMS(Int)=  0.07060180
 Iteration  2 RMS(Cart)=  0.16697904 RMS(Int)=  0.02935140
 Iteration  3 RMS(Cart)=  0.11932439 RMS(Int)=  0.00375761
 Iteration  4 RMS(Cart)=  0.00486284 RMS(Int)=  0.00167060
 Iteration  5 RMS(Cart)=  0.00000189 RMS(Int)=  0.00167060
 Iteration  6 RMS(Cart)=  0.00000000 RMS(Int)=  0.00167060
 Variable       Old X    -DE/DX   Delta X   Delta X   Delta X     New X
                                 (Linear)    (Quad)   (Total)
    R1        2.77435   0.00225  -0.00324   0.02042   0.01718   2.79153
    R2        2.78604   0.00182  -0.00468   0.02737   0.02278   2.80881
    R3        2.76251   0.00063  -0.00197   0.01258   0.01061   2.77312
    R4        3.16975   0.00397  -0.01008   0.04989   0.03974   3.20949
    R5        1.89861  -0.00216  -0.00417   0.02202   0.01767   1.91627
    R6        3.13981   0.00133  -0.01460   0.07267   0.05817   3.19798
    R7        1.82716  -0.00049   0.00241  -0.01335  -0.01095   1.81621
    R8        1.82492  -0.00065   0.00206  -0.01190  -0.00984   1.81508
    A1        1.97767  -0.00092   0.01202  -0.04075  -0.02844   1.94923
    A2        1.99963   0.00010   0.00687  -0.01361  -0.00657   1.99305
    A3        1.85060  -0.00062  -0.01322   0.03737   0.02433   1.87493
    A4        2.00102   0.00115   0.00617  -0.00732  -0.00102   2.00000
    A5        1.83554  -0.00222  -0.01398   0.03436   0.02027   1.85581
    A6        1.77068   0.00247  -0.00686   0.00780   0.00106   1.77174
    A7        1.79985  -0.00055  -0.00522   0.01409   0.00873   1.80858
    A8        2.07329   0.00046   0.00833  -0.03579  -0.02679   2.04650
    A9        2.35171  -0.00134   0.00495  -0.02720  -0.02279   2.32892
   A10        1.84809   0.00092  -0.01124   0.05906   0.04901   1.89710
   A11        3.25259  -0.00491  -0.10201  -0.44384  -0.54519   2.70740
   A12        3.29753  -0.00220  -0.06119  -0.19295  -0.25198   3.04555
    D1       -1.28523   0.00100  -0.00823   0.01993   0.01180  -1.27344
    D2        0.81439  -0.00144  -0.00692   0.00809   0.00135   0.81574
    D3        2.90398   0.00003  -0.00797   0.01666   0.00873   2.91271
    D4       -0.57367   0.00033   0.00747   0.05907   0.07113  -0.50253
    D5        2.48911  -0.00099  -0.01796  -0.12117  -0.14283   2.34628
    D6        3.01140   0.00016   0.01612  -0.02687  -0.00525   3.00615
         Item               Value     Threshold  Converged?
 Maximum Force            0.004908     0.000450     NO 
 RMS     Force            0.001771     0.000300     NO 
 Maximum Displacement     0.921108     0.001800     NO 
 RMS     Displacement     0.426864     0.001200     NO 
 Predicted change in Energy=-2.308578D-03
 GradGradGradGradGradGradGradGradGradGradGradGradGradGradGradGradGradGrad

                          Input orientation:                          
 ---------------------------------------------------------------------
 Center     Atomic      Atomic             Coordinates (Angstroms)
 Number     Number       Type             X           Y           Z
 ---------------------------------------------------------------------
      1         17           0       -0.367827    0.580005    0.172199
      2          8           0        0.279394    0.871690   -1.123249
      3          8           0       -0.611559    1.819360    0.955692
      4          8           0        0.264399   -0.506606    0.929189
      5          8           0       -1.895717   -0.082892   -0.160438
      6          1           0       -2.435756    0.712137   -0.483829
      7          8           0       -2.724770    2.359422   -0.742280
      8          1           0       -2.207325    2.983393   -0.225927
      9          1           0       -3.227774    2.846451   -1.399812
 ---------------------------------------------------------------------
                    Distance matrix (angstroms):
                    1          2          3          4          5
     1  Cl   0.000000
     2  O    1.477213   0.000000
     3  O    1.486360   2.452319   0.000000
     4  O    1.467471   2.472332   2.485584   0.000000
     5  O    1.698390   2.563073   2.552131   2.456201   0.000000
     6  H    2.173514   2.793986   2.574075   3.282194   1.014049
     7  O    3.091564   3.373942   2.764134   4.465765   2.644005
     8  H    3.052627   3.383526   2.301666   4.429877   3.082774
     9  H    3.973321   4.034401   3.667137   5.372384   3.448401
                    6          7          8          9
     6  H    0.000000
     7  O    1.692298   0.000000
     8  H    2.297237   0.961098   0.000000
     9  H    2.453897   0.960499   1.561433   0.000000
 Stoichiometry    ClH3O5
 Framework group  C1[X(ClH3O5)]
 Deg. of freedom    21
 Full point group                 C1      NOp   1
 Largest Abelian subgroup         C1      NOp   1
 Largest concise Abelian subgroup C1      NOp   1
                         Standard orientation:                         
 ---------------------------------------------------------------------
 Center     Atomic      Atomic             Coordinates (Angstroms)
 Number     Number       Type             X           Y           Z
 ---------------------------------------------------------------------
      1         17           0        0.591241   -0.087499    0.001514
      2          8           0        0.509878   -0.671328    1.356019
      3          8           0       -0.103479   -0.933621   -1.003826
      4          8           0        1.939283    0.341717   -0.388390
      5          8           0       -0.239558    1.393435    0.035245
      6          1           0       -1.214762    1.119236    0.080928
      7          8           0       -2.498446    0.019946   -0.006190
      8          1           0       -2.337916   -0.808660   -0.465920
      9          1           0       -3.359855   -0.024289    0.416392
 ---------------------------------------------------------------------
 Rotational constants (GHZ):           4.8302359           2.0736632           2.0080966
 Standard basis: Aug-CC-pVDZ (5D, 7F)
 There are   181 symmetry adapted cartesian basis functions of A   symmetry.
 There are   169 symmetry adapted basis functions of A   symmetry.
   169 basis functions,   329 primitive gaussians,   181 cartesian basis functions
    30 alpha electrons       30 beta electrons
       nuclear repulsion energy       375.6351391684 Hartrees.
 NAtoms=    9 NActive=    9 NUniq=    9 SFac= 1.00D+00 NAtFMM=   60 NAOKFM=F Big=F
 Integral buffers will be    131072 words long.
 Raffenetti 1 integral format.
 Two-electron integral symmetry is turned on.
 One-electron integrals computed using PRISM.
 NBasis=   169 RedAO= T EigKep=  1.41D-04  NBF=   169
 NBsUse=   169 1.00D-06 EigRej= -1.00D+00 NBFU=   169
 Initial guess from the checkpoint file:  "hcl04_h2o.chk"
 B after Tr=     0.000000    0.000000   -0.000000
         Rot=    0.997621   -0.054920    0.003967    0.041474 Ang=  -7.91 deg.
 ExpMin= 2.97D-02 ExpMax= 1.28D+05 ExpMxC= 1.24D+03 IAcc=3 IRadAn=         5 AccDes= 0.00D+00
 Harris functional with IExCor=  205 and IRadAn=       5 diagonalized for initial guess.
 HarFok:  IExCor=  205 AccDes= 0.00D+00 IRadAn=         5 IDoV= 1 UseB2=F ITyADJ=14
 ICtDFT=  3500011 ScaDFX=  1.000000  1.000000  1.000000  1.000000
 FoFCou: FMM=F IPFlag=           0 FMFlag=      100000 FMFlg1=           0
         NFxFlg=           0 DoJE=T BraDBF=F KetDBF=T FulRan=T
         wScrn=  0.000000 ICntrl=       500 IOpCl=  0 I1Cent=   200000004 NGrid=           0
         NMat0=    1 NMatS0=      1 NMatT0=    0 NMatD0=    1 NMtDS0=    0 NMtDT0=    0
 Petite list used in FoFCou.
 Keep R1 ints in memory in canonical form, NReq=109463938.
 Requested convergence on RMS density matrix=1.00D-08 within 128 cycles.
 Requested convergence on MAX density matrix=1.00D-06.
 Requested convergence on             energy=1.00D-06.
 No special actions if energy rises.
 SCF Done:  E(RHF) =  -835.174983844     A.U. after   15 cycles
            NFock= 15  Conv=0.91D-08     -V/T= 2.0013
 ExpMin= 2.97D-02 ExpMax= 1.28D+05 ExpMxC= 1.24D+03 IAcc=3 IRadAn=         5 AccDes= 0.00D+00
 HarFok:  IExCor=  205 AccDes= 0.00D+00 IRadAn=         5 IDoV=-2 UseB2=F ITyADJ=14
 ICtDFT= 12500011 ScaDFX=  1.000000  1.000000  1.000000  1.000000
 Range of M.O.s used for correlation:    11   169
 NBasis=   169 NAE=    30 NBE=    30 NFC=    10 NFV=     0
 NROrb=    159 NOA=    20 NOB=    20 NVA=   139 NVB=   139

 **** Warning!!: The largest alpha MO coefficient is  0.36869549D+02

 Fully direct method using O(ONN) memory.
 JobTyp=1 Pass  1:  I=  11 to  30 NPSUse= 28 ParTrn=T ParDer=T DoDerP=T.
 Spin components of T(2) and E(2):
     alpha-alpha T2 =       0.5389777965D-01 E2=     -0.1720208907D+00
     alpha-beta  T2 =       0.2626291111D+00 E2=     -0.8852882021D+00
     beta-beta   T2 =       0.5389777965D-01 E2=     -0.1720208907D+00
 ANorm=    0.1170651387D+01
 E2 =    -0.1229329983D+01 EUMP2 =    -0.83640431382775D+03
          IDoAtm=111111111
          Differentiating once with respect to electric field.
                with respect to dipole field.
          Differentiating once with respect to nuclear coordinates.
 Keep R1 ints in memory in canonical form, NReq=109473792.
          There are     1 degrees of freedom in the 1st order CPHF.  IDoFFX=0 NUNeed=     1.
 LinEq1:  Iter=  0 NonCon=     1 RMS=7.00D-03 Max=1.38D-01 NDo=     1
 AX will form     1 AO Fock derivatives at one time.
 LinEq1:  Iter=  1 NonCon=     1 RMS=1.91D-03 Max=2.09D-02 NDo=     1
 LinEq1:  Iter=  2 NonCon=     1 RMS=8.46D-04 Max=1.76D-02 NDo=     1
 LinEq1:  Iter=  3 NonCon=     1 RMS=1.56D-04 Max=1.19D-03 NDo=     1
 LinEq1:  Iter=  4 NonCon=     1 RMS=7.09D-05 Max=1.32D-03 NDo=     1
 LinEq1:  Iter=  5 NonCon=     1 RMS=1.85D-05 Max=2.16D-04 NDo=     1
 LinEq1:  Iter=  6 NonCon=     1 RMS=7.44D-06 Max=1.01D-04 NDo=     1
 LinEq1:  Iter=  7 NonCon=     1 RMS=3.12D-06 Max=2.69D-05 NDo=     1
 LinEq1:  Iter=  8 NonCon=     1 RMS=1.05D-06 Max=1.20D-05 NDo=     1
 LinEq1:  Iter=  9 NonCon=     1 RMS=3.31D-07 Max=3.51D-06 NDo=     1
 LinEq1:  Iter= 10 NonCon=     1 RMS=1.52D-07 Max=2.44D-06 NDo=     1
 LinEq1:  Iter= 11 NonCon=     1 RMS=5.69D-08 Max=6.48D-07 NDo=     1
 LinEq1:  Iter= 12 NonCon=     1 RMS=1.42D-08 Max=1.75D-07 NDo=     1
 LinEq1:  Iter= 13 NonCon=     1 RMS=4.35D-09 Max=5.84D-08 NDo=     1
 LinEq1:  Iter= 14 NonCon=     1 RMS=1.16D-09 Max=1.57D-08 NDo=     1
 LinEq1:  Iter= 15 NonCon=     1 RMS=5.39D-10 Max=6.76D-09 NDo=     1
 LinEq1:  Iter= 16 NonCon=     1 RMS=1.98D-10 Max=2.64D-09 NDo=     1
 LinEq1:  Iter= 17 NonCon=     0 RMS=5.39D-11 Max=6.09D-10 NDo=     1
 Linear equations converged to 1.000D-10 1.000D-09 after    17 iterations.
 End of Minotr F.D. properties file   721 does not exist.
 End of Minotr F.D. properties file   722 does not exist.
 End of Minotr F.D. properties file   788 does not exist.
 Calling FoFJK, ICntrl=  10002127 FMM=F ISym2X=0 I1Cent= 0 IOpClX= 0 NMat=1 NMatS=1 NMatT=0.
 ***** Axes restored to original set *****
 -------------------------------------------------------------------
 Center     Atomic                   Forces (Hartrees/Bohr)
 Number     Number              X              Y              Z
 -------------------------------------------------------------------
      1       17           0.010542735    0.005447490   -0.000788415
      2        8          -0.007377643   -0.004092048    0.005343965
      3        8          -0.001343087   -0.008590000   -0.001090915
      4        8          -0.005902247    0.004574488   -0.003241285
      5        8          -0.003123751    0.005668216   -0.002043899
      6        1           0.011841400   -0.004471963    0.004573659
      7        8          -0.006691156   -0.006337591   -0.002734235
      8        1           0.002871502    0.003746944    0.001695662
      9        1          -0.000817753    0.004054464   -0.001714538
 -------------------------------------------------------------------
 Cartesian Forces:  Max     0.011841400 RMS     0.005267119

 GradGradGradGradGradGradGradGradGradGradGradGradGradGradGradGradGradGrad
 Berny optimization.
 Using GEDIIS/GDIIS optimizer.
 FormGI is forming the generalized inverse of G from B-inverse, IUseBI=4.
 Internal  Forces:  Max     0.012114003 RMS     0.005153790
 Search for a local minimum.
 Step number   4 out of a maximum of   36
 All quantities printed in internal units (Hartrees-Bohrs-Radians)
 Mixed Optimization -- RFO/linear search
 Update second derivatives using D2CorX and points    1    2    4    3
 DE=  5.84D-04 DEPred=-2.31D-03 R=-2.53D-01
 Trust test=-2.53D-01 RLast= 6.31D-01 DXMaxT set to 2.52D-01
 ITU= -1  0  1  0
 Use linear search instead of GDIIS.
     Eigenvalues ---    0.00218   0.00230   0.00873   0.01106   0.02900
     Eigenvalues ---    0.07307   0.13326   0.15871   0.16247   0.17039
     Eigenvalues ---    0.17506   0.23879   0.25246   0.35791   0.48378
     Eigenvalues ---    0.51177   0.51940   0.52186   0.84352   0.96581
     Eigenvalues ---    0.96895
 RFO step:  Lambda=-1.59826786D-03 EMin= 2.17582057D-03
 Quartic linear search produced a step of -0.47318.
 Maximum step size (   0.252) exceeded in Quadratic search.
    -- Step size scaled by   0.526
 Iteration  1 RMS(Cart)=  0.17215786 RMS(Int)=  0.02473350
 Iteration  2 RMS(Cart)=  0.08460328 RMS(Int)=  0.00222695
 Iteration  3 RMS(Cart)=  0.00357343 RMS(Int)=  0.00051976
 Iteration  4 RMS(Cart)=  0.00000179 RMS(Int)=  0.00051976
 Iteration  5 RMS(Cart)=  0.00000000 RMS(Int)=  0.00051976
 Variable       Old X    -DE/DX   Delta X   Delta X   Delta X     New X
                                 (Linear)    (Quad)   (Total)
    R1        2.79153  -0.00873  -0.00813  -0.00072  -0.00885   2.78268
    R2        2.80881  -0.00754  -0.01078  -0.00009  -0.01087   2.79795
    R3        2.77312  -0.00760  -0.00502  -0.00125  -0.00627   2.76684
    R4        3.20949  -0.00464  -0.01880   0.00242  -0.01638   3.19311
    R5        1.91627  -0.00675  -0.00836  -0.00328  -0.01159   1.90469
    R6        3.19798   0.00262  -0.02753   0.01740  -0.01017   3.18781
    R7        1.81621   0.00489   0.00518   0.00153   0.00671   1.82292
    R8        1.81508   0.00366   0.00466   0.00089   0.00555   1.82063
    A1        1.94923   0.00792   0.01346   0.00457   0.01801   1.96724
    A2        1.99305   0.00492   0.00311   0.00401   0.00711   2.00017
    A3        1.87493  -0.00806  -0.01151  -0.00592  -0.01745   1.85748
    A4        2.00000   0.00087   0.00048   0.00026   0.00074   2.00074
    A5        1.85581  -0.00380  -0.00959  -0.00327  -0.01286   1.84295
    A6        1.77174  -0.00502  -0.00050  -0.00167  -0.00218   1.76957
    A7        1.80858   0.00411  -0.00413   0.00746   0.00331   1.81189
    A8        2.04650  -0.00080   0.01268  -0.00455   0.00775   2.05425
    A9        2.32892   0.00276   0.01079  -0.00067   0.01012   2.33903
   A10        1.89710  -0.00223  -0.02319  -0.00006  -0.02385   1.87325
   A11        2.70740   0.01211   0.25797   0.05390   0.31165   3.01906
   A12        3.04555   0.00204   0.11923  -0.24503  -0.12646   2.91910
    D1       -1.27344   0.00037  -0.00558   0.03122   0.02564  -1.24780
    D2        0.81574   0.00346  -0.00064   0.03177   0.03112   0.84686
    D3        2.91271   0.00060  -0.00413   0.02997   0.02584   2.93855
    D4       -0.50253  -0.00004  -0.03366   0.04675   0.01177  -0.49076
    D5        2.34628   0.00058   0.06758  -0.12142  -0.05255   2.29373
    D6        3.00615  -0.00148   0.00249  -0.03328  -0.03243   2.97372
         Item               Value     Threshold  Converged?
 Maximum Force            0.012114     0.000450     NO 
 RMS     Force            0.005154     0.000300     NO 
 Maximum Displacement     0.449081     0.001800     NO 
 RMS     Displacement     0.246890     0.001200     NO 
 Predicted change in Energy=-2.376406D-03
 GradGradGradGradGradGradGradGradGradGradGradGradGradGradGradGradGradGrad

                          Input orientation:                          
 ---------------------------------------------------------------------
 Center     Atomic      Atomic             Coordinates (Angstroms)
 Number     Number       Type             X           Y           Z
 ---------------------------------------------------------------------
      1         17           0       -0.295879    0.517383    0.224555
      2          8           0        0.285342    0.949907   -1.057418
      3          8           0       -0.434379    1.628458    1.193335
      4          8           0        0.289792   -0.705207    0.777726
      5          8           0       -1.871841    0.009530   -0.112466
      6          1           0       -2.363760    0.866694   -0.310410
      7          8           0       -2.819769    2.408630   -0.820489
      8          1           0       -2.383214    3.164284   -0.409445
      9          1           0       -3.333227    2.743282   -1.563844
 ---------------------------------------------------------------------
                    Distance matrix (angstroms):
                    1          2          3          4          5
     1  Cl   0.000000
     2  O    1.472531   0.000000
     3  O    1.480609   2.458520   0.000000
     4  O    1.464150   2.471270   2.478537   0.000000
     5  O    1.689720   2.535879   2.528309   2.444576   0.000000
     6  H    2.164332   2.753668   2.562039   3.270512   1.007916
     7  O    3.322492   3.438855   3.217801   4.681842   2.674986
     8  H    3.430015   3.527680   2.953916   4.850494   3.209700
     9  H    4.168750   4.070222   4.153094   5.522798   3.422798
                    6          7          8          9
     6  H    0.000000
     7  O    1.686919   0.000000
     8  H    2.299806   0.964650   0.000000
     9  H    2.456125   0.963435   1.553192   0.000000
 Stoichiometry    ClH3O5
 Framework group  C1[X(ClH3O5)]
 Deg. of freedom    21
 Full point group                 C1      NOp   1
 Largest Abelian subgroup         C1      NOp   1
 Largest concise Abelian subgroup C1      NOp   1
                         Standard orientation:                         
 ---------------------------------------------------------------------
 Center     Atomic      Atomic             Coordinates (Angstroms)
 Number     Number       Type             X           Y           Z
 ---------------------------------------------------------------------
      1         17           0        0.641961   -0.086541    0.008509
      2          8           0        0.405869   -0.707502    1.322669
      3          8           0        0.188237   -0.936892   -1.115431
      4          8           0        1.977113    0.489564   -0.162389
      5          8           0       -0.327735    1.296093   -0.047774
      6          1           0       -1.263369    0.930619   -0.130909
      7          8           0       -2.678743    0.020548   -0.011812
      8          1           0       -2.674263   -0.867037   -0.389599
      9          1           0       -3.493635    0.113138    0.493742
 ---------------------------------------------------------------------
 Rotational constants (GHZ):           4.8868040           1.9002261           1.8588463
 Standard basis: Aug-CC-pVDZ (5D, 7F)
 There are   181 symmetry adapted cartesian basis functions of A   symmetry.
 There are   169 symmetry adapted basis functions of A   symmetry.
   169 basis functions,   329 primitive gaussians,   181 cartesian basis functions
    30 alpha electrons       30 beta electrons
       nuclear repulsion energy       371.4913340718 Hartrees.
 NAtoms=    9 NActive=    9 NUniq=    9 SFac= 1.00D+00 NAtFMM=   60 NAOKFM=F Big=F
 Integral buffers will be    131072 words long.
 Raffenetti 1 integral format.
 Two-electron integral symmetry is turned on.
 One-electron integrals computed using PRISM.
 NBasis=   169 RedAO= T EigKep=  1.49D-04  NBF=   169
 NBsUse=   169 1.00D-06 EigRej= -1.00D+00 NBFU=   169
 Lowest energy guess from the checkpoint file:  "hcl04_h2o.chk"
 B after Tr=     0.000000   -0.000000    0.000000
         Rot=    0.996502   -0.076045    0.025708    0.023252 Ang=  -9.59 deg.
 B after Tr=     0.000000   -0.000000    0.000000
         Rot=    0.999461   -0.011200    0.026105   -0.016425 Ang=  -3.76 deg.
 Keep R1 ints in memory in canonical form, NReq=109457881.
 Requested convergence on RMS density matrix=1.00D-08 within 128 cycles.
 Requested convergence on MAX density matrix=1.00D-06.
 Requested convergence on             energy=1.00D-06.
 No special actions if energy rises.
 SCF Done:  E(RHF) =  -835.178192644     A.U. after   15 cycles
            NFock= 15  Conv=0.44D-08     -V/T= 2.0013
 ExpMin= 2.97D-02 ExpMax= 1.28D+05 ExpMxC= 1.24D+03 IAcc=3 IRadAn=         5 AccDes= 0.00D+00
 HarFok:  IExCor=  205 AccDes= 0.00D+00 IRadAn=         5 IDoV=-2 UseB2=F ITyADJ=14
 ICtDFT= 12500011 ScaDFX=  1.000000  1.000000  1.000000  1.000000
 Range of M.O.s used for correlation:    11   169
 NBasis=   169 NAE=    30 NBE=    30 NFC=    10 NFV=     0
 NROrb=    159 NOA=    20 NOB=    20 NVA=   139 NVB=   139

 **** Warning!!: The largest alpha MO coefficient is  0.30546746D+02

 Fully direct method using O(ONN) memory.
 JobTyp=1 Pass  1:  I=  11 to  30 NPSUse= 28 ParTrn=T ParDer=T DoDerP=T.
 Spin components of T(2) and E(2):
     alpha-alpha T2 =       0.5361479773D-01 E2=     -0.1715939294D+00
     alpha-beta  T2 =       0.2614796127D+00 E2=     -0.8838709716D+00
     beta-beta   T2 =       0.5361479773D-01 E2=     -0.1715939294D+00
 ANorm=    0.1169918462D+01
 E2 =    -0.1227058830D+01 EUMP2 =    -0.83640525147447D+03
          IDoAtm=111111111
          Differentiating once with respect to electric field.
                with respect to dipole field.
          Differentiating once with respect to nuclear coordinates.
 Keep R1 ints in memory in canonical form, NReq=109468843.
          There are     1 degrees of freedom in the 1st order CPHF.  IDoFFX=0 NUNeed=     1.
 LinEq1:  Iter=  0 NonCon=     1 RMS=6.90D-03 Max=1.33D-01 NDo=     1
 AX will form     1 AO Fock derivatives at one time.
 LinEq1:  Iter=  1 NonCon=     1 RMS=1.88D-03 Max=2.05D-02 NDo=     1
 LinEq1:  Iter=  2 NonCon=     1 RMS=8.26D-04 Max=1.72D-02 NDo=     1
 LinEq1:  Iter=  3 NonCon=     1 RMS=1.50D-04 Max=1.16D-03 NDo=     1
 LinEq1:  Iter=  4 NonCon=     1 RMS=6.73D-05 Max=1.28D-03 NDo=     1
 LinEq1:  Iter=  5 NonCon=     1 RMS=1.77D-05 Max=1.85D-04 NDo=     1
 LinEq1:  Iter=  6 NonCon=     1 RMS=6.73D-06 Max=1.04D-04 NDo=     1
 LinEq1:  Iter=  7 NonCon=     1 RMS=2.77D-06 Max=2.72D-05 NDo=     1
 LinEq1:  Iter=  8 NonCon=     1 RMS=9.83D-07 Max=1.28D-05 NDo=     1
 LinEq1:  Iter=  9 NonCon=     1 RMS=2.98D-07 Max=3.19D-06 NDo=     1
 LinEq1:  Iter= 10 NonCon=     1 RMS=1.37D-07 Max=1.72D-06 NDo=     1
 LinEq1:  Iter= 11 NonCon=     1 RMS=5.45D-08 Max=6.11D-07 NDo=     1
 LinEq1:  Iter= 12 NonCon=     1 RMS=1.45D-08 Max=1.92D-07 NDo=     1
 LinEq1:  Iter= 13 NonCon=     1 RMS=4.38D-09 Max=6.22D-08 NDo=     1
 LinEq1:  Iter= 14 NonCon=     1 RMS=9.33D-10 Max=1.15D-08 NDo=     1
 LinEq1:  Iter= 15 NonCon=     1 RMS=1.94D-10 Max=2.23D-09 NDo=     1
 LinEq1:  Iter= 16 NonCon=     0 RMS=4.74D-11 Max=6.21D-10 NDo=     1
 Linear equations converged to 1.000D-10 1.000D-09 after    16 iterations.
 End of Minotr F.D. properties file   721 does not exist.
 End of Minotr F.D. properties file   722 does not exist.
 End of Minotr F.D. properties file   788 does not exist.
 Calling FoFJK, ICntrl=  10002127 FMM=F ISym2X=0 I1Cent= 0 IOpClX= 0 NMat=1 NMatS=1 NMatT=0.
 ***** Axes restored to original set *****
 -------------------------------------------------------------------
 Center     Atomic                   Forces (Hartrees/Bohr)
 Number     Number              X              Y              Z
 -------------------------------------------------------------------
      1       17           0.003846690    0.002460083    0.002007855
      2        8          -0.002336028   -0.001376361    0.001681679
      3        8          -0.001847672   -0.003049818   -0.003298940
      4        8          -0.001751701    0.002159813   -0.001408113
      5        8          -0.004167048    0.003048515    0.001483374
      6        1           0.007120324   -0.004490732   -0.002215028
      7        8          -0.001499064   -0.001761339    0.003033901
      8        1           0.000356444    0.001827604   -0.000445154
      9        1           0.000278053    0.001182235   -0.000839574
 -------------------------------------------------------------------
 Cartesian Forces:  Max     0.007120324 RMS     0.002676397

 GradGradGradGradGradGradGradGradGradGradGradGradGradGradGradGradGradGrad
 Berny optimization.
 Using GEDIIS/GDIIS optimizer.
 FormGI is forming the generalized inverse of G from B-inverse, IUseBI=4.
 Internal  Forces:  Max     0.006743764 RMS     0.002787792
 Search for a local minimum.
 Step number   5 out of a maximum of   36
 All quantities printed in internal units (Hartrees-Bohrs-Radians)
 Mixed Optimization -- RFO/linear search
 Update second derivatives using D2CorX and points    1    2    4    3    5
 DE= -3.54D-04 DEPred=-2.38D-03 R= 1.49D-01
 Trust test= 1.49D-01 RLast= 5.03D-01 DXMaxT set to 2.52D-01
 ITU=  0 -1  0  1  0
 Use linear search instead of GDIIS.
     Eigenvalues ---    0.00223   0.00632   0.00942   0.01515   0.02529
     Eigenvalues ---    0.06538   0.13712   0.15839   0.16956   0.17418
     Eigenvalues ---    0.19959   0.24716   0.26010   0.35612   0.49971
     Eigenvalues ---    0.51691   0.52189   0.52832   0.86492   0.96572
     Eigenvalues ---    0.96975
 RFO step:  Lambda=-7.05131775D-04 EMin= 2.23405451D-03
 Quartic linear search produced a step of -0.40970.
 Iteration  1 RMS(Cart)=  0.10309724 RMS(Int)=  0.01160495
 Iteration  2 RMS(Cart)=  0.02995408 RMS(Int)=  0.00079557
 Iteration  3 RMS(Cart)=  0.00060142 RMS(Int)=  0.00069335
 Iteration  4 RMS(Cart)=  0.00000017 RMS(Int)=  0.00069335
 Variable       Old X    -DE/DX   Delta X   Delta X   Delta X     New X
                                 (Linear)    (Quad)   (Total)
    R1        2.78268  -0.00279  -0.00341   0.00584   0.00243   2.78511
    R2        2.79795  -0.00417  -0.00488   0.00872   0.00385   2.80179
    R3        2.76684  -0.00304  -0.00178   0.00205   0.00027   2.76711
    R4        3.19311  -0.00220  -0.00957   0.02049   0.01091   3.20402
    R5        1.90469  -0.00570  -0.00249  -0.00009  -0.00259   1.90210
    R6        3.18781   0.00084  -0.01967   0.05345   0.03378   3.22160
    R7        1.82292   0.00140   0.00173  -0.00203  -0.00030   1.82263
    R8        1.82063   0.00091   0.00176  -0.00270  -0.00094   1.81969
    A1        1.96724   0.00232   0.00427  -0.00635  -0.00205   1.96519
    A2        2.00017   0.00148  -0.00022   0.00310   0.00289   2.00305
    A3        1.85748  -0.00273  -0.00282   0.00082  -0.00199   1.85549
    A4        2.00074   0.00240   0.00011   0.00191   0.00202   2.00277
    A5        1.84295  -0.00476  -0.00303   0.00028  -0.00279   1.84016
    A6        1.76957  -0.00033   0.00046   0.00083   0.00129   1.77086
    A7        1.81189  -0.00674  -0.00493   0.00301  -0.00194   1.80995
    A8        2.05425   0.00081   0.00780  -0.02005  -0.01294   2.04131
    A9        2.33903   0.00042   0.00519  -0.01353  -0.00959   2.32944
   A10        1.87325  -0.00148  -0.01031   0.01543   0.00457   1.87782
   A11        3.01906  -0.00241   0.09568  -0.12306  -0.02712   2.99194
   A12        2.91910   0.00513   0.15504   0.09483   0.25062   3.16972
    D1       -1.24780   0.00008  -0.01534   0.04352   0.02820  -1.21961
    D2        0.84686  -0.00097  -0.01330   0.03675   0.02347   0.87033
    D3        2.93855  -0.00032  -0.01416   0.03934   0.02518   2.96373
    D4       -0.49076  -0.00028  -0.03397  -0.02042  -0.05283  -0.54359
    D5        2.29373   0.00011   0.08005  -0.10545  -0.02683   2.26689
    D6        2.97372  -0.00122   0.01544  -0.09154  -0.07386   2.89986
         Item               Value     Threshold  Converged?
 Maximum Force            0.006744     0.000450     NO 
 RMS     Force            0.002788     0.000300     NO 
 Maximum Displacement     0.274260     0.001800     NO 
 RMS     Displacement     0.130737     0.001200     NO 
 Predicted change in Energy=-7.425494D-04
 GradGradGradGradGradGradGradGradGradGradGradGradGradGradGradGradGradGrad

                          Input orientation:                          
 ---------------------------------------------------------------------
 Center     Atomic      Atomic             Coordinates (Angstroms)
[...]
 0440,0.00270871,-0.00122193,0.00718787,0.00271215,0.00550096,-0.005172
 48,-0.00013975,0.00020432,0.00004627,-0.00006393,-0.00007990,-0.000051
 61,-0.00001910,-0.00008974,0.00004395,0.00007057,-0.00006385,-0.000003
 99,0.00044123,0.00161867,-0.00009702,0.00590125,-0.00317381,0.00216248
 ,-0.00180986,0.00517764,-0.00290625,-0.00425356,-0.00331497,0.00095764
 ,0.00027872,-0.00019352,-0.00006325,-0.00006573,0.00010188,-0.00024740
 ,0.00000069,0.00005041,-0.00014323,-0.00000928,-0.00000284,-0.00070253
 ,-0.00002680,0.00007131,-0.00026838,-0.00232544,0.00047290,0.00377159,
 0.00215498,0.00183316,-0.00399003,-0.00000817,-0.00257195,0.00032807,-
 0.00009969,0.00008769,-0.00006677,0.00000813,-0.00005357,-0.00010065,0
 .00005519,-0.00005745,-0.00008107,0.00008613,-0.00005354,0.00039956,0.
 00042205,-0.00001318,0.00118534,-0.00070189,0.00016919,-0.00279960,0.0
 0026746,-0.00272448,-0.00087496,-0.00012684,0.00068561,0.00201008,-0.0
 0029168,-0.00001840,-0.00015570,0.00007574,-0.00001441,0.00007147,0.00
 006988,-0.00001789,-0.00003066,0.00002462,0.00000764,0.00004195,0.0000
 7434,0.00024589,0.00013493,0.00061456,-0.00161758,-0.00146040,-0.00026
 129,0.00506730,-0.00106913,-0.00039564,-0.00027836,0.00000104,0.000089
 47,-0.00337420,0.00005106,-0.00016528,-0.00007393,0.00003060,0.0000008
 4,0.00000886,0.00002144,0.00005050,0.00007230,0.00001765,0.00000988,0.
 00001779,-0.00062977,0.00038824,-0.00005613,-0.00050496,-0.00010903,-0
 .00022431,-0.00048056,-0.00345598,0.00454304,-0.00046521,0.00081433,0.
 00023865,0.00195974,0.00246650,-0.00452627,-0.00108003,-0.00029568,-0.
 00196611,-0.00092348,0.00009099,-0.00136413,0.00053621,0.00005185,-0.0
 0031201,-0.00008101,-0.00001566,0.00019142,0.00000120,-0.00014025,0.00
 001782,-0.00015973,-0.00006829,0.00047055,0.00030252,0.00003718,-0.000
 28665,-0.00024243,-0.00048947,-0.00010978,-0.00007804,0.00011517,0.000
 19214,0.00006637,0.00031057,0.00092379,0.00007337,0.00003601,-0.000228
 69,-0.00012599,0.00023726,-0.00058699,0.00049067,0.00057260,0.00109017
 ,0.00006291,0.00004247,-0.00022548,0.00053613,-0.00042196,-0.00071316,
 0.00039486,0.00023849,0.00011441,-0.00008711,0.00000582,-0.00000262,0.
 00002503,-0.00005259,-0.00002405,-0.00027611,0.00005216,0.00011889,0.0
 0018088,-0.00005272,0.00003223,0.00008249,0.00010155,-0.00000583,-0.00
 041061,-0.00000629,-0.00006250,0.00016939,0.00015148,0.00017290,0.0000
 8786,-0.00002151,-0.00005693,-0.00002566,0.00000189,-0.00012674,-0.000
 10009,-0.00004291,-0.00008351,0.00103537,0.00069555,0.00029032,-0.0002
 4345,-0.00013080,0.00006060,0.00011004,-0.00037068,-0.00029592,-0.0002
 6077,-0.00004399,-0.00009928,0.00015412,-0.00109334,0.00021938,-0.0002
 7593,0.00009071,-0.00002321,-0.00001143,0.00013500,0.00004189,0.000076
 42,-0.00011524,0.00004183,-0.00005824,0.00125989,-0.00493990,0.0003114
 3,0.00000793,0.00046585,-0.00015294,-0.00001059,-0.00006963,0.00003783
 ,-0.00005096,-0.00006122,0.00002362,-0.00002782,-0.00000003,0.00006412
 ,0.00121300,-0.00142666,-0.00005764,-0.00029379,-0.00007909,-0.0000337
 9,0.00007587,-0.00000060,-0.00014949,0.00017747,-0.00001319,0.00010520
 ,0.00002153,0.00004123,-0.00112396,-0.00047509,-0.00022320,0.00115322,
 0.00136630,0.00032284,0.00024435,-0.00015879,-0.00004378,0.00004743,0.
 00004589,-0.00020366,-0.00013878,-0.00006117,-0.00005171,0.00000250,-0
 .00125278,0.00550275,-0.00141947,-0.00128776,-0.00688251,-0.00035015,-
 0.00028286,-0.00028105,0.00013544,-0.00001618,0.00006430,-0.00003278,0
 .00015835,0.00008799,0.00004029,0.00003259,0.00002832,-0.00002970,-0.0
 0104838,0.00131327,0.00060667,0.00226691,-0.00181878,-0.00071835,-0.00
 140463,-0.00038752,-0.00007746,0.00022119,0.00005316,-0.00053523,0.000
 66826,0.00001842,0.00003035,0.00038217,-0.00001173,0.00057480,0.000937
 44,-0.00039462,-0.00043457,0.00050233,0.00118569,-0.27238840,-0.002264
 78,-0.00214100,-0.00074139,0.00001288,0.00040248,-0.00016891,-0.000472
 97,0.00138724,-0.00003843,0.00028791,0.00038891,0.00009296,0.00263689,
 -0.00192765,0.00067772,-0.00280859,0.00400766,0.00032955,-0.34244675,-
 0.38158349,-0.00000506,-0.00347873,-0.00429901,-0.00006262,0.00011018,
 0.00132631,-0.00208675,0.00279900,0.00132086,-0.00011215,0.00087235,0.
 00046840,0.00102571,-0.00099375,-0.00002302,0.00018107,0.00147574,0.00
 262726,-0.01208208,0.04803926,-0.55389342,0.00042619,0.00161632,0.0013
 4416,0.00000579,-0.00015498,-0.00028355,0.00097714,-0.00111704,-0.0008
 3129,-0.00004551,-0.00040118,-0.00008558,-0.00058111,-0.00003692,0.000
 02667,0.00064658,-0.00019364,-0.00053547,0.24593837,0.27646615,0.24370
 359,-0.23114412,0.00116575,0.00171099,0.00066013,0.00000446,-0.0001771
 0,-0.00004997,0.00027382,-0.00105812,0.00016714,-0.00016111,-0.0003443
 4,-0.00013453,-0.00167902,0.00069668,-0.00022753,0.00250971,-0.0017947
 2,-0.00087455,0.28356248,0.28856943,0.27654600,-0.25621743,-0.25986999
 ,0.00105144,0.00212467,0.00219959,-0.00024943,-0.00018873,-0.00065125,
 0.00094826,-0.00150956,-0.00099346,-0.00016980,-0.00034464,-0.00028625
 ,-0.00103852,0.00097996,-0.00050319,0.00043794,-0.00302790,-0.00021566
 ,0.15004721,0.17225082,0.07489859,-0.19606877,-0.22735355,-0.03613879,
 -0.00029387,-0.00011867,0.00006299,0.00005884,0.00002365,-0.00016191,-
 0.00017342,0.00011075,0.00005631,0.00011404,-0.00005321,0.00002386,0.0
 0033493,-0.00070245,0.00030708,-0.00010556,0.00103961,-0.00102000,0.02
 761051,0.06858925,-0.23056171,-0.01622334,-0.02945866,0.04504167,-0.01
 132215,0.00077467,0.00062011,-0.00023362,0.00015585,-0.00017117,0.0002
 5750,0.00005376,-0.00026964,0.00015113,-0.00013580,-0.00011748,0.00000
 836,-0.00111506,0.00038821,-0.00016228,0.00208065,-0.00085685,-0.00056
 544,0.05757750,0.09089644,-0.32537005,-0.01996127,-0.02773282,0.057068
 91,-0.03943030,-0.06275680,-0.00058452,0.00088220,0.00154549,0.0001882
 7,0.00004598,-0.00057123,0.00054061,-0.00092415,-0.00037899,0.00023039
 ,-0.00034234,-0.00011617,0.00002268,0.00011834,0.00030461,-0.00095083,
 0.00054923,-0.00180566,-0.13842854,-0.22044159,0.47757406,-0.04726977,
 -0.04873315,-0.03830958,0.18625171,0.26884548,-0.43824254,-0.03285290,
 -0.02039007,-0.02543894,-0.00245935,0.00038367,-0.00490175,0.00405692,
 0.00112149,0.00091241,-0.00169009,0.00416269,0.00357223,-0.00164761,0.
 00098832,-0.00290215,-0.00723595,-0.00266107,0.00800503,0.00017320,0.0
 0141715,-0.00859486,0.00277253,-0.00270588,-0.00333320,-0.00009055,-0.
 00024387,0.00054365,-0.00455062,0.00627566,0.00917212,0.00556047,-0.00
 031345,0.00063033,-0.00106886,0.00298115,-0.00736465,0.00237270,0.0028
 5198,0.00463511,-0.00069612,0.00055089,0.00071811,0.00071275,-0.002111
 10,-0.00500412,0.00613248,0.00465947,-0.00006943,0.00033923,-0.0007408
 3,0.00027911,0.00001273,-0.00126259,0.00040248,0.00498958,-0.00438769,
 0.00811194,-0.00309358,-0.00038821,-0.00054627,0.00066004,0.00042350,-
 0.00053923,-0.00045514,0.00058257,-0.00878314,0.00316045,-0.00054977,0
 .00224643,-0.00024464,-0.00071692,-0.00026531,0.00058150,0.00018057,0.
 00006063,0.00245360,0.00190224,-0.00264091,0.04779469,0.01867717,0.012
 78119,-0.00464719,-0.00222235,0.00421858,-0.00125896,-0.00635241,-0.00
 443482,-0.00914954,0.00109416,-0.00433118,0.37225313,0.03212570,-0.012
 07086,0.00475878,-0.00101994,0.00002059,0.00072808,-0.00212889,-0.0004
 6493,-0.00037221,-0.00078584,0.00422399,-0.00087502,-2.52581688,3.4542
 3598,0.00960980,0.00103640,-0.02157155,0.00154471,0.00002969,0.0029804
 7,-0.00309682,-0.00153572,-0.00038132,-0.00290601,-0.00027267,0.001583
 99,0.90843693,-1.61581512,-0.45611430,-0.03418612,-0.01177770,-0.00720
 930,0.00243084,-0.00013293,0.00039951,0.00241290,0.00211200,0.00200648
 ,-0.00019127,0.00406763,-0.00127644,-0.40049705,2.50548118,-0.91435822
 ,0.45118825,0.01315356,0.04760199,-0.00462773,-0.00400272,-0.00506103,
 0.00585126,0.00157630,-0.01038442,-0.00389472,-0.01222302,-0.00512785,
 -0.00244517,2.49171106,-3.46598385,1.61678755,-2.47877521,3.41159782,-
 0.01090644,-0.00941746,0.00742931,-0.00081223,0.00108947,-0.00245831,0
 .00338662,0.00251610,0.00168386,0.00173013,0.00217973,0.00014426,-0.91
 146840,1.61607851,0.47296721,0.91782984,-1.59581974,-0.44812487,0.0009
 2290,0.00512034,-0.00222106,0.00028631,-0.00086523,0.00095665,0.000197
 31,-0.00052107,0.00029479,-0.00076839,-0.00082179,0.00016286,0.0006620
 4,-0.00708394,0.00177533,-0.02319179,-0.00446240,-0.00301827,0.0193393
 8,-0.02786319,-0.02803964,-0.00108707,0.00308646,0.00387445,-0.0043310
 3,0.00036007,0.00799807,0.00313317,0.00873374,0.00248811,0.00220930,0.
 02144231,0.01807342,0.00014323,-0.00686333,0.02011939,-0.01814357,-0.0
 0754978,-0.00566159,0.00518341,0.00625230,0.00196608,-0.00089552,-0.00
 077328,0.00035904,0.00021392,-0.00161569,-0.00081862,-0.00174013,-0.00
 052970,-0.00083166,-0.00460017,-0.00429675,0.00132688,-0.00113506,-0.0
 1491587,-0.03606869,0.00856918,0.01991050,0.04491675,0.00382093,0.0038
 3716,0.00154460,-0.00047535,-0.00057223,0.00026322,0.00046781,-0.00243
 789,-0.00059075,-0.00095678,-0.00041622,-0.00042819,-0.00366921,0.0001
 7193,-0.00083046,0.00313525,-0.00497670,0.00650247,-0.00287958,0.00275
 589,-0.01186868,-0.00026671,-0.00110003,-0.00065858,0.00045490,0.00013
 067,0.00010772,-0.00033144,-0.00005314,0.00010280,-0.00007874,0.000369
 53,-0.00001562,0.00000358,0.00016675,0.00054323,-0.00045540,-0.0087377
 0,0.00090424,-0.00728298,0.00967632,-0.00662254,0.01017265,-0.00030065
 ,0.00368234,0.00341711,0.00347045,0.00177779,-0.00047994,-0.00028814,-
 0.00007284,0.00052621,-0.00213148,-0.00099293,-0.00097407,-0.00033615,
 -0.00046062,-0.00318358,-0.00026614,-0.00113155,0.00529786,-0.00712369
 ,0.00416990,-0.00998684,0.00212127,-0.00452657,0.00557943,0.00138646,0
 .00115403,0.00153885,0.00145819,0.00005407,-0.00021012,-0.00037358,0.0
 0040204,0.00003683,-0.00048141,-0.00006751,-0.00040804,-0.00015395,-0.
 00007798,-0.00148793,-0.00094332,-0.00017527,-0.00110101,-0.00200089,-
 0.00324371,0.00543184,0.00589783,0.00627305,0.00082364,-0.00015176,-0.
 00019617,-0.00462406,-0.00197647,-0.00224989,-0.00070177,0.00039737,0.
 00030414,-0.00026412,-0.00020924,0.00084990,0.00037589,0.00066697,0.00
 018806,0.00029119,0.00130019,0.00142243,0.00008204,-0.00537395,0.00633
 370,0.00879995,0.00650754,-0.01222966,-0.01420416,0.00193871,0.0019564
 1,0.00316740,-0.00325111,0.00342493,-0.00314177,-0.00136646,0.00041392
 ,0.00049813,0.00033875,-0.00067132,0.00046536,0.00020571,0.00009928,0.
 00082432,-0.00005475,0.00016318,0.00258144,0.00005987,0.00034015,-0.00
 155467,0.00618813,0.00025734,0.00346734,-0.00395579,-0.00632319,-0.000
 17164,-0.00386904,0.00008280,-0.00296851,0.00245359,0.00563784,-0.0011
 2674,0.00044903,-0.00193588,-0.00087897,-0.00137032,-0.00255231,0.0002
 9031,0.00006364,-0.00009347,-0.00016779,-0.00003140,0.00012292,0.00010
 868,0.00000286,0.00001979,0.00008610,0.00023860,0.00026371,0.00019332,
 -0.00001264,0.00008289,0.00044616,-0.00034984,-0.00051913,-0.00005191,
 0.00000423,0.00011260,-0.00058253,0.00069212,0.00178518,0.00203837,-0.
 00001973,-0.00020188,-0.00041981,0.00036803,-0.00227375,0.00047627,0.0
 0070481,0.00135150,-0.00002664,-0.00001830,-0.00025387,0.00026602,-0.0
 0117000,-0.00081184,0.00037752,-0.00011975,-0.00001435,-0.00008401,0.0
 0005677,-0.00000514,-0.00013552,-0.00001105,0.00003356,-0.00031097,0.0
 0011627,0.00034133,0.00073268,-0.00001804,0.00001364,-0.00008116,-0.00
 008254,-0.00040247,-0.00044508,0.00008833,-0.00015544,0.00020097,0.000
 30904,0.00031862,0.00004054,-0.00004080,-0.00006109,0.00000405,-0.0002
 8623,-0.00020031,-0.00007740,-0.00018730,-0.00001020,-0.00015509,-0.00
 022255,0.00081579,-0.00011373,0.00003830,-0.00029233,0.00013167,-0.000
 57792,-0.00029800,0.00015916,-0.00003483,-0.00005341,0.00123252,-0.000
 17540,0.00038785,-0.00017902,-0.00003872,-0.00007741,0.00002980,-0.000
 12618,0.00001858,0.00005392,-0.00006058,-0.00003068,-0.00004642,-0.002
 83560,0.00326736,0.00004950,0.00006751,0.00081740,-0.00005149,-0.00003
 022,-0.00009886,0.00014443,-0.00025768,-0.00016924,0.00016813,-0.00010
 518,-0.00004203,0.00106860,-0.00162057,-0.00092832,0.00029568,0.000356
 69,-0.00043515,-0.00005559,-0.00007174,0.00019900,-0.00001395,0.000216
 08,0.00011213,-0.00009760,-0.00003316,0.00006750,-0.00160604,0.0036885
 8,-0.00141424,0.00140558,-0.00042721,-0.00060291,0.00073197,0.00004430
 ,0.00018571,-0.00033646,0.00002836,-0.00033187,-0.00028978,0.00023153,
 -0.00000224,-0.00006288,0.00443592,-0.00478200,0.00230081,-0.00590524,
 0.00684604,0.00014127,0.00012562,-0.00038183,-0.00002192,-0.00005507,0
 .00016312,-0.00010480,0.00024477,0.00014201,-0.00010339,0.00001950,0.0
 0002278,-0.00153224,0.00221736,0.00064568,0.00171607,-0.00378688,-0.00
 211464,0.00067132,-0.00126719,0.00062425,-0.00010906,0.00022180,-0.000
 21219,-0.00065151,0.00062880,-0.00041286,-0.00000340,0.00023978,-0.000
 13743,0.00072951,-0.00016498,0.00009355,-0.00197012,0.00021589,-0.0005
 2463,0.38713785,-0.00046128,-0.00027733,-0.00085673,0.00007539,-0.0000
 3717,0.00028848,-0.00023149,0.00054127,0.00013178,-0.00000611,0.000018
 95,0.00007952,-0.00052145,0.00047170,-0.00012655,0.00193846,0.00018365
 ,0.00011797,1.83385359,0.67067731,0.00026168,0.00072700,0.00018428,0.0
 0003752,-0.00008616,-0.00010593,-0.00038090,0.00014664,-0.00005345,-0.
 00000323,-0.00019069,-0.00001898,-0.00009442,-0.00028135,0.00004859,-0
 .00031710,-0.00064820,-0.00085045,1.12138281,0.83318733,2.92669360,-0.
 00067503,0.00000850,0.00009349,0.00023619,-0.00007834,0.00009875,0.000
 69138,-0.00087727,-0.00018252,0.00010822,-0.00008924,0.00001643,0.0000
 2573,-0.00018492,-0.00002550,0.00095491,0.00153685,0.00047093,-0.76849
 674,-1.65758988,-1.64112219,0.73980166,-0.00068596,-0.00041791,-0.0015
 8501,-0.00004841,0.00000031,0.00036613,0.00040775,0.00104295,0.0011378
 5,-0.00008830,0.00033348,0.00028866,0.00021745,0.00053075,0.00015268,-
 0.00044240,-0.00021621,0.00016304,-1.66183989,-0.87786215,-1.68534846,
 1.66263621,0.84505749,-0.00158644,-0.00083982,-0.00057377,0.00021761,0
 .00006338,-0.00003875,0.00047371,-0.00009911,0.00027769,0.00020437,0.0
 0021556,0.00010623,0.00116117,-0.00037345,0.00014426,-0.00074988,0.002
 92145,0.00097901,-1.58088641,-1.62170037,-0.83391005,1.62987645,1.6641
 9496,0.89426297,-0.00012406,0.00108150,0.00040753,0.00005555,-0.000142
 49,-0.00018012,0.00016618,-0.00041903,0.00003205,-0.00001342,-0.000186
 57,-0.00006124,-0.00040376,-0.00010220,-0.00003299,0.00108713,-0.00016
 040,-0.00004129,0.38269217,-0.17705724,0.52023582,0.02735367,-0.000156
 45,-0.04871058,-0.41081345,0.00052388,0.00059685,0.00037940,-0.0000612
 8,-0.00002593,-0.00007293,-0.00001831,-0.00017803,-0.00010520,-0.00009
 085,-0.00011659,-0.00005360,-0.00049933,0.00021382,-0.00038079,0.00025
 272,-0.00128016,0.00095369,-0.17188780,0.20628378,0.85249388,-0.005361
 90,0.03153129,-0.04438261,0.17714287,-0.23702503,0.00124960,0.00003758
 ,0.00057246,-0.00029547,0.00007113,0.00004877,0.00000402,-0.00019695,-
 0.00028251,-0.00020256,0.00004168,-0.00011501,-0.00077516,0.00019973,-
 0.00041751,0.00082167,-0.00083004,0.00139431,0.46007291,0.78887857,-2.
 09198759,0.01077418,0.02063014,-0.06124759,-0.47164919,-0.80883184,2.1
 5203467,-0.00086756,0.00015359,-0.00057889,-0.00066731,-0.00050591,-0.
 00102006,-0.00000583,-0.00013498,0.00001188,0.00003772,-0.00017498,0.0
 0001282,0.00012993,0.00016977,-0.00004195,0.00030989,0.00032228,0.0000
 4119,-0.00008207,-0.00016427,0.00012103,0.00029569,-0.00010803,-0.0004
 8530,-0.00004427,0.00002806,0.00002646,-0.00048653,0.00032691,0.000766
 59,0.00113222,0.00010079,-0.00001608,-0.00032578,0.00049278,-0.0014470
 7,-0.00003850,0.00025662,0.00079122,0.00000324,0.00000698,-0.00003788,
 0.00035306,-0.00047802,-0.00040584,-0.00021761,-0.00017613,-0.00011080
 ,0.00003929,0.00005451,-0.00003318,-0.00005851,0.00000355,0.00007608,0
 .00024553,0.00018570,0.00056000,0.00036171,-0.00006713,-0.00004052,-0.
 00005414,-0.00005826,-0.00025557,-0.00018477,0.00001236,-0.00044174,-0
 .00010586,0.00009401,0.00016164,0.00008159,-0.00004143,-0.00005298,0.0
 0008031,-0.00013296,-0.00012303,0.00014622,-0.00011158,0.00002315,0.00
 053870,0.00043089,0.00047893,-0.00008549,-0.00004808,-0.00006657,0.000
 16210,-0.00037620,-0.00008675,-0.00001192,-0.00005906,-0.00007156,-0.0
 0064872,0.00020303,-0.00018787,0.00018176,-0.00007501,0.00000682,-0.00
 003730,-0.00008853,0.00001306,-0.00006743,0.00020471,-0.00007739,0.000
 05398,-0.00012417,0.00018170,0.00012102,0.00022745,0.00008185,0.000026
 83,0.00003059,-0.00009102,0.00011259,-0.00025418,-0.00011555,-0.000034
 59,-0.00004611,-0.00001584,-0.00020641,-0.00016022,0.00017590,-0.00055
 725,-0.00022091,-0.00024005,0.00005600,0.00002866,-0.00000089,-0.00003
 988,0.00025213,0.00003817,0.00005886,0.00007313,0.00003722,0.00052592,
 -0.00054809,0.00026886,-0.00005366,0.00050064,0.00065594,0.00031647,-0
 .00009686,-0.00005684,0.00004021,0.00009456,-0.00055925,-0.00021674,-0
 .00019059,-0.00006107,-0.00009440,-0.00075844,0.00020525,-0.00023837,0
 .00143687,-0.00208108,-0.00008316,-0.00020116,-0.00014976,0.00001728,0
 .00000576,-0.00000818,-0.00005173,0.00020628,0.00010701,0.00000591,0.0
 0004948,0.00003137,0.00016482,0.00008273,-0.00015188,-0.00037055,0.000
 32959,0.00016858,0.00246010,-0.00065697,0.00145815,-0.00035359,0.00014
 634,-0.00034007,-0.00053843,0.00013673,-0.00051120,-0.00022569,0.00016
 820,-0.00028269,-0.00048303,-0.00004350,-0.00052245,-0.00180558,-0.002
 71505,0.00111091,-0.21778505,0.00003015,0.00017584,-0.00056731,0.00010
 002,-0.00009780,0.00017857,-0.00030235,0.00029236,0.00013880,0.0000884
 4,-0.00017238,0.00007091,-0.00055042,0.00064955,0.00002996,0.00029957,
 -0.00071552,-0.00043557,1.43187403,0.21019135,-0.00040055,0.00000693,-
 0.00079899,0.00015299,-0.00008175,0.00017271,-0.00035834,0.00043185,0.
 00026091,-0.00001883,-0.00000584,0.00006864,0.00015005,0.00010651,0.00
 077096,-0.00000059,0.00029107,-0.00265829,0.03842531,-0.52157558,3.997
 57369,-0.00082295,0.00128665,0.00139521,0.00020401,-0.00010505,-0.0003
 5387,0.00112687,-0.00174779,-0.00041220,0.00014423,-0.00039284,-0.0001
 4074,-0.00017522,-0.00002935,-0.00040072,0.00097603,0.00107039,0.00059
 904,-0.48747993,-1.08182300,-0.99009345,0.48691609,-0.00081987,-0.0005
 6157,-0.00036053,0.00004984,0.00010301,-0.00009939,0.00006005,0.000622
 23,0.00016878,0.00001593,0.00022311,0.00008277,0.00057328,-0.00010721,
 0.00024108,-0.00043794,0.00122653,-0.00012608,-1.08120660,-0.57429281,
 -1.02502596,1.08028694,0.57403789,0.00018226,-0.00029919,0.00030245,-0
 .00003066,0.00003746,-0.00010267,0.00014579,-0.00044244,-0.00028206,0.
 00000614,0.00004789,-0.00002895,-0.00005853,0.00021776,-0.00028293,-0.
 00006278,-0.00030176,0.00079816,-0.98849164,-1.02324340,-0.42270031,0.
 99147404,1.02919741,0.41221973,-0.00082307,-0.00057415,-0.00184073,0.0
 0015214,-0.00009923,0.00054031,-0.00041706,0.00081111,0.00057810,0.000
 02581,0.00013790,0.00025552,0.00017763,0.00050092,0.00063486,0.0008395
 6,0.00065847,-0.00139252,0.70621123,-0.34971645,0.95214340,-0.00088913
 ,0.00147838,-0.00316460,-0.70527712,-0.00040522,-0.00084267,-0.0006883
 0,-0.00004644,0.00013053,0.00013983,-0.00011827,0.00058371,0.00037578,
 -0.00001277,0.00026556,0.00007869,0.00091218,-0.00068394,0.00016981,-0
 .00088341,0.00138603,0.00008898,-0.34770318,0.36396944,1.54585277,0.00
 145405,-0.00125117,-0.00521374,0.34680305,-0.36355749,0.00068218,0.000
 09899,0.00059082,-0.00018107,0.00007674,-0.00004218,0.00017717,-0.0001
 3697,-0.00019478,-0.00003694,-0.00005664,-0.00006397,-0.00030398,-0.00
 037777,-0.00037152,0.00033062,-0.00012607,0.00186300,0.94915368,1.5454
 0361,-3.57268928,-0.00206732,-0.00407807,0.01007659,-0.94775434,-1.540
 80383,3.56083133\\@


 POCKETA-POCKETA
 BARON VON RICHTOFEN
 SLAUGHTERED THE ALLIES WITH
 HARDLY A CARE.
 KILLED EIGHTY-ONE WITH HIS
 BLOOD-COLORED TRIPLANE, THEN
 UN-AEROBATICALLY
 PLUNGED FROM THE AIR.
   -- TONY HOFFMAN
 Job cpu time:       3 days  3 hours 47 minutes 44.9 seconds.
 Elapsed time:       0 days  2 hours 45 minutes 27.7 seconds.
 File lengths (MBytes):  RWF=   5672 Int=      0 D2E=      0 Chk=     48 Scr=      8
 Normal termination of Gaussian 16 at Tue Sep  8 14:29:05 2020.
