 Entering Gaussian System, Link 0=g16
 Input=hclo4_h2o_mp2_avtz_opt_anharm.gjf
 Output=hclo4_h2o_mp2_avtz_opt_anharm.log
 Initial command:
 /sw/contrib/gaussian/g16/A03/g16/l1.exe "/gscratch/scrubbed/gds001/Gau-391.inp" -scrdir="/gscratch/scrubbed/gds001/"
 Entering Link 1 = /sw/contrib/gaussian/g16/A03/g16/l1.exe PID=       392.
  
 Copyright (c) 1988,1990,1992,1993,1995,1998,2003,2009,2016,
            Gaussian, Inc.  All Rights Reserved.
  
 This is part of the Gaussian(R) 16 program.  It is based on
 the Gaussian(R) 09 system (copyright 2009, Gaussian, Inc.),
 the Gaussian(R) 03 system (copyright 2003, Gaussian, Inc.),
 the Gaussian(R) 98 system (copyright 1998, Gaussian, Inc.),
 the Gaussian(R) 94 system (copyright 1995, Gaussian, Inc.),
 the Gaussian 92(TM) system (copyright 1992, Gaussian, Inc.),
 the Gaussian 90(TM) system (copyright 1990, Gaussian, Inc.),
 the Gaussian 88(TM) system (copyright 1988, Gaussian, Inc.),
 the Gaussian 86(TM) system (copyright 1986, Carnegie Mellon
 University), and the Gaussian 82(TM) system (copyright 1983,
 Carnegie Mellon University). Gaussian is a federally registered
 trademark of Gaussian, Inc.
  
 This software contains proprietary and confidential information,
 including trade secrets, belonging to Gaussian, Inc.
  
 This software is provided under written license and may be
 used, copied, transmitted, or stored only in accord with that
 written license.
  
 The following legend is applicable only to US Government
 contracts under FAR:
  
                    RESTRICTED RIGHTS LEGEND
  
 Use, reproduction and disclosure by the US Government is
 subject to restrictions as set forth in subparagraphs (a)
 and (c) of the Commercial Computer Software - Restricted
 Rights clause in FAR 52.227-19.
  
 Gaussian, Inc.
 340 Quinnipiac St., Bldg. 40, Wallingford CT 06492
  
  
 ---------------------------------------------------------------
 Warning -- This program may not be used in any manner that
 competes with the business of Gaussian, Inc. or will provide
 assistance to any competitor of Gaussian, Inc.  The licensee
 of this program is prohibited from giving any competitor of
 Gaussian, Inc. access to this program.  By using this program,
 the user acknowledges that Gaussian, Inc. is engaged in the
 business of creating and licensing software in the field of
 computational chemistry and represents and warrants to the
 licensee that it is not a competitor of Gaussian, Inc. and that
 it will not use this program in any manner prohibited above.
 ---------------------------------------------------------------
  

 Cite this work as:
 Gaussian 16, Revision A.03,
 M. J. Frisch, G. W. Trucks, H. B. Schlegel, G. E. Scuseria, 
 M. A. Robb, J. R. Cheeseman, G. Scalmani, V. Barone, 
 G. A. Petersson, H. Nakatsuji, X. Li, M. Caricato, A. V. Marenich, 
 J. Bloino, B. G. Janesko, R. Gomperts, B. Mennucci, H. P. Hratchian, 
 J. V. Ortiz, A. F. Izmaylov, J. L. Sonnenberg, D. Williams-Young, 
 F. Ding, F. Lipparini, F. Egidi, J. Goings, B. Peng, A. Petrone, 
 T. Henderson, D. Ranasinghe, V. G. Zakrzewski, J. Gao, N. Rega, 
 G. Zheng, W. Liang, M. Hada, M. Ehara, K. Toyota, R. Fukuda, 
 J. Hasegawa, M. Ishida, T. Nakajima, Y. Honda, O. Kitao, H. Nakai, 
 T. Vreven, K. Throssell, J. A. Montgomery, Jr., J. E. Peralta, 
 F. Ogliaro, M. J. Bearpark, J. J. Heyd, E. N. Brothers, K. N. Kudin, 
 V. N. Staroverov, T. A. Keith, R. Kobayashi, J. Normand, 
 K. Raghavachari, A. P. Rendell, J. C. Burant, S. S. Iyengar, 
 J. Tomasi, M. Cossi, J. M. Millam, M. Klene, C. Adamo, R. Cammi, 
 J. W. Ochterski, R. L. Martin, K. Morokuma, O. Farkas, 
 J. B. Foresman, and D. J. Fox, Gaussian, Inc., Wallingford CT, 2016.
 
 ******************************************
 Gaussian 16:  ES64L-G16RevA.03 25-Dec-2016
                25-Jun-2021 
 ******************************************
 %nprocshared=28
 Will use up to   28 processors via shared memory.
 %mem=41GB
 %chk=hclo4_h2o_mp2_avtz_opt_anharm.chk
 ----------------------------------------------
 # mp2/aug-cc-pVTZ opt freq=(vibrot,anharmonic)
 ----------------------------------------------
 1/18=20,19=15,38=1,80=1/1,3;
 2/9=110,12=2,17=6,18=5,40=1/2;
 3/5=16,6=1,7=10,11=9,25=1,30=1,71=1/1,2,3;
 4//1;
 5/5=2,38=5/2;
 8/6=4,10=1/1;
 9/15=2,16=-3/6;
 10/5=1/2;
 6/7=2,8=2,9=2,10=2/1;
 7/12=2/1,2,3,16;
 1/18=20,19=15,80=1/3(2);
 2/9=110/2;
 99//99;
 2/9=110/2;
 3/5=16,6=1,7=10,11=9,25=1,30=1,71=1/1,2,3;
 4/5=5,16=3,69=1/1;
 5/5=2,38=5/2;
 8/6=4,10=1/1;
 9/15=2,16=-3/6;
 10/5=1/2;
 7/12=2/1,2,3,16;
 1/18=20,19=15,80=1/3(-8);
 2/9=110/2;
 6/7=2,8=2,9=2,10=2/1;
 99//99;
 -------------
 ClO4H --- OH2
 -------------
 Symbolic Z-matrix:
 Charge =  0 Multiplicity = 1
 Cl                    0.62075  -0.08988   0.00273 
 O                     0.38017  -0.72817   1.3074 
 O                     0.08602  -0.87985  -1.12611 
 O                     1.97524   0.41818  -0.19346 
 O                    -0.28712   1.32991   0.01515 
 H                    -1.22565   0.968     0.03937 
 O                    -2.65106   0.05807  -0.04232 
 H                    -2.40384  -0.71534  -0.57262 
 H                    -2.94931  -0.30979   0.80156 
 
 Add virtual bond connecting atoms O7         and H6         Dist= 3.20D+00.

 GradGradGradGradGradGradGradGradGradGradGradGradGradGradGradGradGradGrad
 Berny optimization.
 Initialization pass.
                           ----------------------------
                           !    Initial Parameters    !
                           ! (Angstroms and Degrees)  !
 --------------------------                            --------------------------
 ! Name  Definition              Value          Derivative Info.                !
 --------------------------------------------------------------------------------
 ! R1    R(1,2)                  1.4722         estimate D2E/DX2                !
 ! R2    R(1,3)                  1.4779         estimate D2E/DX2                !
 ! R3    R(1,4)                  1.4599         estimate D2E/DX2                !
 ! R4    R(1,5)                  1.6853         estimate D2E/DX2                !
 ! R5    R(5,6)                  1.0062         estimate D2E/DX2                !
 ! R6    R(6,7)                  1.693          estimate D2E/DX2                !
 ! R7    R(7,8)                  0.9698         estimate D2E/DX2                !
 ! R8    R(7,9)                  0.9677         estimate D2E/DX2                !
 ! A1    A(2,1,3)              112.7061         estimate D2E/DX2                !
 ! A2    A(2,1,4)              114.9352         estimate D2E/DX2                !
 ! A3    A(2,1,5)              105.7051         estimate D2E/DX2                !
 ! A4    A(3,1,4)              114.7758         estimate D2E/DX2                !
 ! A5    A(3,1,5)              105.131          estimate D2E/DX2                !
 ! A6    A(4,1,5)              101.9823         estimate D2E/DX2                !
 ! A7    A(1,5,6)              101.5156         estimate D2E/DX2                !
 ! A8    A(6,7,8)              103.9093         estimate D2E/DX2                !
 ! A9    A(6,7,9)              114.9435         estimate D2E/DX2                !
 ! A10   A(8,7,9)              104.6113         estimate D2E/DX2                !
 ! A11   L(5,6,7,2,-1)         172.061          estimate D2E/DX2                !
 ! A12   L(5,6,7,2,-2)         189.5776         estimate D2E/DX2                !
 ! D1    D(2,1,5,6)            -65.9951         estimate D2E/DX2                !
 ! D2    D(3,1,5,6)             53.438          estimate D2E/DX2                !
 ! D3    D(4,1,5,6)            173.5158         estimate D2E/DX2                !
 ! D4    D(1,5,7,8)            -32.9174         estimate D2E/DX2                !
 ! D5    D(1,5,7,9)             78.4311         estimate D2E/DX2                !
 ! D6    D(6,7,8,9)            120.9001         estimate D2E/DX2                !
 --------------------------------------------------------------------------------
 Trust Radius=3.00D-01 FncErr=1.00D-07 GrdErr=1.00D-07 EigMax=2.50D+02 EigMin=1.00D-04
 Number of steps in this run=     36 maximum allowed number of steps=    100.
 GradGradGradGradGradGradGradGradGradGradGradGradGradGradGradGradGradGrad

                          Input orientation:                          
 ---------------------------------------------------------------------
 Center     Atomic      Atomic             Coordinates (Angstroms)
 Number     Number       Type             X           Y           Z
 ---------------------------------------------------------------------
      1         17           0        0.620752   -0.089883    0.002729
      2          8           0        0.380166   -0.728166    1.307398
      3          8           0        0.086019   -0.879852   -1.126107
      4          8           0        1.975240    0.418181   -0.193459
      5          8           0       -0.287116    1.329910    0.015150
      6          1           0       -1.225653    0.967995    0.039373
      7          8           0       -2.651056    0.058071   -0.042320
      8          1           0       -2.403843   -0.715341   -0.572622
      9          1           0       -2.949312   -0.309790    0.801555
 ---------------------------------------------------------------------
                    Distance matrix (angstroms):
                    1          2          3          4          5
     1  Cl   0.000000
     2  O    1.472226   0.000000
     3  O    1.477925   2.455907   0.000000
     4  O    1.459882   2.472032   2.474647   0.000000
     5  O    1.685287   2.520089   2.514905   2.448065   0.000000
     6  H    2.128300   2.657725   2.548208   3.256105   1.006191
     7  O    3.275461   3.410017   3.089640   4.642751   2.684975
     8  H    3.141719   3.359367   2.555939   4.539274   3.001510
     9  H    3.664947   3.393573   3.640616   5.076535   3.224025
                    6          7          8          9
     6  H    0.000000
     7  O    1.693047   0.000000
     8  H    2.143896   0.969794   0.000000
     9  H    2.276984   0.967679   1.533092   0.000000
 Stoichiometry    ClH3O5
 Framework group  C1[X(ClH3O5)]
 Deg. of freedom    21
 Full point group                 C1      NOp   1
 Largest Abelian subgroup         C1      NOp   1
 Largest concise Abelian subgroup C1      NOp   1
                         Standard orientation:                         
 ---------------------------------------------------------------------
 Center     Atomic      Atomic             Coordinates (Angstroms)
 Number     Number       Type             X           Y           Z
 ---------------------------------------------------------------------
      1         17           0        0.620752   -0.089883    0.002729
      2          8           0        0.380166   -0.728166    1.307398
      3          8           0        0.086019   -0.879852   -1.126107
      4          8           0        1.975240    0.418181   -0.193459
      5          8           0       -0.287116    1.329910    0.015150
      6          1           0       -1.225653    0.967995    0.039373
      7          8           0       -2.651056    0.058071   -0.042320
      8          1           0       -2.403843   -0.715341   -0.572622
      9          1           0       -2.949312   -0.309790    0.801555
 ---------------------------------------------------------------------
 Rotational constants (GHZ):           4.9039560           1.9667943           1.9320752
 Standard basis: Aug-CC-pVTZ (5D, 7F)
 There are   409 symmetry adapted cartesian basis functions of A   symmetry.
 There are   349 symmetry adapted basis functions of A   symmetry.
   349 basis functions,   555 primitive gaussians,   409 cartesian basis functions
    30 alpha electrons       30 beta electrons
       nuclear repulsion energy       374.4581790396 Hartrees.
 NAtoms=    9 NActive=    9 NUniq=    9 SFac= 1.00D+00 NAtFMM=   60 NAOKFM=F Big=F
 Integral buffers will be    131072 words long.
 Raffenetti 1 integral format.
 Two-electron integral symmetry is turned on.
 One-electron integrals computed using PRISM.
 NBasis=   349 RedAO= T EigKep=  5.89D-05  NBF=   349
 NBsUse=   349 1.00D-06 EigRej= -1.00D+00 NBFU=   349
 ExpMin= 2.53D-02 ExpMax= 4.56D+05 ExpMxC= 1.44D+03 IAcc=3 IRadAn=         5 AccDes= 0.00D+00
 Harris functional with IExCor=  205 and IRadAn=       5 diagonalized for initial guess.
 HarFok:  IExCor=  205 AccDes= 0.00D+00 IRadAn=         5 IDoV= 1 UseB2=F ITyADJ=14
 ICtDFT=  3500011 ScaDFX=  1.000000  1.000000  1.000000  1.000000
 FoFCou: FMM=F IPFlag=           0 FMFlag=      100000 FMFlg1=           0
         NFxFlg=           0 DoJE=T BraDBF=F KetDBF=T FulRan=T
         wScrn=  0.000000 ICntrl=       500 IOpCl=  0 I1Cent=   200000004 NGrid=           0
         NMat0=    1 NMatS0=      1 NMatT0=    0 NMatD0=    1 NMtDS0=    0 NMtDT0=    0
 Petite list used in FoFCou.
 Keep R1 ints in memory in canonical form, NReq=1899570285.
 Requested convergence on RMS density matrix=1.00D-08 within 128 cycles.
 Requested convergence on MAX density matrix=1.00D-06.
 Requested convergence on             energy=1.00D-06.
 No special actions if energy rises.
 SCF Done:  E(RHF) =  -835.342045990     A.U. after   14 cycles
            NFock= 14  Conv=0.37D-08     -V/T= 2.0017
 ExpMin= 2.53D-02 ExpMax= 4.56D+05 ExpMxC= 1.44D+03 IAcc=3 IRadAn=         5 AccDes= 0.00D+00
 HarFok:  IExCor=  205 AccDes= 0.00D+00 IRadAn=         5 IDoV=-2 UseB2=F ITyADJ=14
 ICtDFT= 12500011 ScaDFX=  1.000000  1.000000  1.000000  1.000000
 Range of M.O.s used for correlation:    11   349
 NBasis=   349 NAE=    30 NBE=    30 NFC=    10 NFV=     0
 NROrb=    339 NOA=    20 NOB=    20 NVA=   319 NVB=   319

 **** Warning!!: The largest alpha MO coefficient is  0.42865539D+02

 Disk-based method using ON**2 memory for 20 occupieds at a time.
 Estimated scratch disk usage=  2506648986 words.
 Actual    scratch disk usage=  2360896922 words.
 JobTyp=1 Pass  1:  I=  11 to  30 NPSUse= 28 ParTrn=T ParDer=T DoDerP=T.
 (rs|ai) integrals will be sorted in core.
 Spin components of T(2) and E(2):
     alpha-alpha T2 =       0.5706091162D-01 E2=     -0.2012110036D+00
     alpha-beta  T2 =       0.2845728885D+00 E2=     -0.1104348936D+01
     beta-beta   T2 =       0.5706091162D-01 E2=     -0.2012110036D+00
 ANorm=    0.1182664243D+01
 E2 =    -0.1506770943D+01 EUMP2 =    -0.83684881693251D+03
          IDoAtm=111111111
          Differentiating once with respect to electric field.
                with respect to dipole field.
          Differentiating once with respect to nuclear coordinates.
 Keep R1 ints in memory in canonical form, NReq=1899572210.
          There are     1 degrees of freedom in the 1st order CPHF.  IDoFFX=0 NUNeed=     1.
 LinEq1:  Iter=  0 NonCon=     1 RMS=4.41D-03 Max=1.13D-01 NDo=     1
 AX will form     1 AO Fock derivatives at one time.
 LinEq1:  Iter=  1 NonCon=     1 RMS=1.27D-03 Max=2.36D-02 NDo=     1
 LinEq1:  Iter=  2 NonCon=     1 RMS=5.47D-04 Max=1.39D-02 NDo=     1
 LinEq1:  Iter=  3 NonCon=     1 RMS=1.68D-04 Max=1.79D-03 NDo=     1
 LinEq1:  Iter=  4 NonCon=     1 RMS=4.83D-05 Max=8.19D-04 NDo=     1
 LinEq1:  Iter=  5 NonCon=     1 RMS=9.25D-06 Max=1.39D-04 NDo=     1
 LinEq1:  Iter=  6 NonCon=     1 RMS=4.70D-06 Max=1.04D-04 NDo=     1
 LinEq1:  Iter=  7 NonCon=     1 RMS=1.53D-06 Max=2.02D-05 NDo=     1
 LinEq1:  Iter=  8 NonCon=     1 RMS=3.83D-07 Max=5.01D-06 NDo=     1
 LinEq1:  Iter=  9 NonCon=     1 RMS=1.35D-07 Max=2.25D-06 NDo=     1
 LinEq1:  Iter= 10 NonCon=     1 RMS=6.26D-08 Max=9.85D-07 NDo=     1
 LinEq1:  Iter= 11 NonCon=     1 RMS=2.03D-08 Max=2.57D-07 NDo=     1
 LinEq1:  Iter= 12 NonCon=     1 RMS=6.44D-09 Max=1.07D-07 NDo=     1
 LinEq1:  Iter= 13 NonCon=     1 RMS=2.63D-09 Max=4.45D-08 NDo=     1
 LinEq1:  Iter= 14 NonCon=     1 RMS=8.13D-10 Max=1.47D-08 NDo=     1
 LinEq1:  Iter= 15 NonCon=     1 RMS=1.86D-10 Max=3.30D-09 NDo=     1
 LinEq1:  Iter= 16 NonCon=     1 RMS=5.65D-11 Max=1.33D-09 NDo=     1
 LinEq1:  Iter= 17 NonCon=     0 RMS=3.07D-11 Max=7.32D-10 NDo=     1
 Linear equations converged to 1.000D-10 1.000D-09 after    17 iterations.
 End of Minotr F.D. properties file   721 does not exist.
 End of Minotr F.D. properties file   722 does not exist.
 End of Minotr F.D. properties file   788 does not exist.

 **********************************************************************

            Population analysis using the SCF density.

 **********************************************************************

 Orbital symmetries:
       Occupied  (A) (A) (A) (A) (A) (A) (A) (A) (A) (A) (A) (A)
                 (A) (A) (A) (A) (A) (A) (A) (A) (A) (A) (A) (A)
                 (A) (A) (A) (A) (A) (A)
       Virtual   (A) (A) (A) (A) (A) (A) (A) (A) (A) (A) (A) (A)
                 (A) (A) (A) (A) (A) (A) (A) (A) (A) (A) (A) (A)
                 (A) (A) (A) (A) (A) (A) (A) (A) (A) (A) (A) (A)
                 (A) (A) (A) (A) (A) (A) (A) (A) (A) (A) (A) (A)
                 (A) (A) (A) (A) (A) (A) (A) (A) (A) (A) (A) (A)
                 (A) (A) (A) (A) (A) (A) (A) (A) (A) (A) (A) (A)
                 (A) (A) (A) (A) (A) (A) (A) (A) (A) (A) (A) (A)
                 (A) (A) (A) (A) (A) (A) (A) (A) (A) (A) (A) (A)
                 (A) (A) (A) (A) (A) (A) (A) (A) (A) (A) (A) (A)
                 (A) (A) (A) (A) (A) (A) (A) (A) (A) (A) (A) (A)
                 (A) (A) (A) (A) (A) (A) (A) (A) (A) (A) (A) (A)
                 (A) (A) (A) (A) (A) (A) (A) (A) (A) (A) (A) (A)
                 (A) (A) (A) (A) (A) (A) (A) (A) (A) (A) (A) (A)
                 (A) (A) (A) (A) (A) (A) (A) (A) (A) (A) (A) (A)
                 (A) (A) (A) (A) (A) (A) (A) (A) (A) (A) (A) (A)
                 (A) (A) (A) (A) (A) (A) (A) (A) (A) (A) (A) (A)
                 (A) (A) (A) (A) (A) (A) (A) (A) (A) (A) (A) (A)
                 (A) (A) (A) (A) (A) (A) (A) (A) (A) (A) (A) (A)
                 (A) (A) (A) (A) (A) (A) (A) (A) (A) (A) (A) (A)
                 (A) (A) (A) (A) (A) (A) (A) (A) (A) (A) (A) (A)
                 (A) (A) (A) (A) (A) (A) (A) (A) (A) (A) (A) (A)
                 (A) (A) (A) (A) (A) (A) (A) (A) (A) (A) (A) (A)
                 (A) (A) (A) (A) (A) (A) (A) (A) (A) (A) (A) (A)
                 (A) (A) (A) (A) (A) (A) (A) (A) (A) (A) (A) (A)
                 (A) (A) (A) (A) (A) (A) (A) (A) (A) (A) (A) (A)
                 (A) (A) (A) (A) (A) (A) (A) (A) (A) (A) (A) (A)
                 (A) (A) (A) (A) (A) (A) (A)
 The electronic state is 1-A.
 Alpha  occ. eigenvalues -- -105.29481 -20.67959 -20.64131 -20.64065 -20.64023
 Alpha  occ. eigenvalues --  -20.62746 -10.96104  -8.43181  -8.43073  -8.43069
 Alpha  occ. eigenvalues --   -1.66765  -1.43384  -1.42925  -1.42572  -1.40777
 Alpha  occ. eigenvalues --   -0.98572  -0.83764  -0.78915  -0.78306  -0.77081
 Alpha  occ. eigenvalues --   -0.71924  -0.64351  -0.62805  -0.60408  -0.58945
 Alpha  occ. eigenvalues --   -0.56736  -0.55420  -0.54662  -0.53580  -0.51739
 Alpha virt. eigenvalues --    0.01970   0.04430   0.05022   0.08382   0.10088
 Alpha virt. eigenvalues --    0.10303   0.10918   0.11776   0.13605   0.15216
 Alpha virt. eigenvalues --    0.15668   0.16774   0.17274   0.17937   0.18922
 Alpha virt. eigenvalues --    0.19566   0.20883   0.21361   0.23077   0.23243
 Alpha virt. eigenvalues --    0.23551   0.24485   0.24859   0.25176   0.26400
 Alpha virt. eigenvalues --    0.27395   0.28948   0.29341   0.30906   0.31450
 Alpha virt. eigenvalues --    0.33032   0.36036   0.36428   0.37306   0.37972
 Alpha virt. eigenvalues --    0.38584   0.39945   0.41139   0.42874   0.43399
 Alpha virt. eigenvalues --    0.45932   0.46069   0.50412   0.51357   0.53274
 Alpha virt. eigenvalues --    0.55453   0.56323   0.57149   0.59651   0.60861
 Alpha virt. eigenvalues --    0.61264   0.62505   0.64355   0.65129   0.67506
 Alpha virt. eigenvalues --    0.70508   0.72452   0.74711   0.76147   0.76886
 Alpha virt. eigenvalues --    0.79296   0.80267   0.80977   0.81320   0.82833
 Alpha virt. eigenvalues --    0.83212   0.84221   0.85642   0.86482   0.87901
 Alpha virt. eigenvalues --    0.91394   0.91960   0.92417   0.93944   0.94369
 Alpha virt. eigenvalues --    0.95917   0.96237   0.97070   0.98439   0.99717
 Alpha virt. eigenvalues --    1.01506   1.02198   1.02671   1.04410   1.04986
 Alpha virt. eigenvalues --    1.06076   1.07880   1.09591   1.10453   1.11661
 Alpha virt. eigenvalues --    1.14187   1.14846   1.17698   1.18546   1.19028
 Alpha virt. eigenvalues --    1.22580   1.23267   1.25393   1.26632   1.29291
 Alpha virt. eigenvalues --    1.31569   1.32766   1.33846   1.36600   1.37153
 Alpha virt. eigenvalues --    1.37796   1.41822   1.42854   1.44495   1.45898
 Alpha virt. eigenvalues --    1.48234   1.50842   1.53609   1.54394   1.56607
 Alpha virt. eigenvalues --    1.58516   1.59262   1.60637   1.63908   1.64389
 Alpha virt. eigenvalues --    1.66714   1.68667   1.74432   1.75776   1.79164
 Alpha virt. eigenvalues --    1.79963   1.81215   1.87074   1.97693   2.00183
 Alpha virt. eigenvalues --    2.05914   2.08064   2.09943   2.10647   2.12058
 Alpha virt. eigenvalues --    2.14975   2.16837   2.17675   2.18306   2.21013
 Alpha virt. eigenvalues --    2.22011   2.24464   2.26445   2.27113   2.28627
 Alpha virt. eigenvalues --    2.29003   2.30071   2.31311   2.32403   2.34666
 Alpha virt. eigenvalues --    2.36458   2.37236   2.39061   2.40159   2.42073
 Alpha virt. eigenvalues --    2.43064   2.45274   2.47853   2.48700   2.49253
 Alpha virt. eigenvalues --    2.50252   2.51744   2.53434   2.55937   2.58099
 Alpha virt. eigenvalues --    2.59246   2.63702   2.64819   2.66587   2.67310
 Alpha virt. eigenvalues --    2.67954   2.69990   2.72065   2.73946   2.76718
 Alpha virt. eigenvalues --    2.78744   2.79314   2.80748   2.82348   2.84348
 Alpha virt. eigenvalues --    2.85174   2.86236   2.87776   2.90597   2.95324
 Alpha virt. eigenvalues --    2.96024   2.96813   2.99160   3.02026   3.04381
 Alpha virt. eigenvalues --    3.12594   3.17592   3.19267   3.21189   3.24708
 Alpha virt. eigenvalues --    3.28542   3.35469   3.40220   3.42632   3.43960
 Alpha virt. eigenvalues --    3.48966   3.55725   3.59046   3.62139   3.65325
 Alpha virt. eigenvalues --    3.66353   3.68724   3.77617   3.79756   3.82230
 Alpha virt. eigenvalues --    3.84191   3.87112   3.91218   4.07540   4.10596
 Alpha virt. eigenvalues --    4.15815   4.22836   4.27500   4.33127   4.36515
 Alpha virt. eigenvalues --    4.41727   4.43450   4.45914   4.48599   4.54126
 Alpha virt. eigenvalues --    4.60948   4.62637   4.68023   4.71203   4.72289
 Alpha virt. eigenvalues --    4.74164   4.77391   4.82197   4.86897   4.91946
 Alpha virt. eigenvalues --    4.94373   4.98988   5.12768   5.16199   5.19916
 Alpha virt. eigenvalues --    5.27172   5.28394   5.34899   5.39570   5.60123
 Alpha virt. eigenvalues --    5.61888   5.81614   5.90887   5.91732   5.98233
 Alpha virt. eigenvalues --    6.26630   6.34040   6.51200   6.51430   6.54362
 Alpha virt. eigenvalues --    6.54668   6.55943   6.56434   6.57358   6.60160
 Alpha virt. eigenvalues --    6.65939   6.69254   6.72969   6.73279   6.73442
 Alpha virt. eigenvalues --    6.75148   6.77016   6.78792   6.79524   6.81537
 Alpha virt. eigenvalues --    6.82758   6.86417   6.88313   6.92537   6.95452
 Alpha virt. eigenvalues --    6.97509   7.03084   7.05052   7.07173   7.09084
 Alpha virt. eigenvalues --    7.09550   7.11676   7.13230   7.14673   7.19124
 Alpha virt. eigenvalues --    7.20362   7.21312   7.23360   7.26968   7.29007
 Alpha virt. eigenvalues --    7.30521   7.33078   7.34469   7.36914   7.38565
 Alpha virt. eigenvalues --    7.40822   7.42869   7.48018   7.50161   7.52649
 Alpha virt. eigenvalues --    7.57078   7.62032   7.65253   7.68164   7.70396
 Alpha virt. eigenvalues --    7.72041   7.73669   7.77216   7.90242   7.97668
 Alpha virt. eigenvalues --    8.01219   8.54781   8.85577  12.25893  13.03943
 Alpha virt. eigenvalues --   13.13630  13.59019  15.35516  16.53289
          Condensed to atoms (all electrons):
               1          2          3          4          5          6
     1  Cl  13.430788   0.266752   0.281549   0.296023   0.081073   0.061003
     2  O    0.266752   8.614147  -0.010214  -0.039823   0.002211  -0.008930
     3  O    0.281549  -0.010214   8.612934  -0.036164  -0.003425  -0.005846
     4  O    0.296023  -0.039823  -0.036164   8.587682  -0.019604  -0.013308
     5  O    0.081073   0.002211  -0.003425  -0.019604   8.369520   0.195911
     6  H    0.061003  -0.008930  -0.005846  -0.013308   0.195911   0.407798
     7  O    0.002618   0.001446  -0.000676  -0.001196  -0.063722  -0.005550
     8  H   -0.011662   0.005741  -0.003550   0.000568   0.008334   0.005150
     9  H   -0.006240   0.000306   0.000329   0.000045   0.002120   0.005419
               7          8          9
     1  Cl   0.002618  -0.011662  -0.006240
     2  O    0.001446   0.005741   0.000306
     3  O   -0.000676  -0.003550   0.000329
     4  O   -0.001196   0.000568   0.000045
     5  O   -0.063722   0.008334   0.002120
     6  H   -0.005550   0.005150   0.005419
     7  O    7.986606   0.243004   0.263932
     8  H    0.243004   0.464509   0.033607
     9  H    0.263932   0.033607   0.471560
 Mulliken charges:
               1
     1  Cl   2.598097
     2  O   -0.831636
     3  O   -0.834936
     4  O   -0.774222
     5  O   -0.572416
     6  H    0.358352
     7  O   -0.426462
     8  H    0.254300
     9  H    0.228923
 Sum of Mulliken charges =  -0.00000
 Mulliken charges with hydrogens summed into heavy atoms:
               1
     1  Cl   2.598097
     2  O   -0.831636
     3  O   -0.834936
     4  O   -0.774222
     5  O   -0.214063
     7  O    0.056761
 Electronic spatial extent (au):  <R**2>=            679.8445
 Charge=              0.0000 electrons
 Dipole moment (field-independent basis, Debye):
    X=             -3.7520    Y=             -0.8219    Z=              0.6440  Tot=              3.8946
 Quadrupole moment (field-independent basis, Debye-Ang):
   XX=            -38.1160   YY=            -42.4491   ZZ=            -43.0438
   XY=              2.6658   XZ=             -2.6757   YZ=              0.4949
 Traceless Quadrupole moment (field-independent basis, Debye-Ang):
   XX=              3.0870   YY=             -1.2461   ZZ=             -1.8409
   XY=              2.6658   XZ=             -2.6757   YZ=              0.4949
 Octapole moment (field-independent basis, Debye-Ang**2):
  XXX=            -22.6001  YYY=             -1.2309  ZZZ=              0.0972  XYY=             -5.3082
  XXY=            -12.9636  XXZ=             10.4246  XZZ=             -7.8763  YZZ=              1.8495
  YYZ=             -0.1169  XYZ=             -0.3769
 Hexadecapole moment (field-independent basis, Debye-Ang**3):
 XXXX=           -470.7184 YYYY=           -148.9949 ZZZZ=           -138.6375 XXXY=             30.5649
 XXXZ=            -33.9408 YYYX=              0.9773 YYYZ=              0.5570 ZZZX=             -4.3989
 ZZZY=              0.1589 XXYY=            -94.3001 XXZZ=            -87.1078 YYZZ=            -48.3481
 XXYZ=              1.8261 YYXZ=              0.6057 ZZXY=              4.5470
 N-N= 3.744581790396D+02 E-N=-2.729126103744D+03  KE= 8.339549290024D+02
 Calling FoFJK, ICntrl=  10002127 FMM=F ISym2X=0 I1Cent= 0 IOpClX= 0 NMat=1 NMatS=1 NMatT=0.
 ***** Axes restored to original set *****
 -------------------------------------------------------------------
 Center     Atomic                   Forces (Hartrees/Bohr)
 Number     Number              X              Y              Z
 -------------------------------------------------------------------
      1       17           0.005825098   -0.006372678   -0.000064172
      2        8           0.007150275    0.019092619   -0.038407476
      3        8           0.015470551    0.023133826    0.032684757
      4        8          -0.041629335   -0.015622806    0.006000283
      5        8           0.010323869   -0.020691046   -0.000040395
      6        1           0.002270000    0.000019401   -0.000186189
      7        8           0.000321662   -0.004602424    0.001533394
      8        1          -0.000908142    0.003304362    0.001852300
      9        1           0.001176022    0.001738747   -0.003372501
 -------------------------------------------------------------------
 Cartesian Forces:  Max     0.041629335 RMS     0.015414881

 GradGradGradGradGradGradGradGradGradGradGradGradGradGradGradGradGradGrad
 Berny optimization.
 FormGI is forming the generalized inverse of G from B-inverse, IUseBI=4.
 Internal  Forces:  Max     0.044867316 RMS     0.015653594
 Search for a local minimum.
 Step number   1 out of a maximum of   36
 All quantities printed in internal units (Hartrees-Bohrs-Radians)
 Mixed Optimization -- RFO/linear search
 Second derivative matrix not updated -- first step.
 ITU=  0
     Eigenvalues ---    0.00230   0.00230   0.00230   0.00829   0.05677
     Eigenvalues ---    0.07511   0.11824   0.16000   0.16000   0.16920
     Eigenvalues ---    0.17286   0.25000   0.25000   0.25000   0.37721
     Eigenvalues ---    0.46614   0.53419   0.53854   0.84478   0.86662
     Eigenvalues ---    0.91659
 RFO step:  Lambda=-8.10883147D-03 EMin= 2.30000000D-03
 Linear search not attempted -- first point.
 Iteration  1 RMS(Cart)=  0.02847953 RMS(Int)=  0.00012271
 Iteration  2 RMS(Cart)=  0.00020598 RMS(Int)=  0.00000036
 Iteration  3 RMS(Cart)=  0.00000002 RMS(Int)=  0.00000036
 Variable       Old X    -DE/DX   Delta X   Delta X   Delta X     New X
                                 (Linear)    (Quad)   (Total)
    R1        2.78210  -0.04349   0.00000  -0.04971  -0.04971   2.73239
    R2        2.79287  -0.04293   0.00000  -0.05033  -0.05033   2.74254
    R3        2.75878  -0.04487   0.00000  -0.04852  -0.04852   2.71026
    R4        3.18473  -0.02414   0.00000  -0.06266  -0.06266   3.12207
    R5        1.90143  -0.00284   0.00000  -0.00598  -0.00598   1.89544
    R6        3.19940  -0.00073   0.00000  -0.00881  -0.00881   3.19058
    R7        1.83265  -0.00388   0.00000  -0.00715  -0.00715   1.82549
    R8        1.82865  -0.00396   0.00000  -0.00725  -0.00725   1.82140
    A1        1.96709   0.00042   0.00000   0.00181   0.00181   1.96890
    A2        2.00600   0.00002   0.00000  -0.00002  -0.00002   2.00598
    A3        1.84490  -0.00033   0.00000  -0.00122  -0.00122   1.84368
    A4        2.00322   0.00005   0.00000   0.00011   0.00011   2.00333
    A5        1.83488  -0.00036   0.00000  -0.00135  -0.00135   1.83353
    A6        1.77993   0.00005   0.00000   0.00011   0.00011   1.78003
    A7        1.77178  -0.00102   0.00000  -0.00605  -0.00605   1.76573
    A8        1.81356  -0.00015   0.00000  -0.00036  -0.00036   1.81320
    A9        2.00614  -0.00006   0.00000  -0.00005  -0.00006   2.00609
   A10        1.82581   0.00032   0.00000   0.00302   0.00302   1.82883
   A11        3.00303   0.00015   0.00000   0.01711   0.01711   3.02014
   A12        3.30875   0.00007   0.00000   0.00564   0.00564   3.31439
    D1       -1.15183  -0.00019   0.00000  -0.00723  -0.00723  -1.15906
    D2        0.93267  -0.00004   0.00000  -0.00638  -0.00638   0.92629
    D3        3.02842  -0.00011   0.00000  -0.00675  -0.00675   3.02167
    D4       -0.57452  -0.00028   0.00000  -0.01081  -0.01081  -0.58532
    D5        1.36888   0.00011   0.00000  -0.00483  -0.00483   1.36405
    D6        2.11011   0.00001   0.00000   0.00112   0.00112   2.11123
         Item               Value     Threshold  Converged?
 Maximum Force            0.044867     0.000450     NO 
 RMS     Force            0.015654     0.000300     NO 
 Maximum Displacement     0.064063     0.001800     NO 
 RMS     Displacement     0.028440     0.001200     NO 
 Predicted change in Energy=-4.103714D-03
 GradGradGradGradGradGradGradGradGradGradGradGradGradGradGradGradGradGrad

                          Input orientation:                          
 ---------------------------------------------------------------------
 Center     Atomic      Atomic             Coordinates (Angstroms)
 Number     Number       Type             X           Y           Z
 ---------------------------------------------------------------------
      1         17           0        0.610615   -0.084561    0.005642
      2          8           0        0.384467   -0.702576    1.293118
      3          8           0        0.069886   -0.861760   -1.094275
      4          8           0        1.941339    0.407856   -0.203274
      5          8           0       -0.273392    1.311092    0.020243
      6          1           0       -1.208204    0.948670    0.049171
      7          8           0       -2.638634    0.056727   -0.045410
      8          1           0       -2.399425   -0.708721   -0.583966
      9          1           0       -2.941455   -0.315603    0.790449
 ---------------------------------------------------------------------
                    Distance matrix (angstroms):
                    1          2          3          4          5
     1  Cl   0.000000
     2  O    1.445918   0.000000
     3  O    1.451290   2.413285   0.000000
     4  O    1.434206   2.428188   2.430668   0.000000
     5  O    1.652129   2.471406   2.466024   2.402255   0.000000
     6  H    2.092264   2.609717   2.493720   3.205594   1.003025
     7  O    3.252720   3.392247   3.046279   4.596125   2.678080
     8  H    3.130104   3.357609   2.526130   4.498211   2.994115
     9  H    3.645066   3.385880   3.594252   5.035132   3.218371
                    6          7          8          9
     6  H    0.000000
     7  O    1.688383   0.000000
     8  H    2.137010   0.966008   0.000000
     9  H    2.269810   0.963842   1.528841   0.000000
 Stoichiometry    ClH3O5
 Framework group  C1[X(ClH3O5)]
 Deg. of freedom    21
 Full point group                 C1      NOp   1
 Largest Abelian subgroup         C1      NOp   1
 Largest concise Abelian subgroup C1      NOp   1
                         Standard orientation:                         
 ---------------------------------------------------------------------
 Center     Atomic      Atomic             Coordinates (Angstroms)
 Number     Number       Type             X           Y           Z
 ---------------------------------------------------------------------
      1         17           0        0.615364   -0.089231    0.002545
      2          8           0        0.390481   -0.703085    1.292231
      3          8           0        0.069916   -0.867921   -1.093982
      4          8           0        1.946968    0.398889   -0.210798
      5          8           0       -0.264709    1.308924    0.015362
      6          1           0       -1.200459    0.949200    0.047447
      7          8           0       -2.633588    0.061005   -0.041378
      8          1           0       -2.397767   -0.706579   -0.578384
      9          1           0       -2.935506   -0.308187    0.796198
 ---------------------------------------------------------------------
 Rotational constants (GHZ):           5.0894379           2.0092030           1.9762998
 Standard basis: Aug-CC-pVTZ (5D, 7F)
 There are   409 symmetry adapted cartesian basis functions of A   symmetry.
 There are   349 symmetry adapted basis functions of A   symmetry.
   349 basis functions,   555 primitive gaussians,   409 cartesian basis functions
    30 alpha electrons       30 beta electrons
       nuclear repulsion energy       380.2823390074 Hartrees.
 NAtoms=    9 NActive=    9 NUniq=    9 SFac= 1.00D+00 NAtFMM=   60 NAOKFM=F Big=F
 Integral buffers will be    131072 words long.
 Raffenetti 1 integral format.
 Two-electron integral symmetry is turned on.
 One-electron integrals computed using PRISM.
 NBasis=   349 RedAO= T EigKep=  5.32D-05  NBF=   349
 NBsUse=   349 1.00D-06 EigRej= -1.00D+00 NBFU=   349
 Initial guess from the checkpoint file:  "hclo4_h2o_mp2_avtz_opt_anharm.chk"
 B after Tr=    -0.000000    0.000000    0.000000
         Rot=    0.999990    0.003433   -0.002223    0.001665 Ang=   0.51 deg.
 ExpMin= 2.53D-02 ExpMax= 4.56D+05 ExpMxC= 1.44D+03 IAcc=3 IRadAn=         5 AccDes= 0.00D+00
 Harris functional with IExCor=  205 and IRadAn=       5 diagonalized for initial guess.
 HarFok:  IExCor=  205 AccDes= 0.00D+00 IRadAn=         5 IDoV= 1 UseB2=F ITyADJ=14
 ICtDFT=  3500011 ScaDFX=  1.000000  1.000000  1.000000  1.000000
 FoFCou: FMM=F IPFlag=           0 FMFlag=      100000 FMFlg1=           0
         NFxFlg=           0 DoJE=T BraDBF=F KetDBF=T FulRan=T
         wScrn=  0.000000 ICntrl=       500 IOpCl=  0 I1Cent=   200000004 NGrid=           0
         NMat0=    1 NMatS0=      1 NMatT0=    0 NMatD0=    1 NMtDS0=    0 NMtDT0=    0
 Petite list used in FoFCou.
 Keep R1 ints in memory in canonical form, NReq=1899570285.
 Requested convergence on RMS density matrix=1.00D-08 within 128 cycles.
 Requested convergence on MAX density matrix=1.00D-06.
 Requested convergence on             energy=1.00D-06.
 No special actions if energy rises.
 SCF Done:  E(RHF) =  -835.355733759     A.U. after   11 cycles
            NFock= 11  Conv=0.65D-08     -V/T= 2.0014
 ExpMin= 2.53D-02 ExpMax= 4.56D+05 ExpMxC= 1.44D+03 IAcc=3 IRadAn=         5 AccDes= 0.00D+00
 HarFok:  IExCor=  205 AccDes= 0.00D+00 IRadAn=         5 IDoV=-2 UseB2=F ITyADJ=14
 ICtDFT= 12500011 ScaDFX=  1.000000  1.000000  1.000000  1.000000
 Range of M.O.s used for correlation:    11   349
 NBasis=   349 NAE=    30 NBE=    30 NFC=    10 NFV=     0
 NROrb=    339 NOA=    20 NOB=    20 NVA=   319 NVB=   319

 **** Warning!!: The largest alpha MO coefficient is  0.45380166D+02

 Disk-based method using ON**2 memory for 20 occupieds at a time.
 Estimated scratch disk usage=  2507909780 words.
 Actual    scratch disk usage=  2362157716 words.
 JobTyp=1 Pass  1:  I=  11 to  30 NPSUse= 28 ParTrn=T ParDer=T DoDerP=T.
 (rs|ai) integrals will be sorted in core.
 Spin components of T(2) and E(2):
     alpha-alpha T2 =       0.5562223950D-01 E2=     -0.2003222471D+00
     alpha-beta  T2 =       0.2771562196D+00 E2=     -0.1098076318D+01
     beta-beta   T2 =       0.5562223950D-01 E2=     -0.2003222471D+00
 ANorm=    0.1178304162D+01
 E2 =    -0.1498720812D+01 EUMP2 =    -0.83685445457131D+03
          IDoAtm=111111111
          Differentiating once with respect to electric field.
                with respect to dipole field.
          Differentiating once with respect to nuclear coordinates.
 Keep R1 ints in memory in canonical form, NReq=1899572210.
          There are     1 degrees of freedom in the 1st order CPHF.  IDoFFX=0 NUNeed=     1.
 LinEq1:  Iter=  0 NonCon=     1 RMS=4.11D-03 Max=1.21D-01 NDo=     1
 AX will form     1 AO Fock derivatives at one time.
 LinEq1:  Iter=  1 NonCon=     1 RMS=1.17D-03 Max=1.95D-02 NDo=     1
 LinEq1:  Iter=  2 NonCon=     1 RMS=4.88D-04 Max=1.38D-02 NDo=     1
 LinEq1:  Iter=  3 NonCon=     1 RMS=1.50D-04 Max=1.60D-03 NDo=     1
 LinEq1:  Iter=  4 NonCon=     1 RMS=4.29D-05 Max=9.37D-04 NDo=     1
 LinEq1:  Iter=  5 NonCon=     1 RMS=8.93D-06 Max=1.40D-04 NDo=     1
 LinEq1:  Iter=  6 NonCon=     1 RMS=4.45D-06 Max=1.11D-04 NDo=     1
 LinEq1:  Iter=  7 NonCon=     1 RMS=1.30D-06 Max=1.90D-05 NDo=     1
 LinEq1:  Iter=  8 NonCon=     1 RMS=3.17D-07 Max=3.55D-06 NDo=     1
 LinEq1:  Iter=  9 NonCon=     1 RMS=1.04D-07 Max=1.73D-06 NDo=     1
 LinEq1:  Iter= 10 NonCon=     1 RMS=4.78D-08 Max=8.07D-07 NDo=     1
 LinEq1:  Iter= 11 NonCon=     1 RMS=1.50D-08 Max=1.90D-07 NDo=     1
 LinEq1:  Iter= 12 NonCon=     1 RMS=3.56D-09 Max=5.38D-08 NDo=     1
 LinEq1:  Iter= 13 NonCon=     1 RMS=1.39D-09 Max=2.01D-08 NDo=     1
 LinEq1:  Iter= 14 NonCon=     1 RMS=5.07D-10 Max=8.98D-09 NDo=     1
 LinEq1:  Iter= 15 NonCon=     1 RMS=1.27D-10 Max=2.28D-09 NDo=     1
 LinEq1:  Iter= 16 NonCon=     0 RMS=3.23D-11 Max=6.57D-10 NDo=     1
 Linear equations converged to 1.000D-10 1.000D-09 after    16 iterations.
 End of Minotr F.D. properties file   721 does not exist.
 End of Minotr F.D. properties file   722 does not exist.
 End of Minotr F.D. properties file   788 does not exist.
 Calling FoFJK, ICntrl=  10002127 FMM=F ISym2X=0 I1Cent= 0 IOpClX= 0 NMat=1 NMatS=1 NMatT=0.
 ***** Axes restored to original set *****
 -------------------------------------------------------------------
 Center     Atomic                   Forces (Hartrees/Bohr)
 Number     Number              X              Y              Z
 -------------------------------------------------------------------
      1       17           0.001195606    0.002303988   -0.000058248
      2        8           0.002749043    0.006453576   -0.014176311
      3        8           0.006279295    0.008002833    0.011820482
      4        8          -0.014638684   -0.006440143    0.002347248
      5        8           0.005065548   -0.012420162    0.000128556
      6        1          -0.001104766    0.001690652   -0.000296550
      7        8           0.000519485   -0.000354955    0.000467328
      8        1          -0.000004174    0.000451049   -0.000048431
      9        1          -0.000061354    0.000313160   -0.000184076
 -------------------------------------------------------------------
 Cartesian Forces:  Max     0.014638684 RMS     0.005920613

 GradGradGradGradGradGradGradGradGradGradGradGradGradGradGradGradGradGrad
 Berny optimization.
 Using GEDIIS/GDIIS optimizer.
 FormGI is forming the generalized inverse of G from B-inverse, IUseBI=4.
 Internal  Forces:  Max     0.016135522 RMS     0.005897835
 Search for a local minimum.
 Step number   2 out of a maximum of   36
 All quantities printed in internal units (Hartrees-Bohrs-Radians)
 Mixed Optimization -- RFO/linear search
 Update second derivatives using D2CorX and points    1    2
 DE= -5.64D-03 DEPred=-4.10D-03 R= 1.37D+00
 TightC=F SS=  1.41D+00  RLast= 1.10D-01 DXNew= 5.0454D-01 3.3081D-01
 Trust test= 1.37D+00 RLast= 1.10D-01 DXMaxT set to 3.31D-01
 ITU=  1  0
 Use linear search instead of GDIIS.
     Eigenvalues ---    0.00230   0.00230   0.00231   0.00830   0.05644
     Eigenvalues ---    0.07498   0.11837   0.15909   0.16009   0.16936
     Eigenvalues ---    0.17294   0.24769   0.25000   0.25006   0.31782
     Eigenvalues ---    0.46663   0.53478   0.53954   0.66294   0.85533
     Eigenvalues ---    0.89964
 RFO step:  Lambda=-9.00115493D-04 EMin= 2.29621223D-03
 Quartic linear search produced a step of  0.52772.
 Maximum step size (   0.331) exceeded in Quadratic search.
    -- Step size scaled by   0.989
 Iteration  1 RMS(Cart)=  0.16804529 RMS(Int)=  0.02314324
 Iteration  2 RMS(Cart)=  0.06057814 RMS(Int)=  0.00176974
 Iteration  3 RMS(Cart)=  0.00224759 RMS(Int)=  0.00094000
 Iteration  4 RMS(Cart)=  0.00000120 RMS(Int)=  0.00094000
 Iteration  5 RMS(Cart)=  0.00000000 RMS(Int)=  0.00094000
 Variable       Old X    -DE/DX   Delta X   Delta X   Delta X     New X
                                 (Linear)    (Quad)   (Total)
    R1        2.73239  -0.01581  -0.02624  -0.00472  -0.03094   2.70145
    R2        2.74254  -0.01558  -0.02656  -0.00470  -0.03126   2.71128
    R3        2.71026  -0.01614  -0.02561  -0.00440  -0.03001   2.68025
    R4        3.12207  -0.01109  -0.03307  -0.01255  -0.04563   3.07644
    R5        1.89544  -0.00015  -0.00316   0.00245  -0.00074   1.89471
    R6        3.19058  -0.00062  -0.00465  -0.00479  -0.00942   3.18117
    R7        1.82549  -0.00033  -0.00378   0.00251  -0.00126   1.82423
    R8        1.82140  -0.00026  -0.00383   0.00276  -0.00107   1.82033
    A1        1.96890  -0.00065   0.00095  -0.00508  -0.00414   1.96477
    A2        2.00598  -0.00089  -0.00001  -0.00520  -0.00525   2.00073
    A3        1.84368   0.00054  -0.00064   0.00390   0.00321   1.84689
    A4        2.00333  -0.00103   0.00006  -0.00626  -0.00624   1.99709
    A5        1.83353   0.00090  -0.00071   0.00609   0.00535   1.83889
    A6        1.78003   0.00184   0.00006   0.01109   0.01111   1.79115
    A7        1.76573   0.00454  -0.00319   0.04641   0.04320   1.80893
    A8        1.81320  -0.00016  -0.00019  -0.00049   0.00009   1.81330
    A9        2.00609   0.00004  -0.00003   0.00136   0.00106   2.00715
   A10        1.82883   0.00028   0.00159   0.00217   0.00633   1.83516
   A11        3.02014   0.00010   0.00903  -0.12262  -0.11310   2.90704
   A12        3.31439  -0.00051   0.00297  -0.30258  -0.29971   3.01468
    D1       -1.15906   0.00013  -0.00381   0.04135   0.03753  -1.12153
    D2        0.92629   0.00006  -0.00337   0.04027   0.03688   0.96317
    D3        3.02167   0.00007  -0.00356   0.04057   0.03701   3.05868
    D4       -0.58532  -0.00021  -0.00570   0.06690   0.06380  -0.52152
    D5        1.36405   0.00016  -0.00255   0.07401   0.06878   1.43283
    D6        2.11123   0.00010   0.00059   0.00228   0.00409   2.11532
         Item               Value     Threshold  Converged?
 Maximum Force            0.016136     0.000450     NO 
 RMS     Force            0.005898     0.000300     NO 
 Maximum Displacement     0.498679     0.001800     NO 
 RMS     Displacement     0.222369     0.001200     NO 
 Predicted change in Energy=-1.265393D-03
 GradGradGradGradGradGradGradGradGradGradGradGradGradGradGradGradGradGrad

                          Input orientation:                          
 ---------------------------------------------------------------------
 Center     Atomic      Atomic             Coordinates (Angstroms)
 Number     Number       Type             X           Y           Z
 ---------------------------------------------------------------------
      1         17           0        0.640591   -0.078577   -0.025550
      2          8           0        0.255146   -0.814498    1.137830
      3          8           0        0.333775   -0.772809   -1.243094
      4          8           0        1.949552    0.465161    0.025661
      5          8           0       -0.297174    1.252110   -0.039810
      6          1           0       -1.223739    0.887243   -0.156541
      7          8           0       -2.680369    0.063365    0.025913
      8          1           0       -2.529652   -0.776658   -0.425227
      9          1           0       -2.902932   -0.174213    0.932514
 ---------------------------------------------------------------------
                    Distance matrix (angstroms):
                    1          2          3          4          5
     1  Cl   0.000000
     2  O    1.429545   0.000000
     3  O    1.434750   2.382586   0.000000
     4  O    1.418328   2.396969   2.398550   0.000000
     5  O    1.627984   2.441876   2.438501   2.381459   0.000000
     6  H    2.103733   2.599696   2.522345   3.206419   1.002635
     7  O    3.324390   3.259486   3.375594   4.647323   2.664030
     8  H    3.270703   3.193694   2.977942   4.669977   3.041119
     9  H    3.672000   3.228866   3.945613   4.977728   3.125665
                    6          7          8          9
     6  H    0.000000
     7  O    1.683400   0.000000
     8  H    2.132175   0.965340   0.000000
     9  H    2.265484   0.963277   1.531581   0.000000
 Stoichiometry    ClH3O5
 Framework group  C1[X(ClH3O5)]
 Deg. of freedom    21
 Full point group                 C1      NOp   1
 Largest Abelian subgroup         C1      NOp   1
 Largest concise Abelian subgroup C1      NOp   1
                         Standard orientation:                         
 ---------------------------------------------------------------------
 Center     Atomic      Atomic             Coordinates (Angstroms)
 Number     Number       Type             X           Y           Z
 ---------------------------------------------------------------------
      1         17           0        0.628890   -0.078867    0.009077
      2          8           0        0.210083   -0.796211    1.172528
      3          8           0        0.362033   -0.794973   -1.205207
      4          8           0        1.933894    0.470561    0.091220
      5          8           0       -0.312256    1.247864   -0.056975
      6          1           0       -1.233600    0.877591   -0.195896
      7          8           0       -2.692515    0.051512   -0.044246
      8          1           0       -2.525248   -0.795537   -0.475999
      9          1           0       -2.942192   -0.171349    0.859024
 ---------------------------------------------------------------------
 Rotational constants (GHZ):           5.2191013           1.9689597           1.9391725
 Standard basis: Aug-CC-pVTZ (5D, 7F)
 There are   409 symmetry adapted cartesian basis functions of A   symmetry.
 There are   349 symmetry adapted basis functions of A   symmetry.
   349 basis functions,   555 primitive gaussians,   409 cartesian basis functions
    30 alpha electrons       30 beta electrons
       nuclear repulsion energy       382.0505916536 Hartrees.
 NAtoms=    9 NActive=    9 NUniq=    9 SFac= 1.00D+00 NAtFMM=   60 NAOKFM=F Big=F
 Integral buffers will be    131072 words long.
 Raffenetti 1 integral format.
 Two-electron integral symmetry is turned on.
 One-electron integrals computed using PRISM.
 NBasis=   349 RedAO= T EigKep=  5.16D-05  NBF=   349
 NBsUse=   349 1.00D-06 EigRej= -1.00D+00 NBFU=   349
 Initial guess from the checkpoint file:  "hclo4_h2o_mp2_avtz_opt_anharm.chk"
 B after Tr=     0.000000   -0.000000   -0.000000
         Rot=    0.999002   -0.029057    0.032399   -0.010007 Ang=  -5.12 deg.
 ExpMin= 2.53D-02 ExpMax= 4.56D+05 ExpMxC= 1.44D+03 IAcc=3 IRadAn=         5 AccDes= 0.00D+00
 Harris functional with IExCor=  205 and IRadAn=       5 diagonalized for initial guess.
 HarFok:  IExCor=  205 AccDes= 0.00D+00 IRadAn=         5 IDoV= 1 UseB2=F ITyADJ=14
 ICtDFT=  3500011 ScaDFX=  1.000000  1.000000  1.000000  1.000000
 FoFCou: FMM=F IPFlag=           0 FMFlag=      100000 FMFlg1=           0
         NFxFlg=           0 DoJE=T BraDBF=F KetDBF=T FulRan=T
         wScrn=  0.000000 ICntrl=       500 IOpCl=  0 I1Cent=   200000004 NGrid=           0
         NMat0=    1 NMatS0=      1 NMatT0=    0 NMatD0=    1 NMtDS0=    0 NMtDT0=    0
 Petite list used in FoFCou.
 Keep R1 ints in memory in canonical form, NReq=1899570285.
 Requested convergence on RMS density matrix=1.00D-08 within 128 cycles.
 Requested convergence on MAX density matrix=1.00D-06.
 Requested convergence on             energy=1.00D-06.
 No special actions if energy rises.
 SCF Done:  E(RHF) =  -835.362101196     A.U. after   13 cycles
            NFock= 13  Conv=0.41D-08     -V/T= 2.0012
 ExpMin= 2.53D-02 ExpMax= 4.56D+05 ExpMxC= 1.44D+03 IAcc=3 IRadAn=         5 AccDes= 0.00D+00
 HarFok:  IExCor=  205 AccDes= 0.00D+00 IRadAn=         5 IDoV=-2 UseB2=F ITyADJ=14
 ICtDFT= 12500011 ScaDFX=  1.000000  1.000000  1.000000  1.000000
 Range of M.O.s used for correlation:    11   349
 NBasis=   349 NAE=    30 NBE=    30 NFC=    10 NFV=     0
 NROrb=    339 NOA=    20 NOB=    20 NVA=   319 NVB=   319

 **** Warning!!: The largest alpha MO coefficient is  0.43417388D+02

 Disk-based method using ON**2 memory for 20 occupieds at a time.
 Estimated scratch disk usage=  2504319530 words.
 Actual    scratch disk usage=  2358567466 words.
 JobTyp=1 Pass  1:  I=  11 to  30 NPSUse= 28 ParTrn=T ParDer=T DoDerP=T.
 (rs|ai) integrals will be sorted in core.
 Spin components of T(2) and E(2):
     alpha-alpha T2 =       0.5460886470D-01 E2=     -0.1994377156D+00
     alpha-beta  T2 =       0.2722386937D+00 E2=     -0.1093188013D+01
     beta-beta   T2 =       0.5460886470D-01 E2=     -0.1994377156D+00
 ANorm=    0.1175353744D+01
 E2 =    -0.1492063444D+01 EUMP2 =    -0.83685416464023D+03
          IDoAtm=111111111
          Differentiating once with respect to electric field.
                with respect to dipole field.
          Differentiating once with respect to nuclear coordinates.
 Keep R1 ints in memory in canonical form, NReq=1899572210.
          There are     1 degrees of freedom in the 1st order CPHF.  IDoFFX=0 NUNeed=     1.
 LinEq1:  Iter=  0 NonCon=     1 RMS=3.93D-03 Max=7.71D-02 NDo=     1
 AX will form     1 AO Fock derivatives at one time.
 LinEq1:  Iter=  1 NonCon=     1 RMS=1.10D-03 Max=1.58D-02 NDo=     1
 LinEq1:  Iter=  2 NonCon=     1 RMS=4.50D-04 Max=9.19D-03 NDo=     1
 LinEq1:  Iter=  3 NonCon=     1 RMS=1.38D-04 Max=1.46D-03 NDo=     1
 LinEq1:  Iter=  4 NonCon=     1 RMS=3.96D-05 Max=7.42D-04 NDo=     1
 LinEq1:  Iter=  5 NonCon=     1 RMS=9.00D-06 Max=1.46D-04 NDo=     1
 LinEq1:  Iter=  6 NonCon=     1 RMS=4.21D-06 Max=6.60D-05 NDo=     1
 LinEq1:  Iter=  7 NonCon=     1 RMS=1.13D-06 Max=2.00D-05 NDo=     1
 LinEq1:  Iter=  8 NonCon=     1 RMS=2.77D-07 Max=3.52D-06 NDo=     1
 LinEq1:  Iter=  9 NonCon=     1 RMS=8.92D-08 Max=1.36D-06 NDo=     1
 LinEq1:  Iter= 10 NonCon=     1 RMS=3.96D-08 Max=5.92D-07 NDo=     1
 LinEq1:  Iter= 11 NonCon=     1 RMS=1.25D-08 Max=1.79D-07 NDo=     1
 LinEq1:  Iter= 12 NonCon=     1 RMS=3.21D-09 Max=5.63D-08 NDo=     1
 LinEq1:  Iter= 13 NonCon=     1 RMS=1.27D-09 Max=2.16D-08 NDo=     1
 LinEq1:  Iter= 14 NonCon=     1 RMS=4.27D-10 Max=7.81D-09 NDo=     1
 LinEq1:  Iter= 15 NonCon=     1 RMS=1.03D-10 Max=1.33D-09 NDo=     1
 LinEq1:  Iter= 16 NonCon=     0 RMS=1.91D-11 Max=2.97D-10 NDo=     1
 Linear equations converged to 1.000D-10 1.000D-09 after    16 iterations.
 End of Minotr F.D. properties file   721 does not exist.
 End of Minotr F.D. properties file   722 does not exist.
 End of Minotr F.D. properties file   788 does not exist.
 Calling FoFJK, ICntrl=  10002127 FMM=F ISym2X=0 I1Cent= 0 IOpClX= 0 NMat=1 NMatS=1 NMatT=0.
 ***** Axes restored to original set *****
 -------------------------------------------------------------------
 Center     Atomic                   Forces (Hartrees/Bohr)
 Number     Number              X              Y              Z
 -------------------------------------------------------------------
      1       17          -0.002719886    0.000529378   -0.004851301
      2        8          -0.001713344   -0.001708124    0.005218115
      3        8          -0.001668102   -0.000146611   -0.001234018
      4        8           0.003088841    0.003282298    0.000964333
      5        8           0.002620541   -0.001136067   -0.002981118
      6        1           0.000300266    0.000212452    0.006207455
      7        8           0.000670900   -0.000581468   -0.004388506
      8        1          -0.001739984   -0.000339645    0.000827213
      9        1           0.001160768   -0.000112214    0.000237827
 -------------------------------------------------------------------
 Cartesian Forces:  Max     0.006207455 RMS     0.002515655

 GradGradGradGradGradGradGradGradGradGradGradGradGradGradGradGradGradGrad
 Berny optimization.
 Using GEDIIS/GDIIS optimizer.
 FormGI is forming the generalized inverse of G from B-inverse, IUseBI=4.
 Internal  Forces:  Max     0.006314630 RMS     0.002468197
 Search for a local minimum.
 Step number   3 out of a maximum of   36
 All quantities printed in internal units (Hartrees-Bohrs-Radians)
 Mixed Optimization -- RFO/linear search
 Update second derivatives using D2CorX and points    1    3    2
 DE=  2.90D-04 DEPred=-1.27D-03 R=-2.29D-01
 Trust test=-2.29D-01 RLast= 3.50D-01 DXMaxT set to 1.65D-01
 ITU= -1  1  0
 Use linear search instead of GDIIS.
     Eigenvalues ---    0.00225   0.00230   0.00616   0.00922   0.05656
     Eigenvalues ---    0.07500   0.12010   0.14282   0.16558   0.16892
     Eigenvalues ---    0.17343   0.24969   0.25000   0.25646   0.26949
     Eigenvalues ---    0.46665   0.53477   0.53954   0.64269   0.85977
     Eigenvalues ---    0.89934
 RFO step:  Lambda=-3.41692735D-03 EMin= 2.25113918D-03
 Quartic linear search produced a step of -0.56840.
 Maximum step size (   0.165) exceeded in Quadratic search.
    -- Step size scaled by   0.323
 Iteration  1 RMS(Cart)=  0.14950756 RMS(Int)=  0.02406990
 Iteration  2 RMS(Cart)=  0.07196423 RMS(Int)=  0.00192074
 Iteration  3 RMS(Cart)=  0.00246490 RMS(Int)=  0.00015168
 Iteration  4 RMS(Cart)=  0.00000249 RMS(Int)=  0.00015167
 Iteration  5 RMS(Cart)=  0.00000000 RMS(Int)=  0.00015167
 Variable       Old X    -DE/DX   Delta X   Delta X   Delta X     New X
                                 (Linear)    (Quad)   (Total)
    R1        2.70145   0.00544   0.01759  -0.01546   0.00212   2.70357
    R2        2.71128   0.00147   0.01777  -0.01640   0.00137   2.71265
    R3        2.68025   0.00414   0.01706  -0.01524   0.00182   2.68207
    R4        3.07644  -0.00321   0.02593  -0.02647  -0.00054   3.07591
    R5        1.89471  -0.00037   0.00042  -0.00036   0.00005   1.89476
    R6        3.18117   0.00006   0.00535  -0.00533   0.00002   3.18119
    R7        1.82423  -0.00036   0.00072  -0.00061   0.00011   1.82434
    R8        1.82033  -0.00002   0.00061  -0.00038   0.00023   1.82056
    A1        1.96477   0.00167   0.00235  -0.00130   0.00107   1.96583
    A2        2.00073   0.00082   0.00298  -0.00289   0.00011   2.00084
    A3        1.84689  -0.00154  -0.00182   0.00079  -0.00102   1.84587
    A4        1.99709   0.00290   0.00355  -0.00153   0.00204   1.99912
    A5        1.83889  -0.00171  -0.00304   0.00215  -0.00088   1.83801
    A6        1.79115  -0.00345  -0.00632   0.00418  -0.00212   1.78902
    A7        1.80893  -0.00222  -0.02456   0.02307  -0.00149   1.80745
    A8        1.81330   0.00324  -0.00005   0.00310   0.00321   1.81651
    A9        2.00715  -0.00157  -0.00060  -0.00155  -0.00220   2.00495
   A10        1.83516  -0.00084  -0.00360   0.00222  -0.00096   1.83420
   A11        2.90704   0.00300   0.06429   0.08111   0.14548   3.05252
   A12        3.01468   0.00631   0.17036   0.13683   0.30715   3.32183
    D1       -1.12153  -0.00106  -0.02133   0.00494  -0.01640  -1.13792
    D2        0.96317  -0.00071  -0.02096   0.00487  -0.01608   0.94709
    D3        3.05868   0.00027  -0.02104   0.00592  -0.01512   3.04357
    D4       -0.52152  -0.00048  -0.03626  -0.00867  -0.04451  -0.56603
    D5        1.43283  -0.00010  -0.03909   0.00457  -0.03494   1.39790
    D6        2.11532  -0.00065  -0.00233   0.00070  -0.00143   2.11389
         Item               Value     Threshold  Converged?
 Maximum Force            0.006315     0.000450     NO 
 RMS     Force            0.002468     0.000300     NO 
 Maximum Displacement     0.425519     0.001800     NO 
 RMS     Displacement     0.205335     0.001200     NO 
 Predicted change in Energy=-1.335101D-03
 GradGradGradGradGradGradGradGradGradGradGradGradGradGradGradGradGradGrad

                          Input orientation:                          
 ---------------------------------------------------------------------
 Center     Atomic      Atomic             Coordinates (Angstroms)
 Number     Number       Type             X           Y           Z
 ---------------------------------------------------------------------
      1         17           0        0.639630   -0.080918   -0.003693
      2          8           0        0.434915   -0.717495    1.261088
      3          8           0        0.136932   -0.857933   -1.101021
      4          8           0        1.945269    0.439984   -0.199514
      5          8           0       -0.275909    1.264578    0.025215
      6          1           0       -1.212958    0.910421    0.068182
      7          8           0       -2.669331    0.073181   -0.040842
      8          1           0       -2.454277   -0.703942   -0.571711
      9          1           0       -2.999074   -0.276751    0.793994
 ---------------------------------------------------------------------
                    Distance matrix (angstroms):
                    1          2          3          4          5
     1  Cl   0.000000
     2  O    1.430667   0.000000
     3  O    1.435473   2.384968   0.000000
     4  O    1.419289   2.398810   2.401538   0.000000
     5  O    1.627700   2.441570   2.438010   2.379935   0.000000
     6  H    2.102380   2.605498   2.513228   3.204274   1.002664
     7  O    3.312755   3.457821   3.141029   4.631874   2.674370
     8  H    3.206722   3.421515   2.649197   4.561043   2.996111
     9  H    3.730258   3.493524   3.709904   5.093849   3.222165
                    6          7          8          9
     6  H    0.000000
     7  O    1.683412   0.000000
     8  H    2.134597   0.965397   0.000000
     9  H    2.264154   0.963397   1.531159   0.000000
 Stoichiometry    ClH3O5
 Framework group  C1[X(ClH3O5)]
 Deg. of freedom    21
 Full point group                 C1      NOp   1
 Largest Abelian subgroup         C1      NOp   1
 Largest concise Abelian subgroup C1      NOp   1
                         Standard orientation:                         
 ---------------------------------------------------------------------
 Center     Atomic      Atomic             Coordinates (Angstroms)
 Number     Number       Type             X           Y           Z
 ---------------------------------------------------------------------
      1         17           0        0.626941   -0.080981    0.004880
      2          8           0        0.422039   -0.661951    1.296119
      3          8           0        0.130094   -0.907902   -1.058101
      4          8           0        1.930789    0.436464   -0.211012
      5          8           0       -0.294404    1.260465   -0.027624
      6          1           0       -1.230028    0.904459    0.028973
      7          8           0       -2.682554    0.056863   -0.046022
      8          1           0       -2.462961   -0.742007   -0.541580
      9          1           0       -3.012719   -0.257287    0.802763
 ---------------------------------------------------------------------
 Rotational constants (GHZ):           5.2187571           1.9756482           1.9458830
 Standard basis: Aug-CC-pVTZ (5D, 7F)
 There are   409 symmetry adapted cartesian basis functions of A   symmetry.
 There are   349 symmetry adapted basis functions of A   symmetry.
   349 basis functions,   555 primitive gaussians,   409 cartesian basis functions
    30 alpha electrons       30 beta electrons
       nuclear repulsion energy       382.1959844049 Hartrees.
 NAtoms=    9 NActive=    9 NUniq=    9 SFac= 1.00D+00 NAtFMM=   60 NAOKFM=F Big=F
 Integral buffers will be    131072 words long.
 Raffenetti 1 integral format.
 Two-electron integral symmetry is turned on.
 One-electron integrals computed using PRISM.
 NBasis=   349 RedAO= T EigKep=  5.05D-05  NBF=   349
 NBsUse=   349 1.00D-06 EigRej= -1.00D+00 NBFU=   349
 Lowest energy guess from the checkpoint file:  "hclo4_h2o_mp2_avtz_opt_anharm.chk"
 B after Tr=     0.000000   -0.000000   -0.000000
         Rot=    0.999858    0.015325    0.001263   -0.006955 Ang=   1.93 deg.
 B after Tr=    -0.000000    0.000000    0.000000
         Rot=    0.998484    0.045963   -0.030092    0.003535 Ang=   6.31 deg.
 Keep R1 ints in memory in canonical form, NReq=1899570285.
 Requested convergence on RMS density matrix=1.00D-08 within 128 cycles.
 Requested convergence on MAX density matrix=1.00D-06.
 Requested convergence on             energy=1.00D-06.
 No special actions if energy rises.
 SCF Done:  E(RHF) =  -835.362901274     A.U. after   12 cycles
            NFock= 12  Conv=0.58D-08     -V/T= 2.0012
 ExpMin= 2.53D-02 ExpMax= 4.56D+05 ExpMxC= 1.44D+03 IAcc=3 IRadAn=         5 AccDes= 0.00D+00
 HarFok:  IExCor=  205 AccDes= 0.00D+00 IRadAn=         5 IDoV=-2 UseB2=F ITyADJ=14
 ICtDFT= 12500011 ScaDFX=  1.000000  1.000000  1.000000  1.000000
 Range of M.O.s used for correlation:    11   349
 NBasis=   349 NAE=    30 NBE=    30 NFC=    10 NFV=     0
 NROrb=    339 NOA=    20 NOB=    20 NVA=   319 NVB=   319

 **** Warning!!: The largest alpha MO coefficient is  0.44713051D+02

 Disk-based method using ON**2 memory for 20 occupieds at a time.
 Estimated scratch disk usage=  2506552920 words.
 Actual    scratch disk usage=  2360800856 words.
 JobTyp=1 Pass  1:  I=  11 to  30 NPSUse= 28 ParTrn=T ParDer=T DoDerP=T.
 (rs|ai) integrals will be sorted in core.
 Spin components of T(2) and E(2):
     alpha-alpha T2 =       0.5466199025D-01 E2=     -0.1995112996D+00
     alpha-beta  T2 =       0.2724394312D+00 E2=     -0.1093458328D+01
     beta-beta   T2 =       0.5466199025D-01 E2=     -0.1995112996D+00
 ANorm=    0.1175484331D+01
 E2 =    -0.1492480927D+01 EUMP2 =    -0.83685538220145D+03
          IDoAtm=111111111
          Differentiating once with respect to electric field.
                with respect to dipole field.
          Differentiating once with respect to nuclear coordinates.
 Keep R1 ints in memory in canonical form, NReq=1899572210.
          There are     1 degrees of freedom in the 1st order CPHF.  IDoFFX=0 NUNeed=     1.
 LinEq1:  Iter=  0 NonCon=     1 RMS=3.94D-03 Max=8.20D-02 NDo=     1
 AX will form     1 AO Fock derivatives at one time.
 LinEq1:  Iter=  1 NonCon=     1 RMS=1.11D-03 Max=1.70D-02 NDo=     1
 LinEq1:  Iter=  2 NonCon=     1 RMS=4.51D-04 Max=1.02D-02 NDo=     1
 LinEq1:  Iter=  3 NonCon=     1 RMS=1.39D-04 Max=1.55D-03 NDo=     1
 LinEq1:  Iter=  4 NonCon=     1 RMS=3.97D-05 Max=7.98D-04 NDo=     1
 LinEq1:  Iter=  5 NonCon=     1 RMS=8.95D-06 Max=1.41D-04 NDo=     1
 LinEq1:  Iter=  6 NonCon=     1 RMS=4.18D-06 Max=6.63D-05 NDo=     1
 LinEq1:  Iter=  7 NonCon=     1 RMS=1.13D-06 Max=1.92D-05 NDo=     1
 LinEq1:  Iter=  8 NonCon=     1 RMS=2.75D-07 Max=3.84D-06 NDo=     1
 LinEq1:  Iter=  9 NonCon=     1 RMS=8.55D-08 Max=1.16D-06 NDo=     1
 LinEq1:  Iter= 10 NonCon=     1 RMS=3.87D-08 Max=5.83D-07 NDo=     1
 LinEq1:  Iter= 11 NonCon=     1 RMS=1.23D-08 Max=1.80D-07 NDo=     1
 LinEq1:  Iter= 12 NonCon=     1 RMS=2.77D-09 Max=3.84D-08 NDo=     1
 LinEq1:  Iter= 13 NonCon=     1 RMS=9.92D-10 Max=1.58D-08 NDo=     1
 LinEq1:  Iter= 14 NonCon=     1 RMS=3.64D-10 Max=7.59D-09 NDo=     1
 LinEq1:  Iter= 15 NonCon=     1 RMS=9.70D-11 Max=1.42D-09 NDo=     1
 LinEq1:  Iter= 16 NonCon=     0 RMS=1.89D-11 Max=2.99D-10 NDo=     1
 Linear equations converged to 1.000D-10 1.000D-09 after    16 iterations.
 End of Minotr F.D. properties file   721 does not exist.
 End of Minotr F.D. properties file   722 does not exist.
 End of Minotr F.D. properties file   788 does not exist.
 Calling FoFJK, ICntrl=  10002127 FMM=F ISym2X=0 I1Cent= 0 IOpClX= 0 NMat=1 NMatS=1 NMatT=0.
 ***** Axes restored to original set *****
 -------------------------------------------------------------------
 Center     Atomic                   Forces (Hartrees/Bohr)
 Number     Number              X              Y              Z
 -------------------------------------------------------------------
      1       17          -0.002863098    0.001419905    0.000049020
      2        8          -0.000634158   -0.000794639    0.002783752
      3        8          -0.001386738   -0.000705510   -0.001990453
      4        8           0.001999897    0.002029509   -0.000499157
      5        8           0.001889349   -0.001465190    0.000311670
      6        1          -0.000200230   -0.000624643   -0.000932390
      7        8           0.001532983    0.000556669    0.000438790
      8        1          -0.000194100   -0.000157723   -0.000089956
      9        1          -0.000143905   -0.000258377   -0.000071275
 -------------------------------------------------------------------
 Cartesian Forces:  Max     0.002863098 RMS     0.001274797

 GradGradGradGradGradGradGradGradGradGradGradGradGradGradGradGradGradGrad
 Berny optimization.
 Using GEDIIS/GDIIS optimizer.
 FormGI is forming the generalized inverse of G from B-inverse, IUseBI=4.
 Internal  Forces:  Max     0.003259728 RMS     0.001446263
 Search for a local minimum.
 Step number   4 out of a maximum of   36
 All quantities printed in internal units (Hartrees-Bohrs-Radians)
 Mixed Optimization -- RFO/linear search
 Update second derivatives using D2CorX and points    1    3    2    4
 DE= -9.28D-04 DEPred=-1.34D-03 R= 6.95D-01
 TightC=F SS=  1.41D+00  RLast= 1.03D-01 DXNew= 2.7817D-01 3.0986D-01
 Trust test= 6.95D-01 RLast= 1.03D-01 DXMaxT set to 2.78D-01
 ITU=  1 -1  1  0
 Use linear search instead of GDIIS.
     Eigenvalues ---    0.00223   0.00229   0.00810   0.02085   0.05570
     Eigenvalues ---    0.07512   0.11929   0.15933   0.16262   0.16876
     Eigenvalues ---    0.17353   0.24316   0.25000   0.25013   0.28700
     Eigenvalues ---    0.46570   0.53391   0.53818   0.75804   0.86159
     Eigenvalues ---    0.90136
 RFO step:  Lambda=-4.95834110D-04 EMin= 2.23323777D-03
 Quartic linear search produced a step of -0.11731.
 Maximum step size (   0.278) exceeded in Quadratic search.
    -- Step size scaled by   0.824
 Iteration  1 RMS(Cart)=  0.19349290 RMS(Int)=  0.01249766
 Iteration  2 RMS(Cart)=  0.04024465 RMS(Int)=  0.00046455
 Iteration  3 RMS(Cart)=  0.00036771 RMS(Int)=  0.00036385
 Iteration  4 RMS(Cart)=  0.00000014 RMS(Int)=  0.00036385
 Variable       Old X    -DE/DX   Delta X   Delta X   Delta X     New X
                                 (Linear)    (Quad)   (Total)
    R1        2.70357   0.00293   0.00338  -0.00636  -0.00298   2.70059
    R2        2.71265   0.00239   0.00351  -0.00733  -0.00382   2.70883
    R3        2.68207   0.00265   0.00331  -0.00660  -0.00329   2.67877
    R4        3.07591  -0.00326   0.00542  -0.02096  -0.01555   3.06036
    R5        1.89476  -0.00080   0.00008  -0.00168  -0.00157   1.89319
    R6        3.18119  -0.00112   0.00110  -0.01351  -0.01242   3.16876
    R7        1.82434   0.00013   0.00014  -0.00045  -0.00031   1.82403
    R8        1.82056   0.00008   0.00010  -0.00040  -0.00030   1.82025
    A1        1.96583   0.00118   0.00036   0.00349   0.00384   1.96967
    A2        2.00084   0.00108   0.00060   0.00176   0.00235   2.00319
    A3        1.84587  -0.00069  -0.00026  -0.00175  -0.00202   1.84386
    A4        1.99912   0.00109   0.00049   0.00252   0.00300   2.00213
    A5        1.83801  -0.00133  -0.00053  -0.00303  -0.00356   1.83445
    A6        1.78902  -0.00219  -0.00105  -0.00498  -0.00605   1.78298
    A7        1.80745  -0.00276  -0.00489  -0.00292  -0.00782   1.79963
    A8        1.81651   0.00030  -0.00039   0.00376   0.00300   1.81951
    A9        2.00495   0.00014   0.00013   0.00062   0.00095   2.00589
   A10        1.83420  -0.00011  -0.00063   0.00106  -0.00057   1.83363
   A11        3.05252  -0.00123  -0.00380  -0.23271  -0.23667   2.81585
   A12        3.32183   0.00017  -0.00087   0.14936   0.14858   3.47042
    D1       -1.13792  -0.00041  -0.00248  -0.02216  -0.02463  -1.16256
    D2        0.94709  -0.00002  -0.00244  -0.02045  -0.02290   0.92419
    D3        3.04357  -0.00033  -0.00257  -0.02111  -0.02368   3.01989
    D4       -0.56603  -0.00007  -0.00226  -0.01908  -0.02236  -0.58839
    D5        1.39790  -0.00026  -0.00397  -0.07540  -0.07837   1.31953
    D6        2.11389   0.00025  -0.00031   0.00294   0.00222   2.11610
         Item               Value     Threshold  Converged?
 Maximum Force            0.003260     0.000450     NO 
 RMS     Force            0.001446     0.000300     NO 
 Maximum Displacement     0.549685     0.001800     NO 
 RMS     Displacement     0.228048     0.001200     NO 
 Predicted change in Energy=-2.842886D-04
 GradGradGradGradGradGradGradGradGradGradGradGradGradGradGradGradGradGrad

                          Input orientation:                          
 ---------------------------------------------------------------------
 Center     Atomic      Atomic             Coordinates (Angstroms)
 Number     Number       Type             X           Y           Z
 ---------------------------------------------------------------------
      1         17           0        0.496943   -0.086381    0.004780
      2          8           0        0.257155   -0.670078    1.287004
      3          8           0       -0.117543   -0.818128   -1.063738
      4          8           0        1.841995    0.292601   -0.233220
      5          8           0       -0.261585    1.344287    0.027435
      6          1           0       -1.228785    1.087949    0.077286
      7          8           0       -2.508870    0.012281   -0.049609
      8          1           0       -2.163396   -0.704832   -0.595568
      9          1           0       -2.770717   -0.406575    0.777326
 ---------------------------------------------------------------------
                    Distance matrix (angstroms):
                    1          2          3          4          5
     1  Cl   0.000000
     2  O    1.429091   0.000000
     3  O    1.433450   2.385017   0.000000
     4  O    1.417546   2.397822   2.400681   0.000000
     5  O    1.619472   2.431722   2.426406   2.366228   0.000000
     6  H    2.088646   2.600403   2.483933   3.187269   1.001833
     7  O    3.007924   3.146910   2.726991   4.363751   2.613517
     8  H    2.796481   3.066652   2.101793   4.143589   2.864247
     9  H    3.372974   3.081755   3.255491   4.773590   3.150175
                    6          7          8          9
     6  H    0.000000
     7  O    1.676837   0.000000
     8  H    2.130797   0.965233   0.000000
     9  H    2.258587   0.963237   1.530567   0.000000
 Stoichiometry    ClH3O5
 Framework group  C1[X(ClH3O5)]
 Deg. of freedom    21
 Full point group                 C1      NOp   1
 Largest Abelian subgroup         C1      NOp   1
 Largest concise Abelian subgroup C1      NOp   1
                         Standard orientation:                         
 ---------------------------------------------------------------------
 Center     Atomic      Atomic             Coordinates (Angstroms)
 Number     Number       Type             X           Y           Z
 ---------------------------------------------------------------------
      1         17           0        0.562532   -0.092692    0.000947
      2          8           0        0.316864   -0.680856    1.280013
      3          8           0       -0.067919   -0.806496   -1.070404
      4          8           0        1.913139    0.264693   -0.238998
      5          8           0       -0.171155    1.350631    0.035758
      6          1           0       -1.142462    1.110642    0.087120
      7          8           0       -2.441295    0.058046   -0.042722
      8          1           0       -2.109993   -0.661188   -0.594642
      9          1           0       -2.707648   -0.361839    0.782250
 ---------------------------------------------------------------------
 Rotational constants (GHZ):           5.2237650           2.2322516           2.1951379
 Standard basis: Aug-CC-pVTZ (5D, 7F)
 There are   409 symmetry adapted cartesian basis functions of A   symmetry.
 There are   349 symmetry adapted basis functions of A   symmetry.
   349 basis functions,   555 primitive gaussians,   409 cartesian basis functions
    30 alpha electrons       30 beta electrons
       nuclear repulsion energy       390.2414619458 Hartrees.
 NAtoms=    9 NActive=    9 NUniq=    9 SFac= 1.00D+00 NAtFMM=   60 NAOKFM=F Big=F
 Integral buffers will be    131072 words long.
 Raffenetti 1 integral format.
 Two-electron integral symmetry is turned on.
 One-electron integrals computed using PRISM.
 NBasis=   349 RedAO= T EigKep=  4.72D-05  NBF=   349
 NBsUse=   349 1.00D-06 EigRej= -1.00D+00 NBFU=   349
 Initial guess from the checkpoint file:  "hclo4_h2o_mp2_avtz_opt_anharm.chk"
 B after Tr=    -0.000000   -0.000000   -0.000000
         Rot=    0.999550   -0.017452   -0.004662    0.023951 Ang=  -3.44 deg.
 ExpMin= 2.53D-02 ExpMax= 4.56D+05 ExpMxC= 1.44D+03 IAcc=3 IRadAn=         5 AccDes= 0.00D+00
 Harris functional with IExCor=  205 and IRadAn=       5 diagonalized for initial guess.
 HarFok:  IExCor=  205 AccDes= 0.00D+00 IRadAn=         5 IDoV= 1 UseB2=F ITyADJ=14
 ICtDFT=  3500011 ScaDFX=  1.000000  1.000000  1.000000  1.000000
 FoFCou: FMM=F IPFlag=           0 FMFlag=      100000 FMFlg1=           0
         NFxFlg=           0 DoJE=T BraDBF=F KetDBF=T FulRan=T
         wScrn=  0.000000 ICntrl=       500 IOpCl=  0 I1Cent=   200000004 NGrid=           0
         NMat0=    1 NMatS0=      1 NMatT0=    0 NMatD0=    1 NMtDS0=    0 NMtDT0=    0
 Petite list used in FoFCou.
 Keep R1 ints in memory in canonical form, NReq=1899570285.
 Requested convergence on RMS density matrix=1.00D-08 within 128 cycles.
 Requested convergence on MAX density matrix=1.00D-06.
 Requested convergence on             energy=1.00D-06.
 No special actions if energy rises.
 SCF Done:  E(RHF) =  -835.359911422     A.U. after   11 cycles
            NFock= 11  Conv=0.99D-08     -V/T= 2.0011
 ExpMin= 2.53D-02 ExpMax= 4.56D+05 ExpMxC= 1.44D+03 IAcc=3 IRadAn=         5 AccDes= 0.00D+00
 HarFok:  IExCor=  205 AccDes= 0.00D+00 IRadAn=         5 IDoV=-2 UseB2=F ITyADJ=14
 ICtDFT= 12500011 ScaDFX=  1.000000  1.000000  1.000000  1.000000
 Range of M.O.s used for correlation:    11   349
 NBasis=   349 NAE=    30 NBE=    30 NFC=    10 NFV=     0
 NROrb=    339 NOA=    20 NOB=    20 NVA=   319 NVB=   319

 **** Warning!!: The largest alpha MO coefficient is  0.41197854D+02

 Disk-based method using ON**2 memory for 20 occupieds at a time.
 Estimated scratch disk usage=  2518104134 words.
 Actual    scratch disk usage=  2371827782 words.
 JobTyp=1 Pass  1:  I=  11 to  30 NPSUse= 28 ParTrn=T ParDer=T DoDerP=T.
 (rs|ai) integrals will be sorted in core.
 Spin components of T(2) and E(2):
     alpha-alpha T2 =       0.5457717515D-01 E2=     -0.1999129194D+00
     alpha-beta  T2 =       0.2713234734D+00 E2=     -0.1093442203D+01
     beta-beta   T2 =       0.5457717515D-01 E2=     -0.1999129194D+00
 ANorm=    0.1174937370D+01
 E2 =    -0.1493268042D+01 EUMP2 =    -0.83685317946398D+03
          IDoAtm=111111111
          Differentiating once with respect to electric field.
                with respect to dipole field.
          Differentiating once with respect to nuclear coordinates.
 Keep R1 ints in memory in canonical form, NReq=1899572210.
          There are     1 degrees of freedom in the 1st order CPHF.  IDoFFX=0 NUNeed=     1.
 LinEq1:  Iter=  0 NonCon=     1 RMS=3.92D-03 Max=1.02D-01 NDo=     1
 AX will form     1 AO Fock derivatives at one time.
 LinEq1:  Iter=  1 NonCon=     1 RMS=1.10D-03 Max=1.89D-02 NDo=     1
 LinEq1:  Iter=  2 NonCon=     1 RMS=4.47D-04 Max=1.16D-02 NDo=     1
 LinEq1:  Iter=  3 NonCon=     1 RMS=1.36D-04 Max=1.55D-03 NDo=     1
 LinEq1:  Iter=  4 NonCon=     1 RMS=3.90D-05 Max=8.66D-04 NDo=     1
 LinEq1:  Iter=  5 NonCon=     1 RMS=8.79D-06 Max=1.09D-04 NDo=     1
 LinEq1:  Iter=  6 NonCon=     1 RMS=4.07D-06 Max=7.70D-05 NDo=     1
 LinEq1:  Iter=  7 NonCon=     1 RMS=1.11D-06 Max=1.77D-05 NDo=     1
 LinEq1:  Iter=  8 NonCon=     1 RMS=3.02D-07 Max=3.55D-06 NDo=     1
 LinEq1:  Iter=  9 NonCon=     1 RMS=1.23D-07 Max=2.91D-06 NDo=     1
 LinEq1:  Iter= 10 NonCon=     1 RMS=4.28D-08 Max=6.53D-07 NDo=     1
 LinEq1:  Iter= 11 NonCon=     1 RMS=1.28D-08 Max=1.88D-07 NDo=     1
 LinEq1:  Iter= 12 NonCon=     1 RMS=3.75D-09 Max=4.31D-08 NDo=     1
 LinEq1:  Iter= 13 NonCon=     1 RMS=1.47D-09 Max=2.11D-08 NDo=     1
 LinEq1:  Iter= 14 NonCon=     1 RMS=3.39D-10 Max=7.10D-09 NDo=     1
 LinEq1:  Iter= 15 NonCon=     1 RMS=8.67D-11 Max=1.37D-09 NDo=     1
 LinEq1:  Iter= 16 NonCon=     0 RMS=2.86D-11 Max=4.72D-10 NDo=     1
 Linear equations converged to 1.000D-10 1.000D-09 after    16 iterations.
 End of Minotr F.D. properties file   721 does not exist.
 End of Minotr F.D. properties file   722 does not exist.
 End of Minotr F.D. properties file   788 does not exist.
 Calling FoFJK, ICntrl=  10002127 FMM=F ISym2X=0 I1Cent= 0 IOpClX= 0 NMat=1 NMatS=1 NMatT=0.
 ***** Axes restored to original set *****
 -------------------------------------------------------------------
 Center     Atomic                   Forces (Hartrees/Bohr)
 Number     Number              X              Y              Z
 -------------------------------------------------------------------
      1       17           0.000159381    0.007558639    0.004060317
      2        8          -0.000141715   -0.003246796    0.003033799
      3        8           0.001995217   -0.006136061   -0.006965785
[...]
 005947,-0.00005138,-0.00020118,0.00002808,-0.00001766,-0.00006411,0.00
 009333,-0.00000167,0.00041497,0.00146402,-0.00016397,-0.00678094,-0.00
 055220,0.00038916,0.00839491,-0.00358554,-0.00485970,-0.00179440,-0.00
 023028,0.00017939,-0.00012694,0.00004251,-0.00002750,0.00006077,0.0001
 0163,-0.00006333,0.00001177,0.00010027,0.00004394,-0.00001236,-0.00005
 226,0.00030398,0.00014761,-0.00375305,0.00151055,-0.00007917,0.0008121
 0,0.00700238,0.00204950,0.00263904,-0.00807844,-0.00012702,0.00071986,
 -0.00018022,-0.00006885,-0.00012877,0.00013585,0.00008321,-0.00015318,
 -0.00005534,0.00005813,-0.00004438,0.00001369,0.00033618,-0.00051825,-
 0.00005297,-0.00310166,-0.00163209,0.00029377,-0.00011693,0.00310327,0
 .00011069,0.00380608,-0.00223972,-0.00068424,0.00029887,-0.00004987,0.
 00003837,-0.00005465,0.00000841,-0.00000837,-0.00012282,0.00000470,-0.
 00001110,-0.00002857,-0.00001823,0.00000990,-0.00005856,-0.00010640,0.
 00001206,-0.00019046,-0.00112413,-0.00087118,0.00125319,0.00456108,0.0
 0028603,-0.00052009,0.00034004,-0.00086915,-0.00057689,-0.00009235,-0.
 00004505,-0.00002615,0.00003876,0.00000876,-0.00001046,0.00006496,-0.0
 0005053,0.00000533,0.00000522,0.00000368,0.00001838,0.00025143,0.00077
 492,0.00009769,-0.00219221,-0.00063215,-0.00149679,0.00519646,0.002363
 66,-0.00304119,0.00034332,-0.00087097,0.00089325,-0.00361560,-0.001552
 31,0.00016662,-0.00009884,-0.00007549,-0.00001221,-0.00000590,0.000009
 67,-0.00003718,0.00001010,0.00003895,-0.00005950,-0.00002842,0.0000345
 8,0.00066712,0.00003754,-0.00000027,0.00022639,-0.00080332,-0.00026656
 ,-0.00308231,-0.00285966,0.00538417,0.00071764,0.00018856,0.00041878,0
 .00141343,0.00355993,-0.00554384,-0.00187345,-0.00032505,-0.00270718,0
 .00059578,-0.00046790,-0.00094177,-0.00007747,-0.00043373,0.00070761,0
 .00042924,-0.00043092,0.00025267,-0.00012870,0.00030308,-0.00010426,0.
 00052698,-0.00009539,0.00088807,-0.00051430,0.00024614,-0.00077478,0.0
 0078387,0.00086923,-0.00009165,-0.00013325,-0.00009450,-0.00017108,-0.
 00034208,0.00052279,0.00066286,0.00000718,-0.00009621,-0.00014509,-0.0
 0004170,-0.00041768,-0.00039940,-0.00015199,0.00100287,0.00043958,-0.0
 0005181,-0.00009129,-0.00019397,-0.00045097,-0.00005521,-0.00059982,0.
 00021677,-0.00022193,-0.00050332,0.00012911,0.00011959,0.00000295,-0.0
 0005440,-0.00002806,-0.00008204,-0.00029726,0.00009808,0.00070867,-0.0
 0010128,0.00009625,-0.00003472,0.00010330,-0.00003803,0.00002598,-0.00
 033784,-0.00001345,-0.00044401,-0.00060149,-0.00019616,0.00050021,-0.0
 0005212,0.00010436,-0.00017548,0.00013118,0.00007955,-0.00009957,0.000
 50455,0.00014400,-0.00033447,0.00126395,-0.00127742,-0.00027490,-0.000
 16732,0.00023515,-0.00010277,0.00006310,0.00024429,0.00031278,-0.00010
 734,0.00007937,0.00002612,-0.00360120,0.00047972,0.00074317,0.00019337
 ,-0.00000203,-0.00005511,-0.00007737,-0.00020579,-0.00000741,-0.000136
 12,0.00032633,-0.00023228,-0.00007961,-0.00414513,-0.00316212,-0.00013
 920,-0.00024951,0.00018845,0.00004183,-0.00006074,-0.00003080,0.000036
 12,0.00005825,0.00000637,-0.00004985,0.00008114,-0.00000414,0.00007721
 ,0.00025756,-0.00086773,-0.00061785,0.00082595,0.00017272,0.00004428,-
 0.00011507,0.00000850,-0.00028627,-0.00013773,-0.00018092,0.00007795,-
 0.00010633,-0.00002672,0.00242367,0.00440543,-0.00017252,-0.00046850,-
 0.00092050,0.00063139,-0.00002706,0.00005211,-0.00005388,0.00005759,0.
 00007009,-0.00011402,-0.00012851,-0.00010596,-0.00001046,0.00001515,0.
 00533256,0.00312925,-0.00004462,-0.00439111,-0.00580031,-0.00000031,-0
 .00004805,-0.00016894,-0.00003274,-0.00002026,0.00007055,0.00005790,0.
 00000365,0.00009115,0.00000713,0.00003473,-0.00000641,-0.00008366,0.00
 003447,0.00080044,0.00105670,0.00091333,-0.00090698,0.00092540,0.00036
 021,0.00117137,-0.00008908,0.00006391,-0.00041183,-0.00045167,-0.00003
 712,-0.00053153,-0.00034366,-0.00014781,-0.00013794,-0.00133888,-0.000
 84094,0.00026376,0.00313940,0.00057901,-0.00129393,-0.04212808,0.00035
 437,-0.00399698,-0.00067344,0.00021437,0.00059685,-0.00008246,0.000801
 09,0.00095046,0.00056826,-0.00000368,0.00066706,0.00014079,-0.00257213
 ,0.00087558,-0.00040617,0.00496432,0.00160295,0.00158111,-0.01732214,-
 0.67824813,-0.00042186,-0.00239075,-0.00435628,-0.00029837,0.00002245,
 0.00114126,0.00218709,0.00090056,0.00198474,0.00035674,0.00053328,0.00
 065708,-0.00188561,-0.00048277,-0.00039327,0.00074686,0.00178010,0.002
 95390,0.18161693,0.01825158,-0.48122362,-0.00008723,-0.00029569,-0.001
 12809,-0.00003804,0.00003025,0.00033400,0.00038670,-0.00010843,0.00103
 117,0.00014738,0.00010879,0.00007315,0.00028222,-0.00004768,-0.0000103
 8,-0.00153159,0.00001162,-0.00010884,-0.00458867,-0.07675152,-0.032165
 19,0.00582363,0.00005735,0.00255520,0.00127641,-0.00001417,-0.00027888
 ,-0.00019188,-0.00097889,-0.00068444,-0.00080816,-0.00005240,-0.000493
 61,-0.00019397,0.00150760,-0.00068620,0.00017999,-0.00343297,0.0000193
 9,-0.00155341,-0.12461678,0.51730686,0.36967547,0.10751138,-0.46852844
 ,-0.00019047,0.00173562,0.00201602,0.00014153,-0.00009663,-0.00049275,
 -0.00112609,-0.00054319,-0.00101862,-0.00000307,-0.00028626,-0.0003116
 4,0.00152831,0.00013417,-0.00002239,-0.00199141,-0.00220732,-0.0013314
 4,-0.03217840,0.23002634,0.09402592,0.02635478,-0.30525876,-0.07769632
 ,-0.00053406,0.00049843,-0.00064952,-0.00009748,-0.00011148,0.00032755
 ,0.00003401,0.00005817,0.00010532,0.00023145,-0.00007686,0.00008327,0.
 00118184,0.00003009,-0.00004698,-0.00278113,-0.00062782,0.00039775,0.0
 4487523,0.09031532,-0.15013659,-0.00039441,0.02001888,0.00746482,-0.04
 251545,0.00016414,0.00115011,-0.00007857,-0.00011966,-0.00017757,0.000
 08177,-0.00000551,-0.00028893,-0.00001399,-0.00002043,-0.00018664,-0.0
 0001412,0.00059571,-0.00060489,0.00018410,-0.00201248,0.00059570,-0.00
 094557,0.14196166,0.16024531,-0.38828990,-0.03045872,-0.04920986,0.076
 49603,-0.11010472,-0.11152320,0.00038253,0.00070927,0.00143453,0.00005
 837,0.00002466,-0.00043210,-0.00057249,-0.00040909,-0.00060981,-0.0002
 3309,-0.00017107,-0.00022558,0.00040254,0.00015630,0.00032309,0.000386
 80,-0.00035866,-0.00150226,-0.14849843,-0.24940603,0.38521026,0.005619
 40,-0.06312566,-0.01516876,0.14245437,0.31258027,-0.36902936,-0.005219
 91,0.01000746,-0.05696159,0.00032769,-0.00089971,-0.00317749,0.0012370
 1,0.00191314,-0.00338773,-0.00418732,-0.00241540,0.00520781,-0.0001145
 6,-0.00038680,-0.00095838,0.00310173,-0.00384928,0.00713643,0.00104378
 ,-0.00033146,-0.00605315,0.00267471,0.00493729,0.00530164,0.00047965,0
 .00031129,-0.00143615,-0.00756917,-0.00278034,0.00705533,0.00061203,0.
 00039557,0.00025432,-0.00071406,-0.00052009,-0.00328861,-0.00207603,0.
 00435037,0.00540844,0.00099750,0.00021968,0.00030895,-0.00138938,-0.00
 054989,-0.00499827,0.00430785,-0.00313285,-0.00043957,0.00083067,-0.00
 016044,0.00069402,0.00033715,-0.00005143,-0.00078781,0.00208381,0.0052
 7004,0.00966539,-0.00054418,-0.00067340,-0.00077791,0.00070009,-0.0010
 7149,-0.00072176,-0.00078053,-0.00736144,-0.00440818,-0.00092503,0.000
 29796,0.00254232,0.00009706,-0.00052655,-0.00076174,-0.00044762,0.0006
 6252,-0.00042512,-0.00045915,0.00107735,-0.00380447,-0.00763274,-0.022
 65735,-0.00015362,0.00013797,0.00040418,-0.00211338,0.00112348,0.00132
 538,0.00238059,-0.00405008,0.00764445,0.00103267,4.31253338,-0.0556396
 4,0.05119762,0.00213929,0.00159966,-0.00381774,0.00326752,0.00064814,-
 0.00518614,-0.00375408,0.00921094,-0.00052914,-0.00127769,2.12136162,-
 0.18969638,-0.00134149,0.00078727,-0.02842625,-0.00184851,0.00207348,0
 .00169536,0.00204838,-0.00276011,0.00126689,0.00073468,-0.00069219,0.0
 0360554,-0.11969151,-0.04605186,-1.00117386,0.00166140,0.04667801,0.00
 050140,0.00038466,-0.00305164,0.00243776,-0.00158878,-0.00530705,-0.00
 407907,0.00250954,-0.01160540,-0.00041749,-4.30248791,-2.10509075,0.12
 073153,4.28212474,0.03944898,0.00893435,-0.00028599,-0.00276323,-0.003
 30137,0.00370476,-0.00573210,-0.00226125,-0.00282537,0.00669639,-0.008
 07942,-0.00101085,-2.10372702,0.13243695,0.04686973,2.04079019,-0.1189
 5271,0.00027364,0.00147794,0.01218256,0.00233069,-0.00191111,-0.000637
 17,-0.00304228,0.00273393,-0.00033399,0.00080344,-0.00019045,-0.000514
 16,0.12017140,0.04471653,1.02454704,-0.12504356,-0.04342676,-0.9965920
 6,0.00147890,-0.02971678,-0.00027120,0.00108218,0.00412323,-0.00313378
 ,0.00247716,0.00484066,0.00316636,-0.00485725,0.00625889,0.00070350,0.
 00095414,0.02271802,-0.00061239,0.00392988,0.02732042,0.00227196,0.017
 97693,0.00648563,-0.02686375,-0.00155210,0.00005677,0.00376956,-0.0028
 0028,0.00195402,0.00497755,0.00373013,-0.00526728,0.00508387,0.0009033
 5,-0.00625474,0.01607800,-0.00008998,0.02862059,-0.00142201,-0.0089577
 1,-0.01713037,-0.00411963,-0.00010557,-0.00157264,0.00219302,0.0005020
 1,0.00018789,-0.00071274,0.00004366,0.00028291,-0.00024415,-0.00015813
 ,0.00038013,-0.00039749,-0.00187708,-0.00004433,-0.00067902,0.00656964
 ,-0.00402191,-0.04290704,-0.00308204,0.01677367,0.05425861,0.00141177,
 -0.00576572,-0.00121665,-0.00004177,0.00081044,-0.00036380,0.00149848,
 0.00159890,0.00127334,-0.00087829,0.00109838,0.00025673,-0.00149199,0.
 00297604,0.00020016,0.01265132,-0.00279209,-0.00876165,-0.01851256,0.0
 0151306,0.01404884,0.00486558,-0.00045202,0.00238838,0.00120668,0.0000
 0927,-0.00035993,-0.00008902,-0.00075309,-0.00094320,-0.00067051,0.000
 23006,-0.00038469,-0.00025263,0.00116261,-0.00111572,0.00006468,0.0044
 1524,-0.00562610,-0.00201208,-0.00867544,0.00119848,-0.00139630,0.0017
 0366,0.00210929,-0.00091122,0.00330134,0.00155753,0.00023572,-0.000378
 18,-0.00016487,-0.00093425,-0.00091536,-0.00119757,0.00058713,-0.00058
 780,-0.00029346,0.00067886,-0.00197689,-0.00057178,-0.00422382,-0.0020
 4583,-0.00077191,0.00494726,-0.00531758,0.00122868,-0.00295988,0.00574
 488,0.00020761,0.00008077,-0.00226323,-0.00066195,0.00007695,0.0003651
 5,-0.00023018,0.00056732,0.00049841,0.00051449,-0.00028339,0.00043996,
 0.00015934,0.00091373,0.00221598,-0.00022087,0.00081516,0.00075844,0.0
 1099635,-0.00452939,-0.00997768,-0.01594131,0.00049746,0.00235971,0.00
 258020,0.00186139,0.00007527,-0.00062342,-0.00056146,-0.00015098,-0.00
 001632,0.00011174,0.00022602,0.00011376,0.00028020,-0.00016396,0.00015
 185,0.00012654,0.00074088,0.00063256,-0.00020103,0.00455082,-0.0017284
 3,0.00756971,-0.00973865,0.00129788,-0.01058942,-0.00114266,0.00273351
 ,0.00217544,0.00560326,-0.00256140,0.00165628,-0.00389325,0.00058337,0
 .00002948,0.00078079,-0.00081106,-0.00014400,0.00064803,0.00021480,-0.
 00097462,0.00063757,0.00004858,-0.00042792,0.00298152,-0.00026390,0.00
 352362,0.00304220,0.00502671,-0.00398967,-0.00268951,-0.01273988,-0.00
 247711,-0.00259568,0.00000577,0.00280394,0.00108830,0.00793560,-0.0015
 8351,-0.00038151,-0.00120158,0.00022712,-0.00134991,-0.00287440,-0.000
 21556,-0.00046190,0.00050441,0.00025647,-0.00039098,0.00010538,0.00001
 730,0.00036146,-0.00002211,0.00048333,0.00019777,0.00081039,-0.0005147
 6,0.00021831,-0.00052626,0.00053388,0.00081375,0.00110476,-0.00003857,
 -0.00001105,-0.00023023,-0.00070425,0.00018980,0.00150234,0.00115086,-
 0.00002125,-0.00018328,-0.00027969,-0.00079793,-0.00131409,-0.00011114
 ,0.00118006,0.00134409,-0.00000224,-0.00011960,-0.00025780,-0.00087909
 ,-0.00093596,-0.00114563,0.00031819,0.00014116,-0.00024740,0.00011747,
 0.00010615,-0.00009769,-0.00010646,-0.00014698,-0.00012908,-0.00047127
 ,-0.00001118,0.00049412,0.00016530,0.00011236,-0.00000136,-0.00001482,
 -0.00000317,-0.00026110,-0.00031218,-0.00004525,-0.00034426,-0.0005846
 3,0.00003021,0.00078368,-0.00002791,0.00005557,-0.00019231,-0.00007391
 ,-0.00014795,-0.00027997,0.00044442,0.00003791,-0.00030535,0.00058390,
 0.00058484,-0.00073342,-0.00017234,-0.00007569,0.00022430,0.00023101,0
 .00022883,0.00035109,0.00017357,-0.00020729,0.00004794,0.00550371,0.00
 008891,-0.00017937,0.00047313,0.00008489,0.00000940,-0.00023053,-0.000
 04185,-0.00020373,-0.00017783,-0.00006063,-0.00000789,-0.00009096,0.00
 182419,-0.00035237,-0.00019861,0.00014663,0.00050529,0.00003084,-0.000
 14695,-0.00002671,-0.00002827,-0.00005891,-0.00010184,-0.00010602,0.00
 004238,-0.00009939,0.00001725,-0.00010488,-0.00146598,-0.00019617,-0.0
 0125102,0.00069381,0.00014759,0.00026204,-0.00037489,-0.00006534,-0.00
 017602,-0.00031344,-0.00019078,0.00022892,-0.00011763,-0.00817267,-0.0
 0233148,0.00000471,0.01104377,0.00006090,-0.00046253,0.00019674,0.0000
 5457,0.00009997,-0.00009287,-0.00000486,-0.00000426,-0.00012363,-0.000
 12959,0.00005809,-0.00003242,-0.00327406,0.00046399,0.00006217,0.00504
 207,-0.00073009,-0.00002123,-0.00007490,-0.00006905,0.00001114,0.00001
 014,0.00004741,0.00003933,0.00005716,0.00009565,0.00005518,0.00003365,
 -0.00001049,0.00013228,0.00012911,0.00156808,0.00023924,-0.00058752,-0
 .00378929,0.00115399,0.00007977,-0.00073346,-0.00026309,-0.00009372,0.
 00035849,-0.00045012,0.00015019,0.00025811,-0.00008067,-0.00010773,0.0
 0015732,0.00109040,-0.00008622,0.00005564,-0.00127613,0.00185809,0.000
 34744,-0.82282489,-0.00067767,-0.00014372,0.00048067,0.00020367,-0.000
 08349,-0.00014009,0.00016156,-0.00007808,-0.00015404,0.00011714,0.0000
 8899,-0.00008924,0.00079648,0.00016938,-0.00019292,-0.00058419,-0.0001
 9982,-0.00000286,-0.45925613,2.18882348,0.00059837,0.00130244,0.000814
 45,-0.00007173,-0.00016398,-0.00021963,-0.00035959,-0.00024085,-0.0002
 2095,-0.00017270,-0.00027373,-0.00015052,0.00052529,-0.00045740,-0.000
 07719,-0.00082966,0.00008780,-0.00056491,-1.38520387,1.26952942,2.5517
 2574,-0.00041278,0.00080572,-0.00056791,0.00018689,-0.00022574,0.00012
 768,0.00037165,0.00048310,0.00075988,0.00022139,-0.00004075,0.00012175
 ,0.00087840,0.00031617,0.00025772,-0.00132977,-0.00283014,-0.00104933,
 0.61589020,0.78756798,0.61078535,-0.63961897,0.00074478,-0.00133353,-0
 .00177484,-0.00030867,0.00018091,0.00049435,0.00025586,0.00076810,0.00
 084503,0.00007038,0.00021772,0.00033882,-0.00059237,0.00042421,0.00030
 191,0.00041795,0.00089222,0.00030043,0.81410708,-2.21277219,-2.2704743
 8,-0.80389504,2.18365132,0.00083818,-0.00259530,-0.00139885,-0.0001834
 9,0.00037179,0.00015069,0.00020773,0.00074480,0.00079864,-0.00000636,0
 .00048246,0.00025390,-0.00178315,0.00066549,0.00001956,0.00265264,0.00
 146662,0.00128951,0.60742252,-2.18869030,-0.85321037,-0.63268239,2.238
 24382,0.88363917,-0.00018223,-0.00033084,-0.00024793,-0.00001885,0.000
 06752,0.00002376,0.00022824,0.00009028,0.00006591,0.00001857,0.0000741
 0,0.00003267,-0.00011600,0.00020600,-0.00003325,0.00003955,-0.00077697
 ,0.00024594,0.20676027,-0.32832885,0.77472855,0.02381298,-0.01079998,0
 .02353432,-0.23054253,0.00037693,0.00121879,0.00064074,-0.00002514,-0.
 00010542,-0.00015241,-0.00037231,-0.00022589,-0.00020185,-0.00005239,-
 0.00024434,-0.00010193,0.00071507,-0.00032361,-0.00004943,-0.00160826,
 -0.00011758,0.00013479,-0.35665136,0.02419545,1.00069068,0.01781871,0.
 02797123,-0.05068937,0.33979874,-0.05236864,-0.00123141,0.00116299,0.0
 0008426,0.00025374,-0.00024258,0.00021424,0.00021928,-0.00028945,-0.00
 023217,0.00025964,-0.00016097,0.00000044,0.00121843,-0.00020613,-0.000
 32180,-0.00195478,-0.00097688,0.00143309,0.77733781,0.91925935,-1.6980
 9665,0.02224725,0.03172487,-0.03154224,-0.79834996,-0.95027121,1.72846
 082,-0.00075601,0.00006400,-0.00038028,0.00021329,-0.00067500,-0.00097
 128,0.00006915,-0.00035193,0.00051974,-0.00012882,-0.00027282,0.000130
 66,0.00026570,0.00024931,-0.00011557,0.00052054,0.00067485,0.00079150,
 -0.00049618,-0.00032300,-0.00046855,0.00010491,0.00037994,0.00088431,-
 0.00001807,0.00008972,-0.00024240,-0.00089596,-0.00000662,0.00011493,0
 .00022161,0.00001506,0.00000693,-0.00036217,-0.00041061,-0.00032015,-0
 .00007296,0.00012098,0.00001827,-0.00002181,-0.00002622,-0.00004714,-0
 .00058352,-0.00007147,0.00005308,-0.00008190,0.00067353,-0.00040421,0.
 00008277,-0.00009072,0.00001522,-0.00004951,-0.00018138,-0.00011815,0.
 00012856,0.00038931,0.00063529,-0.00003143,-0.00003401,-0.00003190,0.0
 0005174,-0.00001409,-0.00017642,-0.00012017,-0.00042426,-0.00054230,-0
 .00050445,-0.00013007,0.00089555,0.00001437,0.00012724,-0.00036019,-0.
 00008941,0.00000152,-0.00013940,0.00041790,0.00003068,-0.00045490,-0.0
 0010247,-0.00053498,-0.00023378,-0.00000064,0.00001612,0.00003004,0.00
 032019,0.00008351,0.00016600,-0.00013233,0.00004711,-0.00004319,0.0009
 2357,-0.00016299,0.00012422,0.00068571,0.00011790,-0.00003790,-0.00015
 603,-0.00030085,0.00023750,-0.00014687,-0.00011715,0.00001190,-0.00012
 073,0.00069564,-0.00075588,-0.00009249,0.00021870,-0.00025846,-0.00001
 238,-0.00004546,-0.00012052,-0.00009712,0.00002702,-0.00002632,-0.0000
 1054,0.00001387,-0.00000474,-0.00009131,-0.00036811,0.00035639,-0.0001
 5632,0.00090983,0.00027166,0.00002155,-0.00004694,-0.00000040,-0.00029
 673,-0.00032910,-0.00025353,0.00008606,-0.00020187,-0.00005210,-0.0001
 1888,-0.00062684,0.00017922,-0.00159138,0.00004538,0.00008490,0.000045
 53,0.00002117,-0.00004171,0.00006047,-0.00013340,-0.00013617,-0.000144
 98,0.00006883,-0.00005695,-0.00000023,-0.00008609,0.00004057,0.0001316
 4,-0.00052372,0.00057227,0.00003184,-0.00004784,0.00007945,-0.00000439
 ,0.00003758,0.00002314,-0.00007535,0.00003126,-0.00001376,0.00008023,0
 .00003928,-0.00002590,0.00037862,0.00019940,0.00000583,-0.00061689,-0.
 00062314,-0.00008393,0.00192541,-0.00060006,-0.00077935,-0.00039373,0.
 00003347,0.00023189,-0.00031153,0.00018035,0.00033133,-0.00038714,-0.0
 0004212,0.00015450,0.00040122,0.00043200,0.00020988,0.00130305,0.00258
 208,-0.00019045,-0.85737880,-0.00157645,0.00096236,0.00056571,0.000291
 84,-0.00019676,-0.00014837,0.00010474,-0.00019071,-0.00017222,0.000185
 66,-0.00007450,-0.00012443,0.00155119,-0.00009666,-0.00025637,-0.00096
 792,-0.00207184,0.00034346,0.16743522,1.43164922,0.00122208,0.00022179
 ,-0.00019294,-0.00025051,-0.00009909,-0.00003636,-0.00019433,0.0001118
 6,0.00023634,-0.00027223,-0.00011890,-0.00001190,0.00002899,0.00002779
 ,0.00072702,0.00121997,0.00119010,-0.00299095,-1.72055339,-0.46438757,
 3.34593589,-0.00052116,-0.00047611,-0.00116927,0.00009917,-0.00005207,
 0.00024165,0.00129788,0.00066866,0.00074437,0.00025083,0.00020497,0.00
 020786,-0.00040762,0.00019749,0.00029913,0.00032843,-0.00110614,-0.000
 65913,0.41984716,0.48969470,0.35248567,-0.41893402,0.00088112,-0.00062
 207,0.00035447,-0.00010872,0.00021251,-0.00014839,-0.00023406,0.000017
 23,-0.00015243,-0.00012153,0.00003354,-0.00001533,-0.00075130,0.000178
 73,-0.00015387,0.00070464,0.00111670,0.00073402,0.48728757,-1.43137576
 ,-1.36632521,-0.49012721,1.42875700,-0.00038819,-0.00080089,-0.0006908
 2,0.00002973,0.00011071,0.00012710,0.00028068,0.00019713,0.00014128,0.
 00011340,0.00018174,0.00011775,-0.00026495,0.00030803,-0.00000275,0.00
 033238,-0.00024810,0.00070354,0.35163377,-1.36841881,-0.43599953,-0.34
 838988,1.37358672,0.42945775,-0.00048174,-0.00006426,0.00069761,0.0002
 6863,0.00007394,-0.00030035,-0.00015120,-0.00001987,-0.00019173,0.0001
 0268,0.00007498,-0.00010548,-0.00088309,-0.00023520,-0.00038439,0.0004
 2424,-0.00086811,0.00105553,0.43499435,-0.65671897,1.36631376,-0.00196
 068,0.00246948,-0.00334695,-0.43231319,0.00063905,-0.00105008,-0.00143
 229,-0.00020062,0.00007375,0.00035092,0.00051861,0.00044687,0.00071338
 ,0.00000702,0.00020135,0.00023134,-0.00102121,0.00029753,0.00043257,0.
 00108195,0.00049223,-0.00071401,-0.65730853,0.00139461,1.82937923,0.00
 099571,0.00168214,-0.00491651,0.65528802,-0.00353840,-0.00092969,0.000
 41748,0.00032887,0.00022144,-0.00004745,0.00009102,0.00011716,-0.00015
 675,-0.00022235,0.00017838,-0.00004681,-0.00001628,0.00002961,-0.00042
 919,-0.00067643,-0.00108031,-0.00041129,0.00230258,1.36896181,1.832598
 58,-2.90766759,-0.00376040,-0.00787998,0.00614568,-1.36373800,-1.82404
 462,2.89971449\\@


 SOME PEOPLE TRY TO PULL THE WOOL OVER YOUR EYES
 USING THE WRONG YARN.
 Job cpu time:      50 days 15 hours  5 minutes 52.7 seconds.
 Elapsed time:       1 days 20 hours  6 minutes 26.7 seconds.
 File lengths (MBytes):  RWF=  56768 Int=      0 D2E=      0 Chk=     64 Scr=      8
 Normal termination of Gaussian 16 at Sun Jun 27 13:08:23 2021.
