 Entering Gaussian System, Link 0=g16
 Input=hno3_h2o_mp2_avdz_opt_anharm.gjf
 Output=hno3_h2o_mp2_avdz_opt_anharm.log
 Initial command:
 /sw/contrib/chem-src/g16/c01/g16/l1.exe "/scr/Gau-41189.inp" -scrdir="/scr/"
 Entering Link 1 = /sw/contrib/chem-src/g16/c01/g16/l1.exe PID=     41192.
  
 Copyright (c) 1988-2019, Gaussian, Inc.  All Rights Reserved.
  
 This is part of the Gaussian(R) 16 program.  It is based on
 the Gaussian(R) 09 system (copyright 2009, Gaussian, Inc.),
 the Gaussian(R) 03 system (copyright 2003, Gaussian, Inc.),
 the Gaussian(R) 98 system (copyright 1998, Gaussian, Inc.),
 the Gaussian(R) 94 system (copyright 1995, Gaussian, Inc.),
 the Gaussian 92(TM) system (copyright 1992, Gaussian, Inc.),
 the Gaussian 90(TM) system (copyright 1990, Gaussian, Inc.),
 the Gaussian 88(TM) system (copyright 1988, Gaussian, Inc.),
 the Gaussian 86(TM) system (copyright 1986, Carnegie Mellon
 University), and the Gaussian 82(TM) system (copyright 1983,
 Carnegie Mellon University). Gaussian is a federally registered
 trademark of Gaussian, Inc.
  
 This software contains proprietary and confidential information,
 including trade secrets, belonging to Gaussian, Inc.
  
 This software is provided under written license and may be
 used, copied, transmitted, or stored only in accord with that
 written license.
  
 The following legend is applicable only to US Government
 contracts under FAR:
  
                    RESTRICTED RIGHTS LEGEND
  
 Use, reproduction and disclosure by the US Government is
 subject to restrictions as set forth in subparagraphs (a)
 and (c) of the Commercial Computer Software - Restricted
 Rights clause in FAR 52.227-19.
  
 Gaussian, Inc.
 340 Quinnipiac St., Bldg. 40, Wallingford CT 06492
  
  
 ---------------------------------------------------------------
 Warning -- This program may not be used in any manner that
 competes with the business of Gaussian, Inc. or will provide
 assistance to any competitor of Gaussian, Inc.  The licensee
 of this program is prohibited from giving any competitor of
 Gaussian, Inc. access to this program.  By using this program,
 the user acknowledges that Gaussian, Inc. is engaged in the
 business of creating and licensing software in the field of
 computational chemistry and represents and warrants to the
 licensee that it is not a competitor of Gaussian, Inc. and that
 it will not use this program in any manner prohibited above.
 ---------------------------------------------------------------
  

 Cite this work as:
 Gaussian 16, Revision C.01,
 M. J. Frisch, G. W. Trucks, H. B. Schlegel, G. E. Scuseria, 
 M. A. Robb, J. R. Cheeseman, G. Scalmani, V. Barone, 
 G. A. Petersson, H. Nakatsuji, X. Li, M. Caricato, A. V. Marenich, 
 J. Bloino, B. G. Janesko, R. Gomperts, B. Mennucci, H. P. Hratchian, 
 J. V. Ortiz, A. F. Izmaylov, J. L. Sonnenberg, D. Williams-Young, 
 F. Ding, F. Lipparini, F. Egidi, J. Goings, B. Peng, A. Petrone, 
 T. Henderson, D. Ranasinghe, V. G. Zakrzewski, J. Gao, N. Rega, 
 G. Zheng, W. Liang, M. Hada, M. Ehara, K. Toyota, R. Fukuda, 
 J. Hasegawa, M. Ishida, T. Nakajima, Y. Honda, O. Kitao, H. Nakai, 
 T. Vreven, K. Throssell, J. A. Montgomery, Jr., J. E. Peralta, 
 F. Ogliaro, M. J. Bearpark, J. J. Heyd, E. N. Brothers, K. N. Kudin, 
 V. N. Staroverov, T. A. Keith, R. Kobayashi, J. Normand, 
 K. Raghavachari, A. P. Rendell, J. C. Burant, S. S. Iyengar, 
 J. Tomasi, M. Cossi, J. M. Millam, M. Klene, C. Adamo, R. Cammi, 
 J. W. Ochterski, R. L. Martin, K. Morokuma, O. Farkas, 
 J. B. Foresman, and D. J. Fox, Gaussian, Inc., Wallingford CT, 2019.
 
 ******************************************
 Gaussian 16:  EM64L-G16RevC.01  3-Jul-2019
                19-Mar-2025 
 ******************************************
 %nprocshared=40
 Will use up to   40 processors via shared memory.
 %mem=50gb
 ----------------------------------------------
 # MP2/aug-cc-pVDZ opt freq=(vibrot,anharmonic)
 ----------------------------------------------
 1/18=20,19=15,38=1,80=1/1,3;
 2/9=110,12=2,17=6,18=5,40=1/2;
 3/5=16,7=10,11=9,25=1,30=1,71=1/1,2,3;
 4//1;
 5/5=2,38=5/2;
 8/6=4,10=1/1;
 9/15=2,16=-3/6;
 10/5=1/2;
 6/7=2,8=2,9=2,10=2/1;
 7/12=2/1,2,3,16;
 1/18=20,19=15,80=1/3(2);
 2/9=110/2;
 99//99;
 2/9=110/2;
 3/5=16,7=10,11=9,25=1,30=1,71=1/1,2,3;
 4/5=5,16=3,69=1/1;
 5/5=2,38=5/2;
 8/6=4,10=1/1;
 9/15=2,16=-3/6;
 10/5=1/2;
 7/12=2/1,2,3,16;
 1/18=20,19=15,80=1/3(-8);
 2/9=110/2;
 6/7=2,8=2,9=2,10=2/1;
 99/9=10/99;
 ----
 blah
 ----
 Symbolic Z-matrix:
 Charge =  0 Multiplicity = 1
 O                     0.09609  -1.07046  -0.01069 
 N                     0.85222   0.07729   0.00244 
 O                     2.04457  -0.10404   0.01864 
 O                     0.24523   1.13838  -0.00384 
 H                    -0.8439   -0.74299  -0.02055 
 O                    -2.38307  -0.02832  -0.08115 
 H                    -2.08905   0.88516   0.0265 
 H                    -3.05518  -0.16774   0.59331 
 
 Add virtual bond connecting atoms O6         and H5         Dist= 3.21D+00.

 GradGradGradGradGradGradGradGradGradGradGradGradGradGradGradGradGradGrad
 Berny optimization.
 Initialization pass.
                           ----------------------------
                           !    Initial Parameters    !
                           ! (Angstroms and Degrees)  !
 --------------------------                            --------------------------
 ! Name  Definition              Value          Derivative Info.                !
 --------------------------------------------------------------------------------
 ! R1    R(1,2)                  1.3745         estimate D2E/DX2                !
 ! R2    R(1,5)                  0.9954         estimate D2E/DX2                !
 ! R3    R(2,3)                  1.2062         estimate D2E/DX2                !
 ! R4    R(2,4)                  1.2224         estimate D2E/DX2                !
 ! R5    R(5,6)                  1.6981         estimate D2E/DX2                !
 ! R6    R(6,7)                  0.9657         estimate D2E/DX2                !
 ! R7    R(6,8)                  0.9623         estimate D2E/DX2                !
 ! A1    A(2,1,5)              104.1738         estimate D2E/DX2                !
 ! A2    A(1,2,3)              114.7344         estimate D2E/DX2                !
 ! A3    A(1,2,4)              116.8471         estimate D2E/DX2                !
 ! A4    A(3,2,4)              128.4185         estimate D2E/DX2                !
 ! A5    A(5,6,7)               96.786          estimate D2E/DX2                !
 ! A6    A(5,6,8)              123.1669         estimate D2E/DX2                !
 ! A7    A(7,6,8)              105.7589         estimate D2E/DX2                !
 ! A8    L(1,5,6,4,-1)         174.3094         estimate D2E/DX2                !
 ! A9    L(1,5,6,4,-2)         178.4798         estimate D2E/DX2                !
 ! D1    D(5,1,2,3)            179.8521         estimate D2E/DX2                !
 ! D2    D(5,1,2,4)             -0.1599         estimate D2E/DX2                !
 ! D3    D(2,1,6,7)             -6.2738         estimate D2E/DX2                !
 ! D4    D(2,1,6,8)           -119.1696         estimate D2E/DX2                !
 ! D5    D(1,2,3,4)            179.9863         estimate D2E/DX2                !
 ! D6    D(5,6,7,8)           -127.3035         estimate D2E/DX2                !
 --------------------------------------------------------------------------------
 Trust Radius=3.00D-01 FncErr=1.00D-07 GrdErr=1.00D-07 EigMax=2.50D+02 EigMin=1.00D-04
 Number of steps in this run=     32 maximum allowed number of steps=    100.
 GradGradGradGradGradGradGradGradGradGradGradGradGradGradGradGradGradGrad

                          Input orientation:                          
 ---------------------------------------------------------------------
 Center     Atomic      Atomic             Coordinates (Angstroms)
 Number     Number       Type             X           Y           Z
 ---------------------------------------------------------------------
      1          8           0        0.096090   -1.070457   -0.010693
      2          7           0        0.852219    0.077288    0.002440
      3          8           0        2.044572   -0.104036    0.018637
      4          8           0        0.245233    1.138377   -0.003839
      5          1           0       -0.843897   -0.742988   -0.020552
      6          8           0       -2.383072   -0.028315   -0.081147
      7          1           0       -2.089045    0.885164    0.026497
      8          1           0       -3.055181   -0.167739    0.593306
 ---------------------------------------------------------------------
                    Distance matrix (angstroms):
                    1          2          3          4          5
     1  O    0.000000
     2  N    1.374490   0.000000
     3  O    2.175181   1.206170   0.000000
     4  O    2.213874   1.222449   2.186714   0.000000
     5  H    0.995444   1.884195   2.958555   2.173941   0.000000
     6  O    2.690217   3.238093   4.429416   2.876653   1.698084
     7  H    2.932687   3.050291   4.250337   2.348168   2.050240
     8  H    3.333200   3.959411   5.132425   3.599341   2.365906
                    6          7          8
     6  O    0.000000
     7  H    0.965652   0.000000
     8  H    0.962318   1.537302   0.000000
 Stoichiometry    H3NO4
 Framework group  C1[X(H3NO4)]
 Deg. of freedom    18
 Full point group                 C1      NOp   1
 Largest Abelian subgroup         C1      NOp   1
 Largest concise Abelian subgroup C1      NOp   1
                         Standard orientation:                         
 ---------------------------------------------------------------------
 Center     Atomic      Atomic             Coordinates (Angstroms)
 Number     Number       Type             X           Y           Z
 ---------------------------------------------------------------------
      1          8           0        0.096090   -1.070457   -0.010693
      2          7           0        0.852219    0.077288    0.002440
      3          8           0        2.044572   -0.104036    0.018637
      4          8           0        0.245233    1.138377   -0.003839
      5          1           0       -0.843897   -0.742988   -0.020552
      6          8           0       -2.383072   -0.028315   -0.081147
      7          1           0       -2.089045    0.885164    0.026497
      8          1           0       -3.055181   -0.167739    0.593306
 ---------------------------------------------------------------------
 Rotational constants (GHZ):          12.2838394           2.7536065           2.2583246
 Standard basis: Aug-CC-pVDZ (5D, 7F)
 There are   152 symmetry adapted cartesian basis functions of A   symmetry.
 There are   142 symmetry adapted basis functions of A   symmetry.
   142 basis functions,   248 primitive gaussians,   152 cartesian basis functions
    21 alpha electrons       21 beta electrons
       nuclear repulsion energy       189.2480345562 Hartrees.
 NAtoms=    8 NActive=    8 NUniq=    8 SFac= 1.00D+00 NAtFMM=   60 NAOKFM=F Big=F
 Integral buffers will be    131072 words long.
 Raffenetti 1 integral format.
 Two-electron integral symmetry is turned on.
 One-electron integrals computed using PRISM.
 NBasis=   142 RedAO= T EigKep=  2.44D-04  NBF=   142
 NBsUse=   142 1.00D-06 EigRej= -1.00D+00 NBFU=   142
 ExpMin= 2.97D-02 ExpMax= 1.17D+04 ExpMxC= 4.01D+02 IAcc=3 IRadAn=         5 AccDes= 0.00D+00
 Harris functional with IExCor=  205 and IRadAn=       5 diagonalized for initial guess.
 HarFok:  IExCor=  205 AccDes= 0.00D+00 IRadAn=         5 IDoV= 1 UseB2=F ITyADJ=14
 ICtDFT=  3500011 ScaDFX=  1.000000  1.000000  1.000000  1.000000
 FoFCou: FMM=F IPFlag=           0 FMFlag=      100000 FMFlg1=           0
         NFxFlg=           0 DoJE=T BraDBF=F KetDBF=T FulRan=T
         wScrn=  0.000000 ICntrl=       500 IOpCl=  0 I1Cent=   200000004 NGrid=           0
         NMat0=    1 NMatS0=      1 NMatT0=    0 NMatD0=    1 NMtDS0=    0 NMtDT0=    0
 Petite list used in FoFCou.
 Keep R1 ints in memory in canonical form, NReq=60190988.
 Requested convergence on RMS density matrix=1.00D-08 within 128 cycles.
 Requested convergence on MAX density matrix=1.00D-06.
 Requested convergence on             energy=1.00D-06.
 No special actions if energy rises.
 SCF Done:  E(RHF) =  -355.550714879     A.U. after   15 cycles
            NFock= 15  Conv=0.47D-08     -V/T= 2.0019
 ExpMin= 2.97D-02 ExpMax= 1.17D+04 ExpMxC= 4.01D+02 IAcc=3 IRadAn=         5 AccDes= 0.00D+00
 HarFok:  IExCor=  205 AccDes= 0.00D+00 IRadAn=         5 IDoV=-2 UseB2=F ITyADJ=14
 ICtDFT= 12500011 ScaDFX=  1.000000  1.000000  1.000000  1.000000
 Range of M.O.s used for correlation:     6   142
 NBasis=   142 NAE=    21 NBE=    21 NFC=     5 NFV=     0
 NROrb=    137 NOA=    16 NOB=    16 NVA=   121 NVB=   121

 **** Warning!!: The largest alpha MO coefficient is  0.15860486D+02

 Fully direct method using O(ONN) memory.
 JobTyp=1 Pass  1:  I=   6 to  21 NPSUse= 40 ParTrn=T ParDer=T DoDerP=T.
 Spin components of T(2) and E(2):
     alpha-alpha T2 =       0.4099883026D-01 E2=     -0.1392668404D+00
     alpha-beta  T2 =       0.2102479742D+00 E2=     -0.7326184310D+00
     beta-beta   T2 =       0.4099883026D-01 E2=     -0.1392668404D+00
 ANorm=    0.1136769825D+01
 E2 =    -0.1011152112D+01 EUMP2 =    -0.35656186699108D+03
          IDoAtm=11111111
          Differentiating once with respect to electric field.
                with respect to dipole field.
          Differentiating once with respect to nuclear coordinates.
 Keep R1 ints in memory in canonical form, NReq=60198014.
          There are     1 degrees of freedom in the 1st order CPHF.  IDoFFX=0 NUNeed=     1.
 LinEq1:  Iter=  0 NonCon=     1 RMS=6.64D-03 Max=1.74D-01 NDo=     1
 AX will form     1 AO Fock derivatives at one time.
 LinEq1:  Iter=  1 NonCon=     1 RMS=2.00D-03 Max=2.41D-02 NDo=     1
 LinEq1:  Iter=  2 NonCon=     1 RMS=8.18D-04 Max=2.05D-02 NDo=     1
 LinEq1:  Iter=  3 NonCon=     1 RMS=1.87D-04 Max=2.91D-03 NDo=     1
 LinEq1:  Iter=  4 NonCon=     1 RMS=7.96D-05 Max=6.30D-04 NDo=     1
 LinEq1:  Iter=  5 NonCon=     1 RMS=2.90D-05 Max=8.62D-04 NDo=     1
 LinEq1:  Iter=  6 NonCon=     1 RMS=1.09D-05 Max=1.64D-04 NDo=     1
 LinEq1:  Iter=  7 NonCon=     1 RMS=5.99D-06 Max=1.58D-04 NDo=     1
 LinEq1:  Iter=  8 NonCon=     1 RMS=1.99D-06 Max=1.65D-05 NDo=     1
 LinEq1:  Iter=  9 NonCon=     1 RMS=6.94D-07 Max=6.48D-06 NDo=     1
 LinEq1:  Iter= 10 NonCon=     1 RMS=2.59D-07 Max=2.25D-06 NDo=     1
 LinEq1:  Iter= 11 NonCon=     1 RMS=7.57D-08 Max=6.05D-07 NDo=     1
 LinEq1:  Iter= 12 NonCon=     1 RMS=1.75D-08 Max=1.59D-07 NDo=     1
 LinEq1:  Iter= 13 NonCon=     1 RMS=4.17D-09 Max=3.85D-08 NDo=     1
 LinEq1:  Iter= 14 NonCon=     1 RMS=7.57D-10 Max=1.39D-08 NDo=     1
 LinEq1:  Iter= 15 NonCon=     1 RMS=1.42D-10 Max=1.74D-09 NDo=     1
 LinEq1:  Iter= 16 NonCon=     0 RMS=3.37D-11 Max=5.54D-10 NDo=     1
 Linear equations converged to 1.000D-10 1.000D-09 after    16 iterations.
 End of Minotr F.D. properties file   721 does not exist.
 End of Minotr F.D. properties file   722 does not exist.
 End of Minotr F.D. properties file   788 does not exist.

 **********************************************************************

            Population analysis using the SCF Density.

 **********************************************************************

 Orbital symmetries:
       Occupied  (A) (A) (A) (A) (A) (A) (A) (A) (A) (A) (A) (A)
                 (A) (A) (A) (A) (A) (A) (A) (A) (A)
       Virtual   (A) (A) (A) (A) (A) (A) (A) (A) (A) (A) (A) (A)
                 (A) (A) (A) (A) (A) (A) (A) (A) (A) (A) (A) (A)
                 (A) (A) (A) (A) (A) (A) (A) (A) (A) (A) (A) (A)
                 (A) (A) (A) (A) (A) (A) (A) (A) (A) (A) (A) (A)
                 (A) (A) (A) (A) (A) (A) (A) (A) (A) (A) (A) (A)
                 (A) (A) (A) (A) (A) (A) (A) (A) (A) (A) (A) (A)
                 (A) (A) (A) (A) (A) (A) (A) (A) (A) (A) (A) (A)
                 (A) (A) (A) (A) (A) (A) (A) (A) (A) (A) (A) (A)
                 (A) (A) (A) (A) (A) (A) (A) (A) (A) (A) (A) (A)
                 (A) (A) (A) (A) (A) (A) (A) (A) (A) (A) (A) (A)
                 (A)
 The electronic state is 1-A.
 Alpha  occ. eigenvalues --  -20.67392 -20.64145 -20.63658 -20.62560 -15.93202
 Alpha  occ. eigenvalues --   -1.67595  -1.44949  -1.43130  -1.40420  -0.94659
 Alpha  occ. eigenvalues --   -0.82008  -0.77804  -0.77654  -0.76775  -0.68942
 Alpha  occ. eigenvalues --   -0.63045  -0.56280  -0.55700  -0.53598  -0.51676
 Alpha  occ. eigenvalues --   -0.48647
 Alpha virt. eigenvalues --    0.02386   0.05562   0.06186   0.08594   0.12192
 Alpha virt. eigenvalues --    0.14191   0.14812   0.17382   0.18343   0.19740
 Alpha virt. eigenvalues --    0.20089   0.22256   0.22949   0.23544   0.23736
 Alpha virt. eigenvalues --    0.25037   0.27661   0.29014   0.30506   0.31346
 Alpha virt. eigenvalues --    0.31561   0.34038   0.35733   0.37652   0.39082
 Alpha virt. eigenvalues --    0.41146   0.42315   0.45567   0.47119   0.49140
 Alpha virt. eigenvalues --    0.51218   0.54101   0.54504   0.56514   0.59479
 Alpha virt. eigenvalues --    0.63365   0.68230   0.68523   0.74409   0.76148
 Alpha virt. eigenvalues --    0.80985   0.83596   0.87413   0.91349   0.95398
 Alpha virt. eigenvalues --    0.98168   0.99582   1.01422   1.06843   1.11102
 Alpha virt. eigenvalues --    1.12552   1.15256   1.17184   1.17611   1.18313
 Alpha virt. eigenvalues --    1.22070   1.22940   1.26067   1.27307   1.28947
 Alpha virt. eigenvalues --    1.29349   1.30094   1.34255   1.37178   1.40024
 Alpha virt. eigenvalues --    1.42233   1.47103   1.50835   1.54460   1.58114
 Alpha virt. eigenvalues --    1.62047   1.70017   1.75651   1.84614   1.88538
 Alpha virt. eigenvalues --    1.93844   1.98904   1.99329   2.03684   2.09813
 Alpha virt. eigenvalues --    2.11436   2.16294   2.24090   2.27636   2.33226
 Alpha virt. eigenvalues --    2.35159   2.39861   2.41235   2.43623   2.45678
 Alpha virt. eigenvalues --    2.51487   2.61504   2.68359   2.72352   2.89278
 Alpha virt. eigenvalues --    2.96390   3.01911   3.08316   3.42193   3.47509
 Alpha virt. eigenvalues --    3.59473   3.62641   3.63607   3.64523   3.65974
 Alpha virt. eigenvalues --    3.67475   3.67539   3.68781   3.70167   3.79483
 Alpha virt. eigenvalues --    3.81491   3.83365   3.87734   3.90550   3.94922
 Alpha virt. eigenvalues --    4.04657   4.14207   4.18698   4.29691   4.34841
 Alpha virt. eigenvalues --    4.48708
          Condensed to atoms (all electrons):
               1          2          3          4          5          6
     1  O    8.549188  -0.137253  -0.084966  -0.057690   0.338607  -0.078314
     2  N   -0.137253   5.776254  -0.006696  -0.049199  -0.060618   0.017591
     3  O   -0.084966  -0.006696   8.805987  -0.094129   0.000110  -0.002823
     4  O   -0.057690  -0.049199  -0.094129   8.846055  -0.008871   0.000467
     5  H    0.338607  -0.060618   0.000110  -0.008871   0.380085  -0.018520
     6  O   -0.078314   0.017591  -0.002823   0.000467  -0.018520   7.845750
     7  H   -0.001533  -0.005329  -0.000180   0.000586  -0.003828   0.351763
     8  H   -0.004386   0.004322  -0.000372   0.000332  -0.002429   0.361982
               7          8
     1  O   -0.001533  -0.004386
     2  N   -0.005329   0.004322
     3  O   -0.000180  -0.000372
     4  O    0.000586   0.000332
     5  H   -0.003828  -0.002429
     6  O    0.351763   0.361982
     7  H    0.471670  -0.041685
     8  H   -0.041685   0.491136
 Mulliken charges:
               1
     1  O   -0.523653
     2  N    1.460928
     3  O   -0.616931
     4  O   -0.637550
     5  H    0.375464
     6  O   -0.477895
     7  H    0.228536
     8  H    0.191100
 Sum of Mulliken charges =  -0.00000
 Mulliken charges with hydrogens summed into heavy atoms:
               1
     1  O   -0.148189
     2  N    1.460928
     3  O   -0.616931
     4  O   -0.637550
     6  O   -0.058258
 Electronic spatial extent (au):  <R**2>=            491.9804
 Charge=             -0.0000 electrons
 Dipole moment (field-independent basis, Debye):
    X=             -4.1450    Y=              0.2132    Z=              1.3000  Tot=              4.3493
 Quadrupole moment (field-independent basis, Debye-Ang):
   XX=            -25.2175   YY=            -30.5580   ZZ=            -27.8117
   XY=             -1.0056   XZ=             -4.4306   YZ=             -0.1901
 Traceless Quadrupole moment (field-independent basis, Debye-Ang):
   XX=              2.6449   YY=             -2.6956   ZZ=              0.0507
   XY=             -1.0056   XZ=             -4.4306   YZ=             -0.1901
 Octapole moment (field-independent basis, Debye-Ang**2):
  XXX=            -36.6725  YYY=              0.2599  ZZZ=              0.9632  XYY=             -7.3743
  XXY=              2.2327  XXZ=             13.8153  XZZ=             -1.4108  YZZ=              0.0820
  YYZ=              0.1842  XYZ=              0.6334
 Hexadecapole moment (field-independent basis, Debye-Ang**3):
 XXXX=           -352.1255 YYYY=           -109.6852 ZZZZ=            -23.1799 XXXY=             -1.1327
 XXXZ=            -44.9516 YYYX=             -3.2782 YYYZ=             -0.0450 ZZZX=             -3.4157
 ZZZY=             -0.2099 XXYY=            -80.6048 XXZZ=            -68.4690 YYZZ=            -22.5714
 XXYZ=             -2.1394 YYXZ=             -0.7931 ZZXY=              0.3900
 N-N= 1.892480345562D+02 E-N=-1.219380483000D+03  KE= 3.548597906144D+02
 Calling FoFJK, ICntrl=  10002127 FMM=F ISym2X=0 I1Cent= 0 IOpClX= 0 NMat=1 NMatS=1 NMatT=0.
 ***** Axes restored to original set *****
 -------------------------------------------------------------------
 Center     Atomic                   Forces (Hartrees/Bohr)
 Number     Number              X              Y              Z
 -------------------------------------------------------------------
      1        8          -0.001197274   -0.006518638   -0.000089997
      2        7          -0.004884836   -0.003613141   -0.000089461
      3        8           0.015258285   -0.002441072    0.000225739
      4        8          -0.006199497    0.012242364   -0.000089766
      5        1          -0.002072231    0.000141497    0.000071900
      6        8           0.000978999   -0.003132622   -0.003533734
      7        1           0.000900918    0.003656101    0.000660744
      8        1          -0.002784364   -0.000334489    0.002844574
 -------------------------------------------------------------------
 Cartesian Forces:  Max     0.015258285 RMS     0.004856914

 GradGradGradGradGradGradGradGradGradGradGradGradGradGradGradGradGradGrad
 Berny optimization.
 FormGI is forming the generalized inverse of G from B-inverse, IUseBI=4.
 Internal  Forces:  Max     0.015453494 RMS     0.004905735
 Search for a local minimum.
 Step number   1 out of a maximum of   32
 All quantities printed in internal units (Hartrees-Bohrs-Radians)
 Mixed Optimization -- RFO/linear search
 Second derivative matrix not updated -- first step.
 ITU=  0
     Eigenvalues ---    0.00230   0.00230   0.00230   0.01632   0.03239
     Eigenvalues ---    0.05625   0.07436   0.11144   0.16000   0.16000
     Eigenvalues ---    0.25000   0.25000   0.48498   0.50123   0.54275
     Eigenvalues ---    0.54978   0.94306   1.01783
 RFO step:  Lambda=-8.77235327D-04 EMin= 2.30000000D-03
 Linear search not attempted -- first point.
 Iteration  1 RMS(Cart)=  0.15514802 RMS(Int)=  0.01491233
 Iteration  2 RMS(Cart)=  0.04028331 RMS(Int)=  0.00075553
 Iteration  3 RMS(Cart)=  0.00113929 RMS(Int)=  0.00038005
 Iteration  4 RMS(Cart)=  0.00000019 RMS(Int)=  0.00038005
 Variable       Old X    -DE/DX   Delta X   Delta X   Delta X     New X
                                 (Linear)    (Quad)   (Total)
    R1        2.59741   0.00746   0.00000   0.01487   0.01487   2.61227
    R2        1.88112   0.00292   0.00000   0.00601   0.00602   1.88714
    R3        2.27933   0.01545   0.00000   0.01517   0.01517   2.29450
    R4        2.31009   0.01371   0.00000   0.01452   0.01452   2.32461
    R5        3.20891   0.00090   0.00000   0.01196   0.01195   3.22087
    R6        1.82482   0.00381   0.00000   0.00700   0.00700   1.83182
    R7        1.81852   0.00399   0.00000   0.00724   0.00724   1.82576
    A1        1.81818   0.00209   0.00000   0.01300   0.01300   1.83117
    A2        2.00249  -0.00072   0.00000  -0.00286  -0.00286   1.99963
    A3        2.03937   0.00116   0.00000   0.00464   0.00464   2.04401
    A4        2.24133  -0.00045   0.00000  -0.00178  -0.00178   2.23955
    A5        1.68924   0.00021   0.00000   0.00060   0.00109   1.69032
    A6        2.14967   0.00007   0.00000   0.00024   0.00016   2.14982
    A7        1.84584  -0.00041   0.00000  -0.00373  -0.00275   1.84309
    A8        3.04227   0.00084   0.00000   0.25331   0.25348   3.29575
    A9        3.11506  -0.00006   0.00000  -0.01047  -0.01064   3.10442
    D1        3.13901  -0.00005   0.00000  -0.00307  -0.00306   3.13595
    D2       -0.00279  -0.00006   0.00000  -0.00334  -0.00333  -0.00613
    D3       -0.10950  -0.00014   0.00000   0.00745   0.00655  -0.10295
    D4       -2.07990   0.00001   0.00000  -0.04540  -0.04448  -2.12438
    D5        3.14135  -0.00001   0.00000  -0.00031  -0.00031   3.14105
    D6       -2.22187  -0.00002   0.00000   0.00083   0.00035  -2.22152
         Item               Value     Threshold  Converged?
 Maximum Force            0.015453     0.000450     NO 
 RMS     Force            0.004906     0.000300     NO 
 Maximum Displacement     0.439418     0.001800     NO 
 RMS     Displacement     0.191621     0.001200     NO 
 Predicted change in Energy=-4.687073D-04
 GradGradGradGradGradGradGradGradGradGradGradGradGradGradGradGradGradGrad

                          Input orientation:                          
 ---------------------------------------------------------------------
 Center     Atomic      Atomic             Coordinates (Angstroms)
 Number     Number       Type             X           Y           Z
 ---------------------------------------------------------------------
      1          8           0        0.063703   -0.983343    0.005063
      2          7           0        0.954119    0.074023   -0.001452
      3          8           0        2.123919   -0.250922    0.014540
      4          8           0        0.477763    1.207978   -0.022835
      5          1           0       -0.840000   -0.558496   -0.004331
      6          8           0       -2.474338   -0.080272   -0.076788
      7          1           0       -2.319232    0.873472    0.000461
      8          1           0       -3.119015   -0.295146    0.609991
 ---------------------------------------------------------------------
                    Distance matrix (angstroms):
                    1          2          3          4          5
     1  O    0.000000
     2  N    1.382356   0.000000
     3  O    2.186554   1.214198   0.000000
     4  O    2.230272   1.230132   2.199912   0.000000
     5  H    0.998630   1.902355   2.979895   2.203922   0.000000
     6  O    2.695160   3.432754   4.602328   3.221397   1.704409
     7  H    3.020955   3.369563   4.583236   2.817024   2.058807
     8  H    3.311985   4.135283   5.276824   3.949261   2.375006
                    6          7          8
     6  O    0.000000
     7  H    0.969357   0.000000
     8  H    0.966150   1.541703   0.000000
 Stoichiometry    H3NO4
 Framework group  C1[X(H3NO4)]
 Deg. of freedom    18
 Full point group                 C1      NOp   1
 Largest Abelian subgroup         C1      NOp   1
 Largest concise Abelian subgroup C1      NOp   1
                         Standard orientation:                         
 ---------------------------------------------------------------------
 Center     Atomic      Atomic             Coordinates (Angstroms)
 Number     Number       Type             X           Y           Z
 ---------------------------------------------------------------------
      1          8           0        0.003160   -0.975939   -0.013430
      2          7           0        0.909308    0.067869    0.002899
      3          8           0        2.074078   -0.274843    0.014512
      4          8           0        0.450018    1.209043    0.003396
      5          1           0       -0.894063   -0.537480   -0.015954
      6          8           0       -2.520905   -0.033437   -0.081796
      7          1           0       -2.351713    0.916135    0.014855
      8          1           0       -3.170187   -0.252330    0.599352
 ---------------------------------------------------------------------
 Rotational constants (GHZ):          12.1616354           2.5049090           2.0848475
 Standard basis: Aug-CC-pVDZ (5D, 7F)
 There are   152 symmetry adapted cartesian basis functions of A   symmetry.
 There are   142 symmetry adapted basis functions of A   symmetry.
   142 basis functions,   248 primitive gaussians,   152 cartesian basis functions
    21 alpha electrons       21 beta electrons
       nuclear repulsion energy       185.6323461070 Hartrees.
 NAtoms=    8 NActive=    8 NUniq=    8 SFac= 1.00D+00 NAtFMM=   60 NAOKFM=F Big=F
 Integral buffers will be    131072 words long.
 Raffenetti 1 integral format.
 Two-electron integral symmetry is turned on.
 One-electron integrals computed using PRISM.
 NBasis=   142 RedAO= T EigKep=  2.36D-04  NBF=   142
 NBsUse=   142 1.00D-06 EigRej= -1.00D+00 NBFU=   142
 Initial guess from the checkpoint file:  "/scr/Gau-41192.chk"
 B after Tr=    -0.000000    0.000000    0.000000
         Rot=    0.999788   -0.003859   -0.000292    0.020235 Ang=  -2.36 deg.
 ExpMin= 2.97D-02 ExpMax= 1.17D+04 ExpMxC= 4.01D+02 IAcc=3 IRadAn=         5 AccDes= 0.00D+00
 Harris functional with IExCor=  205 and IRadAn=       5 diagonalized for initial guess.
 HarFok:  IExCor=  205 AccDes= 0.00D+00 IRadAn=         5 IDoV= 1 UseB2=F ITyADJ=14
 ICtDFT=  3500011 ScaDFX=  1.000000  1.000000  1.000000  1.000000
 FoFCou: FMM=F IPFlag=           0 FMFlag=      100000 FMFlg1=           0
         NFxFlg=           0 DoJE=T BraDBF=F KetDBF=T FulRan=T
         wScrn=  0.000000 ICntrl=       500 IOpCl=  0 I1Cent=   200000004 NGrid=           0
         NMat0=    1 NMatS0=      1 NMatT0=    0 NMatD0=    1 NMtDS0=    0 NMtDT0=    0
 Petite list used in FoFCou.
 Keep R1 ints in memory in canonical form, NReq=60185554.
 Requested convergence on RMS density matrix=1.00D-08 within 128 cycles.
 Requested convergence on MAX density matrix=1.00D-06.
 Requested convergence on             energy=1.00D-06.
 No special actions if energy rises.
 SCF Done:  E(RHF) =  -355.546807323     A.U. after   15 cycles
            NFock= 15  Conv=0.40D-08     -V/T= 2.0023
 ExpMin= 2.97D-02 ExpMax= 1.17D+04 ExpMxC= 4.01D+02 IAcc=3 IRadAn=         5 AccDes= 0.00D+00
 HarFok:  IExCor=  205 AccDes= 0.00D+00 IRadAn=         5 IDoV=-2 UseB2=F ITyADJ=14
 ICtDFT= 12500011 ScaDFX=  1.000000  1.000000  1.000000  1.000000
 Range of M.O.s used for correlation:     6   142
 NBasis=   142 NAE=    21 NBE=    21 NFC=     5 NFV=     0
 NROrb=    137 NOA=    16 NOB=    16 NVA=   121 NVB=   121

 **** Warning!!: The largest alpha MO coefficient is  0.17762576D+02

 Fully direct method using O(ONN) memory.
 JobTyp=1 Pass  1:  I=   6 to  21 NPSUse= 40 ParTrn=T ParDer=T DoDerP=T.
 Spin components of T(2) and E(2):
     alpha-alpha T2 =       0.4139532293D-01 E2=     -0.1395343268D+00
     alpha-beta  T2 =       0.2126862107D+00 E2=     -0.7351226881D+00
     beta-beta   T2 =       0.4139532293D-01 E2=     -0.1395343268D+00
 ANorm=    0.1138190167D+01
 E2 =    -0.1014191342D+01 EUMP2 =    -0.35656099866485D+03
          IDoAtm=11111111
          Differentiating once with respect to electric field.
                with respect to dipole field.
          Differentiating once with respect to nuclear coordinates.
 Keep R1 ints in memory in canonical form, NReq=60193694.
          There are     1 degrees of freedom in the 1st order CPHF.  IDoFFX=0 NUNeed=     1.
 LinEq1:  Iter=  0 NonCon=     1 RMS=6.75D-03 Max=1.69D-01 NDo=     1
 AX will form     1 AO Fock derivatives at one time.
 LinEq1:  Iter=  1 NonCon=     1 RMS=2.07D-03 Max=2.90D-02 NDo=     1
 LinEq1:  Iter=  2 NonCon=     1 RMS=8.51D-04 Max=2.02D-02 NDo=     1
 LinEq1:  Iter=  3 NonCon=     1 RMS=1.94D-04 Max=2.72D-03 NDo=     1
 LinEq1:  Iter=  4 NonCon=     1 RMS=8.28D-05 Max=8.55D-04 NDo=     1
 LinEq1:  Iter=  5 NonCon=     1 RMS=2.99D-05 Max=8.63D-04 NDo=     1
 LinEq1:  Iter=  6 NonCon=     1 RMS=1.08D-05 Max=1.49D-04 NDo=     1
 LinEq1:  Iter=  7 NonCon=     1 RMS=6.26D-06 Max=1.77D-04 NDo=     1
 LinEq1:  Iter=  8 NonCon=     1 RMS=2.18D-06 Max=2.05D-05 NDo=     1
 LinEq1:  Iter=  9 NonCon=     1 RMS=7.77D-07 Max=7.99D-06 NDo=     1
 LinEq1:  Iter= 10 NonCon=     1 RMS=2.93D-07 Max=3.83D-06 NDo=     1
 LinEq1:  Iter= 11 NonCon=     1 RMS=8.51D-08 Max=6.46D-07 NDo=     1
 LinEq1:  Iter= 12 NonCon=     1 RMS=1.94D-08 Max=1.39D-07 NDo=     1
 LinEq1:  Iter= 13 NonCon=     1 RMS=4.34D-09 Max=3.65D-08 NDo=     1
 LinEq1:  Iter= 14 NonCon=     1 RMS=6.80D-10 Max=7.42D-09 NDo=     1
 LinEq1:  Iter= 15 NonCon=     1 RMS=1.27D-10 Max=2.42D-09 NDo=     1
 LinEq1:  Iter= 16 NonCon=     0 RMS=3.39D-11 Max=7.46D-10 NDo=     1
 Linear equations converged to 1.000D-10 1.000D-09 after    16 iterations.
 End of Minotr F.D. properties file   721 does not exist.
 End of Minotr F.D. properties file   722 does not exist.
 End of Minotr F.D. properties file   788 does not exist.
 Calling FoFJK, ICntrl=  10002127 FMM=F ISym2X=0 I1Cent= 0 IOpClX= 0 NMat=1 NMatS=1 NMatT=0.
 ***** Axes restored to original set *****
 -------------------------------------------------------------------
 Center     Atomic                   Forces (Hartrees/Bohr)
 Number     Number              X              Y              Z
 -------------------------------------------------------------------
      1        8          -0.000790195    0.000553098    0.000080089
      2        7          -0.001108254    0.002386761   -0.000042831
      3        8           0.003195157   -0.001547636    0.000048230
      4        8          -0.003362373   -0.001186378    0.000061104
      5        1           0.001586991   -0.003904263    0.000085597
      6        8           0.002769002    0.002755581   -0.001452821
      7        1          -0.002676396    0.000365145    0.000405151
      8        1           0.000386069    0.000577691    0.000815482
 -------------------------------------------------------------------
 Cartesian Forces:  Max     0.003904263 RMS     0.001790432

 GradGradGradGradGradGradGradGradGradGradGradGradGradGradGradGradGradGrad
 Berny optimization.
 Using GEDIIS/GDIIS optimizer.
 FormGI is forming the generalized inverse of G from B-inverse, IUseBI=4.
 Internal  Forces:  Max     0.008767874 RMS     0.003074916
 Search for a local minimum.
 Step number   2 out of a maximum of   32
 All quantities printed in internal units (Hartrees-Bohrs-Radians)
 Mixed Optimization -- RFO/linear search
 Update second derivatives using D2CorX and points    2    1
 DE=  8.68D-04 DEPred=-4.69D-04 R=-1.85D+00
 Trust test=-1.85D+00 RLast= 2.60D-01 DXMaxT set to 1.50D-01
 ITU= -1  0
 Use linear search instead of GDIIS.
     Eigenvalues ---    0.00229   0.00230   0.01407   0.01648   0.03236
     Eigenvalues ---    0.05514   0.07173   0.11640   0.15447   0.18896
     Eigenvalues ---    0.24890   0.26666   0.35021   0.48790   0.53052
     Eigenvalues ---    0.54660   0.69793   0.97989
 RFO step:  Lambda=-1.97314698D-03 EMin= 2.29477923D-03
 Quartic linear search produced a step of -0.80358.
 Maximum step size (   0.150) exceeded in Quadratic search.
    -- Step size scaled by   0.594
 Iteration  1 RMS(Cart)=  0.12483896 RMS(Int)=  0.03220400
 Iteration  2 RMS(Cart)=  0.10776111 RMS(Int)=  0.00355871
 Iteration  3 RMS(Cart)=  0.00515762 RMS(Int)=  0.00033139
 Iteration  4 RMS(Cart)=  0.00000206 RMS(Int)=  0.00033139
 Iteration  5 RMS(Cart)=  0.00000000 RMS(Int)=  0.00033139
 Variable       Old X    -DE/DX   Delta X   Delta X   Delta X     New X
                                 (Linear)    (Quad)   (Total)
    R1        2.61227  -0.00109  -0.01195   0.02551   0.01357   2.62584
    R2        1.88714  -0.00195  -0.00484   0.00989   0.00504   1.89218
    R3        2.29450   0.00349  -0.01219   0.02691   0.01472   2.30922
    R4        2.32461   0.00021  -0.01167   0.02532   0.01366   2.33827
    R5        3.22087   0.00059  -0.00960   0.02107   0.01147   3.23233
    R6        1.83182  -0.00004  -0.00563   0.01216   0.00653   1.83835
    R7        1.82576   0.00019  -0.00582   0.01263   0.00681   1.83257
    A1        1.83117  -0.00877  -0.01044   0.01467   0.00423   1.83540
    A2        1.99963   0.00179   0.00230  -0.00395  -0.00165   1.99798
    A3        2.04401  -0.00503  -0.00373   0.00521   0.00148   2.04549
    A4        2.23955   0.00324   0.00143  -0.00127   0.00016   2.23971
    A5        1.69032   0.00411  -0.00088   0.00555   0.00514   1.69546
    A6        2.14982  -0.00119  -0.00012  -0.00056  -0.00082   2.14900
    A7        1.84309  -0.00129   0.00221  -0.00569  -0.00261   1.84048
    A8        3.29575  -0.00736  -0.20369  -0.13893  -0.34245   2.95331
    A9        3.10442   0.00014   0.00855  -0.00214   0.00629   3.11072
    D1        3.13595   0.00011   0.00246  -0.00341  -0.00095   3.13499
    D2       -0.00613   0.00019   0.00268  -0.00353  -0.00086  -0.00699
    D3       -0.10295   0.00000  -0.00526  -0.01437  -0.02044  -0.12339
    D4       -2.12438   0.00048   0.03574   0.01509   0.05160  -2.07278
    D5        3.14105   0.00009   0.00025  -0.00014   0.00010   3.14115
    D6       -2.22152  -0.00004  -0.00028   0.00024  -0.00041  -2.22193
         Item               Value     Threshold  Converged?
 Maximum Force            0.008768     0.000450     NO 
 RMS     Force            0.003075     0.000300     NO 
 Maximum Displacement     0.527640     0.001800     NO 
 RMS     Displacement     0.231986     0.001200     NO 
 Predicted change in Energy=-4.960012D-04
 GradGradGradGradGradGradGradGradGradGradGradGradGradGradGradGradGradGrad

                          Input orientation:                          
 ---------------------------------------------------------------------
 Center     Atomic      Atomic             Coordinates (Angstroms)
 Number     Number       Type             X           Y           Z
 ---------------------------------------------------------------------
      1          8           0        0.103340   -1.095901   -0.015320
      2          7           0        0.837685    0.083612    0.001911
      3          8           0        2.049262   -0.074525    0.020076
      4          8           0        0.202431    1.145443   -0.003268
      5          1           0       -0.855455   -0.807360   -0.022520
      6          8           0       -2.370946   -0.016719   -0.085036
      7          1           0       -2.040017    0.889291    0.041442
      8          1           0       -3.059380   -0.136547    0.587365
 ---------------------------------------------------------------------
                    Distance matrix (angstroms):
                    1          2          3          4          5
     1  O    0.000000
     2  N    1.389536   0.000000
     3  O    2.197970   1.221989   0.000000
     4  O    2.243565   1.237359   2.213516   0.000000
     5  H    1.001297   1.913414   2.996038   2.221021   0.000000
     6  O    2.700293   3.211376   4.421835   2.824814   1.710478
     7  H    2.922018   2.988620   4.201381   2.257473   2.070243
     8  H    3.359522   3.946941   5.140417   3.554118   2.383115
                    6          7          8
     6  O    0.000000
     7  H    0.972813   0.000000
     8  H    0.969755   1.545793   0.000000
 Stoichiometry    H3NO4
 Framework group  C1[X(H3NO4)]
 Deg. of freedom    18
 Full point group                 C1      NOp   1
 Largest Abelian subgroup         C1      NOp   1
 Largest concise Abelian subgroup C1      NOp   1
                         Standard orientation:                         
 ---------------------------------------------------------------------
 Center     Atomic      Atomic             Coordinates (Angstroms)
 Number     Number       Type             X           Y           Z
 ---------------------------------------------------------------------
      1          8           0        0.110975   -1.100394   -0.010094
      2          7           0        0.842708    0.080803    0.002140
      3          8           0        2.054647   -0.074574    0.019991
      4          8           0        0.205091    1.141193   -0.006563
      5          1           0       -0.848464   -0.814013   -0.017661
      6          8           0       -2.365755   -0.026980   -0.082017
      7          1           0       -2.036748    0.880233    0.040797
      8          1           0       -3.053421   -0.145801    0.591348
 ---------------------------------------------------------------------
 Rotational constants (GHZ):          11.9464884           2.7737435           2.2600693
 Standard basis: Aug-CC-pVDZ (5D, 7F)
 There are   152 symmetry adapted cartesian basis functions of A   symmetry.
 There are   142 symmetry adapted basis functions of A   symmetry.
   142 basis functions,   248 primitive gaussians,   152 cartesian basis functions
    21 alpha electrons       21 beta electrons
       nuclear repulsion energy       188.0282446755 Hartrees.
 NAtoms=    8 NActive=    8 NUniq=    8 SFac= 1.00D+00 NAtFMM=   60 NAOKFM=F Big=F
 Integral buffers will be    131072 words long.
 Raffenetti 1 integral format.
 Two-electron integral symmetry is turned on.
 One-electron integrals computed using PRISM.
 NBasis=   142 RedAO= T EigKep=  2.60D-04  NBF=   142
 NBsUse=   142 1.00D-06 EigRej= -1.00D+00 NBFU=   142
 Lowest energy guess from the checkpoint file:  "/scr/Gau-41192.chk"
 B after Tr=    -0.000000   -0.000000    0.000000
         Rot=    0.999992    0.000933    0.000066   -0.003855 Ang=   0.45 deg.
 B after Tr=     0.000000   -0.000000    0.000000
         Rot=    0.999695    0.004795    0.000340   -0.024236 Ang=   2.83 deg.
 Keep R1 ints in memory in canonical form, NReq=60191047.
 Requested convergence on RMS density matrix=1.00D-08 within 128 cycles.
 Requested convergence on MAX density matrix=1.00D-06.
 Requested convergence on             energy=1.00D-06.
 No special actions if energy rises.
 SCF Done:  E(RHF) =  -355.543706863     A.U. after   13 cycles
            NFock= 13  Conv=0.62D-08     -V/T= 2.0025
 ExpMin= 2.97D-02 ExpMax= 1.17D+04 ExpMxC= 4.01D+02 IAcc=3 IRadAn=         5 AccDes= 0.00D+00
 HarFok:  IExCor=  205 AccDes= 0.00D+00 IRadAn=         5 IDoV=-2 UseB2=F ITyADJ=14
 ICtDFT= 12500011 ScaDFX=  1.000000  1.000000  1.000000  1.000000
 Range of M.O.s used for correlation:     6   142
 NBasis=   142 NAE=    21 NBE=    21 NFC=     5 NFV=     0
 NROrb=    137 NOA=    16 NOB=    16 NVA=   121 NVB=   121

 **** Warning!!: The largest alpha MO coefficient is  0.16128787D+02

 Fully direct method using O(ONN) memory.
 JobTyp=1 Pass  1:  I=   6 to  21 NPSUse= 40 ParTrn=T ParDer=T DoDerP=T.
 Spin components of T(2) and E(2):
     alpha-alpha T2 =       0.4184052993D-01 E2=     -0.1401762932D+00
     alpha-beta  T2 =       0.2147041650D+00 E2=     -0.7377845965D+00
     beta-beta   T2 =       0.4184052993D-01 E2=     -0.1401762932D+00
 ANorm=    0.1139467079D+01
 E2 =    -0.1018137183D+01 EUMP2 =    -0.35656184404595D+03
          IDoAtm=11111111
          Differentiating once with respect to electric field.
                with respect to dipole field.
          Differentiating once with respect to nuclear coordinates.
 Keep R1 ints in memory in canonical form, NReq=60198132.
          There are     1 degrees of freedom in the 1st order CPHF.  IDoFFX=0 NUNeed=     1.
 LinEq1:  Iter=  0 NonCon=     1 RMS=6.88D-03 Max=1.92D-01 NDo=     1
 AX will form     1 AO Fock derivatives at one time.
 LinEq1:  Iter=  1 NonCon=     1 RMS=2.13D-03 Max=2.76D-02 NDo=     1
 LinEq1:  Iter=  2 NonCon=     1 RMS=8.86D-04 Max=2.32D-02 NDo=     1
 LinEq1:  Iter=  3 NonCon=     1 RMS=2.09D-04 Max=3.31D-03 NDo=     1
 LinEq1:  Iter=  4 NonCon=     1 RMS=8.95D-05 Max=7.47D-04 NDo=     1
 LinEq1:  Iter=  5 NonCon=     1 RMS=3.38D-05 Max=1.02D-03 NDo=     1
 LinEq1:  Iter=  6 NonCon=     1 RMS=1.30D-05 Max=1.52D-04 NDo=     1
 LinEq1:  Iter=  7 NonCon=     1 RMS=7.16D-06 Max=1.90D-04 NDo=     1
 LinEq1:  Iter=  8 NonCon=     1 RMS=2.42D-06 Max=2.05D-05 NDo=     1
 LinEq1:  Iter=  9 NonCon=     1 RMS=8.26D-07 Max=7.72D-06 NDo=     1
 LinEq1:  Iter= 10 NonCon=     1 RMS=3.22D-07 Max=4.30D-06 NDo=     1
 LinEq1:  Iter= 11 NonCon=     1 RMS=9.12D-08 Max=6.38D-07 NDo=     1
 LinEq1:  Iter= 12 NonCon=     1 RMS=2.04D-08 Max=1.73D-07 NDo=     1
 LinEq1:  Iter= 13 NonCon=     1 RMS=4.74D-09 Max=3.41D-08 NDo=     1
 LinEq1:  Iter= 14 NonCon=     1 RMS=7.68D-10 Max=1.04D-08 NDo=     1
 LinEq1:  Iter= 15 NonCon=     1 RMS=1.55D-10 Max=3.65D-09 NDo=     1
 LinEq1:  Iter= 16 NonCon=     0 RMS=4.42D-11 Max=9.69D-10 NDo=     1
 Linear equations converged to 1.000D-10 1.000D-09 after    16 iterations.
 End of Minotr F.D. properties file   721 does not exist.
 End of Minotr F.D. properties file   722 does not exist.
 End of Minotr F.D. properties file   788 does not exist.
 Calling FoFJK, ICntrl=  10002127 FMM=F ISym2X=0 I1Cent= 0 IOpClX= 0 NMat=1 NMatS=1 NMatT=0.
 ***** Axes restored to original set *****
 -------------------------------------------------------------------
 Center     Atomic                   Forces (Hartrees/Bohr)
 Number     Number              X              Y              Z
 -------------------------------------------------------------------
      1        8           0.001574779    0.001500179    0.000101702
      2        7           0.000328901    0.003213743    0.000041266
      3        8          -0.009996001    0.001080098   -0.000182966
      4        8           0.005999100   -0.007808919    0.000059954
      5        1           0.003228696    0.003484214   -0.000053454
      6        8          -0.002839326    0.001114947    0.002741397
      7        1          -0.000474419   -0.003062909   -0.000321823
      8        1           0.002178271    0.000478646   -0.002386076
 -------------------------------------------------------------------
 Cartesian Forces:  Max     0.009996001 RMS     0.003372904

 GradGradGradGradGradGradGradGradGradGradGradGradGradGradGradGradGradGrad
 Berny optimization.
 Using GEDIIS/GDIIS optimizer.
 FormGI is forming the generalized inverse of G from B-inverse, IUseBI=4.
 Internal  Forces:  Max     0.010053328 RMS     0.003515558
 Search for a local minimum.
 Step number   3 out of a maximum of   32
 All quantities printed in internal units (Hartrees-Bohrs-Radians)
 Mixed Optimization -- RFO/linear search
 Update second derivatives using D2CorX and points    2    3    1
 DE=  2.29D-05 DEPred=-4.96D-04 R=-4.63D-02
 Trust test=-4.63D-02 RLast= 1.10D-01 DXMaxT set to 7.50D-02
 ITU= -1 -1  0
 Use linear search instead of GDIIS.
 Energy rises -- skip Quadratic/GDIIS search.
 Quartic linear search produced a step of -0.51264.
 Iteration  1 RMS(Cart)=  0.02296507 RMS(Int)=  0.00025141
 Iteration  2 RMS(Cart)=  0.00046659 RMS(Int)=  0.00000727
 Iteration  3 RMS(Cart)=  0.00000002 RMS(Int)=  0.00000727
 Variable       Old X    -DE/DX   Delta X   Delta X   Delta X     New X
                                 (Linear)    (Quad)   (Total)
    R1        2.62584  -0.00492  -0.01458   0.00000  -0.01458   2.61127
    R2        1.89218  -0.00142  -0.00567   0.00000  -0.00567   1.88651
    R3        2.30922  -0.01005  -0.01532   0.00000  -0.01532   2.29390
    R4        2.33827  -0.00978  -0.01444   0.00000  -0.01444   2.32383
    R5        3.23233   0.00032  -0.01201   0.00000  -0.01201   3.22033
    R6        1.83835  -0.00306  -0.00694   0.00000  -0.00694   1.83141
    R7        1.83257  -0.00326  -0.00720   0.00000  -0.00720   1.82537
    A1        1.83540  -0.00012  -0.00883   0.00000  -0.00883   1.82657
    A2        1.99798  -0.00123   0.00231   0.00000   0.00231   2.00030
    A3        2.04549   0.00195  -0.00314   0.00000  -0.00314   2.04235
    A4        2.23971  -0.00072   0.00083   0.00000   0.00083   2.24054
    A5        1.69546  -0.00115  -0.00319   0.00000  -0.00320   1.69226
    A6        2.14900   0.00042   0.00034   0.00000   0.00034   2.14934
    A7        1.84048  -0.00008   0.00275   0.00000   0.00273   1.84321
    A8        2.95331   0.00463   0.04561   0.00000   0.04560   2.99891
    A9        3.11072   0.00004   0.00223   0.00000   0.00223   3.11295
    D1        3.13499   0.00002   0.00206   0.00000   0.00206   3.13705
    D2       -0.00699  -0.00002   0.00215   0.00000   0.00215  -0.00484
    D3       -0.12339   0.00001   0.00712   0.00000   0.00714  -0.11625
    D4       -2.07278  -0.00017  -0.00365   0.00000  -0.00367  -2.07645
    D5        3.14115  -0.00004   0.00010   0.00000   0.00010   3.14125
    D6       -2.22193   0.00008   0.00003   0.00000   0.00004  -2.22189
         Item               Value     Threshold  Converged?
 Maximum Force            0.010053     0.000450     NO 
 RMS     Force            0.003516     0.000300     NO 
 Maximum Displacement     0.062447     0.001800     NO 
 RMS     Displacement     0.022786     0.001200     NO 
 Predicted change in Energy=-2.827473D-04
 GradGradGradGradGradGradGradGradGradGradGradGradGradGradGradGradGradGrad

                          Input orientation:                          
 ---------------------------------------------------------------------
 Center     Atomic      Atomic             Coordinates (Angstroms)
 Number     Number       Type             X           Y           Z
 ---------------------------------------------------------------------
      1          8           0        0.099730   -1.083039   -0.013148
      2          7           0        0.845498    0.080158    0.002256
      3          8           0        2.047259   -0.090078    0.019412
      4          8           0        0.224872    1.141757   -0.003279
      5          1           0       -0.849593   -0.774315   -0.021662
      6          8           0       -2.377614   -0.022377   -0.083125
      7          1           0       -2.065466    0.887629    0.033878
      8          1           0       -3.057765   -0.152440    0.590316
 ---------------------------------------------------------------------
                    Distance matrix (angstroms):
                    1          2          3          4          5
     1  O    0.000000
     2  N    1.381823   0.000000
     3  O    2.186298   1.213880   0.000000
     4  O    2.228335   1.229716   2.199779   0.000000
     5  H    0.998296   1.898427   2.976846   2.196849   0.000000
     6  O    2.695762   3.225873   4.426579   2.852108   1.704124
     7  H    2.928108   3.021046   4.227366   2.304693   2.059973
     8  H    3.346634   3.954160   5.137226   3.578129   2.374294
                    6          7          8
     6  O    0.000000
     7  H    0.969142   0.000000
     8  H    0.965942   1.541436   0.000000
 Stoichiometry    H3NO4
 Framework group  C1[X(H3NO4)]
 Deg. of freedom    18
 Full point group                 C1      NOp   1
 Largest Abelian subgroup         C1      NOp   1
 Largest concise Abelian subgroup C1      NOp   1
                         Standard orientation:                         
 ---------------------------------------------------------------------
 Center     Atomic      Atomic             Coordinates (Angstroms)
 Number     Number       Type             X           Y           Z
 ---------------------------------------------------------------------
      1          8           0        0.103442   -1.085130   -0.010413
      2          7           0        0.847793    0.079008    0.002297
      3          8           0        2.049768   -0.089723    0.019319
      4          8           0        0.225866    1.139834   -0.005173
      5          1           0       -0.846260   -0.777585   -0.019180
      6          8           0       -2.375225   -0.027644   -0.081575
      7          1           0       -2.064144    0.882982    0.033429
      8          1           0       -3.054947   -0.157152    0.592406
 ---------------------------------------------------------------------
 Rotational constants (GHZ):          12.1176826           2.7623739           2.2585205
 Standard basis: Aug-CC-pVDZ (5D, 7F)
 There are   152 symmetry adapted cartesian basis functions of A   symmetry.
 There are   142 symmetry adapted basis functions of A   symmetry.
   142 basis functions,   248 primitive gaussians,   152 cartesian basis functions
    21 alpha electrons       21 beta electrons
       nuclear repulsion energy       188.6346151500 Hartrees.
 NAtoms=    8 NActive=    8 NUniq=    8 SFac= 1.00D+00 NAtFMM=   60 NAOKFM=F Big=F
 Integral buffers will be    131072 words long.
 Raffenetti 1 integral format.
 Two-electron integral symmetry is turned on.
 One-electron integrals computed using PRISM.
 NBasis=   142 RedAO= T EigKep=  2.52D-04  NBF=   142
 NBsUse=   142 1.00D-06 EigRej= -1.00D+00 NBFU=   142
 Lowest energy guess from the checkpoint file:  "/scr/Gau-41192.chk"
 B after Tr=    -0.000000   -0.000000   -0.000000
         Rot=    0.999998    0.000456    0.000034   -0.001870 Ang=   0.22 deg.
 B after Tr=    -0.000000   -0.000000   -0.000000
         Rot=    0.999998   -0.000477   -0.000032    0.001984 Ang=  -0.23 deg.
 Keep R1 ints in memory in canonical form, NReq=60191296.
 Requested convergence on RMS density matrix=1.00D-08 within 128 cycles.
 Requested convergence on MAX density matrix=1.00D-06.
 Requested convergence on             energy=1.00D-06.
 No special actions if energy rises.
 SCF Done:  E(RHF) =  -355.547604703     A.U. after    8 cycles
            NFock=  8  Conv=0.34D-08     -V/T= 2.0022
 ExpMin= 2.97D-02 ExpMax= 1.17D+04 ExpMxC= 4.01D+02 IAcc=3 IRadAn=         5 AccDes= 0.00D+00
 HarFok:  IExCor=  205 AccDes= 0.00D+00 IRadAn=         5 IDoV=-2 UseB2=F ITyADJ=14
 ICtDFT= 12500011 ScaDFX=  1.000000  1.000000  1.000000  1.000000
 Range of M.O.s used for correlation:     6   142
 NBasis=   142 NAE=    21 NBE=    21 NFC=     5 NFV=     0
 NROrb=    137 NOA=    16 NOB=    16 NVA=   121 NVB=   121

 **** Warning!!: The largest alpha MO coefficient is  0.16057723D+02

 Fully direct method using O(ONN) memory.
 JobTyp=1 Pass  1:  I=   6 to  21 NPSUse= 40 ParTrn=T ParDer=T DoDerP=T.
 Spin components of T(2) and E(2):
     alpha-alpha T2 =       0.4140667826D-01 E2=     -0.1397084033D+00
     alpha-beta  T2 =       0.2124104429D+00 E2=     -0.7351359712D+00
     beta-beta   T2 =       0.4140667826D-01 E2=     -0.1397084033D+00
 ANorm=    0.1138078995D+01
 E2 =    -0.1014552778D+01 EUMP2 =    -0.35656215748093D+03
          IDoAtm=11111111
          Differentiating once with respect to electric field.
                with respect to dipole field.
          Differentiating once with respect to nuclear coordinates.
 Keep R1 ints in memory in canonical form, NReq=60197955.
          There are     1 degrees of freedom in the 1st order CPHF.  IDoFFX=0 NUNeed=     1.
 LinEq1:  Iter=  0 NonCon=     1 RMS=6.76D-03 Max=1.86D-01 NDo=     1
 AX will form     1 AO Fock derivatives at one time.
 LinEq1:  Iter=  1 NonCon=     1 RMS=2.06D-03 Max=2.65D-02 NDo=     1
 LinEq1:  Iter=  2 NonCon=     1 RMS=8.50D-04 Max=2.21D-02 NDo=     1
 LinEq1:  Iter=  3 NonCon=     1 RMS=1.97D-04 Max=3.10D-03 NDo=     1
 LinEq1:  Iter=  4 NonCon=     1 RMS=8.42D-05 Max=6.85D-04 NDo=     1
 LinEq1:  Iter=  5 NonCon=     1 RMS=3.12D-05 Max=9.40D-04 NDo=     1
 LinEq1:  Iter=  6 NonCon=     1 RMS=1.19D-05 Max=1.59D-04 NDo=     1
 LinEq1:  Iter=  7 NonCon=     1 RMS=6.55D-06 Max=1.74D-04 NDo=     1
 LinEq1:  Iter=  8 NonCon=     1 RMS=2.19D-06 Max=1.85D-05 NDo=     1
 LinEq1:  Iter=  9 NonCon=     1 RMS=7.56D-07 Max=7.01D-06 NDo=     1
 LinEq1:  Iter= 10 NonCon=     1 RMS=2.89D-07 Max=3.01D-06 NDo=     1
 LinEq1:  Iter= 11 NonCon=     1 RMS=8.26D-08 Max=5.96D-07 NDo=     1
 LinEq1:  Iter= 12 NonCon=     1 RMS=1.87D-08 Max=1.69D-07 NDo=     1
 LinEq1:  Iter= 13 NonCon=     1 RMS=4.33D-09 Max=3.30D-08 NDo=     1
 LinEq1:  Iter= 14 NonCon=     1 RMS=7.37D-10 Max=8.97D-09 NDo=     1
 LinEq1:  Iter= 15 NonCon=     1 RMS=1.46D-10 Max=2.71D-09 NDo=     1
 LinEq1:  Iter= 16 NonCon=     0 RMS=3.85D-11 Max=7.72D-10 NDo=     1
 Linear equations converged to 1.000D-10 1.000D-09 after    16 iterations.
 End of Minotr F.D. properties file   721 does not exist.
 End of Minotr F.D. properties file   722 does not exist.
 End of Minotr F.D. properties file   788 does not exist.
 Calling FoFJK, ICntrl=  10002127 FMM=F ISym2X=0 I1Cent= 0 IOpClX= 0 NMat=1 NMatS=1 NMatT=0.
 ***** Axes restored to original set *****
 -------------------------------------------------------------------
 Center     Atomic                   Forces (Hartrees/Bohr)
 Number     Number              X              Y              Z
 -------------------------------------------------------------------
      1        8           0.000250633   -0.002478744   -0.000002214
      2        7          -0.002211131   -0.000204250   -0.000033518
      3        8           0.002609062   -0.000547900    0.000031075
      4        8          -0.000249334    0.002102762   -0.000009266
      5        1           0.000542239    0.001739643    0.000009314
      6        8          -0.000876621   -0.001045967   -0.000459274
      7        1           0.000282597    0.000325960    0.000211791
      8        1          -0.000347445    0.000108496    0.000252090
 -------------------------------------------------------------------
 Cartesian Forces:  Max     0.002609062 RMS     0.001090720

 GradGradGradGradGradGradGradGradGradGradGradGradGradGradGradGradGradGrad
 Berny optimization.
 Using GEDIIS/GDIIS optimizer.
 FormGI is forming the generalized inverse of G from B-inverse, IUseBI=4.
 Internal  Forces:  Max     0.002660292 RMS     0.001050977
 Search for a local minimum.
 Step number   4 out of a maximum of   32
 All quantities printed in internal units (Hartrees-Bohrs-Radians)
 Mixed Optimization -- RFO/linear search
 Update second derivatives using D2CorX and points    2    3    1    4
 ITU=  0 -1 -1  0
 Use linear search instead of GDIIS.
     Eigenvalues ---    0.00230   0.00230   0.01632   0.02621   0.03239
     Eigenvalues ---    0.05684   0.07266   0.11118   0.16009   0.19205
     Eigenvalues ---    0.24921   0.28426   0.48670   0.49344   0.54172
     Eigenvalues ---    0.54882   0.86884   0.98083
 RFO step:  Lambda=-2.47526717D-04 EMin= 2.29902719D-03
 Quartic linear search produced a step of -0.00001.
 Maximum step size (   0.075) exceeded in Quadratic search.
    -- Step size scaled by   0.843
 Iteration  1 RMS(Cart)=  0.04894722 RMS(Int)=  0.00077075
 Iteration  2 RMS(Cart)=  0.00104303 RMS(Int)=  0.00004376
 Iteration  3 RMS(Cart)=  0.00000032 RMS(Int)=  0.00004376
 Variable       Old X    -DE/DX   Delta X   Delta X   Delta X     New X
                                 (Linear)    (Quad)   (Total)
    R1        2.61127   0.00122  -0.00000   0.00314   0.00314   2.61441
    R2        1.88651   0.00073  -0.00000   0.00091   0.00091   1.88742
    R3        2.29390   0.00266  -0.00000   0.00463   0.00463   2.29853
    R4        2.32383   0.00194  -0.00000   0.00338   0.00338   2.32721
    R5        3.22033   0.00057  -0.00000   0.00898   0.00898   3.22931
    R6        1.83141   0.00042  -0.00000   0.00142   0.00142   1.83284
    R7        1.82537   0.00041  -0.00000   0.00152   0.00152   1.82689
    A1        1.82657   0.00079  -0.00000  -0.00753  -0.00753   1.81904
    A2        2.00030  -0.00093   0.00000  -0.00140  -0.00140   1.99889
    A3        2.04235   0.00145  -0.00000   0.00012   0.00011   2.04247
    A4        2.24054  -0.00052   0.00000   0.00129   0.00129   2.24183
    A5        1.69226  -0.00045  -0.00000   0.00382   0.00388   1.69614
    A6        2.14934   0.00023   0.00000  -0.00086  -0.00087   2.14848
    A7        1.84321  -0.00024   0.00000  -0.00378  -0.00367   1.83954
    A8        2.99891   0.00257   0.00000   0.07221   0.07224   3.07115
    A9        3.11295  -0.00001   0.00000   0.01381   0.01380   3.12674
    D1        3.13705  -0.00002   0.00000   0.00057   0.00057   3.13763
    D2       -0.00484  -0.00004   0.00000   0.00062   0.00062  -0.00422
    D3       -0.11625  -0.00008   0.00000   0.00717   0.00706  -0.10919
    D4       -2.07645  -0.00006  -0.00000  -0.00461  -0.00451  -2.08096
    D5        3.14125  -0.00002   0.00000   0.00005   0.00005   3.14130
    D6       -2.22189   0.00003   0.00000   0.00063   0.00058  -2.22131
         Item               Value     Threshold  Converged?
 Maximum Force            0.002660     0.000450     NO 
 RMS     Force            0.001051     0.000300     NO 
 Maximum Displacement     0.121781     0.001800     NO 
 RMS     Displacement     0.048789     0.001200     NO 
 Predicted change in Energy=-1.214338D-04
 GradGradGradGradGradGradGradGradGradGradGradGradGradGradGradGradGradGrad

                          Input orientation:                          
 ---------------------------------------------------------------------
 Center     Atomic      Atomic             Coordinates (Angstroms)
 Number     Number       Type             X           Y           Z
 ---------------------------------------------------------------------
      1          8           0        0.095553   -1.067457   -0.010980
      2          7           0        0.871879    0.077611    0.001850
      3          8           0        2.070866   -0.125471    0.027212
      4          8           0        0.278118    1.156412   -0.013740
      5          1           0       -0.843343   -0.727219   -0.027509
      6          8           0       -2.404221   -0.033599   -0.080522
      7          1           0       -2.129910    0.890566    0.026103
      8          1           0       -3.072023   -0.183548    0.602235
 ---------------------------------------------------------------------
                    Distance matrix (angstroms):
                    1          2          3          4          5
     1  O    0.000000
     2  N    1.383484   0.000000
     3  O    2.188758   1.216329   0.000000
     4  O    2.231352   1.231506   2.204280   0.000000
     5  H    0.998779   1.894887   2.976190   2.192243   0.000000
     6  O    2.706024   3.279021   4.477326   2.935221   1.708877
     7  H    2.964442   3.110019   4.321904   2.422986   2.067694
     8  H    3.345275   3.997878   5.175262   3.660377   2.378902
                    6          7          8
     6  O    0.000000
     7  H    0.969895   0.000000
     8  H    0.966748   1.540527   0.000000
 Stoichiometry    H3NO4
 Framework group  C1[X(H3NO4)]
 Deg. of freedom    18
 Full point group                 C1      NOp   1
 Largest Abelian subgroup         C1      NOp   1
 Largest concise Abelian subgroup C1      NOp   1
                         Standard orientation:                         
 ---------------------------------------------------------------------
 Center     Atomic      Atomic             Coordinates (Angstroms)
 Number     Number       Type             X           Y           Z
 ---------------------------------------------------------------------
      1          8           0        0.085435   -1.066573   -0.016180
      2          7           0        0.862900    0.077654    0.001725
      3          8           0        2.061709   -0.126730    0.024995
      4          8           0        0.270189    1.157102   -0.007902
      5          1           0       -0.853139   -0.725334   -0.030157
      6          8           0       -2.413379   -0.029925   -0.078285
      7          1           0       -2.138063    0.893422    0.032749
      8          1           0       -3.080724   -0.182655    0.604304
 ---------------------------------------------------------------------
 Rotational constants (GHZ):          12.0933127           2.6910469           2.2100543
 Standard basis: Aug-CC-pVDZ (5D, 7F)
 There are   152 symmetry adapted cartesian basis functions of A   symmetry.
 There are   142 symmetry adapted basis functions of A   symmetry.
   142 basis functions,   248 primitive gaussians,   152 cartesian basis functions
    21 alpha electrons       21 beta electrons
       nuclear repulsion energy       187.6198374134 Hartrees.
 NAtoms=    8 NActive=    8 NUniq=    8 SFac= 1.00D+00 NAtFMM=   60 NAOKFM=F Big=F
 Integral buffers will be    131072 words long.
 Raffenetti 1 integral format.
 Two-electron integral symmetry is turned on.
 One-electron integrals computed using PRISM.
 NBasis=   142 RedAO= T EigKep=  2.49D-04  NBF=   142
 NBsUse=   142 1.00D-06 EigRej= -1.00D+00 NBFU=   142
 Initial guess from the checkpoint file:  "/scr/Gau-41192.chk"
 B after Tr=    -0.000000    0.000000    0.000000
         Rot=    0.999990   -0.001113   -0.000086    0.004230 Ang=  -0.50 deg.
 ExpMin= 2.97D-02 ExpMax= 1.17D+04 ExpMxC= 4.01D+02 IAcc=3 IRadAn=         5 AccDes= 0.00D+00
 Harris functional with IExCor=  205 and IRadAn=       5 diagonalized for initial guess.
 HarFok:  IExCor=  205 AccDes= 0.00D+00 IRadAn=         5 IDoV= 1 UseB2=F ITyADJ=14
 ICtDFT=  3500011 ScaDFX=  1.000000  1.000000  1.000000  1.000000
 FoFCou: FMM=F IPFlag=           0 FMFlag=      100000 FMFlg1=           0
         NFxFlg=           0 DoJE=T BraDBF=F KetDBF=T FulRan=T
         wScrn=  0.000000 ICntrl=       500 IOpCl=  0 I1Cent=   200000004 NGrid=           0
         NMat0=    1 NMatS0=      1 NMatT0=    0 NMatD0=    1 NMtDS0=    0 NMtDT0=    0
 Petite list used in FoFCou.
 Keep R1 ints in memory in canonical form, NReq=60189677.
 Requested convergence on RMS density matrix=1.00D-08 within 128 cycles.
 Requested convergence on MAX density matrix=1.00D-06.
 Requested convergence on             energy=1.00D-06.
 No special actions if energy rises.
 SCF Done:  E(RHF) =  -355.546958391     A.U. after   12 cycles
            NFock= 12  Conv=0.89D-08     -V/T= 2.0023
 ExpMin= 2.97D-02 ExpMax= 1.17D+04 ExpMxC= 4.01D+02 IAcc=3 IRadAn=         5 AccDes= 0.00D+00
 HarFok:  IExCor=  205 AccDes= 0.00D+00 IRadAn=         5 IDoV=-2 UseB2=F ITyADJ=14
 ICtDFT= 12500011 ScaDFX=  1.000000  1.000000  1.000000  1.000000
 Range of M.O.s used for correlation:     6   142
 NBasis=   142 NAE=    21 NBE=    21 NFC=     5 NFV=     0
 NROrb=    137 NOA=    16 NOB=    16 NVA=   121 NVB=   121

 **** Warning!!: The largest alpha MO coefficient is  0.15435790D+02

 Fully direct method using O(ONN) memory.
 JobTyp=1 Pass  1:  I=   6 to  21 NPSUse= 40 ParTrn=T ParDer=T DoDerP=T.
 Spin components of T(2) and E(2):
     alpha-alpha T2 =       0.4150206560D-01 E2=     -0.1397532607D+00
     alpha-beta  T2 =       0.2130354632D+00 E2=     -0.7357493705D+00
     beta-beta   T2 =       0.4150206560D-01 E2=     -0.1397532607D+00
 ANorm=    0.1138437348D+01
 E2 =    -0.1015255892D+01 EUMP2 =    -0.35656221428313D+03
          IDoAtm=11111111
          Differentiating once with respect to electric field.
                with respect to dipole field.
          Differentiating once with respect to nuclear coordinates.
 Keep R1 ints in memory in canonical form, NReq=60196775.
          There are     1 degrees of freedom in the 1st order CPHF.  IDoFFX=0 NUNeed=     1.
 LinEq1:  Iter=  0 NonCon=     1 RMS=6.78D-03 Max=1.87D-01 NDo=     1
 AX will form     1 AO Fock derivatives at one time.
 LinEq1:  Iter=  1 NonCon=     1 RMS=2.08D-03 Max=2.58D-02 NDo=     1
 LinEq1:  Iter=  2 NonCon=     1 RMS=8.59D-04 Max=2.23D-02 NDo=     1
 LinEq1:  Iter=  3 NonCon=     1 RMS=1.98D-04 Max=3.01D-03 NDo=     1
 LinEq1:  Iter=  4 NonCon=     1 RMS=8.48D-05 Max=7.51D-04 NDo=     1
 LinEq1:  Iter=  5 NonCon=     1 RMS=3.14D-05 Max=9.36D-04 NDo=     1
 LinEq1:  Iter=  6 NonCon=     1 RMS=1.18D-05 Max=1.62D-04 NDo=     1
 LinEq1:  Iter=  7 NonCon=     1 RMS=6.62D-06 Max=1.79D-04 NDo=     1
 LinEq1:  Iter=  8 NonCon=     1 RMS=2.24D-06 Max=1.81D-05 NDo=     1
 LinEq1:  Iter=  9 NonCon=     1 RMS=7.77D-07 Max=7.47D-06 NDo=     1
 LinEq1:  Iter= 10 NonCon=     1 RMS=2.98D-07 Max=3.35D-06 NDo=     1
 LinEq1:  Iter= 11 NonCon=     1 RMS=8.50D-08 Max=6.17D-07 NDo=     1
 LinEq1:  Iter= 12 NonCon=     1 RMS=1.92D-08 Max=1.72D-07 NDo=     1
 LinEq1:  Iter= 13 NonCon=     1 RMS=4.37D-09 Max=3.16D-08 NDo=     1
 LinEq1:  Iter= 14 NonCon=     1 RMS=6.95D-10 Max=7.07D-09 NDo=     1
 LinEq1:  Iter= 15 NonCon=     1 RMS=1.30D-10 Max=2.33D-09 NDo=     1
 LinEq1:  Iter= 16 NonCon=     0 RMS=3.48D-11 Max=7.49D-10 NDo=     1
 Linear equations converged to 1.000D-10 1.000D-09 after    16 iterations.
 End of Minotr F.D. properties file   721 does not exist.
 End of Minotr F.D. properties file   722 does not exist.
 End of Minotr F.D. properties file   788 does not exist.
 Calling FoFJK, ICntrl=  10002127 FMM=F ISym2X=0 I1Cent= 0 IOpClX= 0 NMat=1 NMatS=1 NMatT=0.
 ***** Axes restored to original set *****
 -------------------------------------------------------------------
 Center     Atomic                   Forces (Hartrees/Bohr)
 Number     Number              X              Y              Z
 -------------------------------------------------------------------
      1        8          -0.000514337    0.000203827   -0.000175391
      2        7           0.000089227    0.000687606   -0.000017245
      3        8          -0.000626499    0.000298690   -0.000003271
      4        8           0.000210483   -0.001231975    0.000021751
      5        1           0.000642948   -0.000401887    0.000326783
      6        8           0.000193420    0.000568793   -0.000086820
      7        1          -0.000336399   -0.000221654    0.000049366
      8        1           0.000341158    0.000096601   -0.000115173
 -------------------------------------------------------------------
 Cartesian Forces:  Max     0.001231975 RMS     0.000419129

 GradGradGradGradGradGradGradGradGradGradGradGradGradGradGradGradGradGrad
 Berny optimization.
 Using GEDIIS/GDIIS optimizer.
 FormGI is forming the generalized inverse of G from B-inverse, IUseBI=4.
 Internal  Forces:  Max     0.001736280 RMS     0.000616359
 Search for a local minimum.
 Step number   5 out of a maximum of   32
 All quantities printed in internal units (Hartrees-Bohrs-Radians)
 Mixed Optimization -- En-DIIS/RFO-DIIS
 Update second derivatives using D2CorX and points    2    3    1    4    5
 DE= -5.68D-05 DEPred=-1.21D-04 R= 4.68D-01
 Trust test= 4.68D-01 RLast= 7.55D-02 DXMaxT set to 7.50D-02
 ITU=  0  0 -1 -1  0
 Use linear search instead of GDIIS.
     Eigenvalues ---    0.00230   0.00242   0.01633   0.03232   0.03483
     Eigenvalues ---    0.05629   0.07195   0.11258   0.16050   0.19208
     Eigenvalues ---    0.25171   0.31209   0.48841   0.50840   0.54436
     Eigenvalues ---    0.55229   0.90095   0.97763
 RFO step:  Lambda=-3.05792175D-05 EMin= 2.29564705D-03
 Quartic linear search produced a step of -0.31026.
 Maximum step size (   0.075) exceeded in Quadratic search.
    -- Step size scaled by   0.757
 Iteration  1 RMS(Cart)=  0.03911155 RMS(Int)=  0.00086634
 Iteration  2 RMS(Cart)=  0.00128846 RMS(Int)=  0.00003314
 Iteration  3 RMS(Cart)=  0.00000023 RMS(Int)=  0.00003314
 Variable       Old X    -DE/DX   Delta X   Delta X   Delta X     New X
                                 (Linear)    (Quad)   (Total)
    R1        2.61441  -0.00039  -0.00097   0.00077  -0.00021   2.61420
    R2        1.88742  -0.00078  -0.00028  -0.00029  -0.00058   1.88684
    R3        2.29853  -0.00067  -0.00144   0.00109  -0.00034   2.29818
    R4        2.32721  -0.00118  -0.00105   0.00045  -0.00060   2.32661
    R5        3.22931   0.00000  -0.00279   0.00326   0.00048   3.22979
    R6        1.83284  -0.00030  -0.00044   0.00015  -0.00029   1.83255
    R7        1.82689  -0.00033  -0.00047   0.00013  -0.00034   1.82655
    A1        1.81904  -0.00174   0.00234  -0.00539  -0.00305   1.81599
    A2        1.99889   0.00061   0.00043   0.00011   0.00054   1.99944
    A3        2.04247  -0.00078  -0.00004  -0.00008  -0.00011   2.04236
    A4        2.24183   0.00017  -0.00040  -0.00003  -0.00043   2.24139
    A5        1.69614   0.00040  -0.00120   0.00077  -0.00048   1.69565
    A6        2.14848  -0.00017   0.00027  -0.00064  -0.00036   2.14812
    A7        1.83954  -0.00014   0.00114  -0.00184  -0.00079   1.83875
    A8        3.07115  -0.00110  -0.02241   0.00749  -0.01494   3.05621
    A9        3.12674  -0.00031  -0.00428  -0.07431  -0.07857   3.04817
    D1        3.13763  -0.00000  -0.00018  -0.00037  -0.00055   3.13708
    D2       -0.00422   0.00001  -0.00019  -0.00032  -0.00051  -0.00473
    D3       -0.10919  -0.00004  -0.00219   0.00071  -0.00140  -0.11059
    D4       -2.08096   0.00007   0.00140  -0.01053  -0.00921  -2.09017
    D5        3.14130   0.00001  -0.00002   0.00006   0.00004   3.14135
    D6       -2.22131   0.00007  -0.00018   0.00104   0.00090  -2.22041
         Item               Value     Threshold  Converged?
 Maximum Force            0.001736     0.000450     NO 
 RMS     Force            0.000616     0.000300     NO 
 Maximum Displacement     0.096768     0.001800     NO 
 RMS     Displacement     0.039266     0.001200     NO 
 Predicted change in Energy=-2.480132D-05
 GradGradGradGradGradGradGradGradGradGradGradGradGradGradGradGradGradGrad

                          Input orientation:                          
 ---------------------------------------------------------------------
 Center     Atomic      Atomic             Coordinates (Angstroms)
 Number     Number       Type             X           Y           Z
 ---------------------------------------------------------------------
      1          8           0        0.100182   -1.074242   -0.005453
      2          7           0        0.866008    0.077797    0.001141
      3          8           0        2.066783   -0.113310   -0.023995
      4          8           0        0.262428    1.150470    0.030883
      5          1           0       -0.840362   -0.740205    0.021885
      6          8           0       -2.392846   -0.034058   -0.088901
      7          1           0       -2.113323    0.888853    0.013577
      8          1           0       -3.081952   -0.168011    0.575511
 ---------------------------------------------------------------------
                    Distance matrix (angstroms):
                    1          2          3          4          5
     1  O    0.000000
     2  N    1.383375   0.000000
     3  O    2.188894   1.216147   0.000000
     4  O    2.230916   1.231187   2.203599   0.000000
     5  H    0.998474   1.892421   2.974323   2.188807   0.000000
     6  O    2.702616   3.262016   4.460806   2.909971   1.709130
     7  H    2.958666   3.087779   4.298724   2.390174   2.067445
     8  H    3.359278   3.997088   5.183808   3.635916   2.378788
                    6          7          8
     6  O    0.000000
     7  H    0.969742   0.000000
     8  H    0.966568   1.539797   0.000000
 Stoichiometry    H3NO4
 Framework group  C1[X(H3NO4)]
 Deg. of freedom    18
 Full point group                 C1      NOp   1
 Largest Abelian subgroup         C1      NOp   1
 Largest concise Abelian subgroup C1      NOp   1
                         Standard orientation:                         
 ---------------------------------------------------------------------
 Center     Atomic      Atomic             Coordinates (Angstroms)
 Number     Number       Type             X           Y           Z
 ---------------------------------------------------------------------
      1          8           0        0.091726   -1.073219    0.011085
      2          7           0        0.858460    0.078223    0.005866
      3          8           0        2.059178   -0.114114   -0.011360
      4          8           0        0.255633    1.151654    0.018708
      5          1           0       -0.848656   -0.738134    0.029787
      6          8           0       -2.400050   -0.032334   -0.097286
      7          1           0       -2.120230    0.891639   -0.005777
      8          1           0       -3.092228   -0.156958    0.565746
 ---------------------------------------------------------------------
 Rotational constants (GHZ):          12.0955245           2.7114536           2.2239618
 Standard basis: Aug-CC-pVDZ (5D, 7F)
 There are   152 symmetry adapted cartesian basis functions of A   symmetry.
 There are   142 symmetry adapted basis functions of A   symmetry.
   142 basis functions,   248 primitive gaussians,   152 cartesian basis functions
    21 alpha electrons       21 beta electrons
       nuclear repulsion energy       187.8802785010 Hartrees.
 NAtoms=    8 NActive=    8 NUniq=    8 SFac= 1.00D+00 NAtFMM=   60 NAOKFM=F Big=F
 Integral buffers will be    131072 words long.
 Raffenetti 1 integral format.
 Two-electron integral symmetry is turned on.
 One-electron integrals computed using PRISM.
 NBasis=   142 RedAO= T EigKep=  2.49D-04  NBF=   142
 NBsUse=   142 1.00D-06 EigRej= -1.00D+00 NBFU=   142
 Initial guess from the checkpoint file:  "/scr/Gau-41192.chk"
 B after Tr=     0.000000   -0.000000    0.000000
         Rot=    0.999999    0.000796    0.000166   -0.001448 Ang=   0.19 deg.
 ExpMin= 2.97D-02 ExpMax= 1.17D+04 ExpMxC= 4.01D+02 IAcc=3 IRadAn=         5 AccDes= 0.00D+00
 Harris functional with IExCor=  205 and IRadAn=       5 diagonalized for initial guess.
 HarFok:  IExCor=  205 AccDes= 0.00D+00 IRadAn=         5 IDoV= 1 UseB2=F ITyADJ=14
 ICtDFT=  3500011 ScaDFX=  1.000000  1.000000  1.000000  1.000000
 FoFCou: FMM=F IPFlag=           0 FMFlag=      100000 FMFlg1=           0
         NFxFlg=           0 DoJE=T BraDBF=F KetDBF=T FulRan=T
         wScrn=  0.000000 ICntrl=       500 IOpCl=  0 I1Cent=   200000004 NGrid=           0
         NMat0=    1 NMatS0=      1 NMatT0=    0 NMatD0=    1 NMtDS0=    0 NMtDT0=    0
 Petite list used in FoFCou.
 Keep R1 ints in memory in canonical form, NReq=60190090.
 Requested convergence on RMS density matrix=1.00D-08 within 128 cycles.
 Requested convergence on MAX density matrix=1.00D-06.
 Requested convergence on             energy=1.00D-06.
 No special actions if energy rises.
 SCF Done:  E(RHF) =  -355.546949401     A.U. after   13 cycles
            NFock= 13  Conv=0.99D-08     -V/T= 2.0023
 ExpMin= 2.97D-02 ExpMax= 1.17D+04 ExpMxC= 4.01D+02 IAcc=3 IRadAn=         5 AccDes= 0.00D+00
 HarFok:  IExCor=  205 AccDes= 0.00D+00 IRadAn=         5 IDoV=-2 UseB2=F ITyADJ=14
 ICtDFT= 12500011 ScaDFX=  1.000000  1.000000  1.000000  1.000000
 Range of M.O.s used for correlation:     6   142
 NBasis=   142 NAE=    21 NBE=    21 NFC=     5 NFV=     0
 NROrb=    137 NOA=    16 NOB=    16 NVA=   121 NVB=   121

 **** Warning!!: The largest alpha MO coefficient is  0.15361366D+02

 Fully direct method using O(ONN) memory.
 JobTyp=1 Pass  1:  I=   6 to  21 NPSUse= 40 ParTrn=T ParDer=T DoDerP=T.
 Spin components of T(2) and E(2):
     alpha-alpha T2 =       0.4149496406D-01 E2=     -0.1397617906D+00
     alpha-beta  T2 =       0.2129709007D+00 E2=     -0.7357118325D+00
     beta-beta   T2 =       0.4149496406D-01 E2=     -0.1397617906D+00
 ANorm=    0.1138402753D+01
 E2 =    -0.1015235414D+01 EUMP2 =    -0.35656218481475D+03
          IDoAtm=11111111
          Differentiating once with respect to electric field.
                with respect to dipole field.
          Differentiating once with respect to nuclear coordinates.
 Keep R1 ints in memory in canonical form, NReq=60197365.
          There are     1 degrees of freedom in the 1st order CPHF.  IDoFFX=0 NUNeed=     1.
 LinEq1:  Iter=  0 NonCon=     1 RMS=6.78D-03 Max=1.84D-01 NDo=     1
 AX will form     1 AO Fock derivatives at one time.
 LinEq1:  Iter=  1 NonCon=     1 RMS=2.08D-03 Max=2.60D-02 NDo=     1
 LinEq1:  Iter=  2 NonCon=     1 RMS=8.58D-04 Max=2.20D-02 NDo=     1
[...]
 25,-0.00521294,0.01306266,-0.00390124,-0.00133025,-0.02258989,-0.00091
 618,-0.00071539,-0.00045167,-0.00011502,0.00061237,0.00024646,-0.00007
 179,-0.00011256,-0.00007792,0.00057669,0.00012132,0.00011896,-0.001731
 43,-0.00216386,0.00344015,0.01294907,0.00097347,-0.01751330,-0.0002208
 9,-0.00290688,0.00004294,-0.00081222,0.00171558,-0.00007728,-0.0000348
 2,-0.00003459,0.00000938,0.00019320,-0.00120465,0.00004571,-0.00215692
 ,-0.00141312,0.00027196,0.00470015,0.00407630,0.00043689,-0.00042609,0
 .00065845,-0.00017063,-0.00012167,0.00006144,0.00015590,0.00005669,-0.
 00042991,0.00001014,-0.00001248,-0.00048386,-0.00039107,0.00002144,0.0
 0270044,0.00338558,0.00012946,-0.00178104,0.00845870,0.00324112,-0.000
 30247,-0.01132410,0.00003221,0.00000175,-0.00029633,-0.00011714,-0.000
 09193,0.00012806,-0.00001234,0.00000155,-0.00003066,0.00003964,0.00014
 639,0.00010451,0.00000688,-0.00115447,0.00049947,0.00125644,0.00645890
 ,0.00184571,-0.00142383,-0.00307385,-0.00179475,0.00011401,0.00055639,
 0.00033906,-0.00032142,-0.00022333,-0.00007432,0.00012972,0.00001125,0
 .00004896,-0.00013065,-0.00015533,-0.00002501,-0.00000305,0.00269491,-
 0.00138017,0.01326591,-0.00148955,-0.01112824,-0.00124241,-0.00042304,
 0.00021815,-0.01181211,-0.00070996,0.00030048,-0.00033050,-0.00001481,
 0.00013599,0.00005716,0.00001668,-0.00005178,-0.00002983,-0.00000861,0
 .00004688,0.00001020,0.00285438,-0.00287941,0.00140587,-0.00123619,-0.
 00104693,-0.00195646,0.00006982,-0.00012452,-0.00228834,-0.00097131,0.
 00361928,0.00045757,0.00050024,-0.00005027,0.00024017,-0.00023654,0.00
 001623,-0.00005368,0.00003767,-0.00001825,-0.00039584,-0.00017890,0.00
 002973,0.00199908,0.00103891,0.00028905,-0.01494309,-0.00405256,0.0123
 9163,0.00069422,-0.00024071,-0.00045600,0.01200157,0.00313189,-0.01220
 212,-0.01107220,0.00732566,-0.00259661,0.00024485,0.00009582,-0.000248
 14,0.00123016,0.00041064,-0.00010418,0.00868686,0.00211343,0.00039626,
 0.00058008,0.00011965,-0.00427269,-0.00009754,-0.00005951,0.00017593,0
 .00142402,-0.00032039,-0.00255775,-0.00068381,-0.00149406,-0.00003250,
 -0.01195766,-0.00076700,-0.00052466,0.01447883,-0.00035245,-0.00016159
 ,-0.00013150,0.00204663,0.00218792,0.00000456,-0.00204779,-0.00130448,
 -0.00004199,0.00000521,0.00014933,-0.00048147,0.00002646,0.00139010,0.
 00044515,-0.00005459,-0.00149636,0.00087999,0.00037706,0.00009833,0.00
 333741,-0.00221894,-0.00102930,-0.00259134,0.00063222,0.00032505,-0.00
 225184,-0.00078245,0.00040414,-0.00018948,-0.00395838,0.00075866,0.000
 03139,0.00389569,-0.00064536,0.00007673,0.00195901,0.00105140,0.000325
 66,0.00041625,0.00001179,-0.00063668,-0.00135951,0.00118462,-0.0003368
 4,0.00056260,-0.00008340,-0.00018725,0.00062310,-0.00091710,0.01070151
 ,-0.00694143,-0.00053375,-0.00089992,-0.00126033,-0.00004225,0.0002731
 7,0.00014921,0.00004474,-0.00075840,0.00028809,-0.00025063,-0.01058475
 ,-0.00873091,0.00256777,-0.00012148,0.00107888,0.00089607,0.00013462,0
 .00021163,-0.00000315,-0.00002312,0.00025537,-0.00063189,0.00000555,0.
 00735715,-0.00290474,-0.00039130,-0.00042213,0.00001543,-0.00005320,0.
 00024609,-0.00012458,0.00002686,-0.00003679,-0.00000538,-0.00009685,-0
 .00012969,0.00007313,0.00222398,-0.00143912,-0.00075729,0.00042579,0.0
 0088396,0.00018555,0.00099583,-0.00378562,-0.00000574,-0.00113005,0.00
 094788,0.00007614,-0.00290646,0.00135058,-0.00079528,0.00117380,0.0010
 1231,-0.00039230,-0.27247772,0.00408473,0.00060566,0.00071841,-0.00081
 598,-0.00623103,-0.00032883,-0.00053030,0.00151599,0.00000525,-0.00389
 397,0.00231451,-0.00000726,-0.00432698,0.00255671,-0.00223968,-0.09973
 361,-0.56947128,-0.00156140,0.00031185,0.00009271,-0.00037112,0.002475
 54,-0.00006252,0.00061706,-0.00064056,-0.00011109,0.00213344,-0.001243
 84,0.00058875,0.00026867,-0.00032365,-0.00035289,0.28226285,-0.1579237
 2,-0.35608915,-0.00182266,-0.00080604,0.00035573,-0.00122619,0.0056619
 0,0.00026425,0.00121117,-0.00133090,-0.00038877,0.00439557,-0.00239293
 ,0.00192693,0.00182522,-0.00029612,-0.00126134,-0.01447394,0.08299658,
 0.03287594,0.02995517,-0.00283273,-0.00116513,-0.00054927,0.00078169,0
 .00551003,0.00049989,0.00065706,-0.00138923,-0.00009271,0.00277202,-0.
 00298560,0.00018039,0.00444033,-0.00178900,0.00237516,0.16552689,0.631
 13752,0.10369563,-0.12193142,-0.58805319,0.00059919,-0.00008279,-0.000
 29242,0.00025403,-0.00064505,-0.00001140,0.00007027,0.00000896,0.00013
 739,-0.00052127,0.00027874,-0.00091024,-0.00119913,0.00124166,0.001030
 08,0.07570613,0.20310543,-0.00343490,-0.07681431,-0.14225382,0.0289120
 8,0.00034121,0.00024420,-0.00021403,-0.00016647,0.00013692,0.00001121,
 0.00039968,-0.00004480,0.00002115,-0.00010494,-0.00035961,-0.00004590,
 -0.00173064,-0.00088830,-0.00005585,0.28839276,0.02221953,-0.31622544,
 -0.01986435,-0.04941384,0.00190508,-0.26726724,-0.00082528,-0.00005050
 ,-0.00040259,0.00033686,0.00075479,0.00003827,0.00007478,-0.00020009,0
 .00005677,0.00011722,-0.00026585,-0.00042112,0.00029397,-0.00069176,0.
 00164615,-0.06620239,-0.06242809,0.05364876,0.03809892,-0.04126541,-0.
 06165311,0.02810591,0.10414690,0.00092252,-0.00026471,0.00009535,-0.00
 003142,-0.00100323,0.00000562,-0.00026532,0.00028732,0.00001942,-0.000
 72215,0.00055306,0.00005246,-0.00051164,0.00052554,0.00012149,-0.35703
 735,-0.04332959,0.35936905,0.04304158,0.03614473,-0.02543060,0.3146037
 9,0.00708686,-0.33423278,-0.11934182,0.03740052,-0.06157129,-0.0014806
 1,0.00032443,-0.00126412,0.01496734,0.02492061,-0.00007012,0.59105033,
 0.05235586,0.02066524,0.00056186,-0.15860285,0.21798714,0.00020391,0.0
 0026441,0.00886395,0.01064546,-0.00168667,-0.18019380,-0.00295660,-0.0
 3217723,0.00015029,-0.66118627,-0.05567134,-0.01050049,0.75756748,-0.0
 0078320,0.00612030,0.00001668,0.08276642,0.08671980,0.00107493,-0.0958
 9192,-0.07371451,-0.00007814,-0.00042734,-0.00184429,-0.01020650,-0.00
 106509,0.08741137,0.01164565,-0.00122553,-0.08979525,0.01877443,0.0021
 2697,0.00023825,0.07345987,0.17419341,0.00007789,-0.09876098,0.0139149
 1,-0.00145670,0.00489919,-0.02981837,0.01850792,-0.00037509,0.04335775
 ,-0.33362262,0.00024682,0.18222696,-0.02060671,0.00270446,-0.19384077,
 0.35111083,0.00017085,0.00009798,-0.00024496,-0.00056156,0.00266615,0.
 08166689,-0.00096408,0.00009949,0.00314751,0.00133258,-0.00287908,-0.0
 8417248,0.08966349,-0.03129297,0.00116708,-0.01516900,-0.01854803,-0.0
 0035843,0.00492799,0.00041001,0.00006352,-0.00153147,0.00315369,0.0000
 0195,-0.07835835,-0.06055410,0.01552173,-0.00054588,0.00531270,0.01178
 296,0.00008598,0.00248708,0.00119375,0.00000578,0.00521439,-0.01824684
 ,0.00004249,0.04694733,-0.01203895,0.00117937,-0.00022257,-0.00538029,
 -0.00029282,-0.00016515,0.00220113,0.00003202,-0.00003943,0.00109543,-
 0.00003108,0.00006828,-0.00042295,-0.00078129,0.00049208,0.00204293,-0
 .00036167,-0.00098384,-0.00006786,0.00533851,-0.00134245,0.00011598,-0
 .00435303,0.00025429,-0.00008887,-0.00088679,0.00173232,0.00003543,0.0
 0055477,0.00086030,0.00008279,-0.00117242,0.00153127,0.00066303,0.0000
 5843,0.00327093,-0.00522960,0.00008039,-0.00140420,0.00039424,-0.00001
 918,-0.00261053,0.00453163,-0.00000100,-0.00136814,0.00166723,-0.00035
 826,-0.00098951,-0.00895602,0.00002506,-0.00001933,-0.00018619,-0.0002
 6794,0.00045711,0.00000341,-0.00003228,0.00009416,-0.00001169,0.000254
 28,-0.00057598,0.00004969,-0.00047077,-0.00003111,0.00035069,0.0004832
 9,-0.00091695,-0.00119765,-0.00073274,-0.00010220,0.00001319,-0.007472
 86,0.00694713,-0.00015119,0.00416235,-0.00057164,0.00007550,0.00364446
 ,-0.00619338,0.00003433,-0.00004693,-0.00050402,-0.00003043,-0.0003878
 1,0.00201556,0.00054900,0.00083338,-0.00015838,-0.00005649,-0.00002147
 ,-0.00057786,0.00161261,-0.00003477,0.00008624,-0.00012268,0.00002358,
 0.00087605,-0.00142925,-0.00002040,0.00059591,0.00036326,0.00008492,0.
 00109301,0.00624072,0.00080476,-0.00181434,-0.00627274,-0.00002709,-0.
 00002396,0.00005792,0.00018450,-0.00029481,0.00004576,-0.00003604,-0.0
 0000910,0.00001446,-0.00015288,0.00028794,-0.00005524,0.00010550,-0.00
 004607,0.00010019,0.00045751,0.00129907,0.00005779,-0.00058773,-0.0010
 0524,-0.00011226,-0.00001246,0.00010814,0.00004977,-0.00098791,0.00066
 827,-0.00003314,0.00059906,-0.00009886,0.00004554,0.00040128,-0.000618
 20,-0.00004949,-0.00004051,0.00023632,-0.00015854,0.00126845,-0.000445
 39,-0.00054064,0.00000015,-0.00010062,0.00005623,-0.00122805,0.0000264
 0,0.00014953,-0.00001897,-0.00044770,0.00008448,-0.00003109,0.00034441
 ,0.00001582,0.00000331,0.00012556,-0.00024495,-0.00000563,0.00010221,-
 0.00024314,0.00014014,-0.00062411,0.00068877,0.00018734,0.00022289,-0.
 00033542,-0.00020784,0.00025034,-0.00011508,0.00000665,0.00000637,-0.0
 0000203,0.00056897,-0.00047338,0.00000131,-0.00029507,-0.00001121,-0.0
 0001754,-0.00026233,0.00052264,0.00003154,0.00027243,-0.00000328,0.000
 01287,-0.00101826,-0.00014249,0.00093393,0.00009732,0.00016862,-0.0001
 0861,0.00063028,-0.00006727,-0.00085148,4.93048964,-2.17965018,-0.3103
 7981,0.05121771,-0.01824487,-1.11073236,0.00080902,0.05070424,0.000773
 70,-0.00943019,0.03140908,0.04157917,0.00048025,-0.00390232,-0.0492005
 8,0.00047000,0.00026996,-0.02142382,-0.00099239,0.00030505,0.01104766,
 -0.00749670,-0.00676828,0.00003365,0.00751675,-0.00102413,0.00015972,-
 0.00058473,-0.01093763,0.00036508,-0.00002869,-0.00452292,0.00718601,-
 0.00016503,0.01005453,-0.00145432,-0.00013470,-0.00003592,0.00330014,0
 .00022175,-0.00024772,0.00153137,-0.00006141,0.00023911,-0.00412496,0.
 00458569,0.00385746,0.00003642,0.00218985,-0.00985876,0.00019994,0.000
 55107,0.00120681,0.00001016,-0.00969499,-0.01353327,-0.00800713,-0.000
 16258,0.00113924,0.01257349,-0.00024659,0.00362559,-0.00183779,0.00014
 195,-0.00139871,-0.01081679,-0.00017513,0.00003675,0.00206415,0.000260
 11,0.00004713,0.00510260,-0.00001237,-0.00007974,-0.00095672,-0.000028
 89,0.00002170,-0.00354069,-4.91751118,2.14655283,-0.05051689,-0.003004
 55,-0.05723603,0.00035127,0.00592583,0.01410089,-0.00013497,-0.0067125
 3,0.02404639,0.00025694,4.88560014,2.16812360,0.27073641,0.01742364,-0
 .04146999,0.00321129,-0.00022655,-0.00943715,-0.00798894,-0.00011544,0
 .00880577,0.00356381,-0.00004502,-2.10498015,-0.24293600,-0.05347600,0
 .01809112,1.12542892,0.00019076,0.00082952,0.00346276,-0.00029618,-0.0
 0024941,0.00037634,0.00014767,-0.00035101,-0.00185081,0.05396011,-0.02
 306383,-1.10288136,-0.00754129,-0.01292319,-0.00114814,0.00151188,0.03
 216459,-0.00002162,-0.00541764,-0.00800503,-0.00000724,0.00540628,-0.0
 1019090,-0.00023332,0.02360012,-0.02336516,-0.00596647,-0.00254268,0.0
 0633378,0.00623561,0.00049068,-0.00220593,-0.01650603,-0.00000223,0.00
 313467,0.00392312,0.00003351,-0.00350776,0.00583969,0.00022939,-0.0195
 4990,-0.02270343,0.01379008,0.01362781,0.03426581,0.00473180,0.0006964
 1,0.00185546,-0.00157285,-0.00383869,0.00048766,0.00084693,0.00076133,
 -0.00022346,-0.00037927,0.00146209,-0.00021401,-0.00720059,0.01030157,
 -0.02510870,0.00713983,-0.02561252,0.02220027,-0.00351783,-0.00094983,
 -0.00013450,0.00106292,0.00634167,-0.00003741,-0.00066285,-0.00132769,
 0.00002906,0.00279487,-0.00284556,-0.00012100,0.01339355,0.00651487,0.
 00018132,-0.01404733,-0.00759617,-0.00100800,0.00027333,-0.00326530,-0
 .00141131,-0.00009433,0.00103967,0.00445102,0.00001083,-0.00036679,-0.
 00096855,0.00002100,0.00140974,-0.00249028,-0.00012788,0.00451694,-0.0
 0936622,-0.00210859,0.00366653,-0.00483758,0.00124000,-0.00279112,0.01
 348271,-0.00031891,0.00015836,-0.00014210,0.00006398,-0.00025688,-0.00
 024894,0.00008738,0.00007716,0.00009781,-0.00015017,0.00010685,-0.0005
 0362,-0.00134380,0.00246066,-0.00009397,0.00011339,-0.00255814,0.00549
 777,0.00172761,-0.00035215,-0.00526757,0.00018263,-0.00082305,-0.00026
 196,-0.00065567,0.00210590,-0.00012952,0.00016827,-0.00056898,0.000077
 36,0.00087973,-0.00084278,0.00005367,-0.00129138,-0.00419179,0.0052588
 0,-0.00096932,0.00976349,-0.00255784,0.00070334,-0.00420967,-0.0001794
 8,0.00098239,0.00151991,0.00088196,0.00013590,-0.00078199,-0.00329437,
 0.00005458,0.00078155,0.00077540,-0.00003649,-0.00051455,0.00117501,-0
 .00008233,-0.00745098,0.00548307,-0.00693787,0.00502535,-0.00621720,0.
 01498982,0.00265383,0.00114021,0.00036415,-0.00123312,0.00005592,-0.00
 231477,-0.00097181,-0.00035042,0.00105495,0.00268135,0.00004072,-0.000
 75772,-0.00055471,-0.00000052,0.00016414,-0.00097239,-0.00010087,0.004
 62793,-0.00673503,0.00066682,0.00012358,0.01362923,-0.00449500,-0.0006
 3707,0.00141114,0.00066062,-0.00226103,-0.00848776,0.00357866,0.009675
 81,-0.00451936,-0.00078516,0.00048025,-0.00022875,-0.00264344,0.000636
 74,0.00028813,-0.00001661,-0.00125973,0.00088479,0.00095073,0.00018376
 ,-0.00032927,-0.00497107,-0.00007808,-0.00012144,0.00047481,-0.0001318
 6,0.00043632,-0.00095546,0.00013155,0.00008934,-0.00002256,-0.00014192
 ,-0.00030278,0.00007953,-0.00013963,-0.00005132,-0.00019560,-0.0000365
 6,0.00029574,0.00134625,-0.00007291,0.00000396,-0.00045969,-0.00003279
 ,0.00005291,-0.00009557,0.00003007,-0.00020592,0.00019422,-0.00005510,
 0.00009188,0.00000676,0.00062051,0.00029107,-0.00000932,0.00009695,-0.
 00222685,0.00017728,0.00007000,0.00029244,0.00004418,-0.00118634,-0.00
 091871,-0.00110770,-0.00008827,0.00062606,0.00397922,-0.00023141,0.000
 53084,-0.00111524,0.00010636,0.00126949,-0.00335915,0.00001459,0.00000
 579,-0.00008587,0.00024626,-0.00010763,0.00057883,-0.00001568,-0.00003
 649,-0.00012185,-0.00037624,0.00002193,-0.00060970,-0.01219514,0.00469
 869,-0.00066978,-0.00052040,0.00017765,-0.00002185,-0.00014619,-0.0000
 1897,0.00000598,-0.00018586,0.00070537,0.00000207,0.01531319,0.0048350
 8,0.00079790,0.00008033,0.00014587,-0.00016952,0.00001551,0.00005996,0
 .00009514,-0.00001503,-0.00009912,-0.00015706,-0.00005402,-0.00588045,
 -0.00246572,-0.00047769,0.00009102,0.00253051,-0.00005667,-0.00002937,
 -0.00007019,0.00003592,-0.00002499,-0.00001408,0.00007437,0.00002689,0
 .00008614,0.00093687,0.00022463,-0.00302515,0.00044949,-0.00040996,0.0
 0054291,0.00042165,0.00090827,0.00015508,-0.00004089,-0.00021477,-0.00
 003985,-0.00037820,0.00002996,0.00010490,0.00024094,-0.00189488,-0.001
 72334,0.43264561,-0.00008111,0.00014629,-0.00021666,0.00011121,-0.0007
 7648,0.00004414,0.00005207,0.00014043,0.00005844,-0.00075908,0.0009388
 5,-0.00009080,-0.00022742,-0.00044125,0.00099005,1.76500387,3.49312125
 ,0.00012050,0.00049090,0.00038100,0.00085148,-0.00073474,0.00002501,-0
 .00025823,0.00018282,-0.00006491,-0.00039630,0.00003951,0.00024250,-0.
 00084641,-0.00062066,-0.00132975,-1.13977169,0.29208593,0.06618529,0.0
 0085559,-0.00031161,-0.00018397,0.00071844,0.00047613,-0.00009238,0.00
 022299,-0.00020401,0.00004337,0.00058060,-0.00206020,-0.00006112,-0.00
 234840,0.00275742,0.00020074,0.41232059,-1.44228532,-0.14040528,-0.402
 24925,0.00066221,0.00091724,0.00026731,-0.00116431,-0.00181190,-0.0000
 5571,-0.00046586,0.00050945,-0.00008553,0.00097053,0.00124193,0.000206
 73,-0.00138977,0.00192872,-0.00101168,-1.49433544,-3.83867525,-0.54654
 895,1.50841082,3.84136945,-0.00014963,-0.00019326,-0.00034216,-0.00032
 386,0.00031048,-0.00027190,0.00002084,-0.00006784,0.00003949,0.0005064
 3,0.00000798,0.00021669,0.00055267,0.00026735,0.00126276,-0.16753522,-
 0.60973269,0.79690651,0.12763593,0.55262327,-0.81124688,-0.00017455,-0
 .00012629,-0.00012093,0.00004828,0.00041207,-0.00008771,0.00004408,-0.
 00010306,0.00000413,0.00038230,-0.00018282,0.00008523,-0.00015813,0.00
 007612,0.00100980,-0.84565920,-0.32181422,1.28070593,-0.01010055,-0.01
 268817,0.03929284,0.85561777,-0.00081157,-0.00072371,0.00003883,0.0000
 2657,0.00145279,-0.00001450,0.00003248,-0.00032075,-0.00000309,0.00026
 151,-0.00042085,0.00005450,0.00193491,0.00041179,-0.00026656,-0.269087
 04,0.34554617,0.25510518,-0.06678324,-0.00547963,0.05678470,0.33442638
 ,-0.34046582,0.00012285,-0.00009716,-0.00021929,-0.00059882,0.00014711
 ,0.00002469,0.00021527,-0.00003591,0.00005594,-0.00002039,0.00011700,-
 0.00030673,0.00004046,0.00010189,0.00055975,1.30826721,0.31686157,-0.8
 6234566,0.01286270,-0.00539543,0.01343549,-1.32088928,-0.31169906,0.84
 879582,0.00023865,-0.00042067,-0.00063632,-0.00003065,0.00007864,0.000
 20716,-0.00004785,0.00018077,0.00004722,-0.00051586,0.00069007,0.00052
 234,-0.00001965,-0.00019233,-0.00158524,0.00004177,-0.00009705,-0.0002
 8913,-0.00043554,0.00044714,-0.00025047,-0.00009443,0.00007867,0.00000
 468,-0.00017209,-0.00088881,0.00010070,0.00014944,-0.00014066,0.000008
 05,0.00000707,-0.00014270,0.00056040,-0.00008184,0.00045509,-0.0002541
 6,-0.00004146,0.00005681,0.00007210,0.00009312,-0.00023047,0.00000635,
 -0.00009414,0.00010854,0.00005505,0.00028730,0.00029740,-0.00003339,0.
 00014306,-0.00075789,0.00025610,-0.00008018,0.00013274,0.00002193,-0.0
 0130114,-0.00035946,-0.00027655,0.00000164,0.00025307,0.00155140,-0.00
 025496,0.00061898,-0.00057592,0.00010047,0.00051144,-0.00136679,-0.000
 05575,-0.00002225,-0.00002877,0.00029228,-0.00003168,0.00078518,0.0000
 1902,-0.00006489,-0.00018656,-0.00036623,0.00000270,-0.00054103,0.0005
 4101,0.00036066,0.00002584,-0.00018704,-0.00099792,0.00002715,0.000087
 27,0.00025722,-0.00001633,-0.00032134,0.00065495,0.00003531,-0.0015848
 9,-0.00033754,-0.00002871,-0.00013443,0.00008870,0.00015450,-0.0000360
 8,-0.00002421,0.00001007,-0.00002035,0.00000786,-0.00031864,-0.0000619
 1,0.00113818,-0.00024549,0.00034330,-0.00018607,-0.00009292,-0.0000026
 1,-0.00009085,-0.00008331,0.00006090,-0.00001218,0.00003037,-0.0000050
 2,0.00004580,0.00005955,-0.00068596,0.00070389,0.00071732,0.00020617,-
 0.00042753,0.00012593,0.00046295,0.00069164,0.00018404,-0.00021989,-0.
 00017052,-0.00002570,0.00019644,0.00012970,0.00002857,0.00039123,-0.00
 099993,-0.00074238,1.42336706,-0.00072285,0.00024694,-0.00033906,0.000
 61334,0.00014776,0.00018042,0.00003662,-0.00011380,0.00005907,-0.00035
 399,0.00042870,-0.00011826,-0.00001193,-0.00185836,0.00044631,1.246731
 16,1.19555671,-0.00028156,-0.00072979,0.00084705,0.00125510,0.00092340
 ,-0.00010584,-0.00028639,-0.00015092,-0.00006159,-0.00004754,-0.000319
 78,0.00029680,0.00195751,-0.00111860,-0.00285567,-2.65309366,-0.140443
 11,1.39032435,-0.00031539,-0.00033759,-0.00003360,0.00048913,0.0010217
 4,-0.00007947,0.00020946,-0.00029347,0.00004634,0.00099915,-0.00150308
 ,-0.00007235,0.00058243,0.00037404,-0.00004662,0.27305229,-0.73923098,
 -0.09226468,-0.28007277,0.00016332,0.00012429,0.00029164,-0.00044910,-
 0.00011587,-0.00011811,-0.00005338,0.00000400,-0.00007801,0.00085261,-
 0.00013609,0.00045603,-0.00061766,0.00115430,-0.00060536,-0.74062837,-
 2.04867993,-0.36284399,0.73967051,2.05190214,0.00005011,-0.00018892,-0
 .00025637,-0.00077862,0.00060650,-0.00013783,0.00025947,-0.00015315,0.
 00003571,0.00121272,-0.00012661,-0.00007219,-0.00054904,0.00121541,0.0
 0083724,-0.09278342,-0.36546686,0.43464428,0.10028815,0.36371885,-0.44
 164138,-0.00081547,0.00026829,-0.00010604,-0.00017230,0.00043351,-0.00
 009475,0.00012038,-0.00009770,0.00001622,0.00007669,-0.00030560,0.0001
 1914,0.00049133,-0.00024710,0.00107841,-1.69745624,-0.50706137,2.74276
 123,0.00505571,0.00106206,-0.00769938,1.69269990,0.00112779,0.00003996
 ,0.00011416,-0.00035175,-0.00123528,-0.00003952,-0.00022295,0.00036134
 ,0.00000393,-0.00069017,0.00069389,-0.00015973,-0.00078350,0.00113232,
 -0.00030155,-0.50532616,0.85427198,0.50468278,0.00029883,-0.00425284,0
 .00039478,0.50594791,-0.85101138,-0.00002577,0.00108862,-0.00045912,-0
 .00047095,-0.00160440,0.00007506,-0.00006424,0.00034738,0.00004854,-0.
 00103857,0.00055075,-0.00031299,-0.00079450,-0.00054794,0.00138742,2.7
 4630663,0.50568148,-1.82308937,-0.00783777,-0.00082105,0.00659054,-2.7
 3607482,-0.50469484,1.81575992\\@
 The archive entry for this job was punched.


 IF YOU GIVE EVERYONE A PIECE OF YOUR MIND,
 PRETTY SOON IT WILL BE ALL GONE.
 Job cpu time:       1 days  9 hours 41 minutes 52.5 seconds.
 Elapsed time:       0 days  0 hours 51 minutes 32.7 seconds.
 File lengths (MBytes):  RWF=   2445 Int=      0 D2E=      0 Chk=     42 Scr=      1
 Normal termination of Gaussian 16 at Thu Mar 20 00:16:35 2025.
