 Entering Gaussian System, Link 0=g16
 Input=hno3_h2o_mp2_avtz_opt_anharm.gjf
 Output=hno3_h2o_mp2_avtz_opt_anharm.log
 Initial command:
 /sw/contrib/chem-src/g16/c01/g16/l1.exe "/scr/Gau-55631.inp" -scrdir="/scr/"
 Entering Link 1 = /sw/contrib/chem-src/g16/c01/g16/l1.exe PID=     55632.
  
 Copyright (c) 1988-2019, Gaussian, Inc.  All Rights Reserved.
  
 This is part of the Gaussian(R) 16 program.  It is based on
 the Gaussian(R) 09 system (copyright 2009, Gaussian, Inc.),
 the Gaussian(R) 03 system (copyright 2003, Gaussian, Inc.),
 the Gaussian(R) 98 system (copyright 1998, Gaussian, Inc.),
 the Gaussian(R) 94 system (copyright 1995, Gaussian, Inc.),
 the Gaussian 92(TM) system (copyright 1992, Gaussian, Inc.),
 the Gaussian 90(TM) system (copyright 1990, Gaussian, Inc.),
 the Gaussian 88(TM) system (copyright 1988, Gaussian, Inc.),
 the Gaussian 86(TM) system (copyright 1986, Carnegie Mellon
 University), and the Gaussian 82(TM) system (copyright 1983,
 Carnegie Mellon University). Gaussian is a federally registered
 trademark of Gaussian, Inc.
  
 This software contains proprietary and confidential information,
 including trade secrets, belonging to Gaussian, Inc.
  
 This software is provided under written license and may be
 used, copied, transmitted, or stored only in accord with that
 written license.
  
 The following legend is applicable only to US Government
 contracts under FAR:
  
                    RESTRICTED RIGHTS LEGEND
  
 Use, reproduction and disclosure by the US Government is
 subject to restrictions as set forth in subparagraphs (a)
 and (c) of the Commercial Computer Software - Restricted
 Rights clause in FAR 52.227-19.
  
 Gaussian, Inc.
 340 Quinnipiac St., Bldg. 40, Wallingford CT 06492
  
  
 ---------------------------------------------------------------
 Warning -- This program may not be used in any manner that
 competes with the business of Gaussian, Inc. or will provide
 assistance to any competitor of Gaussian, Inc.  The licensee
 of this program is prohibited from giving any competitor of
 Gaussian, Inc. access to this program.  By using this program,
 the user acknowledges that Gaussian, Inc. is engaged in the
 business of creating and licensing software in the field of
 computational chemistry and represents and warrants to the
 licensee that it is not a competitor of Gaussian, Inc. and that
 it will not use this program in any manner prohibited above.
 ---------------------------------------------------------------
  

 Cite this work as:
 Gaussian 16, Revision C.01,
 M. J. Frisch, G. W. Trucks, H. B. Schlegel, G. E. Scuseria, 
 M. A. Robb, J. R. Cheeseman, G. Scalmani, V. Barone, 
 G. A. Petersson, H. Nakatsuji, X. Li, M. Caricato, A. V. Marenich, 
 J. Bloino, B. G. Janesko, R. Gomperts, B. Mennucci, H. P. Hratchian, 
 J. V. Ortiz, A. F. Izmaylov, J. L. Sonnenberg, D. Williams-Young, 
 F. Ding, F. Lipparini, F. Egidi, J. Goings, B. Peng, A. Petrone, 
 T. Henderson, D. Ranasinghe, V. G. Zakrzewski, J. Gao, N. Rega, 
 G. Zheng, W. Liang, M. Hada, M. Ehara, K. Toyota, R. Fukuda, 
 J. Hasegawa, M. Ishida, T. Nakajima, Y. Honda, O. Kitao, H. Nakai, 
 T. Vreven, K. Throssell, J. A. Montgomery, Jr., J. E. Peralta, 
 F. Ogliaro, M. J. Bearpark, J. J. Heyd, E. N. Brothers, K. N. Kudin, 
 V. N. Staroverov, T. A. Keith, R. Kobayashi, J. Normand, 
 K. Raghavachari, A. P. Rendell, J. C. Burant, S. S. Iyengar, 
 J. Tomasi, M. Cossi, J. M. Millam, M. Klene, C. Adamo, R. Cammi, 
 J. W. Ochterski, R. L. Martin, K. Morokuma, O. Farkas, 
 J. B. Foresman, and D. J. Fox, Gaussian, Inc., Wallingford CT, 2019.
 
 ******************************************
 Gaussian 16:  EM64L-G16RevC.01  3-Jul-2019
                20-Mar-2025 
 ******************************************
 %nprocshared=40
 Will use up to   40 processors via shared memory.
 %mem=50gb
 ----------------------------------------------
 # MP2/aug-cc-pVTZ opt freq=(vibrot,anharmonic)
 ----------------------------------------------
 1/18=20,19=15,38=1,80=1/1,3;
 2/9=110,12=2,17=6,18=5,40=1/2;
 3/5=16,6=1,7=10,11=9,25=1,30=1,71=1/1,2,3;
 4//1;
 5/5=2,38=5/2;
 8/6=4,10=1/1;
 9/15=2,16=-3/6;
 10/5=1/2;
 6/7=2,8=2,9=2,10=2/1;
 7/12=2/1,2,3,16;
 1/18=20,19=15,80=1/3(2);
 2/9=110/2;
 99//99;
 2/9=110/2;
 3/5=16,6=1,7=10,11=9,25=1,30=1,71=1/1,2,3;
 4/5=5,16=3,69=1/1;
 5/5=2,38=5/2;
 8/6=4,10=1/1;
 9/15=2,16=-3/6;
 10/5=1/2;
 7/12=2/1,2,3,16;
 1/18=20,19=15,80=1/3(-8);
 2/9=110/2;
 6/7=2,8=2,9=2,10=2/1;
 99/9=10/99;
 ----
 blah
 ----
 Symbolic Z-matrix:
 Charge =  0 Multiplicity = 1
 O                     0.09609  -1.07046  -0.01069 
 N                     0.85222   0.07729   0.00244 
 O                     2.04457  -0.10404   0.01864 
 O                     0.24523   1.13838  -0.00384 
 H                    -0.8439   -0.74299  -0.02055 
 O                    -2.38307  -0.02832  -0.08115 
 H                    -2.08905   0.88516   0.0265 
 H                    -3.05518  -0.16774   0.59331 
 
 Add virtual bond connecting atoms O6         and H5         Dist= 3.21D+00.

 GradGradGradGradGradGradGradGradGradGradGradGradGradGradGradGradGradGrad
 Berny optimization.
 Initialization pass.
                           ----------------------------
                           !    Initial Parameters    !
                           ! (Angstroms and Degrees)  !
 --------------------------                            --------------------------
 ! Name  Definition              Value          Derivative Info.                !
 --------------------------------------------------------------------------------
 ! R1    R(1,2)                  1.3745         estimate D2E/DX2                !
 ! R2    R(1,5)                  0.9954         estimate D2E/DX2                !
 ! R3    R(2,3)                  1.2062         estimate D2E/DX2                !
 ! R4    R(2,4)                  1.2224         estimate D2E/DX2                !
 ! R5    R(5,6)                  1.6981         estimate D2E/DX2                !
 ! R6    R(6,7)                  0.9657         estimate D2E/DX2                !
 ! R7    R(6,8)                  0.9623         estimate D2E/DX2                !
 ! A1    A(2,1,5)              104.1738         estimate D2E/DX2                !
 ! A2    A(1,2,3)              114.7344         estimate D2E/DX2                !
 ! A3    A(1,2,4)              116.8471         estimate D2E/DX2                !
 ! A4    A(3,2,4)              128.4185         estimate D2E/DX2                !
 ! A5    A(5,6,7)               96.786          estimate D2E/DX2                !
 ! A6    A(5,6,8)              123.1669         estimate D2E/DX2                !
 ! A7    A(7,6,8)              105.7589         estimate D2E/DX2                !
 ! A8    L(1,5,6,4,-1)         174.3094         estimate D2E/DX2                !
 ! A9    L(1,5,6,4,-2)         178.4798         estimate D2E/DX2                !
 ! D1    D(5,1,2,3)            179.8521         estimate D2E/DX2                !
 ! D2    D(5,1,2,4)             -0.1599         estimate D2E/DX2                !
 ! D3    D(2,1,6,7)             -6.2738         estimate D2E/DX2                !
 ! D4    D(2,1,6,8)           -119.1696         estimate D2E/DX2                !
 ! D5    D(1,2,3,4)            179.9863         estimate D2E/DX2                !
 ! D6    D(5,6,7,8)           -127.3035         estimate D2E/DX2                !
 --------------------------------------------------------------------------------
 Trust Radius=3.00D-01 FncErr=1.00D-07 GrdErr=1.00D-07 EigMax=2.50D+02 EigMin=1.00D-04
 Number of steps in this run=     32 maximum allowed number of steps=    100.
 GradGradGradGradGradGradGradGradGradGradGradGradGradGradGradGradGradGrad

                          Input orientation:                          
 ---------------------------------------------------------------------
 Center     Atomic      Atomic             Coordinates (Angstroms)
 Number     Number       Type             X           Y           Z
 ---------------------------------------------------------------------
      1          8           0        0.096090   -1.070457   -0.010693
      2          7           0        0.852219    0.077288    0.002440
      3          8           0        2.044572   -0.104036    0.018637
      4          8           0        0.245233    1.138377   -0.003839
      5          1           0       -0.843897   -0.742988   -0.020552
      6          8           0       -2.383072   -0.028315   -0.081147
      7          1           0       -2.089045    0.885164    0.026497
      8          1           0       -3.055181   -0.167739    0.593306
 ---------------------------------------------------------------------
                    Distance matrix (angstroms):
                    1          2          3          4          5
     1  O    0.000000
     2  N    1.374490   0.000000
     3  O    2.175181   1.206170   0.000000
     4  O    2.213874   1.222449   2.186714   0.000000
     5  H    0.995444   1.884195   2.958555   2.173941   0.000000
     6  O    2.690217   3.238093   4.429416   2.876653   1.698084
     7  H    2.932687   3.050291   4.250337   2.348168   2.050240
     8  H    3.333200   3.959411   5.132425   3.599341   2.365906
                    6          7          8
     6  O    0.000000
     7  H    0.965652   0.000000
     8  H    0.962318   1.537302   0.000000
 Stoichiometry    H3NO4
 Framework group  C1[X(H3NO4)]
 Deg. of freedom    18
 Full point group                 C1      NOp   1
 Largest Abelian subgroup         C1      NOp   1
 Largest concise Abelian subgroup C1      NOp   1
                         Standard orientation:                         
 ---------------------------------------------------------------------
 Center     Atomic      Atomic             Coordinates (Angstroms)
 Number     Number       Type             X           Y           Z
 ---------------------------------------------------------------------
      1          8           0        0.096090   -1.070457   -0.010693
      2          7           0        0.852219    0.077288    0.002440
      3          8           0        2.044572   -0.104036    0.018637
      4          8           0        0.245233    1.138377   -0.003839
      5          1           0       -0.843897   -0.742988   -0.020552
      6          8           0       -2.383072   -0.028315   -0.081147
      7          1           0       -2.089045    0.885164    0.026497
      8          1           0       -3.055181   -0.167739    0.593306
 ---------------------------------------------------------------------
 Rotational constants (GHZ):          12.2838394           2.7536065           2.2583246
 Standard basis: Aug-CC-pVTZ (5D, 7F)
 There are   350 symmetry adapted cartesian basis functions of A   symmetry.
 There are   299 symmetry adapted basis functions of A   symmetry.
   299 basis functions,   441 primitive gaussians,   350 cartesian basis functions
    21 alpha electrons       21 beta electrons
       nuclear repulsion energy       189.2480345562 Hartrees.
 NAtoms=    8 NActive=    8 NUniq=    8 SFac= 1.00D+00 NAtFMM=   60 NAOKFM=F Big=F
 Integral buffers will be    131072 words long.
 Raffenetti 1 integral format.
 Two-electron integral symmetry is turned on.
 One-electron integrals computed using PRISM.
 NBasis=   299 RedAO= T EigKep=  5.72D-05  NBF=   299
 NBsUse=   299 1.00D-06 EigRej= -1.00D+00 NBFU=   299
 ExpMin= 2.53D-02 ExpMax= 1.53D+04 ExpMxC= 5.22D+02 IAcc=3 IRadAn=         5 AccDes= 0.00D+00
 Harris functional with IExCor=  205 and IRadAn=       5 diagonalized for initial guess.
 HarFok:  IExCor=  205 AccDes= 0.00D+00 IRadAn=         5 IDoV= 1 UseB2=F ITyADJ=14
 ICtDFT=  3500011 ScaDFX=  1.000000  1.000000  1.000000  1.000000
 FoFCou: FMM=F IPFlag=           0 FMFlag=      100000 FMFlg1=           0
         NFxFlg=           0 DoJE=T BraDBF=F KetDBF=T FulRan=T
         wScrn=  0.000000 ICntrl=       500 IOpCl=  0 I1Cent=   200000004 NGrid=           0
         NMat0=    1 NMatS0=      1 NMatT0=    0 NMatD0=    1 NMtDS0=    0 NMtDT0=    0
 Petite list used in FoFCou.
 Keep R1 ints in memory in canonical form, NReq=1027406911.
 Requested convergence on RMS density matrix=1.00D-08 within 128 cycles.
 Requested convergence on MAX density matrix=1.00D-06.
 Requested convergence on             energy=1.00D-06.
 No special actions if energy rises.
 SCF Done:  E(RHF) =  -355.635102958     A.U. after   14 cycles
            NFock= 14  Conv=0.79D-08     -V/T= 2.0021
 ExpMin= 2.53D-02 ExpMax= 1.53D+04 ExpMxC= 5.22D+02 IAcc=3 IRadAn=         5 AccDes= 0.00D+00
 HarFok:  IExCor=  205 AccDes= 0.00D+00 IRadAn=         5 IDoV=-2 UseB2=F ITyADJ=14
 ICtDFT= 12500011 ScaDFX=  1.000000  1.000000  1.000000  1.000000
 Range of M.O.s used for correlation:     6   299
 NBasis=   299 NAE=    21 NBE=    21 NFC=     5 NFV=     0
 NROrb=    294 NOA=    16 NOB=    16 NVA=   278 NVB=   278

 **** Warning!!: The largest alpha MO coefficient is  0.25805064D+02

 Disk-based method using ON**2 memory for 16 occupieds at a time.
 Estimated scratch disk usage=  1288574416 words.
 Actual    scratch disk usage=  1180762576 words.
 JobTyp=1 Pass  1:  I=   6 to  21 NPSUse= 40 ParTrn=T ParDer=T DoDerP=T.
 (rs|ai) integrals will be sorted in core.
 Spin components of T(2) and E(2):
     alpha-alpha T2 =       0.4297390566D-01 E2=     -0.1609978094D+00
     alpha-beta  T2 =       0.2254285135D+00 E2=     -0.9025634837D+00
     beta-beta   T2 =       0.4297390566D-01 E2=     -0.1609978094D+00
 ANorm=    0.1145153407D+01
 E2 =    -0.1224559103D+01 EUMP2 =    -0.35685966206094D+03
          IDoAtm=11111111
          Differentiating once with respect to electric field.
                with respect to dipole field.
          Differentiating once with respect to nuclear coordinates.
 Keep R1 ints in memory in canonical form, NReq=1027408679.
          There are     1 degrees of freedom in the 1st order CPHF.  IDoFFX=0 NUNeed=     1.
 LinEq1:  Iter=  0 NonCon=     1 RMS=4.29D-03 Max=1.26D-01 NDo=     1
 AX will form     1 AO Fock derivatives at one time.
 LinEq1:  Iter=  1 NonCon=     1 RMS=1.32D-03 Max=2.48D-02 NDo=     1
 LinEq1:  Iter=  2 NonCon=     1 RMS=5.50D-04 Max=1.50D-02 NDo=     1
 LinEq1:  Iter=  3 NonCon=     1 RMS=1.85D-04 Max=2.96D-03 NDo=     1
 LinEq1:  Iter=  4 NonCon=     1 RMS=5.59D-05 Max=8.11D-04 NDo=     1
 LinEq1:  Iter=  5 NonCon=     1 RMS=2.23D-05 Max=9.56D-04 NDo=     1
 LinEq1:  Iter=  6 NonCon=     1 RMS=9.26D-06 Max=1.37D-04 NDo=     1
 LinEq1:  Iter=  7 NonCon=     1 RMS=3.59D-06 Max=1.18D-04 NDo=     1
 LinEq1:  Iter=  8 NonCon=     1 RMS=1.57D-06 Max=1.82D-05 NDo=     1
 LinEq1:  Iter=  9 NonCon=     1 RMS=5.65D-07 Max=8.66D-06 NDo=     1
 LinEq1:  Iter= 10 NonCon=     1 RMS=1.14D-07 Max=1.18D-06 NDo=     1
 LinEq1:  Iter= 11 NonCon=     1 RMS=2.59D-08 Max=2.90D-07 NDo=     1
 LinEq1:  Iter= 12 NonCon=     1 RMS=7.38D-09 Max=7.68D-08 NDo=     1
 LinEq1:  Iter= 13 NonCon=     1 RMS=3.19D-09 Max=2.94D-08 NDo=     1
 LinEq1:  Iter= 14 NonCon=     1 RMS=6.73D-10 Max=1.15D-08 NDo=     1
 LinEq1:  Iter= 15 NonCon=     1 RMS=1.26D-10 Max=2.28D-09 NDo=     1
 LinEq1:  Iter= 16 NonCon=     0 RMS=3.50D-11 Max=8.23D-10 NDo=     1
 Linear equations converged to 1.000D-10 1.000D-09 after    16 iterations.
 End of Minotr F.D. properties file   721 does not exist.
 End of Minotr F.D. properties file   722 does not exist.
 End of Minotr F.D. properties file   788 does not exist.

 **********************************************************************

            Population analysis using the SCF Density.

 **********************************************************************

 Orbital symmetries:
       Occupied  (A) (A) (A) (A) (A) (A) (A) (A) (A) (A) (A) (A)
                 (A) (A) (A) (A) (A) (A) (A) (A) (A)
       Virtual   (A) (A) (A) (A) (A) (A) (A) (A) (A) (A) (A) (A)
                 (A) (A) (A) (A) (A) (A) (A) (A) (A) (A) (A) (A)
                 (A) (A) (A) (A) (A) (A) (A) (A) (A) (A) (A) (A)
                 (A) (A) (A) (A) (A) (A) (A) (A) (A) (A) (A) (A)
                 (A) (A) (A) (A) (A) (A) (A) (A) (A) (A) (A) (A)
                 (A) (A) (A) (A) (A) (A) (A) (A) (A) (A) (A) (A)
                 (A) (A) (A) (A) (A) (A) (A) (A) (A) (A) (A) (A)
                 (A) (A) (A) (A) (A) (A) (A) (A) (A) (A) (A) (A)
                 (A) (A) (A) (A) (A) (A) (A) (A) (A) (A) (A) (A)
                 (A) (A) (A) (A) (A) (A) (A) (A) (A) (A) (A) (A)
                 (A) (A) (A) (A) (A) (A) (A) (A) (A) (A) (A) (A)
                 (A) (A) (A) (A) (A) (A) (A) (A) (A) (A) (A) (A)
                 (A) (A) (A) (A) (A) (A) (A) (A) (A) (A) (A) (A)
                 (A) (A) (A) (A) (A) (A) (A) (A) (A) (A) (A) (A)
                 (A) (A) (A) (A) (A) (A) (A) (A) (A) (A) (A) (A)
                 (A) (A) (A) (A) (A) (A) (A) (A) (A) (A) (A) (A)
                 (A) (A) (A) (A) (A) (A) (A) (A) (A) (A) (A) (A)
                 (A) (A) (A) (A) (A) (A) (A) (A) (A) (A) (A) (A)
                 (A) (A) (A) (A) (A) (A) (A) (A) (A) (A) (A) (A)
                 (A) (A) (A) (A) (A) (A) (A) (A) (A) (A) (A) (A)
                 (A) (A) (A) (A) (A) (A) (A) (A) (A) (A) (A) (A)
                 (A) (A) (A) (A) (A) (A) (A) (A) (A) (A) (A) (A)
                 (A) (A) (A) (A) (A) (A) (A) (A) (A) (A) (A) (A)
                 (A) (A)
 The electronic state is 1-A.
 Alpha  occ. eigenvalues --  -20.66532 -20.63100 -20.62590 -20.61537 -15.92538
 Alpha  occ. eigenvalues --   -1.66956  -1.44326  -1.42599  -1.40107  -0.94283
 Alpha  occ. eigenvalues --   -0.81706  -0.77606  -0.77516  -0.76609  -0.68774
 Alpha  occ. eigenvalues --   -0.62977  -0.56321  -0.55741  -0.53499  -0.51708
 Alpha  occ. eigenvalues --   -0.48569
 Alpha virt. eigenvalues --    0.01866   0.04558   0.05145   0.08400   0.10338
 Alpha virt. eigenvalues --    0.11499   0.12362   0.13485   0.15044   0.15924
 Alpha virt. eigenvalues --    0.16555   0.17863   0.17980   0.18817   0.19549
 Alpha virt. eigenvalues --    0.20411   0.22950   0.24508   0.25295   0.25780
 Alpha virt. eigenvalues --    0.26191   0.27385   0.28929   0.31215   0.31789
 Alpha virt. eigenvalues --    0.34845   0.36066   0.36353   0.37584   0.38868
 Alpha virt. eigenvalues --    0.40314   0.41028   0.41583   0.43286   0.46025
 Alpha virt. eigenvalues --    0.47708   0.51664   0.54737   0.56279   0.58838
 Alpha virt. eigenvalues --    0.59447   0.60666   0.63875   0.64346   0.65767
 Alpha virt. eigenvalues --    0.66320   0.66499   0.70904   0.72753   0.74904
 Alpha virt. eigenvalues --    0.75463   0.76192   0.77272   0.78645   0.80865
 Alpha virt. eigenvalues --    0.82121   0.83318   0.85422   0.86825   0.87721
 Alpha virt. eigenvalues --    0.88134   0.88599   0.90756   0.91595   0.92926
 Alpha virt. eigenvalues --    0.93698   0.95428   0.96988   0.99795   1.00995
 Alpha virt. eigenvalues --    1.01307   1.02673   1.04419   1.05176   1.09732
 Alpha virt. eigenvalues --    1.12239   1.14157   1.15059   1.15549   1.18817
 Alpha virt. eigenvalues --    1.22299   1.22745   1.24227   1.25666   1.27893
 Alpha virt. eigenvalues --    1.28922   1.30807   1.32369   1.35941   1.37577
 Alpha virt. eigenvalues --    1.38624   1.46302   1.47223   1.50092   1.51234
 Alpha virt. eigenvalues --    1.53157   1.57802   1.58844   1.60433   1.61129
 Alpha virt. eigenvalues --    1.63592   1.66402   1.68769   1.72081   1.76137
 Alpha virt. eigenvalues --    1.79945   1.82557   1.83319   1.88338   1.89645
 Alpha virt. eigenvalues --    1.91667   1.94171   1.97425   1.98980   2.04930
 Alpha virt. eigenvalues --    2.10316   2.10715   2.15839   2.17003   2.18353
 Alpha virt. eigenvalues --    2.21925   2.24521   2.26437   2.29417   2.32005
 Alpha virt. eigenvalues --    2.32371   2.37549   2.38944   2.39840   2.42997
 Alpha virt. eigenvalues --    2.45877   2.46154   2.47037   2.47928   2.49222
 Alpha virt. eigenvalues --    2.51456   2.52902   2.55032   2.55525   2.57454
 Alpha virt. eigenvalues --    2.61609   2.63262   2.64507   2.65669   2.67035
 Alpha virt. eigenvalues --    2.72219   2.74076   2.75124   2.76682   2.79749
 Alpha virt. eigenvalues --    2.83244   2.84824   2.86621   2.88569   2.91696
 Alpha virt. eigenvalues --    3.00524   3.02838   3.05473   3.08709   3.14536
 Alpha virt. eigenvalues --    3.16267   3.21959   3.22387   3.28784   3.32641
 Alpha virt. eigenvalues --    3.33074   3.37468   3.42316   3.63209   3.68075
 Alpha virt. eigenvalues --    3.85848   3.90355   3.99314   4.08533   4.11850
 Alpha virt. eigenvalues --    4.16203   4.18344   4.24120   4.26179   4.27352
 Alpha virt. eigenvalues --    4.29075   4.38857   4.40453   4.44874   4.46443
 Alpha virt. eigenvalues --    4.50702   4.52229   4.60844   4.64566   4.67654
 Alpha virt. eigenvalues --    4.69796   4.73753   4.76676   4.80567   4.87690
 Alpha virt. eigenvalues --    4.90896   4.97847   5.00727   5.03351   5.09280
 Alpha virt. eigenvalues --    5.11415   5.16040   5.20499   5.24483   5.25390
 Alpha virt. eigenvalues --    5.28882   5.32173   5.34321   5.39010   5.44099
 Alpha virt. eigenvalues --    5.45853   5.47183   5.49895   5.52883   5.61232
 Alpha virt. eigenvalues --    5.65138   5.68644   5.75590   5.82135   5.98649
 Alpha virt. eigenvalues --    6.22326   6.26683   6.46701   6.54080   6.54564
 Alpha virt. eigenvalues --    6.55177   6.56680   6.62550   6.65995   6.73254
 Alpha virt. eigenvalues --    6.76074   6.76957   6.80965   6.82595   6.85925
 Alpha virt. eigenvalues --    6.90226   6.93562   6.96625   7.04387   7.12327
 Alpha virt. eigenvalues --    7.16971   7.22561   7.25460   7.28528   7.29949
 Alpha virt. eigenvalues --    7.30483   7.32499   7.33244   7.35115   7.35706
 Alpha virt. eigenvalues --    7.37141   7.39017   7.41568   7.45206   7.48133
 Alpha virt. eigenvalues --    7.52016   7.52869   7.61097   7.61399   7.64813
 Alpha virt. eigenvalues --    7.70472   7.81684   7.83479   7.94122   7.96551
 Alpha virt. eigenvalues --    8.02874   8.09753   8.23996   8.29021   8.41942
 Alpha virt. eigenvalues --    8.48405   8.68599   8.88607  15.13032  15.38141
 Alpha virt. eigenvalues --   16.19742  16.57759  19.25235
          Condensed to atoms (all electrons):
               1          2          3          4          5          6
     1  O    8.209488   0.121666  -0.050010  -0.028229   0.192882  -0.068835
     2  N    0.121666   5.297874   0.248737   0.223607   0.042372   0.027597
     3  O   -0.050010   0.248737   8.511951  -0.132706  -0.014608  -0.002003
     4  O   -0.028229   0.223607  -0.132706   8.496798  -0.013011  -0.014132
     5  H    0.192882   0.042372  -0.014608  -0.013011   0.438937  -0.006834
     6  O   -0.068835   0.027597  -0.002003  -0.014132  -0.006834   7.948652
     7  H    0.004694  -0.001580  -0.000010  -0.013032   0.006403   0.242609
     8  H    0.000568  -0.000262  -0.000012   0.000284   0.004887   0.262645
               7          8
     1  O    0.004694   0.000568
     2  N   -0.001580  -0.000262
     3  O   -0.000010  -0.000012
     4  O   -0.013032   0.000284
     5  H    0.006403   0.004887
     6  O    0.242609   0.262645
     7  H    0.478179   0.024165
     8  H    0.024165   0.502416
 Mulliken charges:
               1
     1  O   -0.382223
     2  N    1.039988
     3  O   -0.561339
     4  O   -0.519580
     5  H    0.348971
     6  O   -0.389699
     7  H    0.258572
     8  H    0.205309
 Sum of Mulliken charges =  -0.00000
 Mulliken charges with hydrogens summed into heavy atoms:
               1
     1  O   -0.033252
     2  N    1.039988
     3  O   -0.561339
     4  O   -0.519580
     6  O    0.074182
 Electronic spatial extent (au):  <R**2>=            491.6839
 Charge=             -0.0000 electrons
 Dipole moment (field-independent basis, Debye):
    X=             -4.1306    Y=              0.2052    Z=              1.2931  Tot=              4.3332
 Quadrupole moment (field-independent basis, Debye-Ang):
   XX=            -25.1274   YY=            -30.4733   ZZ=            -27.5876
   XY=             -0.9741   XZ=             -4.4087   YZ=             -0.1953
 Traceless Quadrupole moment (field-independent basis, Debye-Ang):
   XX=              2.6020   YY=             -2.7439   ZZ=              0.1418
   XY=             -0.9741   XZ=             -4.4087   YZ=             -0.1953
 Octapole moment (field-independent basis, Debye-Ang**2):
  XXX=            -36.9251  YYY=              0.2449  ZZZ=              0.9355  XYY=             -7.0958
  XXY=              2.2104  XXZ=             13.7312  XZZ=             -1.3800  YZZ=              0.0316
  YYZ=              0.1803  XYZ=              0.6482
 Hexadecapole moment (field-independent basis, Debye-Ang**3):
 XXXX=           -351.3347 YYYY=           -109.5553 ZZZZ=            -22.8500 XXXY=             -0.5472
 XXXZ=            -44.7004 YYYX=             -3.2781 YYYZ=             -0.0445 ZZZX=             -3.3295
 ZZZY=             -0.2105 XXYY=            -80.1227 XXZZ=            -67.8199 YYZZ=            -22.3361
 XXYZ=             -2.1847 YYXZ=             -0.7652 ZZXY=              0.4092
 N-N= 1.892480345562D+02 E-N=-1.219749959913D+03  KE= 3.548955317708D+02
 Calling FoFJK, ICntrl=  10002127 FMM=F ISym2X=0 I1Cent= 0 IOpClX= 0 NMat=1 NMatS=1 NMatT=0.
 ***** Axes restored to original set *****
 -------------------------------------------------------------------
 Center     Atomic                   Forces (Hartrees/Bohr)
 Number     Number              X              Y              Z
 -------------------------------------------------------------------
      1        8           0.000052161    0.000044553    0.000007455
      2        7          -0.000257416    0.000065276   -0.000026070
      3        8           0.000114791   -0.000010619    0.000014703
      4        8           0.000117580   -0.000074202    0.000004837
      5        1           0.000046056   -0.000000647   -0.000029608
      6        8          -0.000073765   -0.000044256    0.000050592
      7        1           0.000014471   -0.000037278    0.000017171
      8        1          -0.000013877    0.000057173   -0.000039080
 -------------------------------------------------------------------
 Cartesian Forces:  Max     0.000257416 RMS     0.000073219

 GradGradGradGradGradGradGradGradGradGradGradGradGradGradGradGradGradGrad
 Berny optimization.
 FormGI is forming the generalized inverse of G from B-inverse, IUseBI=4.
 Internal  Forces:  Max     0.000122829 RMS     0.000058736
 Search for a local minimum.
 Step number   1 out of a maximum of   32
 All quantities printed in internal units (Hartrees-Bohrs-Radians)
 Mixed Optimization -- En-DIIS/RFO-DIIS
 Second derivative matrix not updated -- first step.
 ITU=  0
     Eigenvalues ---    0.00230   0.00230   0.00230   0.01632   0.03239
     Eigenvalues ---    0.05625   0.07436   0.11144   0.16000   0.16000
     Eigenvalues ---    0.25000   0.25000   0.48498   0.50123   0.54275
     Eigenvalues ---    0.54978   0.94306   1.01783
 RFO step:  Lambda=-1.48312190D-06 EMin= 2.30000000D-03
 Linear search not attempted -- first point.
 Iteration  1 RMS(Cart)=  0.01585907 RMS(Int)=  0.00008014
 Iteration  2 RMS(Cart)=  0.00011820 RMS(Int)=  0.00000393
 Iteration  3 RMS(Cart)=  0.00000000 RMS(Int)=  0.00000393
 Variable       Old X    -DE/DX   Delta X   Delta X   Delta X     New X
                                 (Linear)    (Quad)   (Total)
    R1        2.59741  -0.00003   0.00000  -0.00006  -0.00006   2.59735
    R2        1.88112   0.00002   0.00000   0.00004   0.00004   1.88115
    R3        2.27933   0.00012   0.00000   0.00011   0.00011   2.27944
    R4        2.31009  -0.00012   0.00000  -0.00013  -0.00013   2.30996
    R5        3.20891   0.00006   0.00000   0.00074   0.00074   3.20965
    R6        1.82482  -0.00003   0.00000  -0.00005  -0.00005   1.82476
    R7        1.81852  -0.00003   0.00000  -0.00005  -0.00005   1.81847
    A1        1.81818   0.00011   0.00000   0.00068   0.00068   1.81886
    A2        2.00249  -0.00004   0.00000  -0.00016  -0.00016   2.00233
    A3        2.03937   0.00010   0.00000   0.00038   0.00038   2.03975
    A4        2.24133  -0.00006   0.00000  -0.00022  -0.00022   2.24110
    A5        1.68924  -0.00007   0.00000  -0.00048  -0.00048   1.68876
    A6        2.14967   0.00007   0.00000   0.00058   0.00058   2.15025
    A7        1.84584  -0.00002   0.00000  -0.00029  -0.00028   1.84556
    A8        3.04227   0.00005   0.00000   0.02020   0.02020   3.06247
    A9        3.11506   0.00002   0.00000   0.00944   0.00944   3.12450
    D1        3.13901  -0.00001   0.00000  -0.00076  -0.00076   3.13826
    D2       -0.00279  -0.00001   0.00000  -0.00046  -0.00046  -0.00325
    D3       -0.10950  -0.00003   0.00000   0.00042   0.00041  -0.10909
    D4       -2.07990   0.00002   0.00000  -0.00203  -0.00202  -2.08192
    D5        3.14135   0.00001   0.00000   0.00034   0.00034  -3.14149
    D6       -2.22187  -0.00004   0.00000  -0.00032  -0.00032  -2.22219
         Item               Value     Threshold  Converged?
 Maximum Force            0.000123     0.000450     YES
 RMS     Force            0.000059     0.000300     YES
 Maximum Displacement     0.034564     0.001800     NO 
 RMS     Displacement     0.015818     0.001200     NO 
 Predicted change in Energy=-7.425516D-07
 GradGradGradGradGradGradGradGradGradGradGradGradGradGradGradGradGradGrad

                          Input orientation:                          
 ---------------------------------------------------------------------
 Center     Atomic      Atomic             Coordinates (Angstroms)
 Number     Number       Type             X           Y           Z
 ---------------------------------------------------------------------
      1          8           0        0.093745   -1.063898   -0.010260
      2          7           0        0.860267    0.076903    0.002036
      3          8           0        2.050841   -0.115447    0.024962
      4          8           0        0.263502    1.143631   -0.011252
      5          1           0       -0.843399   -0.728522   -0.025445
      6          8           0       -2.391480   -0.031866   -0.079620
      7          1           0       -2.107335    0.884871    0.026601
      8          1           0       -3.059223   -0.178378    0.597627
 ---------------------------------------------------------------------
                    Distance matrix (angstroms):
                    1          2          3          4          5
     1  O    0.000000
     2  N    1.374458   0.000000
     3  O    2.175092   1.206230   0.000000
     4  O    2.214047   1.222380   2.186588   0.000000
     5  H    0.995463   1.884659   2.958889   2.174946   0.000000
     6  O    2.691885   3.254590   4.444338   2.904376   1.698476
     7  H    2.940037   3.075724   4.276806   2.385217   2.050190
     8  H    3.330898   3.972693   5.142437   3.627526   2.366591
                    6          7          8
     6  O    0.000000
     7  H    0.965623   0.000000
     8  H    0.962293   1.537094   0.000000
 Stoichiometry    H3NO4
 Framework group  C1[X(H3NO4)]
 Deg. of freedom    18
 Full point group                 C1      NOp   1
 Largest Abelian subgroup         C1      NOp   1
 Largest concise Abelian subgroup C1      NOp   1
                         Standard orientation:                         
 ---------------------------------------------------------------------
 Center     Atomic      Atomic             Coordinates (Angstroms)
 Number     Number       Type             X           Y           Z
 ---------------------------------------------------------------------
      1          8           0        0.089117   -1.063368   -0.014618
      2          7           0        0.856906    0.076529    0.001815
      3          8           0        2.047278   -0.117225    0.023364
      4          8           0        0.261315    1.143959   -0.006928
      5          1           0       -0.847663   -0.726900   -0.027988
      6          8           0       -2.395000   -0.028326   -0.078598
      7          1           0       -2.109788    0.887668    0.031118
      8          1           0       -3.062559   -0.176790    0.598405
 ---------------------------------------------------------------------
 Rotational constants (GHZ):          12.2851017           2.7320064           2.2439199
 Standard basis: Aug-CC-pVTZ (5D, 7F)
 There are   350 symmetry adapted cartesian basis functions of A   symmetry.
 There are   299 symmetry adapted basis functions of A   symmetry.
   299 basis functions,   441 primitive gaussians,   350 cartesian basis functions
    21 alpha electrons       21 beta electrons
       nuclear repulsion energy       188.9939906124 Hartrees.
 NAtoms=    8 NActive=    8 NUniq=    8 SFac= 1.00D+00 NAtFMM=   60 NAOKFM=F Big=F
 Integral buffers will be    131072 words long.
 Raffenetti 1 integral format.
 Two-electron integral symmetry is turned on.
 One-electron integrals computed using PRISM.
 NBasis=   299 RedAO= T EigKep=  5.71D-05  NBF=   299
 NBsUse=   299 1.00D-06 EigRej= -1.00D+00 NBFU=   299
 Initial guess from the checkpoint file:  "/scr/Gau-55632.chk"
 B after Tr=    -0.000000    0.000000    0.000000
         Rot=    0.999999   -0.000415   -0.000033    0.001619 Ang=  -0.19 deg.
 ExpMin= 2.53D-02 ExpMax= 1.53D+04 ExpMxC= 5.22D+02 IAcc=3 IRadAn=         5 AccDes= 0.00D+00
 Harris functional with IExCor=  205 and IRadAn=       5 diagonalized for initial guess.
 HarFok:  IExCor=  205 AccDes= 0.00D+00 IRadAn=         5 IDoV= 1 UseB2=F ITyADJ=14
 ICtDFT=  3500011 ScaDFX=  1.000000  1.000000  1.000000  1.000000
 FoFCou: FMM=F IPFlag=           0 FMFlag=      100000 FMFlg1=           0
         NFxFlg=           0 DoJE=T BraDBF=F KetDBF=T FulRan=T
         wScrn=  0.000000 ICntrl=       500 IOpCl=  0 I1Cent=   200000004 NGrid=           0
         NMat0=    1 NMatS0=      1 NMatT0=    0 NMatD0=    1 NMtDS0=    0 NMtDT0=    0
 Petite list used in FoFCou.
 Keep R1 ints in memory in canonical form, NReq=1027406911.
 Requested convergence on RMS density matrix=1.00D-08 within 128 cycles.
 Requested convergence on MAX density matrix=1.00D-06.
 Requested convergence on             energy=1.00D-06.
 No special actions if energy rises.
 SCF Done:  E(RHF) =  -355.635180748     A.U. after   11 cycles
            NFock= 11  Conv=0.45D-08     -V/T= 2.0021
 ExpMin= 2.53D-02 ExpMax= 1.53D+04 ExpMxC= 5.22D+02 IAcc=3 IRadAn=         5 AccDes= 0.00D+00
 HarFok:  IExCor=  205 AccDes= 0.00D+00 IRadAn=         5 IDoV=-2 UseB2=F ITyADJ=14
 ICtDFT= 12500011 ScaDFX=  1.000000  1.000000  1.000000  1.000000
 Range of M.O.s used for correlation:     6   299
 NBasis=   299 NAE=    21 NBE=    21 NFC=     5 NFV=     0
 NROrb=    294 NOA=    16 NOB=    16 NVA=   278 NVB=   278

 **** Warning!!: The largest alpha MO coefficient is  0.26256906D+02

 Disk-based method using ON**2 memory for 16 occupieds at a time.
 Estimated scratch disk usage=  1288574416 words.
 Actual    scratch disk usage=  1180762576 words.
 JobTyp=1 Pass  1:  I=   6 to  21 NPSUse= 40 ParTrn=T ParDer=T DoDerP=T.
 (rs|ai) integrals will be sorted in core.
 Spin components of T(2) and E(2):
     alpha-alpha T2 =       0.4296883913D-01 E2=     -0.1609721552D+00
     alpha-beta  T2 =       0.2254366222D+00 E2=     -0.9025246819D+00
     beta-beta   T2 =       0.4296883913D-01 E2=     -0.1609721552D+00
 ANorm=    0.1145152523D+01
 E2 =    -0.1224468992D+01 EUMP2 =    -0.35685964974082D+03
          IDoAtm=11111111
          Differentiating once with respect to electric field.
                with respect to dipole field.
          Differentiating once with respect to nuclear coordinates.
 Keep R1 ints in memory in canonical form, NReq=1027408679.
          There are     1 degrees of freedom in the 1st order CPHF.  IDoFFX=0 NUNeed=     1.
 LinEq1:  Iter=  0 NonCon=     1 RMS=4.29D-03 Max=1.16D-01 NDo=     1
 AX will form     1 AO Fock derivatives at one time.
 LinEq1:  Iter=  1 NonCon=     1 RMS=1.32D-03 Max=2.47D-02 NDo=     1
 LinEq1:  Iter=  2 NonCon=     1 RMS=5.50D-04 Max=1.39D-02 NDo=     1
 LinEq1:  Iter=  3 NonCon=     1 RMS=1.85D-04 Max=2.92D-03 NDo=     1
 LinEq1:  Iter=  4 NonCon=     1 RMS=5.59D-05 Max=8.25D-04 NDo=     1
 LinEq1:  Iter=  5 NonCon=     1 RMS=2.21D-05 Max=9.41D-04 NDo=     1
 LinEq1:  Iter=  6 NonCon=     1 RMS=9.21D-06 Max=1.35D-04 NDo=     1
 LinEq1:  Iter=  7 NonCon=     1 RMS=3.58D-06 Max=1.18D-04 NDo=     1
 LinEq1:  Iter=  8 NonCon=     1 RMS=1.57D-06 Max=1.86D-05 NDo=     1
 LinEq1:  Iter=  9 NonCon=     1 RMS=5.65D-07 Max=8.74D-06 NDo=     1
 LinEq1:  Iter= 10 NonCon=     1 RMS=1.14D-07 Max=1.21D-06 NDo=     1
 LinEq1:  Iter= 11 NonCon=     1 RMS=2.54D-08 Max=2.97D-07 NDo=     1
 LinEq1:  Iter= 12 NonCon=     1 RMS=6.84D-09 Max=7.08D-08 NDo=     1
 LinEq1:  Iter= 13 NonCon=     1 RMS=2.99D-09 Max=2.97D-08 NDo=     1
 LinEq1:  Iter= 14 NonCon=     1 RMS=6.65D-10 Max=1.13D-08 NDo=     1
 LinEq1:  Iter= 15 NonCon=     1 RMS=1.23D-10 Max=2.24D-09 NDo=     1
 LinEq1:  Iter= 16 NonCon=     0 RMS=3.36D-11 Max=7.43D-10 NDo=     1
 Linear equations converged to 1.000D-10 1.000D-09 after    16 iterations.
 End of Minotr F.D. properties file   721 does not exist.
 End of Minotr F.D. properties file   722 does not exist.
 End of Minotr F.D. properties file   788 does not exist.
 Calling FoFJK, ICntrl=  10002127 FMM=F ISym2X=0 I1Cent= 0 IOpClX= 0 NMat=1 NMatS=1 NMatT=0.
 ***** Axes restored to original set *****
 -------------------------------------------------------------------
 Center     Atomic                   Forces (Hartrees/Bohr)
 Number     Number              X              Y              Z
 -------------------------------------------------------------------
      1        8          -0.000084656    0.000182884   -0.000111839
      2        7          -0.000066077    0.000224368    0.000025418
      3        8           0.000164751   -0.000076961   -0.000005895
      4        8          -0.000373424   -0.000331583    0.000002063
      5        1           0.000126656   -0.000367086    0.000151135
      6        8           0.000369122    0.000262477   -0.000114550
      7        1          -0.000175670    0.000051980    0.000013758
      8        1           0.000039298    0.000053922    0.000039911
 -------------------------------------------------------------------
 Cartesian Forces:  Max     0.000373424 RMS     0.000185143

 GradGradGradGradGradGradGradGradGradGradGradGradGradGradGradGradGradGrad
 Berny optimization.
 Using GEDIIS/GDIIS optimizer.
 FormGI is forming the generalized inverse of G from B-inverse, IUseBI=4.
 Internal  Forces:  Max     0.001337644 RMS     0.000433857
 Search for a local minimum.
 Step number   2 out of a maximum of   32
 All quantities printed in internal units (Hartrees-Bohrs-Radians)
 Mixed Optimization -- En-DIIS/RFO-DIIS
 Swapping is turned off.
 Update second derivatives using D2CorX and points    1    2
 DE=  1.23D-05 DEPred=-7.43D-07 R=-1.66D+01
 Trust test=-1.66D+01 RLast= 2.25D-02 DXMaxT set to 1.50D-01
 ITU= -1  0
     Eigenvalues ---    0.00218   0.00230   0.01617   0.02914   0.03230
     Eigenvalues ---    0.05655   0.07263   0.10689   0.15914   0.20841
     Eigenvalues ---    0.25000   0.31500   0.48976   0.50965   0.54220
     Eigenvalues ---    0.54938   0.93226   1.01067
 En-DIIS/RFO-DIIS/Sim-DIIS IScMMF=       -3 using points:     2    1
 RFO step:  Lambda=-2.44382222D-05.
 DidBck=T Rises=T En-DIIS coefs:    0.27189    0.72811
 Iteration  1 RMS(Cart)=  0.01544536 RMS(Int)=  0.00007563
 Iteration  2 RMS(Cart)=  0.00011545 RMS(Int)=  0.00000050
 Iteration  3 RMS(Cart)=  0.00000000 RMS(Int)=  0.00000050
 Variable       Old X    -DE/DX   Delta X   Delta X   Delta X     New X
                                 (Linear)    (Quad)   (Total)
    R1        2.59735  -0.00031   0.00004  -0.00009  -0.00005   2.59730
    R2        1.88115  -0.00034  -0.00003  -0.00000  -0.00003   1.88112
    R3        2.27944   0.00017  -0.00008   0.00012   0.00003   2.27948
    R4        2.30996  -0.00011   0.00009  -0.00013  -0.00003   2.30993
    R5        3.20965  -0.00006  -0.00054   0.00066   0.00012   3.20977
    R6        1.82476  -0.00000   0.00004  -0.00005  -0.00001   1.82475
    R7        1.81847  -0.00001   0.00003  -0.00005  -0.00001   1.81846
    A1        1.81886  -0.00134  -0.00049   0.00018  -0.00031   1.81854
    A2        2.00233   0.00030   0.00012  -0.00009   0.00003   2.00236
    A3        2.03975  -0.00071  -0.00028   0.00020  -0.00007   2.03967
    A4        2.24110   0.00041   0.00016  -0.00012   0.00004   2.24115
    A5        1.68876   0.00029   0.00035  -0.00034   0.00001   1.68877
    A6        2.15025  -0.00007  -0.00042   0.00054   0.00012   2.15037
    A7        1.84556  -0.00006   0.00021  -0.00027  -0.00006   1.84549
    A8        3.06247  -0.00109  -0.01471  -0.00653  -0.02124   3.04124
    A9        3.12450  -0.00020  -0.00687   0.00403  -0.00284   3.12166
    D1        3.13826   0.00002   0.00055  -0.00065  -0.00010   3.13815
    D2       -0.00325   0.00002   0.00033  -0.00037  -0.00004  -0.00329
    D3       -0.10909  -0.00000  -0.00030  -0.00111  -0.00141  -0.11050
    D4       -2.08192   0.00008   0.00147   0.00130   0.00277  -2.07915
    D5       -3.14149  -0.00000  -0.00025   0.00032   0.00007  -3.14142
    D6       -2.22219  -0.00003   0.00024  -0.00035  -0.00011  -2.22230
         Item               Value     Threshold  Converged?
 Maximum Force            0.001338     0.000450     NO 
 RMS     Force            0.000434     0.000300     NO 
 Maximum Displacement     0.035718     0.001800     NO 
 RMS     Displacement     0.015496     0.001200     NO 
 Predicted change in Energy=-1.222334D-05
 GradGradGradGradGradGradGradGradGradGradGradGradGradGradGradGradGradGrad

                          Input orientation:                          
 ---------------------------------------------------------------------
 Center     Atomic      Atomic             Coordinates (Angstroms)
 Number     Number       Type             X           Y           Z
 ---------------------------------------------------------------------
      1          8           0        0.096050   -1.070464   -0.011403
      2          7           0        0.851910    0.077385    0.002257
      3          8           0        2.044273   -0.103871    0.023512
      4          8           0        0.245148    1.138468   -0.008251
      5          1           0       -0.844078   -0.743519   -0.024815
      6          8           0       -2.383494   -0.027880   -0.080414
      7          1           0       -2.088434    0.885050    0.028744
      8          1           0       -3.054456   -0.167876    0.595018
 ---------------------------------------------------------------------
                    Distance matrix (angstroms):
                    1          2          3          4          5
     1  O    0.000000
     2  N    1.374433   0.000000
     3  O    2.175107   1.206248   0.000000
     4  O    2.213961   1.222362   2.186610   0.000000
     5  H    0.995447   1.884407   2.958725   2.174527   0.000000
     6  O    2.690703   3.238171   4.429638   2.876688   1.698538
     7  H    2.932170   3.049368   4.249383   2.347594   2.050251
     8  H    3.332882   3.958688   5.131057   3.599702   2.366712
                    6          7          8
     6  O    0.000000
     7  H    0.965617   0.000000
     8  H    0.962287   1.537048   0.000000
 Stoichiometry    H3NO4
 Framework group  C1[X(H3NO4)]
 Deg. of freedom    18
 Full point group                 C1      NOp   1
 Largest Abelian subgroup         C1      NOp   1
 Largest concise Abelian subgroup C1      NOp   1
                         Standard orientation:                         
 ---------------------------------------------------------------------
 Center     Atomic      Atomic             Coordinates (Angstroms)
 Number     Number       Type             X           Y           Z
 ---------------------------------------------------------------------
      1          8           0        0.096277   -1.070567   -0.013265
      2          7           0        0.852093    0.077292    0.001898
      3          8           0        2.044474   -0.103945    0.022252
      4          8           0        0.245279    1.138364   -0.006560
      5          1           0       -0.843872   -0.743644   -0.025664
      6          8           0       -2.383348   -0.027984   -0.079309
      7          1           0       -2.088273    0.884779    0.031198
      8          1           0       -3.053962   -0.169119    0.596231
 ---------------------------------------------------------------------
 Rotational constants (GHZ):          12.2819692           2.7535311           2.2582666
 Standard basis: Aug-CC-pVTZ (5D, 7F)
 There are   350 symmetry adapted cartesian basis functions of A   symmetry.
 There are   299 symmetry adapted basis functions of A   symmetry.
   299 basis functions,   441 primitive gaussians,   350 cartesian basis functions
    21 alpha electrons       21 beta electrons
       nuclear repulsion energy       189.2471554380 Hartrees.
 NAtoms=    8 NActive=    8 NUniq=    8 SFac= 1.00D+00 NAtFMM=   60 NAOKFM=F Big=F
 Integral buffers will be    131072 words long.
 Raffenetti 1 integral format.
 Two-electron integral symmetry is turned on.
 One-electron integrals computed using PRISM.
 NBasis=   299 RedAO= T EigKep=  5.73D-05  NBF=   299
 NBsUse=   299 1.00D-06 EigRej= -1.00D+00 NBFU=   299
 Initial guess from the checkpoint file:  "/scr/Gau-55632.chk"
 B after Tr=    -0.000000   -0.000000    0.000000
         Rot=    0.999999    0.000385    0.000022   -0.001624 Ang=   0.19 deg.
 ExpMin= 2.53D-02 ExpMax= 1.53D+04 ExpMxC= 5.22D+02 IAcc=3 IRadAn=         5 AccDes= 0.00D+00
 Harris functional with IExCor=  205 and IRadAn=       5 diagonalized for initial guess.
 HarFok:  IExCor=  205 AccDes= 0.00D+00 IRadAn=         5 IDoV= 1 UseB2=F ITyADJ=14
 ICtDFT=  3500011 ScaDFX=  1.000000  1.000000  1.000000  1.000000
 FoFCou: FMM=F IPFlag=           0 FMFlag=      100000 FMFlg1=           0
         NFxFlg=           0 DoJE=T BraDBF=F KetDBF=T FulRan=T
         wScrn=  0.000000 ICntrl=       500 IOpCl=  0 I1Cent=   200000004 NGrid=           0
         NMat0=    1 NMatS0=      1 NMatT0=    0 NMatD0=    1 NMtDS0=    0 NMtDT0=    0
 Petite list used in FoFCou.
 Keep R1 ints in memory in canonical form, NReq=1027406911.
 Requested convergence on RMS density matrix=1.00D-08 within 128 cycles.
 Requested convergence on MAX density matrix=1.00D-06.
 Requested convergence on             energy=1.00D-06.
 No special actions if energy rises.
 SCF Done:  E(RHF) =  -355.635111728     A.U. after   11 cycles
            NFock= 11  Conv=0.36D-08     -V/T= 2.0021
 ExpMin= 2.53D-02 ExpMax= 1.53D+04 ExpMxC= 5.22D+02 IAcc=3 IRadAn=         5 AccDes= 0.00D+00
 HarFok:  IExCor=  205 AccDes= 0.00D+00 IRadAn=         5 IDoV=-2 UseB2=F ITyADJ=14
 ICtDFT= 12500011 ScaDFX=  1.000000  1.000000  1.000000  1.000000
 Range of M.O.s used for correlation:     6   299
 NBasis=   299 NAE=    21 NBE=    21 NFC=     5 NFV=     0
 NROrb=    294 NOA=    16 NOB=    16 NVA=   278 NVB=   278

 **** Warning!!: The largest alpha MO coefficient is  0.25827539D+02

 Disk-based method using ON**2 memory for 16 occupieds at a time.
 Estimated scratch disk usage=  1288574416 words.
 Actual    scratch disk usage=  1180762576 words.
 JobTyp=1 Pass  1:  I=   6 to  21 NPSUse= 40 ParTrn=T ParDer=T DoDerP=T.
 (rs|ai) integrals will be sorted in core.
 Spin components of T(2) and E(2):
     alpha-alpha T2 =       0.4297302524D-01 E2=     -0.1609963658D+00
     alpha-beta  T2 =       0.2254248769D+00 E2=     -0.9025573593D+00
     beta-beta   T2 =       0.4297302524D-01 E2=     -0.1609963658D+00
 ANorm=    0.1145151050D+01
 E2 =    -0.1224550091D+01 EUMP2 =    -0.35685966181922D+03
          IDoAtm=11111111
          Differentiating once with respect to electric field.
                with respect to dipole field.
          Differentiating once with respect to nuclear coordinates.
 Keep R1 ints in memory in canonical form, NReq=1027408679.
          There are     1 degrees of freedom in the 1st order CPHF.  IDoFFX=0 NUNeed=     1.
 LinEq1:  Iter=  0 NonCon=     1 RMS=4.29D-03 Max=1.28D-01 NDo=     1
 AX will form     1 AO Fock derivatives at one time.
 LinEq1:  Iter=  1 NonCon=     1 RMS=1.32D-03 Max=2.48D-02 NDo=     1
 LinEq1:  Iter=  2 NonCon=     1 RMS=5.50D-04 Max=1.53D-02 NDo=     1
 LinEq1:  Iter=  3 NonCon=     1 RMS=1.85D-04 Max=2.95D-03 NDo=     1
 LinEq1:  Iter=  4 NonCon=     1 RMS=5.59D-05 Max=8.09D-04 NDo=     1
 LinEq1:  Iter=  5 NonCon=     1 RMS=2.23D-05 Max=9.55D-04 NDo=     1
 LinEq1:  Iter=  6 NonCon=     1 RMS=9.25D-06 Max=1.36D-04 NDo=     1
 LinEq1:  Iter=  7 NonCon=     1 RMS=3.59D-06 Max=1.18D-04 NDo=     1
 LinEq1:  Iter=  8 NonCon=     1 RMS=1.57D-06 Max=1.81D-05 NDo=     1
 LinEq1:  Iter=  9 NonCon=     1 RMS=5.64D-07 Max=8.70D-06 NDo=     1
 LinEq1:  Iter= 10 NonCon=     1 RMS=1.14D-07 Max=1.17D-06 NDo=     1
 LinEq1:  Iter= 11 NonCon=     1 RMS=2.59D-08 Max=2.88D-07 NDo=     1
 LinEq1:  Iter= 12 NonCon=     1 RMS=7.36D-09 Max=7.64D-08 NDo=     1
 LinEq1:  Iter= 13 NonCon=     1 RMS=3.18D-09 Max=2.90D-08 NDo=     1
 LinEq1:  Iter= 14 NonCon=     1 RMS=6.71D-10 Max=1.14D-08 NDo=     1
 LinEq1:  Iter= 15 NonCon=     1 RMS=1.25D-10 Max=2.23D-09 NDo=     1
 LinEq1:  Iter= 16 NonCon=     0 RMS=3.47D-11 Max=8.11D-10 NDo=     1
 Linear equations converged to 1.000D-10 1.000D-09 after    16 iterations.
 End of Minotr F.D. properties file   721 does not exist.
 End of Minotr F.D. properties file   722 does not exist.
 End of Minotr F.D. properties file   788 does not exist.
 Calling FoFJK, ICntrl=  10002127 FMM=F ISym2X=0 I1Cent= 0 IOpClX= 0 NMat=1 NMatS=1 NMatT=0.
 ***** Axes restored to original set *****
 -------------------------------------------------------------------
 Center     Atomic                   Forces (Hartrees/Bohr)
 Number     Number              X              Y              Z
 -------------------------------------------------------------------
      1        8          -0.000007505    0.000006843   -0.000080066
      2        7          -0.000061644    0.000022071    0.000043761
      3        8           0.000038275   -0.000019536   -0.000016179
      4        8           0.000008683   -0.000020817   -0.000008931
      5        1           0.000078866    0.000035697    0.000083709
      6        8          -0.000066929   -0.000037735    0.000013114
      7        1           0.000044883    0.000005101   -0.000016189
      8        1          -0.000034629    0.000008375   -0.000019218
 -------------------------------------------------------------------
 Cartesian Forces:  Max     0.000083709 RMS     0.000040789

 GradGradGradGradGradGradGradGradGradGradGradGradGradGradGradGradGradGrad
 Berny optimization.
 Using GEDIIS/GDIIS optimizer.
 FormGI is forming the generalized inverse of G from B-inverse, IUseBI=4.
 Internal  Forces:  Max     0.000126954 RMS     0.000039104
 Search for a local minimum.
 Step number   3 out of a maximum of   32
 All quantities printed in internal units (Hartrees-Bohrs-Radians)
 Mixed Optimization -- En-DIIS/RFO-DIIS
 Swapping is turned off.
 Update second derivatives using D2CorX and points    1    2    3
 DE= -1.21D-05 DEPred=-1.22D-05 R= 9.88D-01
 TightC=F SS=  1.41D+00  RLast= 2.17D-02 DXNew= 2.5227D-01 6.4961D-02
 Trust test= 9.88D-01 RLast= 2.17D-02 DXMaxT set to 1.50D-01
 ITU=  1 -1  0
     Eigenvalues ---    0.00229   0.01230   0.01853   0.02652   0.03313
     Eigenvalues ---    0.05308   0.05907   0.09145   0.15805   0.20967
     Eigenvalues ---    0.25049   0.29936   0.48879   0.50675   0.54191
     Eigenvalues ---    0.54887   0.88422   0.99525
 En-DIIS/RFO-DIIS/Sim-DIIS IScMMF=       -3 using points:     3    2    1
 RFO step:  Lambda=-1.13908091D-06.
 EnCoef did    18 forward-backward iterations
 DidBck=T Rises=T En-DIIS coefs:    0.06987    0.26804    0.66209
 Iteration  1 RMS(Cart)=  0.00478079 RMS(Int)=  0.00000827
 Iteration  2 RMS(Cart)=  0.00001274 RMS(Int)=  0.00000075
 Iteration  3 RMS(Cart)=  0.00000000 RMS(Int)=  0.00000075
 Variable       Old X    -DE/DX   Delta X   Delta X   Delta X     New X
                                 (Linear)    (Quad)   (Total)
    R1        2.59730  -0.00002   0.00008   0.00000   0.00008   2.59739
    R2        1.88112  -0.00002   0.00000   0.00000   0.00000   1.88113
    R3        2.27948   0.00004  -0.00011   0.00000  -0.00011   2.27937
    R4        2.30993  -0.00002   0.00012   0.00000   0.00012   2.31005
    R5        3.20977   0.00004  -0.00060   0.00000  -0.00060   3.20917
    R6        1.82475   0.00002   0.00005   0.00000   0.00005   1.82480
    R7        1.81846   0.00001   0.00004   0.00000   0.00004   1.81850
    A1        1.81854   0.00002  -0.00016   0.00000  -0.00016   1.81838
    A2        2.00236  -0.00002   0.00008   0.00000   0.00008   2.00244
    A3        2.03967   0.00001  -0.00018   0.00000  -0.00018   2.03949
    A4        2.24115   0.00001   0.00011   0.00000   0.00011   2.24125
    A5        1.68877  -0.00007   0.00031   0.00000   0.00031   1.68907
    A6        2.15037   0.00005  -0.00049   0.00000  -0.00049   2.14987
    A7        1.84549   0.00002   0.00025   0.00000   0.00024   1.84574
    A8        3.04124   0.00005   0.00638   0.00000   0.00638   3.04761
    A9        3.12166  -0.00013  -0.00361   0.00000  -0.00361   3.11805
    D1        3.13815   0.00001   0.00060   0.00000   0.00060   3.13875
    D2       -0.00329  -0.00000   0.00034   0.00000   0.00034  -0.00295
    D3       -0.11050   0.00002   0.00104   0.00000   0.00105  -0.10946
    D4       -2.07915  -0.00000  -0.00124   0.00000  -0.00124  -2.08039
    D5       -3.14142  -0.00002  -0.00029   0.00000  -0.00029   3.14147
    D6       -2.22230  -0.00003   0.00032   0.00000   0.00032  -2.22198
         Item               Value     Threshold  Converged?
 Maximum Force            0.000127     0.000450     YES
 RMS     Force            0.000039     0.000300     YES
 Maximum Displacement     0.010370     0.001800     NO 
 RMS     Displacement     0.004775     0.001200     NO 
 Predicted change in Energy=-3.780287D-07
 GradGradGradGradGradGradGradGradGradGradGradGradGradGradGradGradGradGrad

                          Input orientation:                          
 ---------------------------------------------------------------------
 Center     Atomic      Atomic             Coordinates (Angstroms)
 Number     Number       Type             X           Y           Z
 ---------------------------------------------------------------------
      1          8           0        0.095469   -1.068709   -0.010654
      2          7           0        0.854372    0.077191    0.002326
      3          8           0        2.046262   -0.107090    0.020676
      4          8           0        0.250134    1.139804   -0.006096
      5          1           0       -0.843774   -0.739152   -0.022180
      6          8           0       -2.385377   -0.029228   -0.080694
      7          1           0       -2.093922    0.885093    0.026698
      8          1           0       -3.056245   -0.170615    0.594572
 ---------------------------------------------------------------------
                    Distance matrix (angstroms):
                    1          2          3          4          5
     1  O    0.000000
     2  N    1.374477   0.000000
     3  O    2.175152   1.206192   0.000000
     4  O    2.213926   1.222424   2.186673   0.000000
     5  H    0.995449   1.884334   2.958657   2.174251   0.000000
     6  O    2.690729   3.242559   4.433482   2.884114   1.698221
     7  H    2.934650   3.057079   4.257415   2.358081   2.050227
     8  H    3.332593   3.962965   5.135073   3.606957   2.366146
                    6          7          8
     6  O    0.000000
     7  H    0.965642   0.000000
     8  H    0.962309   1.537227   0.000000
 Stoichiometry    H3NO4
 Framework group  C1[X(H3NO4)]
 Deg. of freedom    18
 Full point group                 C1      NOp   1
 Largest Abelian subgroup         C1      NOp   1
 Largest concise Abelian subgroup C1      NOp   1
                         Standard orientation:                         
 ---------------------------------------------------------------------
 Center     Atomic      Atomic             Coordinates (Angstroms)
 Number     Number       Type             X           Y           Z
 ---------------------------------------------------------------------
      1          8           0        0.094238   -1.068578   -0.011919
      2          7           0        0.853476    0.077086    0.002233
      3          8           0        2.045316   -0.107562    0.020160
      4          8           0        0.249546    1.139883   -0.004870
      5          1           0       -0.844912   -0.738734   -0.022901
      6          8           0       -2.386318   -0.028296   -0.080331
      7          1           0       -2.094577    0.885818    0.028052
      8          1           0       -3.057107   -0.170257    0.594894
 ---------------------------------------------------------------------
 Rotational constants (GHZ):          12.2841011           2.7477380           2.2544125
 Standard basis: Aug-CC-pVTZ (5D, 7F)
 There are   350 symmetry adapted cartesian basis functions of A   symmetry.
 There are   299 symmetry adapted basis functions of A   symmetry.
   299 basis functions,   441 primitive gaussians,   350 cartesian basis functions
    21 alpha electrons       21 beta electrons
       nuclear repulsion energy       189.1789180879 Hartrees.
 NAtoms=    8 NActive=    8 NUniq=    8 SFac= 1.00D+00 NAtFMM=   60 NAOKFM=F Big=F
 Integral buffers will be    131072 words long.
 Raffenetti 1 integral format.
 Two-electron integral symmetry is turned on.
 One-electron integrals computed using PRISM.
 NBasis=   299 RedAO= T EigKep=  5.72D-05  NBF=   299
 NBsUse=   299 1.00D-06 EigRej= -1.00D+00 NBFU=   299
 Initial guess from the checkpoint file:  "/scr/Gau-55632.chk"
 B after Tr=    -0.000000   -0.000000    0.000000
         Rot=    1.000000   -0.000068   -0.000000    0.000439 Ang=  -0.05 deg.
 Keep R1 ints in memory in canonical form, NReq=1027406911.
 Requested convergence on RMS density matrix=1.00D-08 within 128 cycles.
 Requested convergence on MAX density matrix=1.00D-06.
 Requested convergence on             energy=1.00D-06.
 No special actions if energy rises.
 SCF Done:  E(RHF) =  -355.635127913     A.U. after   10 cycles
            NFock= 10  Conv=0.44D-08     -V/T= 2.0021
 ExpMin= 2.53D-02 ExpMax= 1.53D+04 ExpMxC= 5.22D+02 IAcc=3 IRadAn=         5 AccDes= 0.00D+00
 HarFok:  IExCor=  205 AccDes= 0.00D+00 IRadAn=         5 IDoV=-2 UseB2=F ITyADJ=14
 ICtDFT= 12500011 ScaDFX=  1.000000  1.000000  1.000000  1.000000
 Range of M.O.s used for correlation:     6   299
 NBasis=   299 NAE=    21 NBE=    21 NFC=     5 NFV=     0
 NROrb=    294 NOA=    16 NOB=    16 NVA=   278 NVB=   278

 **** Warning!!: The largest alpha MO coefficient is  0.25973867D+02

 Disk-based method using ON**2 memory for 16 occupieds at a time.
 Estimated scratch disk usage=  1288574416 words.
 Actual    scratch disk usage=  1180762576 words.
 JobTyp=1 Pass  1:  I=   6 to  21 NPSUse= 40 ParTrn=T ParDer=T DoDerP=T.
 (rs|ai) integrals will be sorted in core.
 Spin components of T(2) and E(2):
     alpha-alpha T2 =       0.4297243833D-01 E2=     -0.1609906105D+00
     alpha-beta  T2 =       0.2254304356D+00 E2=     -0.9025522691D+00
     beta-beta   T2 =       0.4297243833D-01 E2=     -0.1609906105D+00
 ANorm=    0.1145152965D+01
 E2 =    -0.1224533490D+01 EUMP2 =    -0.35685966140333D+03
          IDoAtm=11111111
          Differentiating once with respect to electric field.
                with respect to dipole field.
          Differentiating once with respect to nuclear coordinates.
 Keep R1 ints in memory in canonical form, NReq=1027408679.
          There are     1 degrees of freedom in the 1st order CPHF.  IDoFFX=0 NUNeed=     1.
 LinEq1:  Iter=  0 NonCon=     1 RMS=4.29D-03 Max=1.24D-01 NDo=     1
 AX will form     1 AO Fock derivatives at one time.
 LinEq1:  Iter=  1 NonCon=     1 RMS=1.32D-03 Max=2.48D-02 NDo=     1
 LinEq1:  Iter=  2 NonCon=     1 RMS=5.50D-04 Max=1.48D-02 NDo=     1
 LinEq1:  Iter=  3 NonCon=     1 RMS=1.85D-04 Max=2.94D-03 NDo=     1
 LinEq1:  Iter=  4 NonCon=     1 RMS=5.59D-05 Max=8.15D-04 NDo=     1
 LinEq1:  Iter=  5 NonCon=     1 RMS=2.22D-05 Max=9.52D-04 NDo=     1
 LinEq1:  Iter=  6 NonCon=     1 RMS=9.25D-06 Max=1.36D-04 NDo=     1
 LinEq1:  Iter=  7 NonCon=     1 RMS=3.59D-06 Max=1.18D-04 NDo=     1
 LinEq1:  Iter=  8 NonCon=     1 RMS=1.57D-06 Max=1.83D-05 NDo=     1
 LinEq1:  Iter=  9 NonCon=     1 RMS=5.65D-07 Max=8.68D-06 NDo=     1
 LinEq1:  Iter= 10 NonCon=     1 RMS=1.14D-07 Max=1.19D-06 NDo=     1
 LinEq1:  Iter= 11 NonCon=     1 RMS=2.57D-08 Max=2.92D-07 NDo=     1
 LinEq1:  Iter= 12 NonCon=     1 RMS=7.23D-09 Max=7.52D-08 NDo=     1
 LinEq1:  Iter= 13 NonCon=     1 RMS=3.14D-09 Max=2.95D-08 NDo=     1
 LinEq1:  Iter= 14 NonCon=     1 RMS=6.71D-10 Max=1.15D-08 NDo=     1
 LinEq1:  Iter= 15 NonCon=     1 RMS=1.25D-10 Max=2.21D-09 NDo=     1
 LinEq1:  Iter= 16 NonCon=     0 RMS=3.46D-11 Max=8.02D-10 NDo=     1
 Linear equations converged to 1.000D-10 1.000D-09 after    16 iterations.
 End of Minotr F.D. properties file   721 does not exist.
 End of Minotr F.D. properties file   722 does not exist.
 End of Minotr F.D. properties file   788 does not exist.
 Calling FoFJK, ICntrl=  10002127 FMM=F ISym2X=0 I1Cent= 0 IOpClX= 0 NMat=1 NMatS=1 NMatT=0.
 ***** Axes restored to original set *****
 -------------------------------------------------------------------
 Center     Atomic                   Forces (Hartrees/Bohr)
 Number     Number              X              Y              Z
 -------------------------------------------------------------------
      1        8           0.000010374    0.000078555   -0.000030532
      2        7          -0.000192642    0.000105701   -0.000007402
      3        8           0.000123138   -0.000029068    0.000006971
      4        8          -0.000026845   -0.000142208    0.000003073
      5        1           0.000069810   -0.000096047    0.000026681
      6        8           0.000050692    0.000039017    0.000003623
      7        1          -0.000033763   -0.000009088    0.000013719
      8        1          -0.000000765    0.000053137   -0.000016133
 -------------------------------------------------------------------
 Cartesian Forces:  Max     0.000192642 RMS     0.000069513

 GradGradGradGradGradGradGradGradGradGradGradGradGradGradGradGradGradGrad
 Berny optimization.
 Using GEDIIS/GDIIS optimizer.
 FormGI is forming the generalized inverse of G from B-inverse, IUseBI=4.
 Internal  Forces:  Max     0.000308070 RMS     0.000106939
 Search for a local minimum.
 Step number   4 out of a maximum of   32
 All quantities printed in internal units (Hartrees-Bohrs-Radians)
 Mixed Optimization -- En-DIIS/RFO-DIIS
 Swapping is turned off.
 Update second derivatives using D2CorX and points    1    2    3    4
 DE=  4.16D-07 DEPred=-3.78D-07 R=-1.10D+00
 Trust test=-1.10D+00 RLast= 7.61D-03 DXMaxT set to 7.50D-02
 ITU= -1  1 -1  0
     Eigenvalues ---    0.00230   0.01232   0.01853   0.02656   0.03306
     Eigenvalues ---    0.05346   0.05924   0.09155   0.15784   0.21123
     Eigenvalues ---    0.25052   0.30412   0.48883   0.50793   0.54180
     Eigenvalues ---    0.54885   0.88336   0.99519
 En-DIIS/RFO-DIIS/Sim-DIIS IScMMF=       -3 using points:     4    3    2    1
 RFO step:  Lambda=-1.97049791D-06.
 DIIS inversion failure, remove point   4.
 RFO-DIIS uses    3 points instead of    4
 EnCoef did   100 forward-backward iterations
 EnCoef did     3 forward-backward iterations
 DidBck=T Rises=T En-DIIS coefs:    0.27610    0.28937    0.00000    0.43453
 Iteration  1 RMS(Cart)=  0.00301782 RMS(Int)=  0.00000287
 Iteration  2 RMS(Cart)=  0.00000435 RMS(Int)=  0.00000001
 Iteration  3 RMS(Cart)=  0.00000000 RMS(Int)=  0.00000001
 Variable       Old X    -DE/DX   Delta X   Delta X   Delta X     New X
                                 (Linear)    (Quad)   (Total)
    R1        2.59739  -0.00011  -0.00001   0.00000  -0.00001   2.59737
    R2        1.88113  -0.00009  -0.00001   0.00000  -0.00001   1.88112
    R3        2.27937   0.00013   0.00001   0.00000   0.00001   2.27939
    R4        2.31005  -0.00011  -0.00001   0.00000  -0.00001   2.31003
    R5        3.20917   0.00002   0.00006   0.00000   0.00006   3.20923
    R6        1.82480  -0.00002  -0.00001   0.00000  -0.00001   1.82479
    R7        1.81850  -0.00002  -0.00000   0.00000  -0.00000   1.81850
    A1        1.81838  -0.00031  -0.00004   0.00000  -0.00004   1.81834
    A2        2.00244   0.00006   0.00000   0.00000   0.00000   2.00244
    A3        2.03949  -0.00014  -0.00000   0.00000  -0.00000   2.03949
    A4        2.24125   0.00008   0.00000   0.00000   0.00000   2.24125
    A5        1.68907   0.00003  -0.00002   0.00000  -0.00002   1.68905
    A6        2.14987   0.00003   0.00005   0.00000   0.00005   2.14993
    A7        1.84574  -0.00003  -0.00003   0.00000  -0.00003   1.84571
    A8        3.04761  -0.00027  -0.00417   0.00000  -0.00417   3.04345
    A9        3.11805  -0.00005  -0.00026   0.00000  -0.00026   3.11780
    D1        3.13875  -0.00000  -0.00006   0.00000  -0.00006   3.13869
    D2       -0.00295   0.00000  -0.00003   0.00000  -0.00003  -0.00298
    D3       -0.10946  -0.00002  -0.00032   0.00000  -0.00032  -0.10978
    D4       -2.08039   0.00004   0.00057   0.00000   0.00057  -2.07982
    D5        3.14147   0.00001   0.00003   0.00000   0.00003   3.14151
    D6       -2.22198  -0.00003  -0.00004   0.00000  -0.00004  -2.22202
         Item               Value     Threshold  Converged?
 Maximum Force            0.000308     0.000450     YES
 RMS     Force            0.000107     0.000300     YES
 Maximum Displacement     0.007000     0.001800     NO 
 RMS     Displacement     0.003020     0.001200     NO 
 Predicted change in Energy=-6.884740D-07
 GradGradGradGradGradGradGradGradGradGradGradGradGradGradGradGradGradGrad

                          Input orientation:                          
 ---------------------------------------------------------------------
 Center     Atomic      Atomic             Coordinates (Angstroms)
 Number     Number       Type             X           Y           Z
 ---------------------------------------------------------------------
      1          8           0        0.095908   -1.069977   -0.010901
      2          7           0        0.852726    0.077289    0.002360
      3          8           0        2.044957   -0.104834    0.020614
      4          8           0        0.246563    1.138799   -0.005722
      5          1           0       -0.843916   -0.742082   -0.022245
      6          8           0       -2.383833   -0.028438   -0.080814
      7          1           0       -2.090217    0.885115    0.027212
      8          1           0       -3.055269   -0.168578    0.594144
 ---------------------------------------------------------------------
                    Distance matrix (angstroms):
                    1          2          3          4          5
     1  O    0.000000
     2  N    1.374470   0.000000
     3  O    2.175151   1.206199   0.000000
     4  O    2.213914   1.222417   2.186672   0.000000
     5  H    0.995446   1.884295   2.958632   2.174196   0.000000
     6  O    2.690504   3.239354   4.430610   2.878726   1.698253
     7  H    2.933084   3.051904   4.252024   2.350740   2.050240
     8  H    3.332945   3.960188   5.132768   3.601551   2.366205
                    6          7          8
     6  O    0.000000
     7  H    0.965639   0.000000
     8  H    0.962307   1.537208   0.000000
 Stoichiometry    H3NO4
 Framework group  C1[X(H3NO4)]
 Deg. of freedom    18
 Full point group                 C1      NOp   1
 Largest Abelian subgroup         C1      NOp   1
 Largest concise Abelian subgroup C1      NOp   1
                         Standard orientation:                         
 ---------------------------------------------------------------------
 Center     Atomic      Atomic             Coordinates (Angstroms)
 Number     Number       Type             X           Y           Z
 ---------------------------------------------------------------------
      1          8           0        0.095634   -1.069972   -0.011776
      2          7           0        0.852531    0.077233    0.002226
      3          8           0        2.044753   -0.104982    0.020104
      4          8           0        0.246436    1.138789   -0.004911
      5          1           0       -0.844170   -0.742005   -0.022680
      6          8           0       -2.384052   -0.028214   -0.080390
      7          1           0       -2.090354    0.885235    0.028287
      8          1           0       -3.055364   -0.168834    0.594592
 ---------------------------------------------------------------------
 Rotational constants (GHZ):          12.2833972           2.7519559           2.2572213
 Standard basis: Aug-CC-pVTZ (5D, 7F)
 There are   350 symmetry adapted cartesian basis functions of A   symmetry.
 There are   299 symmetry adapted basis functions of A   symmetry.
   299 basis functions,   441 primitive gaussians,   350 cartesian basis functions
    21 alpha electrons       21 beta electrons
       nuclear repulsion energy       189.2285959504 Hartrees.
 NAtoms=    8 NActive=    8 NUniq=    8 SFac= 1.00D+00 NAtFMM=   60 NAOKFM=F Big=F
 Integral buffers will be    131072 words long.
 Raffenetti 1 integral format.
 Two-electron integral symmetry is turned on.
 One-electron integrals computed using PRISM.
 NBasis=   299 RedAO= T EigKep=  5.72D-05  NBF=   299
 NBsUse=   299 1.00D-06 EigRej= -1.00D+00 NBFU=   299
 Initial guess from the checkpoint file:  "/scr/Gau-55632.chk"
 B after Tr=     0.000000    0.000000   -0.000000
         Rot=    1.000000    0.000067    0.000004   -0.000316 Ang=   0.04 deg.
 Keep R1 ints in memory in canonical form, NReq=1027406911.
 Requested convergence on RMS density matrix=1.00D-08 within 128 cycles.
 Requested convergence on MAX density matrix=1.00D-06.
 Requested convergence on             energy=1.00D-06.
 No special actions if energy rises.
 SCF Done:  E(RHF) =  -355.635112755     A.U. after    8 cycles
            NFock=  8  Conv=0.41D-08     -V/T= 2.0021
 ExpMin= 2.53D-02 ExpMax= 1.53D+04 ExpMxC= 5.22D+02 IAcc=3 IRadAn=         5 AccDes= 0.00D+00
 HarFok:  IExCor=  205 AccDes= 0.00D+00 IRadAn=         5 IDoV=-2 UseB2=F ITyADJ=14
 ICtDFT= 12500011 ScaDFX=  1.000000  1.000000  1.000000  1.000000
 Range of M.O.s used for correlation:     6   299
 NBasis=   299 NAE=    21 NBE=    21 NFC=     5 NFV=     0
 NROrb=    294 NOA=    16 NOB=    16 NVA=   278 NVB=   278

 **** Warning!!: The largest alpha MO coefficient is  0.25861510D+02

 Disk-based method using ON**2 memory for 16 occupieds at a time.
 Estimated scratch disk usage=  1288574416 words.
 Actual    scratch disk usage=  1180762576 words.
 JobTyp=1 Pass  1:  I=   6 to  21 NPSUse= 40 ParTrn=T ParDer=T DoDerP=T.
 (rs|ai) integrals will be sorted in core.
 Spin components of T(2) and E(2):
     alpha-alpha T2 =       0.4297324642D-01 E2=     -0.1609953942D+00
     alpha-beta  T2 =       0.2254280032D+00 E2=     -0.9025586051D+00
     beta-beta   T2 =       0.4297324642D-01 E2=     -0.1609953942D+00
 ANorm=    0.1145152608D+01
 E2 =    -0.1224549393D+01 EUMP2 =    -0.35685966214822D+03
          IDoAtm=11111111
          Differentiating once with respect to electric field.
                with respect to dipole field.
          Differentiating once with respect to nuclear coordinates.
 Keep R1 ints in memory in canonical form, NReq=1027408679.
          There are     1 degrees of freedom in the 1st order CPHF.  IDoFFX=0 NUNeed=     1.
 LinEq1:  Iter=  0 NonCon=     1 RMS=4.29D-03 Max=1.26D-01 NDo=     1
 AX will form     1 AO Fock derivatives at one time.
 LinEq1:  Iter=  1 NonCon=     1 RMS=1.32D-03 Max=2.48D-02 NDo=     1
 LinEq1:  Iter=  2 NonCon=     1 RMS=5.50D-04 Max=1.50D-02 NDo=     1
 LinEq1:  Iter=  3 NonCon=     1 RMS=1.85D-04 Max=2.95D-03 NDo=     1
 LinEq1:  Iter=  4 NonCon=     1 RMS=5.59D-05 Max=8.12D-04 NDo=     1
 LinEq1:  Iter=  5 NonCon=     1 RMS=2.23D-05 Max=9.55D-04 NDo=     1
 LinEq1:  Iter=  6 NonCon=     1 RMS=9.25D-06 Max=1.37D-04 NDo=     1
 LinEq1:  Iter=  7 NonCon=     1 RMS=3.59D-06 Max=1.18D-04 NDo=     1
 LinEq1:  Iter=  8 NonCon=     1 RMS=1.57D-06 Max=1.82D-05 NDo=     1
 LinEq1:  Iter=  9 NonCon=     1 RMS=5.64D-07 Max=8.68D-06 NDo=     1
 LinEq1:  Iter= 10 NonCon=     1 RMS=1.14D-07 Max=1.18D-06 NDo=     1
 LinEq1:  Iter= 11 NonCon=     1 RMS=2.58D-08 Max=2.90D-07 NDo=     1
 LinEq1:  Iter= 12 NonCon=     1 RMS=7.33D-09 Max=7.62D-08 NDo=     1
 LinEq1:  Iter= 13 NonCon=     1 RMS=3.17D-09 Max=2.92D-08 NDo=     1
 LinEq1:  Iter= 14 NonCon=     1 RMS=6.72D-10 Max=1.14D-08 NDo=     1
 LinEq1:  Iter= 15 NonCon=     1 RMS=1.26D-10 Max=2.24D-09 NDo=     1
 LinEq1:  Iter= 16 NonCon=     0 RMS=3.48D-11 Max=8.14D-10 NDo=     1
 Linear equations converged to 1.000D-10 1.000D-09 after    16 iterations.
 End of Minotr F.D. properties file   721 does not exist.
 End of Minotr F.D. properties file   722 does not exist.
 End of Minotr F.D. properties file   788 does not exist.
 Calling FoFJK, ICntrl=  10002127 FMM=F ISym2X=0 I1Cent= 0 IOpClX= 0 NMat=1 NMatS=1 NMatT=0.
 ***** Axes restored to original set *****
 -------------------------------------------------------------------
 Center     Atomic                   Forces (Hartrees/Bohr)
 Number     Number              X              Y              Z
 -------------------------------------------------------------------
      1        8           0.000023165    0.000042985   -0.000028353
      2        7          -0.000182842    0.000063945   -0.000000830
      3        8           0.000095027   -0.000018273    0.000003683
      4        8           0.000045771   -0.000077645    0.000000419
      5        1           0.000062012   -0.000016439    0.000018730
      6        8          -0.000036931   -0.000019366    0.000026711
      7        1           0.000010025   -0.000017175    0.000006589
      8        1          -0.000016228    0.000041968   -0.000026950
 -------------------------------------------------------------------
 Cartesian Forces:  Max     0.000182842 RMS     0.000053354

 GradGradGradGradGradGradGradGradGradGradGradGradGradGradGradGradGradGrad
 Berny optimization.
 Using GEDIIS/GDIIS optimizer.
 FormGI is forming the generalized inverse of G from B-inverse, IUseBI=4.
 Internal  Forces:  Max     0.000096741 RMS     0.000038857
 Search for a local minimum.
 Step number   5 out of a maximum of   32
 All quantities printed in internal units (Hartrees-Bohrs-Radians)
 Mixed Optimization -- En-DIIS/RFO-DIIS
 Swapping is turned off.
 Update second derivatives using D2CorX and points    1    2    3    4    5
 DE= -7.45D-07 DEPred=-6.88D-07 R= 1.08D+00
 Trust test= 1.08D+00 RLast= 4.23D-03 DXMaxT set to 7.50D-02
 ITU=  0 -1  1 -1  0
     Eigenvalues ---    0.00229   0.01243   0.01865   0.02630   0.03302
     Eigenvalues ---    0.05332   0.05910   0.09137   0.15781   0.21125
     Eigenvalues ---    0.25052   0.30350   0.48878   0.50815   0.54176
     Eigenvalues ---    0.54883   0.88278   0.99517
 En-DIIS/RFO-DIIS/Sim-DIIS IScMMF=       -3 using points:     5    4    3    2    1
 RFO step:  Lambda=-5.75084324D-07.
 DIIS inversion failure, remove point   5.
 DIIS inversion failure, remove point   4.
 RFO-DIIS uses    3 points instead of    5
 DidBck=F Rises=F RFO-DIIS coefs:    2.41792   -0.93077   -0.48715    0.00000    0.00000
 Iteration  1 RMS(Cart)=  0.00193796 RMS(Int)=  0.00000274
 Iteration  2 RMS(Cart)=  0.00000335 RMS(Int)=  0.00000072
 Iteration  3 RMS(Cart)=  0.00000000 RMS(Int)=  0.00000072
 Variable       Old X    -DE/DX   Delta X   Delta X   Delta X     New X
                                 (Linear)    (Quad)   (Total)
    R1        2.59737  -0.00005   0.00002  -0.00027  -0.00024   2.59713
    R2        1.88112  -0.00002  -0.00001  -0.00000  -0.00001   1.88111
    R3        2.27939   0.00010  -0.00003   0.00035   0.00032   2.27971
    R4        2.31003  -0.00009   0.00004  -0.00039  -0.00035   2.30968
    R5        3.20923   0.00004  -0.00021   0.00213   0.00193   3.21116
    R6        1.82479  -0.00001   0.00002  -0.00014  -0.00013   1.82467
    R7        1.81850  -0.00001   0.00001  -0.00013  -0.00012   1.81838
    A1        1.81834  -0.00003  -0.00014   0.00081   0.00067   1.81901
    A2        2.00244  -0.00001   0.00004  -0.00031  -0.00027   2.00217
    A3        2.03949   0.00000  -0.00009   0.00070   0.00061   2.04010
    A4        2.24125   0.00000   0.00005  -0.00039  -0.00033   2.24092
    A5        1.68905  -0.00004   0.00012  -0.00119  -0.00106   1.68799
    A6        2.14993   0.00005  -0.00016   0.00174   0.00157   2.15150
    A7        1.84571  -0.00001   0.00008  -0.00077  -0.00069   1.84502
    A8        3.04345  -0.00004  -0.00280   0.00033  -0.00247   3.04098
    A9        3.11780  -0.00004  -0.00212  -0.00120  -0.00332   3.11447
    D1        3.13869  -0.00000   0.00021  -0.00182  -0.00161   3.13708
    D2       -0.00298  -0.00000   0.00012  -0.00114  -0.00101  -0.00399
    D3       -0.10978  -0.00001   0.00005   0.00018   0.00024  -0.10954
    D4       -2.07982   0.00002   0.00021   0.00118   0.00139  -2.07843
    D5        3.14151   0.00000  -0.00010   0.00078   0.00068  -3.14100
    D6       -2.22202  -0.00003   0.00010  -0.00110  -0.00101  -2.22303
         Item               Value     Threshold  Converged?
 Maximum Force            0.000097     0.000450     YES
 RMS     Force            0.000039     0.000300     YES
 Maximum Displacement     0.003915     0.001800     NO 
 RMS     Displacement     0.001938     0.001200     NO 
 Predicted change in Energy=-2.876475D-07
 GradGradGradGradGradGradGradGradGradGradGradGradGradGradGradGradGradGrad

                          Input orientation:                          
 ---------------------------------------------------------------------
 Center     Atomic      Atomic             Coordinates (Angstroms)
 Number     Number       Type             X           Y           Z
 ---------------------------------------------------------------------
      1          8           0        0.096704   -1.070331   -0.011519
      2          7           0        0.852346    0.077551    0.002025
      3          8           0        2.044881   -0.103776    0.019483
      4          8           0        0.245875    1.138683   -0.004380
      5          1           0       -0.843677   -0.743981   -0.020570
      6          8           0       -2.383871   -0.028648   -0.080829
      7          1           0       -2.088649    0.884303    0.027307
      8          1           0       -3.056691   -0.166506    0.593133
 ---------------------------------------------------------------------
                    Distance matrix (angstroms):
                    1          2          3          4          5
     1  O    0.000000
     2  N    1.374341   0.000000
     3  O    2.174991   1.206368   0.000000
     4  O    2.214057   1.222231   2.186480   0.000000
     5  H    0.995441   1.884654   2.958925   2.175273   0.000000
     6  O    2.691311   3.239019   4.430525   2.878206   1.699273
     7  H    2.932212   3.049744   4.249992   2.348556   2.050258
     8  H    3.335626   3.961003   5.134106   3.601039   2.368024
                    6          7          8
     6  O    0.000000
     7  H    0.965572   0.000000
     8  H    0.962245   1.536705   0.000000
 Stoichiometry    H3NO4
 Framework group  C1[X(H3NO4)]
 Deg. of freedom    18
 Full point group                 C1      NOp   1
 Largest Abelian subgroup         C1      NOp   1
 Largest concise Abelian subgroup C1      NOp   1
                         Standard orientation:                         
[...]
 679,0.01198256,0.00082533,-0.01766293,0.00049667,-0.00268182,0.0000269
 5,-0.00090625,0.00169392,-0.00002893,0.00000852,-0.00006328,0.00000038
 ,0.00005507,-0.00128921,0.00007090,-0.00391967,-0.00124755,0.00010003,
 0.00607843,0.00405640,0.00077656,-0.00068234,-0.00018222,-0.00038026,0
 .00001168,0.00029661,0.00008883,-0.00002206,-0.00038845,0.00010851,-0.
 00000816,-0.00035962,-0.00031610,-0.00000994,0.00425732,0.00390063,0.0
 0005135,-0.00241581,0.00788874,0.00273147,-0.00091711,-0.01145471,-0.0
 0006596,-0.00005940,0.00007231,-0.00016082,-0.00015408,0.00004879,0.00
 006099,0.00004567,-0.00003380,0.00002004,0.00014816,0.00018658,0.00000
 818,-0.00119444,0.00015493,0.00147927,0.00615685,0.00213338,-0.0014140
 0,-0.00256611,-0.00207521,-0.00031619,0.00056534,-0.00001818,-0.000132
 11,-0.00022349,-0.00010109,0.00018868,0.00002309,0.00001692,-0.0001747
 4,-0.00011933,0.00008751,0.00023231,0.00266155,-0.00080397,0.01305924,
 -0.00164011,-0.01112583,-0.00113043,-0.00029073,0.00007231,-0.01172675
 ,-0.00066234,-0.00015056,-0.00007803,-0.00003837,0.00024726,0.00007526
 ,0.00002176,-0.00003749,-0.00003522,-0.00006804,0.00003365,0.00000800,
 0.00297751,-0.00266252,0.00100865,-0.00170285,-0.00109047,-0.00165959,
 0.00044866,0.00016436,-0.00237664,-0.00097632,0.00349577,0.00051152,0.
 00037291,-0.00005055,0.00022089,-0.00018347,-0.00006186,-0.00002360,0.
 00004594,0.00002521,-0.00043445,-0.00018053,0.00003224,0.00176948,0.00
 105228,0.00027396,-0.01438431,-0.00397646,0.01196966,0.00046812,-0.000
 18823,-0.00048699,0.01187233,0.00305756,-0.01170167,-0.00848503,0.0058
 7125,-0.00270052,-0.00005341,-0.00011147,-0.00000719,0.00091880,0.0004
 7781,-0.00005628,0.01134793,0.00214467,0.00059954,0.00080588,0.0000300
 5,-0.00374220,0.00019469,0.00006951,-0.00006825,0.00074103,-0.00033870
 ,-0.00348531,-0.00054168,-0.00140292,-0.00002455,-0.01493185,-0.001161
 37,-0.00022255,0.01774210,-0.00030432,-0.00018579,-0.00008739,0.002227
 61,0.00276962,-0.00005399,-0.00239198,-0.00182220,-0.00011793,-0.00003
 028,0.00018107,-0.00020166,-0.00014141,0.00245024,0.00024039,0.0000513
 7,-0.00256378,0.00102260,0.00049859,0.00015369,0.00360485,-0.00194046,
 -0.00093101,-0.00302046,0.00077382,0.00033600,-0.00195937,-0.00095312,
 0.00039761,-0.00025818,-0.00380652,-0.00043829,-0.00003761,0.00452461,
 -0.00066072,0.00016887,0.00134268,0.00229580,0.00025759,0.00045644,-0.
 00018425,-0.00015162,-0.00133111,0.00067781,-0.00049400,0.00046731,0.0
 0033146,-0.00054671,0.00066159,-0.00055539,0.00836613,-0.00573902,-0.0
 0048756,-0.00066361,-0.00127294,-0.00014085,0.00024066,0.00021274,0.00
 007104,-0.00094867,0.00032124,-0.00022291,-0.00832402,-0.00724404,0.00
 247044,-0.00012131,0.00084150,0.00076828,0.00019502,0.00022083,-0.0000
 3651,-0.00004352,0.00029293,-0.00059520,-0.00002808,0.00574970,-0.0025
 3851,-0.00024580,-0.00032804,0.00010682,-0.00006737,0.00008867,0.00056
 212,0.00002105,-0.00002230,-0.00045135,-0.00008109,-0.00007585,-0.0000
 8254,0.00213288,-0.00145790,-0.00087253,0.00045880,0.00112638,0.000467
 14,0.00106865,-0.00415575,-0.00002657,-0.00119330,0.00103118,0.0000696
 8,-0.00291740,0.00155066,-0.00075023,0.00168364,0.00107816,-0.00099290
 ,-0.27426260,0.00444301,0.00068286,0.00062167,-0.00069792,-0.00693542,
 -0.00034062,-0.00066419,0.00165552,0.00001713,-0.00441245,0.00266122,-
 0.00022676,-0.00585994,0.00309579,-0.00190527,-0.10010243,-0.56681519,
 -0.00137484,0.00046063,0.00007180,-0.00050113,0.00221063,0.00015892,0.
 00064004,-0.00059864,-0.00014395,0.00227658,-0.00110183,0.00036701,-0.
 00023978,-0.00052115,-0.00049065,0.27905600,-0.16531738,-0.35189625,-0
 .00186671,-0.00106001,0.00020247,-0.00118980,0.00604180,0.00036907,0.0
 0130602,-0.00145230,-0.00042824,0.00418870,-0.00260783,0.00190284,0.00
 133460,-0.00031289,-0.00100883,-0.00925854,0.08887474,0.03134949,0.017
 60927,-0.00290748,-0.00109331,-0.00049875,0.00064516,0.00572373,0.0004
 7925,0.00077038,-0.00144300,-0.00006182,0.00308883,-0.00319565,0.00007
 846,0.00499460,-0.00224431,0.00233578,0.17637557,0.62497327,0.10095299
 ,-0.14064054,-0.59016756,0.00039458,-0.00015532,-0.00016633,0.00015641
 ,-0.00044341,-0.00021702,0.00011274,-0.00000963,0.00016691,-0.00029450
 ,0.00017334,-0.00050115,-0.00057906,0.00127142,0.00106496,0.07721095,0
 .20520846,-0.00265938,-0.07154146,-0.13451835,0.02617618,0.00012712,0.
 00022789,-0.00020150,-0.00015502,0.00031403,0.00001619,0.00039852,-0.0
 0009677,0.00003073,0.00002973,-0.00037174,0.00000504,-0.00168873,-0.00
 062616,0.00024206,0.28442076,0.01841920,-0.31120635,-0.01212353,-0.042
 32653,-0.00545965,-0.27100883,-0.00104995,-0.00017083,-0.00035045,0.00
 028228,0.00125475,0.00002714,0.00010463,-0.00027691,0.00003966,0.00035
 607,-0.00046479,-0.00007784,0.00159362,-0.00092000,0.00136492,-0.07690
 378,-0.05931804,0.06391475,0.05115704,-0.03255317,-0.07152652,0.024460
 09,0.09244899,0.00094513,-0.00036147,0.00006630,0.00008062,-0.00085056
 ,-0.00007847,-0.00027312,0.00025328,0.00002943,-0.00091295,0.00046967,
 -0.00005298,-0.00053376,0.00070553,0.00016316,-0.35503408,-0.03805724,
 0.35459250,0.03915468,0.03123245,-0.02386417,0.31657347,0.00660834,-0.
 33085578,-0.12595265,0.03839581,-0.06049542,-0.00165055,0.00013765,-0.
 00109882,0.01237255,0.02427829,0.00006800,0.60568190,0.05231237,0.0242
 1045,0.00065474,-0.16361698,0.21316835,0.00042927,0.00035994,0.0099214
 1,0.01023608,-0.00121119,-0.17930541,-0.00300067,-0.03126191,0.0000560
 1,-0.66384398,-0.04859795,-0.01058064,0.75179220,-0.00188499,0.0047639
 4,0.00010549,0.07622546,0.08663656,0.00095332,-0.08768124,-0.07533220,
 -0.00014232,-0.00046865,-0.00231796,-0.01019236,-0.00112251,0.08805662
 ,0.01161061,-0.00104911,-0.08961724,0.01889846,0.00164186,0.00026347,0
 .06155905,0.17472522,0.00038509,-0.09005636,0.01214234,-0.00139433,0.0
 0830850,-0.02676310,0.01670036,-0.00035514,0.05581286,-0.33230769,-0.0
 0025478,0.16593188,-0.01724768,0.00261213,-0.19248537,0.34748562,0.000
 09545,0.00017408,-0.00041932,-0.00024347,0.00216175,0.07879483,-0.0007
 6744,-0.00004775,0.00308414,0.00091041,-0.00223433,-0.08100114,0.09876
 237,-0.03217954,0.00124891,-0.01286001,-0.02101359,-0.00036441,0.00465
 942,0.00161199,0.00008826,-0.00181424,0.00249775,-0.00002568,-0.088910
 31,-0.06317673,0.01414078,-0.00054505,0.00535299,0.01157249,0.00018484
 ,0.00248374,0.00085079,0.00000906,0.00542104,-0.01722450,-0.00006095,0
 .04902863,-0.01149388,0.00123099,-0.00012799,-0.00596105,-0.00030600,-
 0.00018268,0.00249016,0.00002132,-0.00003598,0.00081800,-0.00001737,-0
 .00000079,-0.00048626,-0.00085714,0.00042614,0.00255424,-0.00031336,-0
 .00092765,-0.00000965,0.00492066,-0.00110042,0.00010731,-0.00394239,0.
 00016631,-0.00007712,-0.00069685,0.00164756,-0.00006684,0.00059025,0.0
 0115522,0.00016607,-0.00178146,0.00134425,0.00068268,0.00000582,0.0029
 7767,-0.00500776,0.00003278,-0.00126881,0.00044134,0.00000285,-0.00246
 700,0.00421020,0.00002804,-0.00102347,0.00197266,-0.00027337,-0.001706
 60,-0.01167277,0.00006561,-0.00004819,-0.00024230,-0.00029083,0.000434
 94,0.00010318,-0.00005225,0.00010470,-0.00006493,0.00026806,-0.0005671
 2,-0.00002840,-0.00039944,0.00002513,0.00048142,0.00060643,-0.00141162
 ,-0.00175702,-0.00069730,-0.00007353,0.00001041,-0.00691298,0.00662990
 ,-0.00017916,0.00383774,-0.00049678,0.00008632,0.00339687,-0.00602441,
 0.00006601,-0.00038245,-0.00050885,-0.00008461,-0.00043491,0.00259252,
 0.00077170,0.00110387,-0.00029045,-0.00007181,-0.00001284,-0.00060653,
 0.00166175,-0.00006084,0.00010044,-0.00013134,0.00002740,0.00090370,-0
 .00141085,-0.00001318,0.00094427,0.00040953,0.00011176,0.00170085,0.00
 849966,0.00108181,-0.00258309,-0.00852051,-0.00002723,-0.00004247,0.00
 011826,0.00015404,-0.00028209,-0.00000098,-0.00004741,-0.00000722,0.00
 000579,-0.00012202,0.00028943,0.00005111,0.00008304,-0.00003055,0.0000
 5740,0.00074881,0.00183347,0.00006524,-0.00080010,-0.00138175,-0.00012
 987,-0.00006940,0.00012667,0.00001340,-0.00091720,0.00066145,-0.000033
 54,0.00055407,-0.00008312,0.00002094,0.00040454,-0.00061718,0.00003156
 ,-0.00004503,0.00024397,-0.00015326,0.00165806,-0.00044855,-0.00096929
 ,0.00008916,-0.00016919,0.00001088,-0.00167419,0.00006285,0.00006904,0
 .00000933,-0.00042377,0.00006580,-0.00000408,0.00029385,0.00001863,-0.
 00001117,0.00011821,-0.00020548,-0.00000765,0.00013396,-0.00022789,0.0
 0008292,-0.00093528,0.00087400,0.00038037,0.00046423,-0.00043643,-0.00
 037881,0.00028596,-0.00015766,-0.00000122,0.00001564,-0.00000024,0.000
 57454,-0.00045296,-0.00005978,-0.00024020,-0.00002344,0.00003562,-0.00
 029331,0.00051060,0.00000503,0.00022645,-0.00000861,0.00004610,-0.0014
 7502,-0.00021798,0.00144280,0.00012944,0.00024764,-0.00016693,0.001079
 31,-0.00007090,-0.00130262,4.77099468,-2.08151925,-0.35563441,0.045387
 72,-0.01629589,-1.09492894,-0.01039155,0.05424693,0.00080997,-0.005836
 54,0.02298560,0.05140319,0.00085117,-0.00105167,-0.05706629,0.00048981
 ,0.00054149,-0.02122930,-0.00169302,0.00025450,0.00905391,-0.00508151,
 -0.00708275,0.00002381,0.00764849,-0.00076733,0.00057774,-0.00186173,-
 0.00995775,-0.00066411,-0.00002876,-0.00467692,0.01037897,-0.00022974,
 0.00928992,-0.00314044,-0.00020039,-0.00006190,0.00331035,0.00058879,-
 0.00037802,0.00249291,-0.00033523,0.00034110,-0.00474478,0.00381904,0.
 00302809,0.00006831,0.00178100,-0.00946882,0.00033275,0.00044992,0.001
 12730,-0.00001069,-0.01033141,-0.00858465,-0.00962545,-0.00013392,0.00
 074784,0.01282280,-0.00031825,0.00363666,-0.00191897,0.00020771,-0.001
 47070,-0.01157389,-0.00010576,0.00000678,0.00129730,0.00058437,0.00014
 029,0.00478199,-0.00010523,-0.00018330,-0.00069838,-0.00015461,0.00007
 032,-0.00302318,-4.74438561,2.04540939,-0.04461634,0.00459918,-0.05323
 857,0.00035025,0.00475098,0.01459986,-0.00013012,-0.00526946,0.0199180
 9,0.00023807,4.68946747,2.07000172,0.31038392,0.01506760,-0.04689712,-
 0.00107409,-0.00020256,-0.00868967,-0.00881615,-0.00012979,0.00930713,
 0.00554337,-0.00015435,-1.99617990,-0.28131425,-0.04645614,0.01553159,
 1.11173498,0.00007096,0.00062369,0.00447340,-0.00041809,-0.00024008,-0
 .00028241,0.00027263,-0.00043546,-0.00138095,0.04816970,-0.02074475,-1
 .09009816,-0.01219825,-0.01183252,-0.00098327,0.00201398,0.03283720,0.
 00009863,-0.00540380,-0.00833590,0.00000361,0.00512641,-0.01042559,-0.
 00037790,0.03645074,-0.02997910,-0.00744034,-0.00917769,0.00835655,0.0
 0475858,0.00002730,-0.00234581,-0.01792307,-0.00006234,0.00317484,0.00
 445348,0.00005170,-0.00367961,0.00613858,0.00024629,-0.02607287,-0.019
 55981,0.01555162,0.01752017,0.03554039,0.00288291,0.00133808,0.0002965
 5,-0.00135339,-0.00400750,0.00065444,0.00098504,0.00090371,-0.00019574
 ,-0.00057384,0.00142095,-0.00037869,-0.00670178,0.01013044,-0.02444171
 ,0.00862234,-0.02677735,0.02180223,-0.00306951,-0.00149168,-0.00014877
 ,0.00094718,0.00665771,-0.00002759,-0.00068000,-0.00143038,0.00003903,
 0.00337780,-0.00309142,-0.00016817,0.01327024,0.00780180,0.00028183,-0
 .01426594,-0.00803502,-0.00136000,-0.00043604,-0.00207200,-0.00175911,
 0.00009744,0.00072550,0.00486429,-0.00000214,-0.00038263,-0.00110660,0
 .00000902,0.00170492,-0.00260452,-0.00009098,0.00324658,-0.01075640,-0
 .00267851,0.00435191,-0.00646987,0.00161859,-0.00313128,0.01645426,-0.
 00046706,0.00021090,-0.00023010,-0.00002609,-0.00029228,-0.00023339,0.
 00008171,0.00004417,0.00009119,-0.00013184,0.00015250,-0.00049416,-0.0
 0097992,0.00257013,-0.00010270,-0.00016372,-0.00294787,0.00613077,0.00
 188088,-0.00029123,-0.00584752,0.00031273,-0.00075820,-0.00054144,-0.0
 0076180,0.00204589,-0.00012857,0.00017768,-0.00061615,0.00004500,0.001
 04673,-0.00073025,0.00008923,0.00111647,-0.00536486,0.00551945,-0.0025
 4546,0.01108176,-0.00250127,0.00085628,-0.00444301,-0.00019396,-0.0002
 0262,0.00078978,0.00113738,0.00041507,-0.00074876,-0.00340582,0.000019
 04,0.00082095,0.00081383,-0.00003982,-0.00054830,0.00121808,-0.0000350
 4,-0.00768256,0.00559341,-0.00760810,0.00586382,-0.00693829,0.01537308
 ,0.00272026,0.00137795,0.00055367,-0.00121518,0.00020345,-0.00153107,-
 0.00127106,-0.00025088,0.00101841,0.00280815,0.00000606,-0.00080975,-0
 .00060710,0.00002688,0.00019729,-0.00096384,-0.00010393,0.00367013,-0.
 00653671,0.00009755,0.00024064,0.01391064,-0.00386786,-0.00049722,0.00
 133782,0.00068592,-0.00228845,-0.00867790,0.00340626,0.01139441,-0.005
 14929,-0.00125947,0.00037169,-0.00037600,-0.00249694,0.00029417,-0.000
 01596,0.00000877,-0.00215013,0.00125519,0.00120257,0.00024925,-0.00008
 090,-0.00543079,0.00007390,-0.00004794,0.00016988,-0.00085383,0.000508
 76,-0.00119848,0.00036974,0.00034148,-0.00003386,0.00085117,-0.0011439
 5,0.00052733,-0.00128806,-0.00008164,-0.00026076,0.00001824,0.00003792
 ,0.00179222,-0.00016973,0.00031851,-0.00069886,-0.00007441,0.00002091,
 -0.00014697,0.00039704,-0.00038478,0.00043608,-0.00036793,0.00020620,-
 0.00011721,0.00088839,0.00047189,0.00004346,-0.00014327,-0.00243823,0.
 00029132,-0.00008634,0.00038231,0.00002940,-0.00113180,-0.00129947,-0.
 00121128,-0.00009723,0.00099480,0.00421575,-0.00033512,0.00086417,-0.0
 0132011,0.00019968,0.00157923,-0.00358922,-0.00006878,0.00007104,-0.00
 006618,0.00059526,-0.00001932,0.00087687,-0.00014133,-0.00013378,-0.00
 021919,-0.00040956,0.00004440,-0.00083191,-0.01373838,0.00536525,-0.00
 055031,-0.00040900,-0.00012258,0.00003058,-0.00022779,0.00003966,0.000
 00713,-0.00035380,0.00102969,-0.00001642,0.01640065,0.00542098,0.00108
 752,0.00014345,-0.00009155,-0.00021759,0.00007903,0.00009462,0.0000179
 5,-0.00002161,-0.00000716,-0.00010761,-0.00011385,-0.00659568,-0.00287
 116,-0.00038877,0.00018627,0.00272989,-0.00013511,-0.00006256,0.000087
 05,0.00004816,-0.00001162,-0.00000486,0.00004427,0.00001858,0.00003279
 ,0.00070339,0.00009956,-0.00362323,0.00006097,-0.00036047,0.00035664,0
 .00061753,0.00134399,0.00003232,0.00001618,-0.00027974,-0.00002893,-0.
 00065873,-0.00039868,0.00013183,0.00103709,-0.00225980,-0.00058857,0.4
 0031042,-0.00066539,-0.00018910,-0.00016196,-0.00010591,0.00034613,-0.
 00000381,0.00015922,-0.00005876,0.00002641,-0.00024507,0.00011570,0.00
 003912,0.00068358,-0.00049266,0.00051777,1.84476662,3.57979876,-0.0001
 2822,0.00042450,0.00038544,0.00094425,-0.00048979,0.00001248,-0.000308
 48,0.00013889,-0.00009853,-0.00032216,-0.00023636,0.00029721,0.0000140
 7,-0.00109098,-0.00120059,-1.00637680,0.33523278,-0.06067005,0.0010740
 1,-0.00048889,-0.00016149,0.00089552,0.00068765,-0.00008358,0.00035094
 ,-0.00029372,0.00005984,0.00111943,-0.00248052,-0.00020322,-0.00304652
 ,0.00317021,0.00018148,0.38034596,-1.55932413,-0.15472443,-0.37843403,
 0.00147536,0.00128816,0.00015073,-0.00072486,-0.00339617,-0.00002982,-
 0.00067312,0.00085762,-0.00003014,0.00002990,0.00229573,0.00004550,-0.
 00240813,0.00212075,-0.00042309,-1.60891260,-3.89913513,-0.55167001,1.
 61183819,3.88834175,-0.00007283,-0.00023774,-0.00031798,-0.00035539,0.
 00017851,-0.00037154,0.00004404,-0.00001944,0.00008017,0.00026643,0.00
 014561,0.00014383,0.00032778,0.00071652,0.00109700,-0.18089939,-0.6122
 3629,0.83012008,0.14589996,0.56370700,-0.84572794,-0.00034335,-0.00016
 402,-0.00003491,0.00004402,0.00049885,-0.00001804,0.00001418,-0.000123
 32,-0.00002214,0.00036609,-0.00028924,0.00011223,0.00033779,0.00026839
 ,0.00013515,-0.78172941,-0.28526891,1.16090176,-0.00230530,-0.00062475
 ,0.03478940,0.78361599,-0.00095573,-0.00065764,0.00007352,-0.00001356,
 0.00148783,-0.00000138,0.00003906,-0.00032929,-0.00001668,0.00022715,-
 0.00039898,0.00006688,0.00200821,0.00046277,-0.00032492,-0.23389934,0.
 31961507,0.21769097,-0.05310881,0.00762728,0.04774583,0.28570301,-0.32
 780703,0.00028743,-0.00004104,-0.00025716,-0.00060099,0.00001992,-0.00
 001233,0.00023207,-0.00002878,0.00007052,0.00005684,0.00026043,-0.0002
 3343,-0.00051624,0.00018788,0.00088196,1.18737290,0.27658597,-0.768846
 02,0.00903144,-0.01175016,0.01497640,-1.19586345,-0.26523423,0.7534200
 6,0.00052319,-0.00042335,-0.00095403,-0.00007982,-0.00019191,0.0005655
 6,-0.00034426,-0.00014469,0.00008167,-0.00114542,0.00087245,0.00069633
 ,0.00010536,0.00006473,-0.00144100,0.00015442,-0.00001167,-0.00058133,
 -0.00106651,0.00049611,-0.00026540,0.00003380,0.00028699,-0.00000356,0
 .00071863,-0.00150216,0.00054491,-0.00081868,-0.00015718,-0.00003704,0
 .00006560,-0.00039085,0.00072639,-0.00016592,0.00072825,-0.00039052,-0
 .00009930,0.00002849,0.00006252,0.00046462,-0.00039160,0.00020131,-0.0
 0038643,0.00020158,-0.00008210,0.00039174,0.00042530,-0.00000048,-0.00
 004572,-0.00062710,0.00032717,-0.00016355,0.00013490,-0.00000121,-0.00
 126715,-0.00057793,-0.00023393,-0.00002414,0.00053840,0.00121391,-0.00
 037039,0.00076688,-0.00057504,0.00019513,0.00046723,-0.00104620,-0.000
 08763,0.00001408,-0.00003057,0.00054943,0.00003025,0.00083065,-0.00011
 983,-0.00013803,-0.00024402,-0.00034900,0.00004966,-0.00049211,0.00045
 672,0.00046422,0.00010567,0.00000862,-0.00112134,0.00007787,0.00003535
 ,0.00028399,0.00000108,-0.00046335,0.00073812,0.00000024,-0.00204575,-
 0.00028670,0.00014068,-0.00002797,-0.00002727,0.00006246,0.00005874,-0
 .00003391,-0.00002167,-0.00001727,0.00005474,-0.00028670,-0.00010266,0
 .00093884,-0.00029120,0.00037340,0.00007702,-0.00014654,-0.00010177,-0
 .00018982,0.00000811,0.00003709,0.00000605,0.00002625,0.00002920,0.000
 06960,0.00004275,-0.00098256,0.00044728,0.00062943,0.00025363,-0.00033
 604,-0.00003038,0.00053968,0.00094801,0.00000849,-0.00012234,-0.000180
 40,0.00000645,-0.00002890,-0.00017466,0.00013060,0.00119715,-0.0018126
 6,0.00047376,1.54891300,-0.00112587,0.00006275,-0.00037199,0.00054462,
 0.00076694,0.00002774,0.00008090,-0.00023681,0.00001663,0.00009291,-0.
 00006828,-0.00001595,-0.00018723,-0.00147052,0.00088877,1.20123649,0.9
 3881533,-0.00040398,-0.00103745,0.00086555,0.00110485,0.00103700,0.000
 04242,-0.00035264,-0.00021214,-0.00012373,0.00015774,-0.00036957,0.000
 28749,0.00264206,-0.00029320,-0.00327575,-2.75117542,-0.16117898,1.455
 55183,-0.00028228,-0.00036873,-0.00004632,0.00048226,0.00097580,-0.000
 05563,0.00025696,-0.00030758,0.00004452,0.00138737,-0.00150609,-0.0002
 8469,-0.00001931,0.00077292,-0.00005310,0.22957366,-0.70637646,-0.0875
 7700,-0.23629893,0.00044240,0.00025712,0.00025995,-0.00032800,-0.00068
 710,-0.00005252,-0.00008029,0.00017355,-0.00003551,0.00036825,0.000271
 25,0.00021198,-0.00065691,0.00116811,-0.00059490,-0.70463242,-1.836197
 04,-0.32591076,0.70679934,1.84114591,0.00008727,-0.00017830,-0.0001762
 3,-0.00074630,0.00055687,-0.00018381,0.00030484,-0.00013886,0.00007232
 ,0.00100287,-0.00007197,-0.00010161,-0.00041632,0.00106882,0.00064817,
 -0.08743029,-0.32622379,0.39846411,0.09639473,0.32523887,-0.40640663,-
 0.00103253,0.00009630,-0.00002678,-0.00021379,0.00038964,0.00000929,0.
 00005983,-0.00011114,-0.00002973,0.00018953,-0.00025197,0.00016088,0.0
 0083056,0.00039404,0.00022397,-1.78032587,-0.49426534,2.83560439,0.004
 90026,-0.00191239,-0.00919680,1.77559203,0.00125619,0.00006812,0.00018
 510,-0.00025695,-0.00133794,0.00001790,-0.00024668,0.00036115,0.000002
 56,-0.00091622,0.00072499,-0.00004932,-0.00045969,0.00069884,-0.000703
 99,-0.49504832,0.89832763,0.48796510,0.00001080,-0.00613180,-0.0002516
 4,0.49566087,-0.89271099,0.00005564,0.00129973,-0.00055896,-0.00028600
 ,-0.00164417,-0.00005193,-0.00002440,0.00038173,0.00008745,-0.00116628
 ,0.00052168,-0.00029261,-0.00142803,-0.00113374,0.00206758,2.83801679,
 0.48685758,-1.85181192,-0.00842251,0.00088291,0.00768370,-2.82674523,-
 0.48716571,1.84287670\\@
 The archive entry for this job was punched.


 WE HAVE LEARNED THAT NOTHING IS SIMPLE AND
 RATIONAL EXCEPT WHAT WE OURSELVES HAVE INVENTED;
 THAT GOD THINKS IN TERMS NEITHER OF EUCLID OR RIEMANN; THAT SCIENCE HAS "EXPLAINED" NOTHING;
 THAT THE MORE WE KNOW THE MORE FANTASTIC THE WORLD BECOMES
 AND THE PROFOUNDER THE SURROUNDING DARKNESS.
   --  ALDOUS HUXLEY
 Job cpu time:      26 days  2 hours 21 minutes 39.6 seconds.
 Elapsed time:       0 days 16 hours  1 minutes 55.7 seconds.
 File lengths (MBytes):  RWF=  25790 Int=      0 D2E=      0 Chk=     54 Scr=      1
 Normal termination of Gaussian 16 at Fri Mar 21 06:50:46 2025.
