 Entering Gaussian System, Link 0=g16
 Input=ho2_h2o_mp2_avtz_opt_anharm.gjf
 Output=ho2_h2o_mp2_avtz_opt_anharm.log
 Initial command:
 /sw/contrib/gaussian/g16/A03/g16/l1.exe "/gscratch/scrubbed/gds001/Gau-313619.inp" -scrdir="/gscratch/scrubbed/gds001/"
 Entering Link 1 = /sw/contrib/gaussian/g16/A03/g16/l1.exe PID=    313621.
  
 Copyright (c) 1988,1990,1992,1993,1995,1998,2003,2009,2016,
            Gaussian, Inc.  All Rights Reserved.
  
 This is part of the Gaussian(R) 16 program.  It is based on
 the Gaussian(R) 09 system (copyright 2009, Gaussian, Inc.),
 the Gaussian(R) 03 system (copyright 2003, Gaussian, Inc.),
 the Gaussian(R) 98 system (copyright 1998, Gaussian, Inc.),
 the Gaussian(R) 94 system (copyright 1995, Gaussian, Inc.),
 the Gaussian 92(TM) system (copyright 1992, Gaussian, Inc.),
 the Gaussian 90(TM) system (copyright 1990, Gaussian, Inc.),
 the Gaussian 88(TM) system (copyright 1988, Gaussian, Inc.),
 the Gaussian 86(TM) system (copyright 1986, Carnegie Mellon
 University), and the Gaussian 82(TM) system (copyright 1983,
 Carnegie Mellon University). Gaussian is a federally registered
 trademark of Gaussian, Inc.
  
 This software contains proprietary and confidential information,
 including trade secrets, belonging to Gaussian, Inc.
  
 This software is provided under written license and may be
 used, copied, transmitted, or stored only in accord with that
 written license.
  
 The following legend is applicable only to US Government
 contracts under FAR:
  
                    RESTRICTED RIGHTS LEGEND
  
 Use, reproduction and disclosure by the US Government is
 subject to restrictions as set forth in subparagraphs (a)
 and (c) of the Commercial Computer Software - Restricted
 Rights clause in FAR 52.227-19.
  
 Gaussian, Inc.
 340 Quinnipiac St., Bldg. 40, Wallingford CT 06492
  
  
 ---------------------------------------------------------------
 Warning -- This program may not be used in any manner that
 competes with the business of Gaussian, Inc. or will provide
 assistance to any competitor of Gaussian, Inc.  The licensee
 of this program is prohibited from giving any competitor of
 Gaussian, Inc. access to this program.  By using this program,
 the user acknowledges that Gaussian, Inc. is engaged in the
 business of creating and licensing software in the field of
 computational chemistry and represents and warrants to the
 licensee that it is not a competitor of Gaussian, Inc. and that
 it will not use this program in any manner prohibited above.
 ---------------------------------------------------------------
  

 Cite this work as:
 Gaussian 16, Revision A.03,
 M. J. Frisch, G. W. Trucks, H. B. Schlegel, G. E. Scuseria, 
 M. A. Robb, J. R. Cheeseman, G. Scalmani, V. Barone, 
 G. A. Petersson, H. Nakatsuji, X. Li, M. Caricato, A. V. Marenich, 
 J. Bloino, B. G. Janesko, R. Gomperts, B. Mennucci, H. P. Hratchian, 
 J. V. Ortiz, A. F. Izmaylov, J. L. Sonnenberg, D. Williams-Young, 
 F. Ding, F. Lipparini, F. Egidi, J. Goings, B. Peng, A. Petrone, 
 T. Henderson, D. Ranasinghe, V. G. Zakrzewski, J. Gao, N. Rega, 
 G. Zheng, W. Liang, M. Hada, M. Ehara, K. Toyota, R. Fukuda, 
 J. Hasegawa, M. Ishida, T. Nakajima, Y. Honda, O. Kitao, H. Nakai, 
 T. Vreven, K. Throssell, J. A. Montgomery, Jr., J. E. Peralta, 
 F. Ogliaro, M. J. Bearpark, J. J. Heyd, E. N. Brothers, K. N. Kudin, 
 V. N. Staroverov, T. A. Keith, R. Kobayashi, J. Normand, 
 K. Raghavachari, A. P. Rendell, J. C. Burant, S. S. Iyengar, 
 J. Tomasi, M. Cossi, J. M. Millam, M. Klene, C. Adamo, R. Cammi, 
 J. W. Ochterski, R. L. Martin, K. Morokuma, O. Farkas, 
 J. B. Foresman, and D. J. Fox, Gaussian, Inc., Wallingford CT, 2016.
 
 ******************************************
 Gaussian 16:  ES64L-G16RevA.03 25-Dec-2016
                30-Nov-2021 
 ******************************************
 %nprocshared=32
 Will use up to   32 processors via shared memory.
 %mem=41GB
 -----------------------------------------------
 # UMP2/aug-cc-pVTZ opt freq=(vibrot,anharmonic)
 -----------------------------------------------
 1/18=20,19=15,38=1,80=1/1,3;
 2/9=110,12=2,17=6,18=5,40=1/2;
 3/5=16,6=1,7=10,11=2,25=1,30=1,71=1,116=2/1,2,3;
 4//1;
 5/5=2,38=5/2;
 8/6=4,10=1/1;
 9/15=2,16=-3/6;
 10/5=1/2;
 6/7=2,8=2,9=2,10=2/1;
 7/12=2/1,2,3,16;
 1/18=20,19=15,80=1/3(2);
 2/9=110/2;
 99//99;
 2/9=110/2;
 3/5=16,6=1,7=10,11=2,25=1,30=1,71=1,116=2/1,2,3;
 4/5=5,16=3,69=1/1;
 5/5=2,38=5/2;
 8/6=4,10=1/1;
 9/15=2,16=-3/6;
 10/5=1/2;
 7/12=2/1,2,3,16;
 1/18=20,19=15,80=1/3(-8);
 2/9=110/2;
 6/7=2,8=2,9=2,10=2/1;
 99//99;
 ----
 bleh
 ----
 Symbolic Z-matrix:
 Charge =  0 Multiplicity = 2
 O                    -1.13834   0.64844   0.01494 
 O                    -0.95678  -0.65403   0.00444 
 H                     0.03265  -0.74022  -0.00393 
 O                     1.64953  -0.00687  -0.09336 
 H                     2.27872  -0.03791   0.63921 
 H                     1.25343   0.87783  -0.04341 
 
 Add virtual bond connecting atoms O4         and H3         Dist= 3.36D+00.

 GradGradGradGradGradGradGradGradGradGradGradGradGradGradGradGradGradGrad
 Berny optimization.
 Initialization pass.
                           ----------------------------
                           !    Initial Parameters    !
                           ! (Angstroms and Degrees)  !
 --------------------------                            --------------------------
 ! Name  Definition              Value          Derivative Info.                !
 --------------------------------------------------------------------------------
 ! R1    R(1,2)                  1.3151         estimate D2E/DX2                !
 ! R2    R(2,3)                  0.9932         estimate D2E/DX2                !
 ! R3    R(3,4)                  1.7777         estimate D2E/DX2                !
 ! R4    R(4,5)                  0.9662         estimate D2E/DX2                !
 ! R5    R(4,6)                  0.9706         estimate D2E/DX2                !
 ! A1    A(1,2,3)              102.9171         estimate D2E/DX2                !
 ! A2    A(2,3,4)              150.5417         estimate D2E/DX2                !
 ! A3    A(3,4,5)              122.7456         estimate D2E/DX2                !
 ! A4    A(3,4,6)               90.1286         estimate D2E/DX2                !
 ! A5    A(5,4,6)              104.8337         estimate D2E/DX2                !
 ! D1    D(1,2,3,4)             -5.3729         estimate D2E/DX2                !
 ! D2    D(2,3,4,5)            114.9003         estimate D2E/DX2                !
 ! D3    D(2,3,4,6)              7.0921         estimate D2E/DX2                !
 ! D4    D(3,4,5,6)            -99.9671         estimate D2E/DX2                !
 --------------------------------------------------------------------------------
 Trust Radius=3.00D-01 FncErr=1.00D-07 GrdErr=1.00D-07 EigMax=2.50D+02 EigMin=1.00D-04
 Number of steps in this run=     24 maximum allowed number of steps=    100.
 GradGradGradGradGradGradGradGradGradGradGradGradGradGradGradGradGradGrad

                          Input orientation:                          
 ---------------------------------------------------------------------
 Center     Atomic      Atomic             Coordinates (Angstroms)
 Number     Number       Type             X           Y           Z
 ---------------------------------------------------------------------
      1          8           0       -1.138344    0.648440    0.014941
      2          8           0       -0.956784   -0.654031    0.004436
      3          1           0        0.032650   -0.740219   -0.003926
      4          8           0        1.649530   -0.006872   -0.093362
      5          1           0        2.278715   -0.037911    0.639210
      6          1           0        1.253426    0.877829   -0.043405
 ---------------------------------------------------------------------
                    Distance matrix (angstroms):
                    1          2          3          4          5
     1  O    0.000000
     2  O    1.315106   0.000000
     3  H    1.816578   0.993216   0.000000
     4  O    2.865904   2.687239   1.777666   0.000000
     5  H    3.540774   3.354250   2.439604   0.966177   0.000000
     6  H    2.403453   2.689593   2.027297   0.970613   1.534849
                    6
     6  H    0.000000
 Stoichiometry    H3O3(2)
 Framework group  C1[X(H3O3)]
 Deg. of freedom    12
 Full point group                 C1      NOp   1
 Largest Abelian subgroup         C1      NOp   1
 Largest concise Abelian subgroup C1      NOp   1
                         Standard orientation:                         
 ---------------------------------------------------------------------
 Center     Atomic      Atomic             Coordinates (Angstroms)
 Number     Number       Type             X           Y           Z
 ---------------------------------------------------------------------
      1          8           0       -1.138344    0.648440    0.014941
      2          8           0       -0.956784   -0.654031    0.004436
      3          1           0        0.032650   -0.740219   -0.003926
      4          8           0        1.649530   -0.006872   -0.093362
      5          1           0        2.278715   -0.037911    0.639210
      6          1           0        1.253426    0.877829   -0.043405
 ---------------------------------------------------------------------
 Rotational constants (GHZ):          32.7944304           5.8746567           5.0343857
 Standard basis: Aug-CC-pVTZ (5D, 7F)
 There are   240 symmetry adapted cartesian basis functions of A   symmetry.
 There are   207 symmetry adapted basis functions of A   symmetry.
   207 basis functions,   297 primitive gaussians,   240 cartesian basis functions
    14 alpha electrons       13 beta electrons
       nuclear repulsion energy        74.5061538695 Hartrees.
 NAtoms=    6 NActive=    6 NUniq=    6 SFac= 1.00D+00 NAtFMM=   60 NAOKFM=F Big=F
 Integral buffers will be    131072 words long.
 Raffenetti 2 integral format.
 Two-electron integral symmetry is turned on.
 One-electron integrals computed using PRISM.
 NBasis=   207 RedAO= T EigKep=  1.69D-04  NBF=   207
 NBsUse=   207 1.00D-06 EigRej= -1.00D+00 NBFU=   207
 ExpMin= 2.53D-02 ExpMax= 1.53D+04 ExpMxC= 5.22D+02 IAcc=3 IRadAn=         5 AccDes= 0.00D+00
 Harris functional with IExCor=  205 and IRadAn=       5 diagonalized for initial guess.
 HarFok:  IExCor=  205 AccDes= 0.00D+00 IRadAn=         5 IDoV= 1 UseB2=F ITyADJ=14
 ICtDFT=  3500011 ScaDFX=  1.000000  1.000000  1.000000  1.000000
 FoFCou: FMM=F IPFlag=           0 FMFlag=      100000 FMFlg1=           0
         NFxFlg=           0 DoJE=T BraDBF=F KetDBF=T FulRan=T
         wScrn=  0.000000 ICntrl=       500 IOpCl=  0 I1Cent=   200000004 NGrid=           0
         NMat0=    1 NMatS0=      1 NMatT0=    0 NMatD0=    1 NMtDS0=    0 NMtDT0=    0
 Petite list used in FoFCou.
 Initial guess <Sx>= 0.0000 <Sy>= 0.0000 <Sz>= 0.5000 <S**2>= 0.7500 S= 0.5000
 Keep R1 and R2 ints in memory in canonical form, NReq=479314667.
 Requested convergence on RMS density matrix=1.00D-08 within 128 cycles.
 Requested convergence on MAX density matrix=1.00D-06.
 Requested convergence on             energy=1.00D-06.
 No special actions if energy rises.
 SCF Done:  E(UHF) =  -226.306978925     A.U. after   22 cycles
            NFock= 22  Conv=0.20D-08     -V/T= 2.0013
 <Sx>= 0.0000 <Sy>= 0.0000 <Sz>= 0.5000 <S**2>= 0.7646 S= 0.5073
 <L.S>= 0.000000000000E+00
 Annihilation of the first spin contaminant:
 S**2 before annihilation     0.7646,   after     0.7502
 ExpMin= 2.53D-02 ExpMax= 1.53D+04 ExpMxC= 5.22D+02 IAcc=3 IRadAn=         5 AccDes= 0.00D+00
 HarFok:  IExCor=  205 AccDes= 0.00D+00 IRadAn=         5 IDoV=-2 UseB2=F ITyADJ=14
 ICtDFT= 12500011 ScaDFX=  1.000000  1.000000  1.000000  1.000000
 Range of M.O.s used for correlation:     4   207
 NBasis=   207 NAE=    14 NBE=    13 NFC=     3 NFV=     0
 NROrb=    204 NOA=    11 NOB=    10 NVA=   193 NVB=   194

 **** Warning!!: The largest alpha MO coefficient is  0.16309891D+02


 **** Warning!!: The largest beta MO coefficient is  0.16205438D+02

 Fully direct method using O(ONN) memory.
 JobTyp=2 Pass  1:  I=   4 to  14 NPSUse= 32 ParTrn=T ParDer=T DoDerP=T.
 JobTyp=3 Pass  1:  I=   4 to  13 NPSUse= 32 ParTrn=T ParDer=T DoDerP=T.
 Spin components of T(2) and E(2):
     alpha-alpha T2 =       0.2238274201D-01 E2=     -0.9577846494D-01
     alpha-beta  T2 =       0.1265640507D+00 E2=     -0.5455699825D+00
     beta-beta   T2 =       0.2379305448D-01 E2=     -0.8820505184D-01
 (S**2,0)=  0.76458D+00           (S**2,1)=  0.75347D+00
 E(PUHF)=      -0.22631215251D+03        E(PMP2)=      -0.22703974609D+03
 ANorm=    0.1082931137D+01
 E2 =    -0.7295534993D+00 EUMP2 =    -0.22703653242458D+03
          IDoAtm=111111
          Differentiating once with respect to electric field.
                with respect to dipole field.
          Differentiating once with respect to nuclear coordinates.
 Keep R1 and R2 ints in memory in canonical form, NReq=479319840.
          There are     1 degrees of freedom in the 1st order CPHF.  IDoFFX=0 NUNeed=     1.
 LinEq1:  Iter=  0 NonCon=     1 RMS=2.48D-03 Max=7.51D-02 NDo=     1
 AX will form     1 AO Fock derivatives at one time.
 LinEq1:  Iter=  1 NonCon=     1 RMS=5.98D-04 Max=1.22D-02 NDo=     1
 LinEq1:  Iter=  2 NonCon=     1 RMS=3.22D-04 Max=8.33D-03 NDo=     1
 LinEq1:  Iter=  3 NonCon=     1 RMS=1.08D-04 Max=1.29D-03 NDo=     1
 LinEq1:  Iter=  4 NonCon=     1 RMS=4.43D-05 Max=7.19D-04 NDo=     1
 LinEq1:  Iter=  5 NonCon=     1 RMS=1.58D-05 Max=1.98D-04 NDo=     1
 LinEq1:  Iter=  6 NonCon=     1 RMS=4.75D-06 Max=9.05D-05 NDo=     1
 LinEq1:  Iter=  7 NonCon=     1 RMS=1.32D-06 Max=1.43D-05 NDo=     1
 LinEq1:  Iter=  8 NonCon=     1 RMS=5.10D-07 Max=5.57D-06 NDo=     1
 LinEq1:  Iter=  9 NonCon=     1 RMS=2.20D-07 Max=2.28D-06 NDo=     1
 LinEq1:  Iter= 10 NonCon=     1 RMS=6.57D-08 Max=1.48D-06 NDo=     1
 LinEq1:  Iter= 11 NonCon=     1 RMS=1.86D-08 Max=6.14D-07 NDo=     1
 LinEq1:  Iter= 12 NonCon=     1 RMS=5.99D-09 Max=1.28D-07 NDo=     1
 LinEq1:  Iter= 13 NonCon=     1 RMS=1.76D-09 Max=1.85D-08 NDo=     1
 LinEq1:  Iter= 14 NonCon=     1 RMS=4.01D-10 Max=4.12D-09 NDo=     1
 LinEq1:  Iter= 15 NonCon=     1 RMS=8.24D-11 Max=1.20D-09 NDo=     1
 LinEq1:  Iter= 16 NonCon=     0 RMS=2.05D-11 Max=3.69D-10 NDo=     1
 Linear equations converged to 1.000D-10 1.000D-09 after    16 iterations.
 End of Minotr F.D. properties file   721 does not exist.
 End of Minotr F.D. properties file   722 does not exist.
 End of Minotr F.D. properties file   788 does not exist.

 **********************************************************************

            Population analysis using the SCF density.

 **********************************************************************

 Orbital symmetries:
 Alpha Orbitals:
       Occupied  (A) (A) (A) (A) (A) (A) (A) (A) (A) (A) (A) (A)
                 (A) (A)
       Virtual   (A) (A) (A) (A) (A) (A) (A) (A) (A) (A) (A) (A)
                 (A) (A) (A) (A) (A) (A) (A) (A) (A) (A) (A) (A)
                 (A) (A) (A) (A) (A) (A) (A) (A) (A) (A) (A) (A)
                 (A) (A) (A) (A) (A) (A) (A) (A) (A) (A) (A) (A)
                 (A) (A) (A) (A) (A) (A) (A) (A) (A) (A) (A) (A)
                 (A) (A) (A) (A) (A) (A) (A) (A) (A) (A) (A) (A)
                 (A) (A) (A) (A) (A) (A) (A) (A) (A) (A) (A) (A)
                 (A) (A) (A) (A) (A) (A) (A) (A) (A) (A) (A) (A)
                 (A) (A) (A) (A) (A) (A) (A) (A) (A) (A) (A) (A)
                 (A) (A) (A) (A) (A) (A) (A) (A) (A) (A) (A) (A)
                 (A) (A) (A) (A) (A) (A) (A) (A) (A) (A) (A) (A)
                 (A) (A) (A) (A) (A) (A) (A) (A) (A) (A) (A) (A)
                 (A) (A) (A) (A) (A) (A) (A) (A) (A) (A) (A) (A)
                 (A) (A) (A) (A) (A) (A) (A) (A) (A) (A) (A) (A)
                 (A) (A) (A) (A) (A) (A) (A) (A) (A) (A) (A) (A)
                 (A) (A) (A) (A) (A) (A) (A) (A) (A) (A) (A) (A)
                 (A)
 Beta  Orbitals:
       Occupied  (A) (A) (A) (A) (A) (A) (A) (A) (A) (A) (A) (A)
                 (A)
       Virtual   (A) (A) (A) (A) (A) (A) (A) (A) (A) (A) (A) (A)
                 (A) (A) (A) (A) (A) (A) (A) (A) (A) (A) (A) (A)
                 (A) (A) (A) (A) (A) (A) (A) (A) (A) (A) (A) (A)
                 (A) (A) (A) (A) (A) (A) (A) (A) (A) (A) (A) (A)
                 (A) (A) (A) (A) (A) (A) (A) (A) (A) (A) (A) (A)
                 (A) (A) (A) (A) (A) (A) (A) (A) (A) (A) (A) (A)
                 (A) (A) (A) (A) (A) (A) (A) (A) (A) (A) (A) (A)
                 (A) (A) (A) (A) (A) (A) (A) (A) (A) (A) (A) (A)
                 (A) (A) (A) (A) (A) (A) (A) (A) (A) (A) (A) (A)
                 (A) (A) (A) (A) (A) (A) (A) (A) (A) (A) (A) (A)
                 (A) (A) (A) (A) (A) (A) (A) (A) (A) (A) (A) (A)
                 (A) (A) (A) (A) (A) (A) (A) (A) (A) (A) (A) (A)
                 (A) (A) (A) (A) (A) (A) (A) (A) (A) (A) (A) (A)
                 (A) (A) (A) (A) (A) (A) (A) (A) (A) (A) (A) (A)
                 (A) (A) (A) (A) (A) (A) (A) (A) (A) (A) (A) (A)
                 (A) (A) (A) (A) (A) (A) (A) (A) (A) (A) (A) (A)
                 (A) (A)
 The electronic state is 2-A.
 Alpha  occ. eigenvalues --  -20.67207 -20.65012 -20.60395  -1.56693  -1.38790
 Alpha  occ. eigenvalues --   -1.18291  -0.77501  -0.74375  -0.73659  -0.66158
 Alpha  occ. eigenvalues --   -0.62632  -0.55273  -0.50565  -0.49792
 Alpha virt. eigenvalues --    0.02262   0.04657   0.05851   0.11223   0.12946
 Alpha virt. eigenvalues --    0.14359   0.15627   0.17400   0.17811   0.19379
 Alpha virt. eigenvalues --    0.19599   0.20975   0.22140   0.24328   0.26230
 Alpha virt. eigenvalues --    0.26960   0.28693   0.32506   0.35100   0.36394
 Alpha virt. eigenvalues --    0.38329   0.38980   0.40222   0.41507   0.44159
 Alpha virt. eigenvalues --    0.46078   0.48500   0.54769   0.57716   0.60708
 Alpha virt. eigenvalues --    0.65461   0.67476   0.70425   0.72956   0.74341
 Alpha virt. eigenvalues --    0.77035   0.77495   0.79114   0.80389   0.81168
 Alpha virt. eigenvalues --    0.83800   0.84751   0.86406   0.86733   0.88493
 Alpha virt. eigenvalues --    0.91823   0.93917   0.95220   0.97692   0.98888
 Alpha virt. eigenvalues --    1.00865   1.02865   1.05629   1.06817   1.07690
 Alpha virt. eigenvalues --    1.10745   1.12355   1.13807   1.16609   1.20685
 Alpha virt. eigenvalues --    1.23350   1.25061   1.26968   1.29087   1.36029
 Alpha virt. eigenvalues --    1.39360   1.40504   1.43746   1.48719   1.52837
 Alpha virt. eigenvalues --    1.57727   1.59944   1.61805   1.68799   1.75538
 Alpha virt. eigenvalues --    1.80955   1.85299   1.92329   1.95643   2.00861
 Alpha virt. eigenvalues --    2.05432   2.07479   2.13851   2.15871   2.18830
 Alpha virt. eigenvalues --    2.22644   2.23357   2.25353   2.29495   2.30733
 Alpha virt. eigenvalues --    2.36392   2.37518   2.39259   2.39953   2.42711
 Alpha virt. eigenvalues --    2.47466   2.49721   2.52582   2.55594   2.58440
 Alpha virt. eigenvalues --    2.65292   2.66820   2.69013   2.71781   2.74094
 Alpha virt. eigenvalues --    2.78413   2.80342   2.81576   2.85644   2.88161
 Alpha virt. eigenvalues --    2.89061   2.97505   3.02094   3.05417   3.25544
 Alpha virt. eigenvalues --    3.29022   3.41759   3.47633   3.78472   3.82449
 Alpha virt. eigenvalues --    4.05263   4.06324   4.14531   4.17531   4.18814
 Alpha virt. eigenvalues --    4.24832   4.27483   4.32024   4.38603   4.40151
 Alpha virt. eigenvalues --    4.42848   4.49924   4.53462   4.60571   4.65219
 Alpha virt. eigenvalues --    4.67349   4.73050   4.77052   4.87600   4.92313
 Alpha virt. eigenvalues --    5.03524   5.14811   5.16041   5.22096   5.26700
 Alpha virt. eigenvalues --    5.29936   5.32871   5.42361   5.63548   5.75482
 Alpha virt. eigenvalues --    5.99053   6.07033   6.25595   6.29446   6.34952
 Alpha virt. eigenvalues --    6.44241   6.47667   6.52093   6.56001   6.60297
 Alpha virt. eigenvalues --    6.65514   6.79210   6.87585   6.93509   7.03288
 Alpha virt. eigenvalues --    7.04756   7.10166   7.11922   7.13525   7.22636
 Alpha virt. eigenvalues --    7.23294   7.27362   7.30913   7.32844   7.34228
 Alpha virt. eigenvalues --    7.35147   7.38062   7.41780   7.43059   7.50903
 Alpha virt. eigenvalues --    7.55577   7.64432   7.76895   7.89184   7.92187
 Alpha virt. eigenvalues --    8.03152   8.13831   8.44039   8.61743   8.84348
 Alpha virt. eigenvalues --   13.03794  15.19733  16.21928
  Beta  occ. eigenvalues --  -20.64059 -20.63230 -20.60407  -1.50264  -1.38783
  Beta  occ. eigenvalues --   -1.08044  -0.76580  -0.72759  -0.63664  -0.62542
  Beta  occ. eigenvalues --   -0.55222  -0.54253  -0.46470
  Beta virt. eigenvalues --    0.02269   0.04676   0.05863   0.10161   0.11841
  Beta virt. eigenvalues --    0.13115   0.14471   0.15708   0.17822   0.18107
  Beta virt. eigenvalues --    0.19417   0.21014   0.22227   0.22982   0.24702
  Beta virt. eigenvalues --    0.26265   0.27292   0.28706   0.33357   0.35849
  Beta virt. eigenvalues --    0.36464   0.38376   0.39373   0.40482   0.41708
  Beta virt. eigenvalues --    0.44815   0.46135   0.49311   0.55055   0.57696
  Beta virt. eigenvalues --    0.60760   0.65619   0.67808   0.70541   0.73163
  Beta virt. eigenvalues --    0.75050   0.77617   0.78364   0.79255   0.81324
  Beta virt. eigenvalues --    0.82060   0.84897   0.86578   0.86993   0.88124
  Beta virt. eigenvalues --    0.88897   0.92027   0.94982   0.95595   0.97910
  Beta virt. eigenvalues --    0.99967   1.00914   1.03846   1.05860   1.07328
  Beta virt. eigenvalues --    1.08586   1.11272   1.12774   1.15236   1.16795
  Beta virt. eigenvalues --    1.20781   1.24156   1.25191   1.28299   1.29607
  Beta virt. eigenvalues --    1.36181   1.39435   1.40675   1.43945   1.48879
  Beta virt. eigenvalues --    1.53396   1.57802   1.60069   1.62163   1.68951
  Beta virt. eigenvalues --    1.75841   1.81004   1.85622   1.95715   1.96613
  Beta virt. eigenvalues --    2.01167   2.07309   2.09550   2.14449   2.17124
  Beta virt. eigenvalues --    2.19851   2.23140   2.25925   2.28777   2.31208
  Beta virt. eigenvalues --    2.32633   2.37731   2.38261   2.39580   2.40812
  Beta virt. eigenvalues --    2.42955   2.48397   2.50210   2.52972   2.55961
  Beta virt. eigenvalues --    2.58805   2.65607   2.67305   2.69390   2.72511
  Beta virt. eigenvalues --    2.75080   2.78603   2.80616   2.81995   2.85955
  Beta virt. eigenvalues --    2.88871   2.89422   2.97994   3.02517   3.06689
  Beta virt. eigenvalues --    3.28854   3.30468   3.42605   3.50072   3.78565
  Beta virt. eigenvalues --    3.82522   4.05347   4.06542   4.14830   4.18238
  Beta virt. eigenvalues --    4.22369   4.27193   4.27664   4.32339   4.39074
  Beta virt. eigenvalues --    4.40239   4.43410   4.49966   4.53620   4.62525
  Beta virt. eigenvalues --    4.65805   4.72057   4.73389   4.77376   4.87911
  Beta virt. eigenvalues --    4.92895   5.03787   5.14961   5.16432   5.22631
  Beta virt. eigenvalues --    5.26841   5.30315   5.33434   5.42597   5.63606
  Beta virt. eigenvalues --    5.75557   6.00382   6.09442   6.25633   6.31822
  Beta virt. eigenvalues --    6.36057   6.46922   6.49410   6.54342   6.58654
  Beta virt. eigenvalues --    6.62552   6.68366   6.79431   6.89151   6.93702
  Beta virt. eigenvalues --    7.07872   7.09975   7.15138   7.16893   7.17496
  Beta virt. eigenvalues --    7.23590   7.25526   7.27850   7.31662   7.34253
  Beta virt. eigenvalues --    7.35089   7.35714   7.38523   7.43088   7.45970
  Beta virt. eigenvalues --    7.51661   7.56559   7.67723   7.77191   7.89280
  Beta virt. eigenvalues --    7.92298   8.03360   8.14253   8.44595   8.62438
  Beta virt. eigenvalues --    8.84343  13.07361  15.20590  16.21937
          Condensed to atoms (all electrons):
               1          2          3          4          5          6
     1  O    8.322675  -0.166169  -0.011906   0.003240   0.002263  -0.013803
     2  O   -0.166169   8.210526   0.243123  -0.037270   0.000139   0.001432
     3  H   -0.011906   0.243123   0.434878  -0.019593   0.000998   0.003696
     4  O    0.003240  -0.037270  -0.019593   7.979905   0.265682   0.249509
     5  H    0.002263   0.000139   0.000998   0.265682   0.488056   0.026331
     6  H   -0.013803   0.001432   0.003696   0.249509   0.026331   0.468620
          Atomic-Atomic Spin Densities.
               1          2          3          4          5          6
     1  O    1.059666  -0.129090  -0.009424   0.002364  -0.000395  -0.002150
     2  O   -0.129090   0.225495   0.006632  -0.001262   0.000349  -0.000281
     3  H   -0.009424   0.006632  -0.022094   0.002260   0.000185   0.000602
     4  O    0.002364  -0.001262   0.002260  -0.002756   0.000328  -0.000746
     5  H   -0.000395   0.000349   0.000185   0.000328  -0.000359  -0.000029
     6  H   -0.002150  -0.000281   0.000602  -0.000746  -0.000029   0.001360
 Mulliken charges and spin densities:
               1          2
     1  O   -0.136300   0.920970
     2  O   -0.251780   0.101844
     3  H    0.348804  -0.021838
     4  O   -0.441473   0.000188
     5  H    0.216533   0.000080
     6  H    0.264216  -0.001244
 Sum of Mulliken charges =  -0.00000   1.00000
 Mulliken charges and spin densities with hydrogens summed into heavy atoms:
               1          2
     1  O   -0.136300   0.920970
     2  O    0.097024   0.080006
     4  O    0.039276  -0.000976
 Electronic spatial extent (au):  <R**2>=            233.9038
 Charge=             -0.0000 electrons
 Dipole moment (field-independent basis, Debye):
    X=              2.9062    Y=              0.7499    Z=              1.3015  Tot=              3.2714
 Quadrupole moment (field-independent basis, Debye-Ang):
   XX=            -17.2551   YY=            -16.8606   ZZ=            -17.2258
   XY=              0.7502   XZ=              3.4611   YZ=             -0.1752
 Traceless Quadrupole moment (field-independent basis, Debye-Ang):
   XX=             -0.1413   YY=              0.2533   ZZ=             -0.1120
   XY=              0.7502   XZ=              3.4611   YZ=             -0.1752
 Octapole moment (field-independent basis, Debye-Ang**2):
  XXX=             12.5255  YYY=              1.1157  ZZZ=              1.0807  XYY=              3.5161
  XXY=              1.5687  XXZ=              8.3354  XZZ=              1.2161  YZZ=              0.5709
  YYZ=              0.0281  XYZ=             -0.2771
 Hexadecapole moment (field-independent basis, Debye-Ang**3):
 XXXX=           -174.9664 YYYY=            -42.0293 ZZZZ=            -14.9465 XXXY=             -0.0809
 XXXZ=             20.6938 YYYX=              0.7804 YYYZ=             -0.1385 ZZZX=              2.8981
 ZZZY=             -0.1063 XXYY=            -40.6972 XXZZ=            -31.5402 YYZZ=            -10.1699
 XXYZ=             -0.5617 YYXZ=              0.4068 ZZXY=             -0.6879
 N-N= 7.450615386952D+01 E-N=-6.863140725332D+02  KE= 2.260140026138D+02
                          Isotropic Fermi Contact Couplings
        Atom                 a.u.       MegaHertz       Gauss      10(-4) cm-1
     1  O(17)              0.03206     -19.43551      -6.93507      -6.48299
     2  O(17)              0.04925     -29.85548     -10.65318      -9.95872
     3  H(1)              -0.00804     -35.94916     -12.82755     -11.99135
     4  O(17)             -0.00278       1.68544       0.60141       0.56220
     5  H(1)              -0.00006      -0.24979      -0.08913      -0.08332
     6  H(1)               0.00006       0.25192       0.08989       0.08403
 --------------------------------------------------------
       Center         ----  Spin Dipole Couplings  ----
                      3XX-RR        3YY-RR        3ZZ-RR
 --------------------------------------------------------
     1   Atom       -1.505276     -1.719459      3.224735
     2   Atom       -0.858150     -0.765332      1.623481
     3   Atom        0.069927     -0.040801     -0.029127
     4   Atom        0.009859     -0.006103     -0.003756
     5   Atom        0.005873     -0.002774     -0.003099
     6   Atom        0.014634     -0.006936     -0.007698
 --------------------------------------------------------
                        XY            XZ            YZ
 --------------------------------------------------------
     1   Atom        0.035892      0.037845     -0.033571
     2   Atom       -0.027527      0.016111     -0.015538
     3   Atom       -0.023999     -0.000730      0.000106
     4   Atom       -0.003021      0.001623      0.000347
     5   Atom       -0.000490      0.001311     -0.000035
     6   Atom        0.005123     -0.000482     -0.000100
 --------------------------------------------------------


 ---------------------------------------------------------------------------------
              Anisotropic Spin Dipole Couplings in Principal Axis System
 ---------------------------------------------------------------------------------

       Atom             a.u.   MegaHertz   Gauss  10(-4) cm-1        Axes

              Baa    -1.7256   124.865    44.555    41.650 -0.1621  0.9867  0.0079
     1 O(17)  Bbb    -1.4996   108.513    38.720    36.196  0.9867  0.1621 -0.0068
              Bcc     3.2253  -233.378   -83.275   -77.846  0.0079 -0.0067  0.9999
 
              Baa    -0.8658    62.645    22.353    20.896  0.9646  0.2637 -0.0046
     2 O(17)  Bbb    -0.7579    54.844    19.570    18.294 -0.2637  0.9646  0.0081
              Bcc     1.6237  -117.489   -41.923   -39.190  0.0066 -0.0066  1.0000
 
              Baa    -0.0458   -24.425    -8.716    -8.147  0.2031  0.9792  0.0027
     3 H(1)   Bbb    -0.0291   -15.543    -5.546    -5.185  0.0064 -0.0040  1.0000
              Bcc     0.0749    39.968    14.262    13.332  0.9791 -0.2031 -0.0071
 
              Baa    -0.0068     0.492     0.175     0.164  0.1944  0.9575 -0.2131
     4 O(17)  Bbb    -0.0038     0.274     0.098     0.091 -0.0648  0.2293  0.9712
              Bcc     0.0106    -0.765    -0.273    -0.255  0.9788 -0.1750  0.1066
 
              Baa    -0.0033    -1.755    -0.626    -0.585 -0.1450 -0.0708  0.9869
     5 H(1)   Bbb    -0.0028    -1.493    -0.533    -0.498  0.0445  0.9960  0.0780
              Bcc     0.0061     3.248     1.159     1.083  0.9884 -0.0552  0.1412
 
              Baa    -0.0081    -4.317    -1.540    -1.440 -0.2203  0.9752 -0.0222
     6 H(1)   Bbb    -0.0077    -4.113    -1.468    -1.372  0.0155  0.0262  0.9995
              Bcc     0.0158     8.430     3.008     2.812  0.9753  0.2199 -0.0209
 

 ---------------------------------------------------------------------------------

 Calling FoFJK, ICntrl=  10002127 FMM=F ISym2X=0 I1Cent= 0 IOpClX= 1 NMat=1 NMatS=1 NMatT=0.
 ***** Axes restored to original set *****
 -------------------------------------------------------------------
 Center     Atomic                   Forces (Hartrees/Bohr)
 Number     Number              X              Y              Z
 -------------------------------------------------------------------
      1        8           0.001371203   -0.007574070   -0.000064133
      2        8           0.002243278    0.007191939    0.000056258
      3        1          -0.003007932    0.000490489   -0.000045348
      4        8           0.000506436    0.003580650    0.003530915
      5        1          -0.002576293   -0.000011643   -0.003119448
      6        1           0.001463307   -0.003677365   -0.000358244
 -------------------------------------------------------------------
 Cartesian Forces:  Max     0.007574070 RMS     0.003188578

 GradGradGradGradGradGradGradGradGradGradGradGradGradGradGradGradGradGrad
 Berny optimization.
 FormGI is forming the generalized inverse of G from B-inverse, IUseBI=4.
 Internal  Forces:  Max     0.007691101 RMS     0.002750493
 Search for a local minimum.
 Step number   1 out of a maximum of   24
 All quantities printed in internal units (Hartrees-Bohrs-Radians)
 Mixed Optimization -- RFO/linear search
 Second derivative matrix not updated -- first step.
 The second derivative matrix:
                          R1        R2        R3        R4        R5
           R1           0.63167
           R2           0.00000   0.48901
           R3           0.00000   0.00000   0.06376
           R4           0.00000   0.00000   0.00000   0.54166
           R5           0.00000   0.00000   0.00000   0.00000   0.53252
           A1           0.00000   0.00000   0.00000   0.00000   0.00000
           A2           0.00000   0.00000   0.00000   0.00000   0.00000
           A3           0.00000   0.00000   0.00000   0.00000   0.00000
           A4           0.00000   0.00000   0.00000   0.00000   0.00000
           A5           0.00000   0.00000   0.00000   0.00000   0.00000
           D1           0.00000   0.00000   0.00000   0.00000   0.00000
           D2           0.00000   0.00000   0.00000   0.00000   0.00000
           D3           0.00000   0.00000   0.00000   0.00000   0.00000
           D4           0.00000   0.00000   0.00000   0.00000   0.00000
                          A1        A2        A3        A4        A5
           A1           0.16000
           A2           0.00000   0.25000
           A3           0.00000   0.00000   0.16000
           A4           0.00000   0.00000   0.00000   0.16000
           A5           0.00000   0.00000   0.00000   0.00000   0.16000
           D1           0.00000   0.00000   0.00000   0.00000   0.00000
           D2           0.00000   0.00000   0.00000   0.00000   0.00000
           D3           0.00000   0.00000   0.00000   0.00000   0.00000
           D4           0.00000   0.00000   0.00000   0.00000   0.00000
                          D1        D2        D3        D4
           D1           0.01118
           D2           0.00000   0.00230
           D3           0.00000   0.00000   0.00230
           D4           0.00000   0.00000   0.00000   0.01476
 ITU=  0
     Eigenvalues ---    0.00230   0.01118   0.04861   0.06376   0.13474
     Eigenvalues ---    0.16000   0.16000   0.25000   0.48901   0.53252
     Eigenvalues ---    0.54166   0.63167
 RFO step:  Lambda=-1.92605178D-04 EMin= 2.30000000D-03
 Linear search not attempted -- first point.
 Iteration  1 RMS(Cart)=  0.01073062 RMS(Int)=  0.00003034
 Iteration  2 RMS(Cart)=  0.00003793 RMS(Int)=  0.00000015
 Iteration  3 RMS(Cart)=  0.00000000 RMS(Int)=  0.00000015
 Variable       Old X    -DE/DX   Delta X   Delta X   Delta X     New X
                                 (Linear)    (Quad)   (Total)
    R1        2.48519  -0.00769   0.00000  -0.01217  -0.01217   2.47302
    R2        1.87691  -0.00363   0.00000  -0.00743  -0.00743   1.86948
    R3        3.35930  -0.00060   0.00000  -0.00937  -0.00937   3.34993
    R4        1.82581  -0.00404   0.00000  -0.00746  -0.00746   1.81835
    R5        1.83419  -0.00397   0.00000  -0.00745  -0.00745   1.82675
    A1        1.79624  -0.00078   0.00000  -0.00485  -0.00485   1.79140
    A2        2.62745  -0.00064   0.00000  -0.00257  -0.00257   2.62487
    A3        2.14232   0.00003   0.00000   0.00027   0.00027   2.14259
    A4        1.57304  -0.00015   0.00000  -0.00075  -0.00075   1.57229
    A5        1.82969   0.00023   0.00000   0.00200   0.00200   1.83169
    D1       -0.09378   0.00000   0.00000   0.00012   0.00012  -0.09365
    D2        2.00539   0.00007   0.00000  -0.00902  -0.00902   1.99637
    D3        0.12378  -0.00012   0.00000  -0.01099  -0.01099   0.11279
    D4       -1.74476   0.00001   0.00000  -0.00057  -0.00057  -1.74533
         Item               Value     Threshold  Converged?
 Maximum Force            0.007691     0.000450     NO 
 RMS     Force            0.002750     0.000300     NO 
 Maximum Displacement     0.026944     0.001800     NO 
 RMS     Displacement     0.010713     0.001200     NO 
 Predicted change in Energy=-9.636421D-05
 GradGradGradGradGradGradGradGradGradGradGradGradGradGradGradGradGradGrad

                          Input orientation:                          
 ---------------------------------------------------------------------
 Center     Atomic      Atomic             Coordinates (Angstroms)
 Number     Number       Type             X           Y           Z
 ---------------------------------------------------------------------
      1          8           0       -1.124086    0.645827    0.020119
      2          8           0       -0.952434   -0.651418    0.002959
      3          1           0        0.032900   -0.739298   -0.005910
      4          8           0        1.644912   -0.006792   -0.091654
      5          1           0        2.269221   -0.034926    0.640010
      6          1           0        1.248681    0.873842   -0.047629
 ---------------------------------------------------------------------
                    Distance matrix (angstroms):
                    1          2          3          4          5
     1  O    0.000000
     2  O    1.308665   0.000000
     3  H    1.804956   0.989285   0.000000
     4  O    2.847060   2.677816   1.772709   0.000000
     5  H    3.515995   3.341400   2.431971   0.962229   0.000000
     6  H    2.384660   2.678411   2.020417   0.966672   1.529774
                    6
     6  H    0.000000
 Stoichiometry    H3O3(2)
 Framework group  C1[X(H3O3)]
 Deg. of freedom    12
 Full point group                 C1      NOp   1
 Largest Abelian subgroup         C1      NOp   1
 Largest concise Abelian subgroup C1      NOp   1
                         Standard orientation:                         
 ---------------------------------------------------------------------
 Center     Atomic      Atomic             Coordinates (Angstroms)
 Number     Number       Type             X           Y           Z
 ---------------------------------------------------------------------
      1          8           0       -1.126795    0.647495    0.015388
      2          8           0       -0.956993   -0.650058    0.004114
      3          1           0        0.028218   -0.739384   -0.003984
      4          8           0        1.641308   -0.009576   -0.092397
      5          1           0        2.265301   -0.035319    0.639624
      6          1           0        1.246321    0.871813   -0.052475
 ---------------------------------------------------------------------
 Rotational constants (GHZ):          33.0399424           5.9383071           5.0868392
 Standard basis: Aug-CC-pVTZ (5D, 7F)
 There are   240 symmetry adapted cartesian basis functions of A   symmetry.
 There are   207 symmetry adapted basis functions of A   symmetry.
   207 basis functions,   297 primitive gaussians,   240 cartesian basis functions
    14 alpha electrons       13 beta electrons
       nuclear repulsion energy        74.8662770592 Hartrees.
 NAtoms=    6 NActive=    6 NUniq=    6 SFac= 1.00D+00 NAtFMM=   60 NAOKFM=F Big=F
 Integral buffers will be    131072 words long.
 Raffenetti 2 integral format.
 Two-electron integral symmetry is turned on.
 One-electron integrals computed using PRISM.
 NBasis=   207 RedAO= T EigKep=  1.65D-04  NBF=   207
 NBsUse=   207 1.00D-06 EigRej= -1.00D+00 NBFU=   207
 Initial guess from the checkpoint file:  "/gscratch/scrubbed/gds001/Gau-313621.chk"
 B after Tr=    -0.000000   -0.000000    0.000000
         Rot=    0.999999    0.000464    0.000015    0.001093 Ang=   0.14 deg.
 Initial guess <Sx>= 0.0000 <Sy>= 0.0000 <Sz>= 0.5000 <S**2>= 0.7645 S= 0.5072
 ExpMin= 2.53D-02 ExpMax= 1.53D+04 ExpMxC= 5.22D+02 IAcc=3 IRadAn=         5 AccDes= 0.00D+00
 Harris functional with IExCor=  205 and IRadAn=       5 diagonalized for initial guess.
 HarFok:  IExCor=  205 AccDes= 0.00D+00 IRadAn=         5 IDoV= 1 UseB2=F ITyADJ=14
 ICtDFT=  3500011 ScaDFX=  1.000000  1.000000  1.000000  1.000000
 FoFCou: FMM=F IPFlag=           0 FMFlag=      100000 FMFlg1=           0
         NFxFlg=           0 DoJE=T BraDBF=F KetDBF=T FulRan=T
         wScrn=  0.000000 ICntrl=       500 IOpCl=  0 I1Cent=   200000004 NGrid=           0
         NMat0=    1 NMatS0=      1 NMatT0=    0 NMatD0=    1 NMtDS0=    0 NMtDT0=    0
 Petite list used in FoFCou.
 Keep R1 and R2 ints in memory in canonical form, NReq=479315059.
 Requested convergence on RMS density matrix=1.00D-08 within 128 cycles.
 Requested convergence on MAX density matrix=1.00D-06.
 Requested convergence on             energy=1.00D-06.
 No special actions if energy rises.
 SCF Done:  E(UHF) =  -226.307579914     A.U. after   18 cycles
            NFock= 18  Conv=0.31D-08     -V/T= 2.0011
 <Sx>= 0.0000 <Sy>= 0.0000 <Sz>= 0.5000 <S**2>= 0.7646 S= 0.5073
 <L.S>= 0.000000000000E+00
 Annihilation of the first spin contaminant:
 S**2 before annihilation     0.7646,   after     0.7501
 ExpMin= 2.53D-02 ExpMax= 1.53D+04 ExpMxC= 5.22D+02 IAcc=3 IRadAn=         5 AccDes= 0.00D+00
 HarFok:  IExCor=  205 AccDes= 0.00D+00 IRadAn=         5 IDoV=-2 UseB2=F ITyADJ=14
 ICtDFT= 12500011 ScaDFX=  1.000000  1.000000  1.000000  1.000000
 Range of M.O.s used for correlation:     4   207
 NBasis=   207 NAE=    14 NBE=    13 NFC=     3 NFV=     0
 NROrb=    204 NOA=    11 NOB=    10 NVA=   193 NVB=   194

 **** Warning!!: The largest alpha MO coefficient is  0.16190935D+02


 **** Warning!!: The largest beta MO coefficient is  0.16038005D+02

 Fully direct method using O(ONN) memory.
 JobTyp=2 Pass  1:  I=   4 to  14 NPSUse= 32 ParTrn=T ParDer=T DoDerP=T.
 JobTyp=3 Pass  1:  I=   4 to  13 NPSUse= 32 ParTrn=T ParDer=T DoDerP=T.
 Spin components of T(2) and E(2):
     alpha-alpha T2 =       0.2228667393D-01 E2=     -0.9571339106D-01
     alpha-beta  T2 =       0.1259594772D+00 E2=     -0.5450852542D+00
     beta-beta   T2 =       0.2373398834D-01 E2=     -0.8825546650D-01
 (S**2,0)=  0.76456D+00           (S**2,1)=  0.75339D+00
 E(PUHF)=      -0.22631277572D+03        E(PMP2)=      -0.22703984823D+03
 ANorm=    0.1082580315D+01
 E2 =    -0.7290541118D+00 EUMP2 =    -0.22703663402558D+03
          IDoAtm=111111
          Differentiating once with respect to electric field.
                with respect to dipole field.
          Differentiating once with respect to nuclear coordinates.
 Keep R1 and R2 ints in memory in canonical form, NReq=479320000.
          There are     1 degrees of freedom in the 1st order CPHF.  IDoFFX=0 NUNeed=     1.
 LinEq1:  Iter=  0 NonCon=     1 RMS=2.45D-03 Max=6.97D-02 NDo=     1
 AX will form     1 AO Fock derivatives at one time.
 LinEq1:  Iter=  1 NonCon=     1 RMS=5.93D-04 Max=1.17D-02 NDo=     1
 LinEq1:  Iter=  2 NonCon=     1 RMS=3.20D-04 Max=8.04D-03 NDo=     1
 LinEq1:  Iter=  3 NonCon=     1 RMS=1.07D-04 Max=1.24D-03 NDo=     1
 LinEq1:  Iter=  4 NonCon=     1 RMS=4.34D-05 Max=6.75D-04 NDo=     1
 LinEq1:  Iter=  5 NonCon=     1 RMS=1.52D-05 Max=1.86D-04 NDo=     1
 LinEq1:  Iter=  6 NonCon=     1 RMS=4.53D-06 Max=8.90D-05 NDo=     1
 LinEq1:  Iter=  7 NonCon=     1 RMS=1.26D-06 Max=1.34D-05 NDo=     1
 LinEq1:  Iter=  8 NonCon=     1 RMS=4.81D-07 Max=5.12D-06 NDo=     1
 LinEq1:  Iter=  9 NonCon=     1 RMS=2.08D-07 Max=2.01D-06 NDo=     1
 LinEq1:  Iter= 10 NonCon=     1 RMS=5.93D-08 Max=1.06D-06 NDo=     1
 LinEq1:  Iter= 11 NonCon=     1 RMS=1.56D-08 Max=4.96D-07 NDo=     1
 LinEq1:  Iter= 12 NonCon=     1 RMS=5.31D-09 Max=1.35D-07 NDo=     1
 LinEq1:  Iter= 13 NonCon=     1 RMS=1.66D-09 Max=2.27D-08 NDo=     1
 LinEq1:  Iter= 14 NonCon=     1 RMS=3.85D-10 Max=3.96D-09 NDo=     1
 LinEq1:  Iter= 15 NonCon=     1 RMS=7.84D-11 Max=1.05D-09 NDo=     1
 LinEq1:  Iter= 16 NonCon=     0 RMS=1.92D-11 Max=3.37D-10 NDo=     1
 Linear equations converged to 1.000D-10 1.000D-09 after    16 iterations.
 End of Minotr F.D. properties file   721 does not exist.
 End of Minotr F.D. properties file   722 does not exist.
 End of Minotr F.D. properties file   788 does not exist.
 Calling FoFJK, ICntrl=  10002127 FMM=F ISym2X=0 I1Cent= 0 IOpClX= 1 NMat=1 NMatS=1 NMatT=0.
 ***** Axes restored to original set *****
 -------------------------------------------------------------------
 Center     Atomic                   Forces (Hartrees/Bohr)
 Number     Number              X              Y              Z
 -------------------------------------------------------------------
      1        8          -0.000553016   -0.001112014   -0.000056293
      2        8           0.000507307    0.002196195    0.000062586
      3        1           0.000296430   -0.001000693   -0.000056801
      4        8          -0.000069853    0.000391730    0.000471439
      5        1          -0.000029905   -0.000209099   -0.000263153
      6        1          -0.000150963   -0.000266119   -0.000157777
 -------------------------------------------------------------------
 Cartesian Forces:  Max     0.002196195 RMS     0.000680505

 GradGradGradGradGradGradGradGradGradGradGradGradGradGradGradGradGradGrad
 Berny optimization.
 Using GEDIIS/GDIIS optimizer.
 FormGI is forming the generalized inverse of G from B-inverse, IUseBI=4.
 Internal  Forces:  Max     0.001715832 RMS     0.000564999
 Search for a local minimum.
 Step number   2 out of a maximum of   24
 All quantities printed in internal units (Hartrees-Bohrs-Radians)
 Mixed Optimization -- En-DIIS/RFO-DIIS
 Update second derivatives using D2CorX and points    1    2
 DE= -1.02D-04 DEPred=-9.64D-05 R= 1.05D+00
 TightC=F SS=  1.41D+00  RLast= 2.53D-02 DXNew= 5.0454D-01 7.5863D-02
 Trust test= 1.05D+00 RLast= 2.53D-02 DXMaxT set to 3.00D-01
 The second derivative matrix:
                          R1        R2        R3        R4        R5
           R1           0.56669
           R2          -0.00783   0.49828
           R3          -0.01171  -0.00439   0.06251
           R4          -0.02221   0.00265  -0.00556   0.53685
           R5          -0.02101   0.00305  -0.00541  -0.00427   0.52878
           A1           0.05963   0.03673   0.00214   0.03581   0.03544
           A2          -0.01312  -0.00501  -0.00137  -0.00627  -0.00612
           A3           0.00396   0.00208   0.00025   0.00219   0.00216
           A4          -0.00773  -0.00393  -0.00052  -0.00421  -0.00414
           A5           0.01556   0.00761   0.00113   0.00832   0.00817
           D1           0.00414   0.00234   0.00021   0.00238   0.00235
           D2           0.00288   0.00171   0.00012   0.00170   0.00168
           D3           0.00089   0.00060   0.00002   0.00056   0.00056
           D4           0.00056   0.00035   0.00002   0.00034   0.00033
                          A1        A2        A3        A4        A5
           A1           0.19078
           A2           0.00212   0.24850
           A3           0.00101   0.00026   0.16001
           A4          -0.00159  -0.00055  -0.00000   0.15996
           A5           0.00233   0.00121  -0.00005   0.00017   0.15950
           D1           0.00153   0.00022   0.00004  -0.00005   0.00004
           D2           0.00130   0.00012   0.00004  -0.00006   0.00008
           D3           0.00061   0.00001   0.00002  -0.00004   0.00006
           D4           0.00030   0.00002   0.00001  -0.00002   0.00002
                          D1        D2        D3        D4
           D1           0.01125
           D2           0.00006   0.00235
           D3           0.00003   0.00003   0.00231
           D4           0.00002   0.00001   0.00001   0.01476
 ITU=  1  0
 Use linear search instead of GDIIS.
     Eigenvalues ---    0.00233   0.01118   0.04848   0.06177   0.13315
     Eigenvalues ---    0.15980   0.16919   0.24819   0.49957   0.52987
     Eigenvalues ---    0.53837   0.58700
 RFO step:  Lambda=-2.91715156D-05 EMin= 2.32677547D-03
 Quartic linear search produced a step of  0.05027.
 Iteration  1 RMS(Cart)=  0.01514788 RMS(Int)=  0.00016902
 Iteration  2 RMS(Cart)=  0.00014634 RMS(Int)=  0.00000045
 Iteration  3 RMS(Cart)=  0.00000001 RMS(Int)=  0.00000045
 Variable       Old X    -DE/DX   Delta X   Delta X   Delta X     New X
                                 (Linear)    (Quad)   (Total)
    R1        2.47302  -0.00103  -0.00061  -0.00294  -0.00355   2.46947
    R2        1.86948   0.00014  -0.00037  -0.00044  -0.00081   1.86866
    R3        3.34993  -0.00026  -0.00047  -0.00526  -0.00573   3.34420
    R4        1.81835  -0.00021  -0.00038  -0.00116  -0.00154   1.81681
    R5        1.82675  -0.00019  -0.00037  -0.00112  -0.00149   1.82525
    A1        1.79140   0.00172  -0.00024   0.01078   0.01054   1.80193
    A2        2.62487  -0.00030  -0.00013  -0.00151  -0.00164   2.62324
    A3        2.14259   0.00010   0.00001   0.00069   0.00071   2.14329
    A4        1.57229  -0.00023  -0.00004  -0.00147  -0.00150   1.57079
    A5        1.83169   0.00031   0.00010   0.00289   0.00300   1.83469
    D1       -0.09365   0.00011   0.00001   0.01066   0.01067  -0.08299
    D2        1.99637   0.00017  -0.00045   0.02519   0.02474   2.02110
    D3        0.11279  -0.00006  -0.00055   0.02254   0.02199   0.13478
    D4       -1.74533   0.00004  -0.00003  -0.00046  -0.00049  -1.74582
         Item               Value     Threshold  Converged?
 Maximum Force            0.001716     0.000450     NO 
 RMS     Force            0.000565     0.000300     NO 
 Maximum Displacement     0.029281     0.001800     NO 
 RMS     Displacement     0.015133     0.001200     NO 
 Predicted change in Energy=-1.472567D-05
 GradGradGradGradGradGradGradGradGradGradGradGradGradGradGradGradGradGrad

                          Input orientation:                          
 ---------------------------------------------------------------------
 Center     Atomic      Atomic             Coordinates (Angstroms)
 Number     Number       Type             X           Y           Z
 ---------------------------------------------------------------------
      1          8           0       -1.134205    0.644738    0.004624
      2          8           0       -0.949157   -0.648872    0.009437
      3          1           0        0.035729   -0.736861   -0.000115
      4          8           0        1.643722   -0.003724   -0.092928
      5          1           0        2.276444   -0.042772    0.629883
      6          1           0        1.246659    0.874728   -0.033007
 ---------------------------------------------------------------------
                    Distance matrix (angstroms):
                    1          2          3          4          5
     1  O    0.000000
     2  O    1.306787   0.000000
     3  H    1.810409   0.988854   0.000000
     4  O    2.854277   2.673895   1.769674   0.000000
     5  H    3.534989   3.340181   2.428881   0.961415   0.000000
     6  H    2.392242   2.672969   2.016098   0.965882   1.530258
                    6
     6  H    0.000000
 Stoichiometry    H3O3(2)
 Framework group  C1[X(H3O3)]
 Deg. of freedom    12
 Full point group                 C1      NOp   1
 Largest Abelian subgroup         C1      NOp   1
 Largest concise Abelian subgroup C1      NOp   1
                         Standard orientation:                         
 ---------------------------------------------------------------------
 Center     Atomic      Atomic             Coordinates (Angstroms)
 Number     Number       Type             X           Y           Z
 ---------------------------------------------------------------------
      1          8           0       -1.135833    0.643272    0.013983
      2          8           0       -0.950595   -0.650290    0.005168
      3          1           0        0.034290   -0.738022   -0.006535
      4          8           0        1.642061   -0.003713   -0.093776
      5          1           0        2.275699   -0.050145    0.627796
      6          1           0        1.244948    0.874010   -0.024261
 ---------------------------------------------------------------------
 Rotational constants (GHZ):          33.2438567           5.9244608           5.0799984
 Standard basis: Aug-CC-pVTZ (5D, 7F)
 There are   240 symmetry adapted cartesian basis functions of A   symmetry.
 There are   207 symmetry adapted basis functions of A   symmetry.
   207 basis functions,   297 primitive gaussians,   240 cartesian basis functions
    14 alpha electrons       13 beta electrons
       nuclear repulsion energy        74.8904617672 Hartrees.
 NAtoms=    6 NActive=    6 NUniq=    6 SFac= 1.00D+00 NAtFMM=   60 NAOKFM=F Big=F
 Integral buffers will be    131072 words long.
 Raffenetti 2 integral format.
 Two-electron integral symmetry is turned on.
 One-electron integrals computed using PRISM.
 NBasis=   207 RedAO= T EigKep=  1.64D-04  NBF=   207
 NBsUse=   207 1.00D-06 EigRej= -1.00D+00 NBFU=   207
 Initial guess from the checkpoint file:  "/gscratch/scrubbed/gds001/Gau-313621.chk"
 B after Tr=    -0.000000    0.000000   -0.000000
         Rot=    0.999997   -0.001690   -0.000113   -0.001600 Ang=  -0.27 deg.
 Initial guess <Sx>= 0.0000 <Sy>= 0.0000 <Sz>= 0.5000 <S**2>= 0.7646 S= 0.5073
 ExpMin= 2.53D-02 ExpMax= 1.53D+04 ExpMxC= 5.22D+02 IAcc=3 IRadAn=         5 AccDes= 0.00D+00
 Harris functional with IExCor=  205 and IRadAn=       5 diagonalized for initial guess.
 HarFok:  IExCor=  205 AccDes= 0.00D+00 IRadAn=         5 IDoV= 1 UseB2=F ITyADJ=14
 ICtDFT=  3500011 ScaDFX=  1.000000  1.000000  1.000000  1.000000
 FoFCou: FMM=F IPFlag=           0 FMFlag=      100000 FMFlg1=           0
         NFxFlg=           0 DoJE=T BraDBF=F KetDBF=T FulRan=T
         wScrn=  0.000000 ICntrl=       500 IOpCl=  0 I1Cent=   200000004 NGrid=           0
         NMat0=    1 NMatS0=      1 NMatT0=    0 NMatD0=    1 NMtDS0=    0 NMtDT0=    0
 Petite list used in FoFCou.
 Keep R1 and R2 ints in memory in canonical form, NReq=479315010.
 Requested convergence on RMS density matrix=1.00D-08 within 128 cycles.
 Requested convergence on MAX density matrix=1.00D-06.
 Requested convergence on             energy=1.00D-06.
 No special actions if energy rises.
 SCF Done:  E(UHF) =  -226.307769510     A.U. after   17 cycles
            NFock= 17  Conv=0.43D-08     -V/T= 2.0011
 <Sx>= 0.0000 <Sy>= 0.0000 <Sz>= 0.5000 <S**2>= 0.7646 S= 0.5073
 <L.S>= 0.000000000000E+00
 Annihilation of the first spin contaminant:
 S**2 before annihilation     0.7646,   after     0.7501
 ExpMin= 2.53D-02 ExpMax= 1.53D+04 ExpMxC= 5.22D+02 IAcc=3 IRadAn=         5 AccDes= 0.00D+00
 HarFok:  IExCor=  205 AccDes= 0.00D+00 IRadAn=         5 IDoV=-2 UseB2=F ITyADJ=14
 ICtDFT= 12500011 ScaDFX=  1.000000  1.000000  1.000000  1.000000
 Range of M.O.s used for correlation:     4   207
 NBasis=   207 NAE=    14 NBE=    13 NFC=     3 NFV=     0
 NROrb=    204 NOA=    11 NOB=    10 NVA=   193 NVB=   194

 **** Warning!!: The largest alpha MO coefficient is  0.16283403D+02


 **** Warning!!: The largest beta MO coefficient is  0.16120006D+02

 Fully direct method using O(ONN) memory.
 JobTyp=2 Pass  1:  I=   4 to  14 NPSUse= 32 ParTrn=T ParDer=T DoDerP=T.
 JobTyp=3 Pass  1:  I=   4 to  13 NPSUse= 32 ParTrn=T ParDer=T DoDerP=T.
 Spin components of T(2) and E(2):
     alpha-alpha T2 =       0.2226198110D-01 E2=     -0.9568878121D-01
     alpha-beta  T2 =       0.1258035732D+00 E2=     -0.5449264221D+00
     beta-beta   T2 =       0.2371447143D-01 E2=     -0.8825394825D-01
 (S**2,0)=  0.76456D+00           (S**2,1)=  0.75337D+00
 E(PUHF)=      -0.22631297108D+03        E(PMP2)=      -0.22703985319D+03
 ANorm=    0.1082487887D+01
 E2 =    -0.7288691516D+00 EUMP2 =    -0.22703663866192D+03
          IDoAtm=111111
          Differentiating once with respect to electric field.
                with respect to dipole field.
          Differentiating once with respect to nuclear coordinates.
 Keep R1 and R2 ints in memory in canonical form, NReq=479319951.
          There are     1 degrees of freedom in the 1st order CPHF.  IDoFFX=0 NUNeed=     1.
 LinEq1:  Iter=  0 NonCon=     1 RMS=2.45D-03 Max=7.05D-02 NDo=     1
 AX will form     1 AO Fock derivatives at one time.
 LinEq1:  Iter=  1 NonCon=     1 RMS=5.91D-04 Max=1.18D-02 NDo=     1
 LinEq1:  Iter=  2 NonCon=     1 RMS=3.19D-04 Max=8.14D-03 NDo=     1
 LinEq1:  Iter=  3 NonCon=     1 RMS=1.07D-04 Max=1.24D-03 NDo=     1
 LinEq1:  Iter=  4 NonCon=     1 RMS=4.31D-05 Max=6.94D-04 NDo=     1
 LinEq1:  Iter=  5 NonCon=     1 RMS=1.50D-05 Max=1.83D-04 NDo=     1
 LinEq1:  Iter=  6 NonCon=     1 RMS=4.47D-06 Max=8.82D-05 NDo=     1
 LinEq1:  Iter=  7 NonCon=     1 RMS=1.25D-06 Max=1.32D-05 NDo=     1
 LinEq1:  Iter=  8 NonCon=     1 RMS=4.74D-07 Max=4.88D-06 NDo=     1
 LinEq1:  Iter=  9 NonCon=     1 RMS=2.17D-07 Max=3.70D-06 NDo=     1
 LinEq1:  Iter= 10 NonCon=     1 RMS=7.47D-08 Max=2.22D-06 NDo=     1
 LinEq1:  Iter= 11 NonCon=     1 RMS=2.24D-08 Max=6.27D-07 NDo=     1
 LinEq1:  Iter= 12 NonCon=     1 RMS=6.17D-09 Max=7.97D-08 NDo=     1
 LinEq1:  Iter= 13 NonCon=     1 RMS=1.70D-09 Max=1.74D-08 NDo=     1
 LinEq1:  Iter= 14 NonCon=     1 RMS=3.83D-10 Max=3.94D-09 NDo=     1
 LinEq1:  Iter= 15 NonCon=     0 RMS=7.72D-11 Max=9.98D-10 NDo=     1
 Linear equations converged to 1.000D-10 1.000D-09 after    15 iterations.
 End of Minotr F.D. properties file   721 does not exist.
 End of Minotr F.D. properties file   722 does not exist.
 End of Minotr F.D. properties file   788 does not exist.
 Calling FoFJK, ICntrl=  10002127 FMM=F ISym2X=0 I1Cent= 0 IOpClX= 1 NMat=1 NMatS=1 NMatT=0.
 ***** Axes restored to original set *****
 -------------------------------------------------------------------
 Center     Atomic                   Forces (Hartrees/Bohr)
 Number     Number              X              Y              Z
 -------------------------------------------------------------------
      1        8           0.000463080    0.000063265    0.000085767
      2        8          -0.000942902   -0.000304482   -0.000056072
      3        1           0.000633641    0.000114320   -0.000077738
      4        8          -0.000329615   -0.000354390   -0.000112898
      5        1           0.000445439   -0.000048214    0.000335189
      6        1          -0.000269643    0.000529501   -0.000174247
 -------------------------------------------------------------------
 Cartesian Forces:  Max     0.000942902 RMS     0.000378216

 GradGradGradGradGradGradGradGradGradGradGradGradGradGradGradGradGradGrad
 Berny optimization.
 Using GEDIIS/GDIIS optimizer.
 FormGI is forming the generalized inverse of G from B-inverse, IUseBI=4.
 Internal  Forces:  Max     0.001151703 RMS     0.000439539
 Search for a local minimum.
 Step number   3 out of a maximum of   24
 All quantities printed in internal units (Hartrees-Bohrs-Radians)
 Mixed Optimization -- En-DIIS/RFO-DIIS
 Swapping is turned off.
 Update second derivatives using D2CorX and points    1    2    3
 DE= -4.64D-06 DEPred=-1.47D-05 R= 3.15D-01
 Trust test= 3.15D-01 RLast= 3.72D-02 DXMaxT set to 3.00D-01
 The second derivative matrix:
                          R1        R2        R3        R4        R5
           R1           0.50270
           R2          -0.00587   0.50845
           R3          -0.02409  -0.00593   0.06048
           R4          -0.02623   0.01509  -0.00865   0.55139
           R5          -0.02265   0.01619  -0.00820   0.01135   0.54545
           A1           0.04382   0.01102   0.00404   0.00349   0.00174
           A2          -0.04820  -0.01767  -0.00556  -0.02497  -0.02455
           A3           0.01274   0.00530   0.00129   0.00694   0.00684
           A4          -0.01381  -0.00420  -0.00161  -0.00515  -0.00489
           A5           0.03600   0.01235   0.00408   0.01606   0.01556
           D1          -0.00252  -0.00239  -0.00015  -0.00396  -0.00412
           D2          -0.00280  -0.00172  -0.00030  -0.00298  -0.00306
           D3          -0.00205  -0.00153  -0.00013  -0.00228  -0.00234
           D4          -0.00588  -0.00279  -0.00060  -0.00406  -0.00408
                          A1        A2        A3        A4        A5
           A1           0.25234
           A2           0.02832   0.24766
           A3          -0.00571   0.00040   0.15999
           A4          -0.00184  -0.00326   0.00068   0.15940
           A5          -0.00638   0.00521  -0.00102   0.00187   0.15579
           D1           0.01234   0.00316  -0.00073  -0.00045  -0.00042
           D2           0.00899   0.00182  -0.00041  -0.00043  -0.00000
           D3           0.00547   0.00136  -0.00033  -0.00022  -0.00016
           D4           0.00715   0.00094  -0.00024  -0.00047   0.00033
                          D1        D2        D3        D4
           D1           0.01292
           D2           0.00120   0.00311
           D3           0.00079   0.00054   0.00265
           D4           0.00094   0.00061   0.00043   0.01519
 ITU=  0  1  0
     Eigenvalues ---    0.00278   0.01218   0.04665   0.05803   0.12694
     Eigenvalues ---    0.15785   0.20789   0.27798   0.49604   0.51658
     Eigenvalues ---    0.53702   0.58473
 En-DIIS/RFO-DIIS/Sim-DIIS IScMMF=       -3 using points:     3    2
 RFO step:  Lambda=-1.48959601D-05.
 DidBck=T Rises=F RFO-DIIS coefs:   -0.07313    1.07313
 Iteration  1 RMS(Cart)=  0.01678434 RMS(Int)=  0.00020127
 Iteration  2 RMS(Cart)=  0.00017974 RMS(Int)=  0.00000020
 Iteration  3 RMS(Cart)=  0.00000002 RMS(Int)=  0.00000020
 Variable       Old X    -DE/DX   Delta X   Delta X   Delta X     New X
                                 (Linear)    (Quad)   (Total)
    R1        2.46947  -0.00000   0.00381  -0.00435  -0.00054   2.46893
    R2        1.86866   0.00046   0.00087  -0.00034   0.00053   1.86919
    R3        3.34420  -0.00009   0.00615  -0.00808  -0.00192   3.34228
    R4        1.81681   0.00055   0.00165  -0.00123   0.00042   1.81723
    R5        1.82525   0.00058   0.00160  -0.00112   0.00048   1.82573
    A1        1.80193  -0.00115  -0.01131   0.00930  -0.00201   1.79992
    A2        2.62324  -0.00061   0.00176  -0.00355  -0.00179   2.62145
    A3        2.14329   0.00015  -0.00076   0.00163   0.00088   2.14417
    A4        1.57079  -0.00004   0.00161  -0.00156   0.00005   1.57084
    A5        1.83469   0.00014  -0.00321   0.00488   0.00167   1.83636
    D1       -0.08299  -0.00022  -0.01145   0.00191  -0.00954  -0.09252
    D2        2.02110  -0.00005  -0.02655  -0.00206  -0.02860   1.99250
    D3        0.13478  -0.00022  -0.02360  -0.00724  -0.03084   0.10394
    D4       -1.74582  -0.00010   0.00053  -0.00211  -0.00158  -1.74740
         Item               Value     Threshold  Converged?
 Maximum Force            0.001152     0.000450     NO 
 RMS     Force            0.000440     0.000300     NO 
 Maximum Displacement     0.034076     0.001800     NO 
 RMS     Displacement     0.016780     0.001200     NO 
 Predicted change in Energy=-7.462174D-06
 GradGradGradGradGradGradGradGradGradGradGradGradGradGradGradGradGradGrad

                          Input orientation:                          
 ---------------------------------------------------------------------
 Center     Atomic      Atomic             Coordinates (Angstroms)
 Number     Number       Type             X           Y           Z
 ---------------------------------------------------------------------
      1          8           0       -1.126965    0.646006    0.022619
      2          8           0       -0.948809   -0.648129    0.002017
      3          1           0        0.036082   -0.739208   -0.007037
      4          8           0        1.644311   -0.007863   -0.089982
      5          1           0        2.268172   -0.035236    0.641316
      6          1           0        1.246402    0.871667   -0.051040
 ---------------------------------------------------------------------
                    Distance matrix (angstroms):
                    1          2          3          4          5
     1  O    0.000000
     2  O    1.306503   0.000000
     3  H    1.808971   0.989135   0.000000
     4  O    2.849595   2.672579   1.768656   0.000000
     5  H    3.517646   3.336661   2.428613   0.961639   0.000000
     6  H    2.385209   2.670496   2.015373   0.966137   1.531614
                    6
     6  H    0.000000
 Stoichiometry    H3O3(2)
 Framework group  C1[X(H3O3)]
 Deg. of freedom    12
 Full point group                 C1      NOp   1
 Largest Abelian subgroup         C1      NOp   1
 Largest concise Abelian subgroup C1      NOp   1
                         Standard orientation:                         
 ---------------------------------------------------------------------
 Center     Atomic      Atomic             Coordinates (Angstroms)
 Number     Number       Type             X           Y           Z
 ---------------------------------------------------------------------
      1          8           0       -1.131119    0.644636    0.015772
      2          8           0       -0.951987   -0.649474    0.003846
      3          1           0        0.032975   -0.739871   -0.004335
      4          8           0        1.640677   -0.007886   -0.091721
      5          1           0        2.264358   -0.029915    0.639913
      6          1           0        1.242099    0.871584   -0.058750
 ---------------------------------------------------------------------
 Rotational constants (GHZ):          33.1967797           5.9414361           5.0928026
 Standard basis: Aug-CC-pVTZ (5D, 7F)
 There are   240 symmetry adapted cartesian basis functions of A   symmetry.
 There are   207 symmetry adapted basis functions of A   symmetry.
   207 basis functions,   297 primitive gaussians,   240 cartesian basis functions
    14 alpha electrons       13 beta electrons
       nuclear repulsion energy        74.9354002628 Hartrees.
 NAtoms=    6 NActive=    6 NUniq=    6 SFac= 1.00D+00 NAtFMM=   60 NAOKFM=F Big=F
 Integral buffers will be    131072 words long.
 Raffenetti 2 integral format.
 Two-electron integral symmetry is turned on.
 One-electron integrals computed using PRISM.
 NBasis=   207 RedAO= T EigKep=  1.64D-04  NBF=   207
 NBsUse=   207 1.00D-06 EigRej= -1.00D+00 NBFU=   207
 Initial guess from the checkpoint file:  "/gscratch/scrubbed/gds001/Gau-313621.chk"
 B after Tr=     0.000000   -0.000000   -0.000000
         Rot=    0.999998    0.001913    0.000119    0.000568 Ang=   0.23 deg.
 Initial guess <Sx>= 0.0000 <Sy>= 0.0000 <Sz>= 0.5000 <S**2>= 0.7646 S= 0.5073
 ExpMin= 2.53D-02 ExpMax= 1.53D+04 ExpMxC= 5.22D+02 IAcc=3 IRadAn=         5 AccDes= 0.00D+00
 Harris functional with IExCor=  205 and IRadAn=       5 diagonalized for initial guess.
 HarFok:  IExCor=  205 AccDes= 0.00D+00 IRadAn=         5 IDoV= 1 UseB2=F ITyADJ=14
 ICtDFT=  3500011 ScaDFX=  1.000000  1.000000  1.000000  1.000000
 FoFCou: FMM=F IPFlag=           0 FMFlag=      100000 FMFlg1=           0
         NFxFlg=           0 DoJE=T BraDBF=F KetDBF=T FulRan=T
         wScrn=  0.000000 ICntrl=       500 IOpCl=  0 I1Cent=   200000004 NGrid=           0
         NMat0=    1 NMatS0=      1 NMatT0=    0 NMatD0=    1 NMtDS0=    0 NMtDT0=    0
 Petite list used in FoFCou.
 Keep R1 and R2 ints in memory in canonical form, NReq=479315157.
 Requested convergence on RMS density matrix=1.00D-08 within 128 cycles.
 Requested convergence on MAX density matrix=1.00D-06.
 Requested convergence on             energy=1.00D-06.
 No special actions if energy rises.
 SCF Done:  E(UHF) =  -226.307711903     A.U. after   16 cycles
            NFock= 16  Conv=0.53D-08     -V/T= 2.0011
 <Sx>= 0.0000 <Sy>= 0.0000 <Sz>= 0.5000 <S**2>= 0.7646 S= 0.5073
 <L.S>= 0.000000000000E+00
 Annihilation of the first spin contaminant:
 S**2 before annihilation     0.7646,   after     0.7501
 ExpMin= 2.53D-02 ExpMax= 1.53D+04 ExpMxC= 5.22D+02 IAcc=3 IRadAn=         5 AccDes= 0.00D+00
 HarFok:  IExCor=  205 AccDes= 0.00D+00 IRadAn=         5 IDoV=-2 UseB2=F ITyADJ=14
 ICtDFT= 12500011 ScaDFX=  1.000000  1.000000  1.000000  1.000000
 Range of M.O.s used for correlation:     4   207
 NBasis=   207 NAE=    14 NBE=    13 NFC=     3 NFV=     0
 NROrb=    204 NOA=    11 NOB=    10 NVA=   193 NVB=   194

 **** Warning!!: The largest alpha MO coefficient is  0.16211216D+02


 **** Warning!!: The largest beta MO coefficient is  0.16048181D+02

 Fully direct method using O(ONN) memory.
 JobTyp=2 Pass  1:  I=   4 to  14 NPSUse= 32 ParTrn=T ParDer=T DoDerP=T.
 JobTyp=3 Pass  1:  I=   4 to  13 NPSUse= 32 ParTrn=T ParDer=T DoDerP=T.
 Spin components of T(2) and E(2):
     alpha-alpha T2 =       0.2226257653D-01 E2=     -0.9569686543D-01
     alpha-beta  T2 =       0.1258085266D+00 E2=     -0.5449581972D+00
     beta-beta   T2 =       0.2372188037D-01 E2=     -0.8827635140D-01
 (S**2,0)=  0.76457D+00           (S**2,1)=  0.75337D+00
 E(PUHF)=      -0.22631291689D+03        E(PMP2)=      -0.22703985963D+03
 ANorm=    0.1082493872D+01
 E2 =    -0.7289314141D+00 EUMP2 =    -0.22703664331673D+03
          IDoAtm=111111
          Differentiating once with respect to electric field.
                with respect to dipole field.
          Differentiating once with respect to nuclear coordinates.
 Keep R1 and R2 ints in memory in canonical form, NReq=479320098.
          There are     1 degrees of freedom in the 1st order CPHF.  IDoFFX=0 NUNeed=     1.
 LinEq1:  Iter=  0 NonCon=     1 RMS=2.45D-03 Max=6.91D-02 NDo=     1
 AX will form     1 AO Fock derivatives at one time.
 LinEq1:  Iter=  1 NonCon=     1 RMS=5.91D-04 Max=1.16D-02 NDo=     1
 LinEq1:  Iter=  2 NonCon=     1 RMS=3.20D-04 Max=8.03D-03 NDo=     1
 LinEq1:  Iter=  3 NonCon=     1 RMS=1.07D-04 Max=1.25D-03 NDo=     1
 LinEq1:  Iter=  4 NonCon=     1 RMS=4.31D-05 Max=6.72D-04 NDo=     1
 LinEq1:  Iter=  5 NonCon=     1 RMS=1.50D-05 Max=1.82D-04 NDo=     1
 LinEq1:  Iter=  6 NonCon=     1 RMS=4.46D-06 Max=8.84D-05 NDo=     1
 LinEq1:  Iter=  7 NonCon=     1 RMS=1.24D-06 Max=1.33D-05 NDo=     1
 LinEq1:  Iter=  8 NonCon=     1 RMS=4.69D-07 Max=4.87D-06 NDo=     1
 LinEq1:  Iter=  9 NonCon=     1 RMS=2.04D-07 Max=1.95D-06 NDo=     1
 LinEq1:  Iter= 10 NonCon=     1 RMS=5.63D-08 Max=7.51D-07 NDo=     1
 LinEq1:  Iter= 11 NonCon=     1 RMS=1.36D-08 Max=3.85D-07 NDo=     1
 LinEq1:  Iter= 12 NonCon=     1 RMS=4.68D-09 Max=1.35D-07 NDo=     1
 LinEq1:  Iter= 13 NonCon=     1 RMS=1.59D-09 Max=2.86D-08 NDo=     1
 LinEq1:  Iter= 14 NonCon=     1 RMS=3.80D-10 Max=3.84D-09 NDo=     1
 LinEq1:  Iter= 15 NonCon=     0 RMS=7.71D-11 Max=9.99D-10 NDo=     1
 Linear equations converged to 1.000D-10 1.000D-09 after    15 iterations.
 End of Minotr F.D. properties file   721 does not exist.
 End of Minotr F.D. properties file   722 does not exist.
 End of Minotr F.D. properties file   788 does not exist.
 Calling FoFJK, ICntrl=  10002127 FMM=F ISym2X=0 I1Cent= 0 IOpClX= 1 NMat=1 NMatS=1 NMatT=0.
 ***** Axes restored to original set *****
 -------------------------------------------------------------------
 Center     Atomic                   Forces (Hartrees/Bohr)
 Number     Number              X              Y              Z
 -------------------------------------------------------------------
      1        8           0.000097872    0.000401053   -0.000065768
      2        8          -0.000511166   -0.000361101    0.000035313
      3        1           0.000496360   -0.000093952   -0.000006182
      4        8          -0.000173290   -0.000321424   -0.000321618
      5        1           0.000175774    0.000118360    0.000168879
      6        1          -0.000085551    0.000257064    0.000189375
 -------------------------------------------------------------------
 Cartesian Forces:  Max     0.000511166 RMS     0.000262720

 GradGradGradGradGradGradGradGradGradGradGradGradGradGradGradGradGradGrad
 Berny optimization.
 Using GEDIIS/GDIIS optimizer.
 FormGI is forming the generalized inverse of G from B-inverse, IUseBI=4.
 Internal  Forces:  Max     0.000414908 RMS     0.000246299
 Search for a local minimum.
 Step number   4 out of a maximum of   24
 All quantities printed in internal units (Hartrees-Bohrs-Radians)
 Mixed Optimization -- En-DIIS/RFO-DIIS
 Swapping is turned off.
 Update second derivatives using D2CorX and points    1    2    3    4
 DE= -4.65D-06 DEPred=-7.46D-06 R= 6.24D-01
 TightC=F SS=  1.41D+00  RLast= 4.33D-02 DXNew= 5.0454D-01 1.3001D-01
 Trust test= 6.24D-01 RLast= 4.33D-02 DXMaxT set to 3.00D-01
 The second derivative matrix:
                          R1        R2        R3        R4        R5
           R1           0.51703
           R2           0.02459   0.50685
           R3          -0.03108  -0.00043   0.05759
           R4          -0.01161   0.01309  -0.00584   0.54880
           R5          -0.00440   0.01378  -0.00461   0.00863   0.54247
           A1           0.00627   0.00320  -0.00060  -0.00313  -0.00467
           A2          -0.08648  -0.00648  -0.01566  -0.01963  -0.01718
           A3           0.02930   0.00344   0.00480   0.00641   0.00574
           A4          -0.00415   0.00068  -0.00121  -0.00148  -0.00104
           A5           0.03782  -0.00146   0.00846   0.00837   0.00632
           D1           0.01083   0.00522  -0.00002   0.00063   0.00102
           D2          -0.00989  -0.00091  -0.00178  -0.00258  -0.00245
           D3           0.01883   0.00670   0.00112   0.00267   0.00310
           D4           0.00249   0.00162  -0.00031  -0.00079  -0.00063
                          A1        A2        A3        A4        A5
           A1           0.25519
           A2           0.02097   0.21778
           A3          -0.00445   0.00970   0.15736
           A4          -0.00332  -0.00442   0.00155   0.16011
           A5           0.00508   0.02378  -0.00799   0.00026   0.15084
           D1           0.00534  -0.00127   0.00173   0.00155  -0.00332
           D2           0.00922  -0.00187   0.00061  -0.00088   0.00318
           D3          -0.00317  -0.00112   0.00182   0.00251  -0.00601
           D4           0.00572  -0.00030   0.00063   0.00023  -0.00099
                          D1        D2        D3        D4
           D1           0.01715
           D2          -0.00007   0.00278
           D3           0.00676  -0.00073   0.01070
           D4           0.00273   0.00019   0.00286   0.01588
 ITU=  1  0  1  0
     Eigenvalues ---    0.00415   0.01712   0.04743   0.05423   0.12656
     Eigenvalues ---    0.15480   0.19936   0.26426   0.48900   0.53537
     Eigenvalues ---    0.55515   0.56540
 En-DIIS/RFO-DIIS/Sim-DIIS IScMMF=       -3 using points:     4    3    2
 RFO step:  Lambda=-4.96582363D-06.
 DidBck=T Rises=F RFO-DIIS coefs:    0.62168    0.40502   -0.02670
 Iteration  1 RMS(Cart)=  0.00716891 RMS(Int)=  0.00003784
 Iteration  2 RMS(Cart)=  0.00003461 RMS(Int)=  0.00000020
 Iteration  3 RMS(Cart)=  0.00000000 RMS(Int)=  0.00000020
 Variable       Old X    -DE/DX   Delta X   Delta X   Delta X     New X
                                 (Linear)    (Quad)   (Total)
    R1        2.46893   0.00038   0.00011  -0.00000   0.00011   2.46904
    R2        1.86919   0.00041  -0.00022   0.00081   0.00059   1.86978
    R3        3.34228  -0.00005   0.00057  -0.00167  -0.00110   3.34118
    R4        1.81723   0.00024  -0.00020   0.00054   0.00033   1.81757
    R5        1.82573   0.00028  -0.00022   0.00062   0.00039   1.82613
    A1        1.79992  -0.00038   0.00104  -0.00278  -0.00173   1.79819
    A2        2.62145  -0.00039   0.00063  -0.00200  -0.00136   2.62008
    A3        2.14417   0.00014  -0.00031   0.00096   0.00064   2.14481
    A4        1.57084  -0.00000  -0.00006  -0.00024  -0.00030   1.57054
    A5        1.83636  -0.00015  -0.00055   0.00022  -0.00033   1.83602
    D1       -0.09252   0.00017   0.00389   0.00131   0.00520  -0.08732
    D2        1.99250   0.00001   0.01148   0.00020   0.01168   2.00418
    D3        0.10394   0.00017   0.01225  -0.00010   0.01215   0.11609
    D4       -1.74740   0.00006   0.00059  -0.00022   0.00036  -1.74704
         Item               Value     Threshold  Converged?
 Maximum Force            0.000415     0.000450     YES
 RMS     Force            0.000246     0.000300     YES
 Maximum Displacement     0.015160     0.001800     NO 
 RMS     Displacement     0.007170     0.001200     NO 
 Predicted change in Energy=-2.483311D-06
 GradGradGradGradGradGradGradGradGradGradGradGradGradGradGradGradGradGrad

                          Input orientation:                          
 ---------------------------------------------------------------------
 Center     Atomic      Atomic             Coordinates (Angstroms)
 Number     Number       Type             X           Y           Z
 ---------------------------------------------------------------------
      1          8           0       -1.125327    0.646122    0.014941
      2          8           0       -0.949096   -0.648461    0.005200
      3          1           0        0.036116   -0.739396   -0.004315
      4          8           0        1.642594   -0.006057   -0.091106
      5          1           0        2.271181   -0.037786    0.636191
      6          1           0        1.243725    0.872814   -0.043017
 ---------------------------------------------------------------------
                    Distance matrix (angstroms):
                    1          2          3          4          5
     1  O    0.000000
     2  O    1.306559   0.000000
     3  H    1.808032   0.989446   0.000000
     4  O    2.845694   2.671856   1.768075   0.000000
     5  H    3.519936   3.337852   2.428584   0.961816   0.000000
     6  H    2.380580   2.669283   2.014706   0.966345   1.531726
                    6
     6  H    0.000000
 Stoichiometry    H3O3(2)
 Framework group  C1[X(H3O3)]
 Deg. of freedom    12
 Full point group                 C1      NOp   1
 Largest Abelian subgroup         C1      NOp   1
 Largest concise Abelian subgroup C1      NOp   1
                         Standard orientation:                         
 ---------------------------------------------------------------------
 Center     Atomic      Atomic             Coordinates (Angstroms)
 Number     Number       Type             X           Y           Z
 ---------------------------------------------------------------------
      1          8           0       -1.128888    0.645065    0.014978
      2          8           0       -0.952666   -0.649514    0.004516
      3          1           0        0.032541   -0.740448   -0.005481
      4          8           0        1.638983   -0.007071   -0.092618
      5          1           0        2.267892   -0.039165    0.634385
      6          1           0        1.240139    0.871777   -0.043916
 ---------------------------------------------------------------------
 Rotational constants (GHZ):          33.1854892           5.9515655           5.0992830
 Standard basis: Aug-CC-pVTZ (5D, 7F)
 There are   240 symmetry adapted cartesian basis functions of A   symmetry.
 There are   207 symmetry adapted basis functions of A   symmetry.
   207 basis functions,   297 primitive gaussians,   240 cartesian basis functions
    14 alpha electrons       13 beta electrons
       nuclear repulsion energy        74.9559163048 Hartrees.
 NAtoms=    6 NActive=    6 NUniq=    6 SFac= 1.00D+00 NAtFMM=   60 NAOKFM=F Big=F
 Integral buffers will be    131072 words long.
 Raffenetti 2 integral format.
 Two-electron integral symmetry is turned on.
 One-electron integrals computed using PRISM.
 NBasis=   207 RedAO= T EigKep=  1.64D-04  NBF=   207
 NBsUse=   207 1.00D-06 EigRej= -1.00D+00 NBFU=   207
 Initial guess from the checkpoint file:  "/gscratch/scrubbed/gds001/Gau-313621.chk"
 B after Tr=    -0.000000    0.000000   -0.000000
         Rot=    1.000000   -0.000760   -0.000084    0.000254 Ang=  -0.09 deg.
 Initial guess <Sx>= 0.0000 <Sy>= 0.0000 <Sz>= 0.5000 <S**2>= 0.7646 S= 0.5073
 Keep R1 and R2 ints in memory in canonical form, NReq=479315157.
 Requested convergence on RMS density matrix=1.00D-08 within 128 cycles.
 Requested convergence on MAX density matrix=1.00D-06.
 Requested convergence on             energy=1.00D-06.
 No special actions if energy rises.
 SCF Done:  E(UHF) =  -226.307646698     A.U. after   15 cycles
            NFock= 15  Conv=0.58D-08     -V/T= 2.0011
 <Sx>= 0.0000 <Sy>= 0.0000 <Sz>= 0.5000 <S**2>= 0.7646 S= 0.5073
 <L.S>= 0.000000000000E+00
[...]
 01390,-0.08603709,-0.00010272,0.00015554,-0.00005356,0.00000462,-0.000
 32536,0.00041846,-0.00082718,0.00042968,-0.00135394,0.06675498,-0.0220
 0455,0.11144151,-0.06660534,-0.00005171,-0.00005592,0.00004160,0.00016
 370,-0.00010437,0.00007432,-0.00036619,0.00043127,-0.00021252,-0.01852
 326,-0.04987868,0.01146424,0.02376205,0.04925225,0.00006779,-0.0000594
 2,0.00001597,-0.00066032,0.00001489,0.00007082,0.00020120,0.00024585,-
 0.00040656,0.11535651,0.00736963,0.09393938,-0.11432801,-0.00745571,-0
 .09377388,-0.00014452,-0.00009091,-0.00001914,-0.00049472,0.00031078,0
 .00018023,0.00102621,-0.00059357,-0.00044570,-0.00069098,-0.02896044,-
 0.00321371,0.00077564,-0.00498460,-0.00063717,-0.00047161,-0.00009129,
 -0.00008378,-0.00005215,0.00029073,0.00019541,0.00001916,-0.00014057,-
 0.00030183,-0.00024629,-0.03236025,0.04718201,0.00044919,-0.00201737,0
 .00035546,-0.00011524,0.03431874,-0.04734726,-0.00004336,0.00000993,0.
 00010630,0.00008195,0.00001937,-0.00001418,0.00007840,-0.00018705,-0.0
 0025223,-0.00812804,0.00412434,-0.00880410,0.00387555,-0.00391193,0.00
 015428,0.00413550,-0.00005466,0.00880993,0.00104348,0.00036490,-0.0175
 6956,-0.00143755,0.00116336,0.00230780,0.00198984,-0.00292007,0.001161
 33,-0.09377289,0.00300498,0.01867343,-0.00130632,0.00804546,-0.0146416
 0,0.00075438,-0.00112325,-0.00437602,0.00058530,0.00534719,0.03538122,
 -0.00133826,0.00228467,-0.00016865,0.09187607,-0.01100866,-0.00081470,
 -0.08865504,-0.00323976,-0.00068079,0.00027328,-0.00438108,-0.00453399
 ,-0.00430024,0.00783762,0.00235004,0.00043122,-0.00009534,0.00106401,-
 0.00211477,-0.00398001,-0.02995808,0.00088306,0.00361698,0.02820412,0.
 00005988,-0.00010620,-0.00003238,-0.00145716,0.00057039,-0.00010434,-0
 .00101648,-0.00160623,0.00001572,-0.25622370,0.00071417,-0.00118395,-0
 .00016335,-0.00222002,0.00042324,0.00101062,0.00008258,0.00242973,-0.0
 0156114,0.21354474,-0.09752045,0.00112871,-0.00032165,-0.00041798,-0.0
 0086961,0.00026947,-0.00114775,0.00330722,0.00005332,0.00340983,-0.522
 38249,-0.11993821,-0.27879408,-0.00013821,0.00053509,-0.00006148,0.001
 57503,-0.00049590,-0.00005445,-0.00177325,-0.00038543,0.00035404,0.236
 37930,-0.09185904,0.48141294,-0.23667888,-0.00077724,0.00074086,0.0002
 9253,0.00221643,-0.00020710,-0.00076990,-0.00154898,-0.00123820,0.0013
 5169,-0.07085934,-0.14165804,0.07315807,0.07985744,0.14939211,-0.00090
 269,0.00007836,0.00012355,0.00034554,-0.00002335,0.00105035,-0.0019852
 4,0.00029258,-0.00190324,0.50176861,0.05800706,0.35734153,-0.48172737,
 -0.05724431,-0.35522628,-0.00161669,-0.00015840,0.00053873,-0.00021088
 ,-0.00011627,-0.00036619,0.00090696,0.00177488,0.00043074,0.02225816,-
 0.12026242,0.03740322,0.00063602,-0.00888832,-0.01749885,-0.02197356,-
 0.00006704,0.00002002,-0.00025949,-0.00074072,0.00028604,-0.00016441,0
 .00235277,0.00167321,0.00066782,-0.14154337,0.23750946,0.04677899,0.01
 234783,-0.00702963,-0.00111034,0.12765052,-0.23245910,0.00002594,0.000
 29852,0.00129865,0.00089221,-0.00030698,-0.00094973,-0.00122169,0.0000
 6408,-0.00081665,0.02073487,0.06264502,-0.08039156,0.00007632,-0.01678
 807,-0.00138591,-0.02050765,-0.04591257,0.08224519,-0.00109375,0.00497
 054,-0.01780824,-0.00153259,0.00099959,0.00160787,0.00054482,-0.004211
 43,0.00026134,0.00260371,-0.00303046,0.01768464,-0.00093009,0.00506131
 ,-0.01524034,0.00063834,-0.00065470,-0.00105571,0.00065210,0.00107490,
 0.00054224,-0.00182372,0.00246488,-0.00025835,-0.00094088,-0.00222624,
 -0.00023088,0.00322151,-0.00155163,0.00036474,-0.00002482,-0.00007056,
 0.00103008,-0.00044918,0.00624646,0.00146354,-0.00047529,-0.00008521,0
 .00016876,-0.00029180,-0.00013442,0.00024256,0.00124826,0.00174665,-0.
 00323189,-0.00573918,0.00250874,-0.00028724,0.00900176,0.00191045,0.00
 058715,-0.00622339,-0.00728977,-0.00137818,0.00672343,0.00676421,-0.00
 283315,0.00071500,-0.00482200,-0.00020093,-0.00031785,0.00221273,0.001
 99746,-0.00042037,0.54018176,-0.74130637,-0.00031866,-0.00136174,0.000
 17079,-0.00125902,0.00071068,-0.00074095,0.00006063,0.00201770,0.00194
 268,-0.08619480,-0.12347590,0.10481459,-0.00021375,-0.00030608,0.00012
 358,-0.00061160,0.00021231,-0.00010351,0.00076675,0.00060227,0.0002356
 5,0.01703839,-0.02312921,0.03095218,-0.02248871,0.00050094,0.00040208,
 0.00004293,0.00027778,-0.00018868,-0.00026453,0.00015663,-0.00076217,0
 .00064480,-0.00890754,0.00079052,0.01870595,0.02507432,0.00187468,0.00
 080665,-0.00012612,0.00006355,-0.00032801,-0.00001452,0.00006904,0.000
 33365,0.00002841,-0.00026919,0.04408645,-0.00758951,0.03100482,-0.0458
 2390,0.00129464,-0.03136673,0.00832559,-0.00542666,0.00169326,-0.01059
 782,-0.00192738,-0.00154320,0.00499972,0.00206324,0.00066136,-0.020801
 02,-0.52120749,0.05675966,0.00550891,-0.01710213,0.00092515,0.01256462
 ,-0.00765359,0.00218992,-0.00080261,0.00376491,-0.00308477,0.00061137,
 -0.00885447,-0.00409364,-0.00175145,-0.52840365,0.74155247,0.10340331,
 -0.00245363,-0.00211643,0.00640709,0.54360042,-0.73444756,0.00088155,0
 .00122818,-0.00095523,0.00096538,-0.00070655,0.00094281,-0.00115332,-0
 .00331876,0.00114708,0.04318662,0.13108863,-0.13719193,0.01461600,-0.0
 2042378,0.00049850,-0.05849623,-0.10786772,0.13555878,-0.02813201,-0.0
 0128431,-0.01400039,0.00010935,-0.00274269,0.02250454,0.03616287,-0.01
 641153,0.00115719,-1.07544484,0.03634864,0.01770865,0.00300198,0.09171
 769,0.03729105,0.00275488,0.00209866,-0.03307475,-0.00950442,-0.002258
 48,0.38559968,-0.00818423,0.01866827,-0.00112835,1.03714982,-0.1298595
 7,0.00744542,-1.02670413,-0.03244478,-0.00469126,-0.00025987,-0.077740
 19,-0.05560813,0.00044946,0.11275492,0.05758238,-0.00252466,0.00031659
 ,0.01035981,0.00696445,-0.00065272,-0.35181716,-0.00078310,0.00362168,
 0.33031573,0.00087422,-0.00097755,-0.00013350,0.00194053,0.00250951,-0
 .00016543,0.00306394,-0.00184958,-0.00679245,-0.03908923,-0.00067658,0
 .00045244,0.00006460,0.00187960,-0.00039661,-0.00052061,-0.00142072,0.
 00195076,-0.00773751,0.01494414,-0.00648167,-0.00036066,0.00038048,-0.
 00095299,0.00215699,0.00005252,0.00164942,-0.00609555,-0.00410612,0.01
 131628,-0.04907929,-0.00005330,-0.05325552,-0.00004991,-0.00018519,-0.
 00011503,0.00060394,0.00048813,-0.00029605,-0.00513231,-0.00325099,0.0
 0357242,0.03021532,-0.00652918,0.05083163,-0.02597078,-0.00033158,-0.0
 0004806,0.00000284,0.00038635,0.00034618,-0.00026379,-0.00125378,-0.00
 084467,0.00411762,-0.00755542,-0.01394258,0.00186772,0.00947376,0.0150
 3396,-0.00006937,-0.00005013,-0.00011234,-0.00135715,-0.00020901,-0.00
 005723,0.00191808,0.00140835,-0.00124520,0.05557053,0.00282347,0.04814
 174,-0.05451824,-0.00367756,-0.04652796,-0.00067094,0.00019031,0.00011
 033,-0.00041232,-0.00120441,-0.00023438,-0.00019308,0.00253063,-0.0004
 3667,0.00299522,-0.00819727,0.00254689,0.00033374,-0.00071933,-0.00154
 387,-0.00205262,-0.00161140,0.00057861,-0.00006687,0.00016809,0.000658
 87,0.00049476,0.00111088,0.00161092,0.00033434,-0.00707110,0.01841766,
 0.00185870,0.00000347,-0.00054484,-0.00029513,0.00740007,-0.02072122,0
 .00009046,-0.00000292,0.00127573,0.00058293,0.00006571,-0.00229998,-0.
 00135651,-0.00111350,0.00107055,0.00060014,0.00542334,-0.00689893,0.00
 052527,-0.00204683,-0.00019901,-0.00044230,-0.00232581,0.00705164,-0.0
 7140104,-0.12649913,0.87081241,-0.00087642,0.00681500,-0.09736441,0.06
 343777,0.10764365,0.00074490,-0.15071789,0.11485485,-0.87578882,-0.006
 91361,-0.07364610,0.90444215,0.00083829,-0.00631066,0.09649349,-0.0006
 7542,0.00636170,-0.09209108,0.00772648,0.00422038,0.00013067,0.0799738
 3,-0.02388785,-0.00025289,-0.07828974,0.01324338,-0.00275683,0.0000088
 9,-0.03909382,-0.02108409,-0.00002730,0.02579335,0.02327945,0.00000894
 ,0.00001138,0.00106607,0.00006793,-0.00006065,-0.00541829,-0.00008123,
 0.00017460,0.00406122,0.00226563,0.00792703,-0.00002145,0.00362914,-0.
 01004659,0.00016221,-0.00632820,-0.00031556,-0.00053197,0.00384156,-0.
 00238964,0.00951256,0.00030214,0.00628237,-0.01014105,-0.00010510,-0.0
 0681571,0.00035853,-0.00082926,0.00521288,0.00442922,0.00005531,-0.001
 47979,-0.00069335,0.00021089,0.00172667,0.00021554,-0.00028162,-0.0001
 9474,0.00063607,0.00110907,0.00338023,0.00661486,0.00011150,-0.0003969
 2,-0.00008405,-0.00018639,0.00045263,-0.00009290,0.00029638,-0.0002317
 2,0.00054770,-0.00317851,0.00023675,-0.00000551,0.00383857,0.00011469,
 0.00082705,-0.00012964,0.00061713,-0.00098553,0.00007761,-0.00075938,-
 0.00030791,0.00058241,-0.00033286,-0.00312946,-0.00304514,0.00022718,0
 .00357236,-0.00009415,0.00024345,0.00002182,-0.00065928,-0.00033075,0.
 00024304,0.00090306,0.00008871,0.00016378,0.00024011,-0.00188428,-0.00
 242035,-0.00127476,0.00110831,0.00180822,-0.00214033,0.00710500,0.0001
 0635,0.00386355,-0.00772694,0.00002071,-0.00337875,0.00060437,-0.00001
 136,-0.00022964,-0.00252665,-0.00108815,-0.00088155,0.00013324,0.00088
 502,0.00276673,0.00067585,-0.00260637,-0.00008279,-0.00180323,0.003557
 35,0.00000376,0.00144921,0.00051086,0.00012153,-0.00244490,-0.00102979
 ,-0.00038722,-0.00028792,0.00002349,0.00077457,0.00241098,-0.00045554,
 0.00006803,0.00072063,0.00047640,0.00031098,-0.00078336,0.00055730,-0.
 00041800,-0.00005015,-0.00050885,-0.00095796,-0.00086373,-0.00435277,0
 .00090952,0.00140646,0.00018348,0.00008743,-0.00042985,0.00364443,-0.0
 6318608,-0.01923737,0.14202297,-0.00004356,0.00286478,-0.04725998,0.11
 973032,-0.05571282,-0.00193556,-1.01745482,0.10481122,-0.14916087,-0.0
 0314018,-0.02606663,0.23746384,-0.00102391,-0.00271265,0.04642188,0.00
 618466,0.00008927,0.01168399,-0.05985820,0.07909199,0.00179807,0.91025
 011,-0.07493324,-0.00532557,-0.85936066,-0.08722232,0.00646206,0.00012
 678,0.08025979,-0.08602137,0.00279222,0.01394251,0.08047169,0.00083017
 ,-0.00002925,0.00105692,-0.00321088,0.00349329,-0.05833413,-0.00018596
 ,-0.00274907,0.05583349,0.00227107,-0.00330778,0.00025724,-0.01248489,
 -0.00453884,-0.00016938,0.01224135,-0.00147892,0.00304122,-0.02630119,
 0.00127971,-0.00052887,0.00023443,-0.00011166,-0.00113017,-0.00003573,
 -0.00695217,0.00550822,-0.00112611,0.00873219,-0.02412504,-0.00011384,
 -0.00044887,0.00004968,-0.00218476,-0.00136959,0.00029424,0.00712785,0
 .00185143,-0.00202066,-0.02046912,-0.01317438,-0.02029237,0.00038925,-
 0.00041185,-0.00002533,-0.00147779,0.00015177,0.00009759,0.00348585,-0
 .00095939,-0.00021025,0.01485199,0.00412980,0.01850315,-0.01571303,0.0
 0065795,-0.00026553,-0.00010775,-0.00091882,-0.00082916,-0.00006653,0.
 00065946,-0.00260892,0.00081984,0.00523175,0.00045100,0.00580357,-0.00
 442929,0.00409685,0.00013469,0.00023766,-0.00007539,0.00174471,0.00139
 290,-0.00000572,-0.00498419,-0.00149443,0.00036927,0.02424497,0.002307
 67,0.02139958,-0.01991904,-0.00254484,-0.02094798,0.00065366,-0.000422
 17,-0.00005086,0.00143707,0.00057572,0.00023662,-0.00675846,-0.0045416
 6,-0.00026431,0.00942168,-0.00707785,-0.00286328,-0.00153627,-0.001201
 04,-0.00122114,-0.00321768,-0.00028919,0.00147026,0.00002195,0.0025501
 5,-0.00032227,-0.00006659,-0.01180855,-0.00381168,-0.00040869,-0.00463
 839,0.01982486,0.00733783,0.00151897,-0.00084425,0.00010104,0.01266702
 ,-0.01631692,0.00021644,0.00008833,-0.00019310,-0.00059816,-0.00046570
 ,-0.00006027,0.00156980,-0.00052693,0.00309510,-0.00690494,0.01179412,
 0.00056956,0.00155388,-0.00390428,-0.00073975,0.00416297,-0.00698554,-
 0.00267154,-0.00393999,0.00155831,0.00515248,0.00227088,-0.00127535,-0
 .00183826,0.00614315,-0.00418647,-0.00066969,-0.04650519,0.00210652,-0
 .00603919,0.00132795,-0.00281798,0.01157392,-0.00093446,0.00091090,0.0
 0222046,-0.00021014,-0.00107043,-0.00102410,-0.00453791,0.00467060,0.0
 0071907,0.04399366,0.00005110,0.00017578,-0.04303067,-0.00453265,0.001
 10594,0.00005798,0.00806423,-0.00418322,0.00030355,-0.00228180,0.00533
 476,0.00079441,0.00018332,-0.00041454,0.00032198,-0.00018025,-0.001158
 81,-0.00204666,-0.00276480,0.00100482,-0.00429809,0.00137486,0.0010648
 4,0.00054739,-0.00116971,-0.00074243,0.00193115,-0.00063750,0.00039695
 ,-0.25667322,0.00508163,-0.00105148,-0.00081278,-0.00311167,0.00018503
 ,0.00064824,0.00380972,0.00009725,-0.00125344,0.13642975,-0.55098214,-
 0.00361251,0.00103493,0.00077061,0.00258189,-0.00067720,-0.00016346,-0
 .00151334,0.00048958,-0.00085832,-0.23890106,-0.18706803,-0.35742964,0
 .00062934,-0.00075095,-0.00016635,-0.00042940,0.00068258,0.00032429,-0
 .00090384,0.00027176,-0.00043815,0.21747421,0.03658007,0.27777878,-0.2
 0833709,-0.00008066,-0.00024008,-0.00013696,-0.00009677,0.00012361,-0.
 00013191,-0.00039861,0.00001288,0.00086324,0.12687294,-0.03677718,0.12
 717376,-0.08070033,0.07122349,0.00165554,-0.00052823,-0.00022213,-0.00
 152625,0.00040683,0.00015753,0.00119866,0.00003674,-0.00011150,0.32985
 661,0.02697609,0.37848642,-0.29142213,-0.05668741,-0.35492581,0.006003
 52,-0.00266634,-0.00321875,-0.00374959,0.00114749,0.00138696,0.0025476
 1,-0.00088403,0.00097148,0.04101856,-0.17878950,-0.03633376,-0.0084332
 1,-0.04559658,-0.03976244,-0.03738688,-0.00413317,0.00107234,0.0008391
 7,0.00214867,-0.00166015,-0.00066034,-0.00585100,-0.00236760,0.0031519
 4,-0.26287035,0.58852852,0.05904696,0.04391687,-0.03434272,0.02979598,
 0.22678897,-0.55123039,-0.00017387,-0.00032557,-0.00051614,-0.00049779
 ,0.00019310,-0.00003160,0.00146649,0.00187696,0.00153835,-0.09167491,0
 .16150993,-0.02080561,0.01392357,-0.07108072,-0.02338451,0.07695650,-0
 .09217371,0.04319951,0.00197443,0.00156083,0.02306406,-0.00007319,-0.0
 0004061,0.02372086,-0.02097870,0.03680503,0.00029151,5.62949071,-0.035
 38919,0.00280229,0.00011420,-0.66729974,-0.99879321,-0.00040506,0.0002
 5595,-0.02544677,-0.01667012,0.00214297,-1.14077242,0.01000248,-0.0566
 8974,-0.00048974,-5.60204540,0.71993622,0.01644758,5.55438629,0.030239
 09,-0.04001296,-0.00029557,0.63843786,1.01041869,-0.00236156,-0.701519
 06,-0.96703633,0.00004991,0.00083957,0.00309237,0.01716165,-0.00363892
 ,1.16411283,-0.01678636,-0.00027541,-1.14916720,0.00458615,0.01602552,
 0.00029100,-0.00265098,-0.01545809,0.00040798,0.02125603,0.02642399,0.
 00170803,-0.00664629,0.00283459,0.01450593,0.00054888,-0.00617181,-0.0
 1307728,-0.00032523,0.03053397,-0.00304066,0.00884522,-0.02244911,0.02
 274569,0.00048399,-0.00148758,-0.00091191,-0.00185935,0.00284351,0.000
 96407,0.00348179,0.00510721,-0.01649476,-0.00317022,-0.01442703,0.0204
 4476,0.00103393,-0.00004434,-0.00015580,-0.00008539,0.00038830,0.00017
 374,-0.00067048,0.00198131,-0.00250820,-0.00288149,-0.00681698,0.00130
 182,0.00362042,0.00075982,0.00122334,-0.00025193,-0.00106348,-0.000932
 53,0.00028875,0.00540533,0.00472146,-0.00464089,-0.00424771,-0.0101643
 0,0.00765650,0.00189539,0.00352122,-0.00015776,-0.00037556,-0.00014216
 ,0.00044696,-0.00073243,0.00025128,-0.00257100,-0.00431757,0.00111561,
 0.00012403,0.00805524,-0.00659942,0.00102128,-0.00449755,0.00500098,0.
 00338173,0.00234271,0.00013622,-0.00373024,-0.00217750,0.00004587,0.01
 707109,0.00443681,0.00037497,-0.01366342,0.00206935,-0.00023803,-0.001
 01699,-0.00274934,0.00113650,-0.00204216,-0.00000514,-0.00158265,-0.00
 007498,-0.00070785,-0.00041796,-0.00000087,0.00233328,-0.00505020,-0.0
 0112957,-0.00029459,-0.01096937,0.00030739,0.00259633,0.00163080,0.001
 86786,-0.00392203,0.01638938,0.00010211,0.00080822,-0.00031239,0.00062
 936,-0.00072933,0.00089100,-0.00008227,0.00214290,-0.00265885,0.000639
 17,-0.00269708,0.00259727,0.00016716,0.00144512,0.00037371,-0.00145553
 ,-0.00096983,-0.00089074,-0.00069020,-0.00139191,-0.00282982,-0.000026
 10,0.00002240,0.00107955,-0.00118332,0.00026506,0.00000825,0.01667861,
 -0.00151978,0.00463974,0.00015536,-0.00301686,-0.01087163,0.00013671,0
 .00001299,-0.00135524,-0.00040339,-0.00006349,-0.00159625,-0.00082938,
 -0.00001996,0.00007258,-0.01789160,0.00142719,0.00040666,0.01971045,0.
 00048416,-0.00019178,-0.00002251,0.00288672,0.00290742,-0.00014899,-0.
 00286124,-0.00523435,-0.00009665,0.00003869,0.00064766,0.00032161,-0.0
 0023940,0.00321068,-0.00054710,0.00054459,-0.00423294,0.00013384,-0.00
 122296,-0.00002606,-0.00088029,-0.00054724,-0.00017361,0.00129094,0.00
 305773,0.00024691,0.63143687,0.00150053,0.00000283,-0.00008391,-0.0000
 5103,0.00101671,0.00003817,0.00028026,-0.00015292,0.00026577,-2.368451
 46,3.53657454,0.00027799,-0.00026100,0.00025058,0.00032650,0.00033934,
 0.00022816,-0.00001236,-0.00145420,-0.00103038,0.76284708,0.29596240,-
 0.27049060,0.00025957,-0.00002406,-0.00008224,-0.00002806,0.00051172,0
 .00003256,0.00052599,-0.00058175,-0.00004272,-0.51726069,0.07150420,-0
 .88307812,0.52384463,-0.00021113,0.00038760,0.00000357,0.00061341,-0.0
 0033612,-0.00002379,-0.00135505,0.00050921,-0.00005123,0.02403185,0.27
 483199,0.01211343,-0.06775916,-0.29418870,-0.00005706,0.00013703,-0.00
 011074,-0.00023228,0.00015113,-0.00014829,0.00045740,0.00028542,0.0005
 8554,-0.91396313,0.06847238,-0.69996488,0.92678074,-0.05673723,0.69193
 354,0.00230954,0.00239382,0.00005356,0.00330466,0.00314497,0.00000107,
 -0.00280640,-0.00298562,0.00011795,-0.11472067,2.29521751,0.11963889,-
 0.00734145,0.04468008,-0.01298566,0.11925433,0.00113813,-0.00200855,-0
 .00007491,-0.00069731,0.00264387,0.00018511,0.00252879,0.00216243,-0.0
 0055842,2.34313208,-3.81227314,-0.30669997,-0.00365094,0.01879602,-0.0
 1230873,-2.34245076,3.79067937,-0.00023489,0.00004988,-0.00051180,-0.0
 0002069,-0.00034294,-0.00033908,-0.00037718,0.00079570,0.00081943,0.15
 106880,-0.36465482,0.97100713,-0.04361022,0.04469525,0.00770482,-0.106
 82581,0.31945692,-0.97868051,-0.00083360,-0.00029224,-0.00051465,0.000
 08953,0.00006199,0.00088498,-0.00060279,0.00017936,0.00000987,0.000364
 97,-0.00088168,0.00114796,-0.00012619,-0.00012773,-0.00231386,-0.00001
 235,0.00001794,-0.00084244,0.00007492,0.00001721,0.00095279,-0.0003778
 8,0.00000105,-0.00012043,0.00027026,-0.00083077,0.00001160,-0.00214010
 ,0.00002967,0.00010620,-0.00004618,0.00044111,-0.00017204,0.00002604,-
 0.00090561,-0.00014460,-0.00006921,-0.00005805,0.00036460,-0.00033413,
 0.00011153,-0.00028857,0.00077619,0.00027049,0.00049698,0.00031904,-0.
 00049957,-0.00015098,0.00029439,0.00015047,0.00004637,0.00115741,0.001
 41307,-0.00032410,1.65341354,-0.00038601,0.00012775,0.00027220,0.00083
 494,0.00078504,-0.00047882,0.00093928,-0.00078312,0.00053675,-0.746927
 33,0.15051948,-0.00036541,0.00029551,0.00016258,-0.00030509,-0.0007567
 0,0.00070002,-0.00227082,-0.00068277,-0.00307962,3.10860024,0.14938735
 ,2.14537422,-0.00026306,0.00016620,-0.00009422,-0.00084108,-0.00009174
 ,0.00009107,0.00079422,-0.00027427,-0.00019499,-1.66228867,0.02091653,
 -3.16279100,1.65790326,0.00127531,-0.00024486,-0.00029686,-0.00102100,
 0.00039400,0.00030327,0.00042856,0.00013239,-0.00043918,0.01954066,1.0
 9236185,0.00200977,-0.02609701,-1.08356740,0.00090683,0.00003093,-0.00
 024463,0.00077268,0.00045895,-0.00043899,0.00115619,-0.00054688,0.0021
 1973,-3.16628739,0.00301920,-2.46343222,3.15347533,-0.00489094,2.44975
 923,0.00175830,0.00044521,0.00026622,0.00051426,0.00178146,-0.00021161
 ,0.00029608,-0.00070396,0.00014623,0.00710430,0.72462258,0.05713209,0.
 00469532,0.00587348,0.00997636,-0.01436826,0.00025496,-0.00062240,0.00
 013505,-0.00030668,0.00015890,0.00011437,0.00036748,0.00086118,-0.0004
 2154,0.72632270,-1.24301101,-0.15025316,0.00538030,-0.00907598,0.00192
 874,-0.73201877,1.25168932,-0.00054939,-0.00034831,-0.00032511,-0.0002
 1825,0.00029520,-0.00008281,0.00044727,0.00097930,0.00038688,0.0581158
 6,-0.15273668,0.32027503,0.00951381,0.00331393,0.01223687,-0.06730929,
 0.14849656,-0.33249087\\@


      TO SUSPECT YOUR OWN MORTALITY IS TO KNOW THE BEGINNING OF TERROR.
      TO LEARN IRREFUTABLY THAT YOU ARE MORTAL IS TO KNOW THE END
      OF TERROR.

                                                  -- JESSICA
                                                     CHILDREN OF DUNE
                                                     BY FRANK HERBERT
 Job cpu time:       7 days  7 hours 34 minutes 46.9 seconds.
 Elapsed time:       0 days  5 hours 37 minutes 10.7 seconds.
 File lengths (MBytes):  RWF=  12416 Int=      0 D2E=      0 Chk=     52 Scr=      8
 Normal termination of Gaussian 16 at Tue Nov 30 18:34:00 2021.
