 Entering Gaussian System, Link 0=g16
 Input=ho2_h2o_mp2_avdz_opt_anharm.gjf
 Output=ho2_h2o_mp2_avdz_opt_anharm.log
 Initial command:
 /sw/contrib/chem-src/g16/c01/g16/l1.exe "/scr/Gau-84710.inp" -scrdir="/scr/"
 Entering Link 1 = /sw/contrib/chem-src/g16/c01/g16/l1.exe PID=     84711.
  
 Copyright (c) 1988-2019, Gaussian, Inc.  All Rights Reserved.
  
 This is part of the Gaussian(R) 16 program.  It is based on
 the Gaussian(R) 09 system (copyright 2009, Gaussian, Inc.),
 the Gaussian(R) 03 system (copyright 2003, Gaussian, Inc.),
 the Gaussian(R) 98 system (copyright 1998, Gaussian, Inc.),
 the Gaussian(R) 94 system (copyright 1995, Gaussian, Inc.),
 the Gaussian 92(TM) system (copyright 1992, Gaussian, Inc.),
 the Gaussian 90(TM) system (copyright 1990, Gaussian, Inc.),
 the Gaussian 88(TM) system (copyright 1988, Gaussian, Inc.),
 the Gaussian 86(TM) system (copyright 1986, Carnegie Mellon
 University), and the Gaussian 82(TM) system (copyright 1983,
 Carnegie Mellon University). Gaussian is a federally registered
 trademark of Gaussian, Inc.
  
 This software contains proprietary and confidential information,
 including trade secrets, belonging to Gaussian, Inc.
  
 This software is provided under written license and may be
 used, copied, transmitted, or stored only in accord with that
 written license.
  
 The following legend is applicable only to US Government
 contracts under FAR:
  
                    RESTRICTED RIGHTS LEGEND
  
 Use, reproduction and disclosure by the US Government is
 subject to restrictions as set forth in subparagraphs (a)
 and (c) of the Commercial Computer Software - Restricted
 Rights clause in FAR 52.227-19.
  
 Gaussian, Inc.
 340 Quinnipiac St., Bldg. 40, Wallingford CT 06492
  
  
 ---------------------------------------------------------------
 Warning -- This program may not be used in any manner that
 competes with the business of Gaussian, Inc. or will provide
 assistance to any competitor of Gaussian, Inc.  The licensee
 of this program is prohibited from giving any competitor of
 Gaussian, Inc. access to this program.  By using this program,
 the user acknowledges that Gaussian, Inc. is engaged in the
 business of creating and licensing software in the field of
 computational chemistry and represents and warrants to the
 licensee that it is not a competitor of Gaussian, Inc. and that
 it will not use this program in any manner prohibited above.
 ---------------------------------------------------------------
  

 Cite this work as:
 Gaussian 16, Revision C.01,
 M. J. Frisch, G. W. Trucks, H. B. Schlegel, G. E. Scuseria, 
 M. A. Robb, J. R. Cheeseman, G. Scalmani, V. Barone, 
 G. A. Petersson, H. Nakatsuji, X. Li, M. Caricato, A. V. Marenich, 
 J. Bloino, B. G. Janesko, R. Gomperts, B. Mennucci, H. P. Hratchian, 
 J. V. Ortiz, A. F. Izmaylov, J. L. Sonnenberg, D. Williams-Young, 
 F. Ding, F. Lipparini, F. Egidi, J. Goings, B. Peng, A. Petrone, 
 T. Henderson, D. Ranasinghe, V. G. Zakrzewski, J. Gao, N. Rega, 
 G. Zheng, W. Liang, M. Hada, M. Ehara, K. Toyota, R. Fukuda, 
 J. Hasegawa, M. Ishida, T. Nakajima, Y. Honda, O. Kitao, H. Nakai, 
 T. Vreven, K. Throssell, J. A. Montgomery, Jr., J. E. Peralta, 
 F. Ogliaro, M. J. Bearpark, J. J. Heyd, E. N. Brothers, K. N. Kudin, 
 V. N. Staroverov, T. A. Keith, R. Kobayashi, J. Normand, 
 K. Raghavachari, A. P. Rendell, J. C. Burant, S. S. Iyengar, 
 J. Tomasi, M. Cossi, J. M. Millam, M. Klene, C. Adamo, R. Cammi, 
 J. W. Ochterski, R. L. Martin, K. Morokuma, O. Farkas, 
 J. B. Foresman, and D. J. Fox, Gaussian, Inc., Wallingford CT, 2019.
 
 ******************************************
 Gaussian 16:  EM64L-G16RevC.01  3-Jul-2019
                20-Mar-2025 
 ******************************************
 %nprocshared=40
 Will use up to   40 processors via shared memory.
 %mem=50gb
 ----------------------------------------------
 # MP2/aug-cc-pVDZ opt freq=(vibrot,anharmonic)
 ----------------------------------------------
 1/18=20,19=15,38=1,80=1/1,3;
 2/9=110,12=2,17=6,18=5,40=1/2;
 3/5=16,7=10,11=9,25=1,30=1,71=1/1,2,3;
 4//1;
 5/5=2,38=5/2;
 8/6=4,10=1/1;
 9/15=2,16=-3/6;
 10/5=1/2;
 6/7=2,8=2,9=2,10=2/1;
 7/12=2/1,2,3,16;
 1/18=20,19=15,80=1/3(2);
 2/9=110/2;
 99//99;
 2/9=110/2;
 3/5=16,7=10,11=9,25=1,30=1,71=1/1,2,3;
 4/5=5,16=3,69=1/1;
 5/5=2,38=5/2;
 8/6=4,10=1/1;
 9/15=2,16=-3/6;
 10/5=1/2;
 7/12=2/1,2,3,16;
 1/18=20,19=15,80=1/3(-8);
 2/9=110/2;
 6/7=2,8=2,9=2,10=2/1;
 99/9=10/99;
 ----
 blah
 ----
 Symbolic Z-matrix:
 Charge =  0 Multiplicity = 2
 O                    -1.13834   0.64844   0.01494 
 O                    -0.95678  -0.65403   0.00444 
 H                     0.03265  -0.74022  -0.00393 
 O                     1.64953  -0.00687  -0.09336 
 H                     2.27872  -0.03791   0.63921 
 H                     1.25343   0.87783  -0.04341 
 
 Add virtual bond connecting atoms O4         and H3         Dist= 3.36D+00.

 GradGradGradGradGradGradGradGradGradGradGradGradGradGradGradGradGradGrad
 Berny optimization.
 Initialization pass.
                           ----------------------------
                           !    Initial Parameters    !
                           ! (Angstroms and Degrees)  !
 --------------------------                            --------------------------
 ! Name  Definition              Value          Derivative Info.                !
 --------------------------------------------------------------------------------
 ! R1    R(1,2)                  1.3151         estimate D2E/DX2                !
 ! R2    R(2,3)                  0.9932         estimate D2E/DX2                !
 ! R3    R(3,4)                  1.7777         estimate D2E/DX2                !
 ! R4    R(4,5)                  0.9662         estimate D2E/DX2                !
 ! R5    R(4,6)                  0.9706         estimate D2E/DX2                !
 ! A1    A(1,2,3)              102.9171         estimate D2E/DX2                !
 ! A2    A(2,3,4)              150.5417         estimate D2E/DX2                !
 ! A3    A(3,4,5)              122.7456         estimate D2E/DX2                !
 ! A4    A(3,4,6)               90.1286         estimate D2E/DX2                !
 ! A5    A(5,4,6)              104.8337         estimate D2E/DX2                !
 ! D1    D(1,2,3,4)             -5.3729         estimate D2E/DX2                !
 ! D2    D(2,3,4,5)            114.9003         estimate D2E/DX2                !
 ! D3    D(2,3,4,6)              7.0921         estimate D2E/DX2                !
 ! D4    D(3,4,5,6)            -99.9671         estimate D2E/DX2                !
 --------------------------------------------------------------------------------
 Trust Radius=3.00D-01 FncErr=1.00D-07 GrdErr=1.00D-07 EigMax=2.50D+02 EigMin=1.00D-04
 Number of steps in this run=     24 maximum allowed number of steps=    100.
 GradGradGradGradGradGradGradGradGradGradGradGradGradGradGradGradGradGrad

                          Input orientation:                          
 ---------------------------------------------------------------------
 Center     Atomic      Atomic             Coordinates (Angstroms)
 Number     Number       Type             X           Y           Z
 ---------------------------------------------------------------------
      1          8           0       -1.138344    0.648440    0.014941
      2          8           0       -0.956784   -0.654031    0.004436
      3          1           0        0.032650   -0.740219   -0.003926
      4          8           0        1.649530   -0.006872   -0.093362
      5          1           0        2.278715   -0.037911    0.639210
      6          1           0        1.253426    0.877829   -0.043405
 ---------------------------------------------------------------------
                    Distance matrix (angstroms):
                    1          2          3          4          5
     1  O    0.000000
     2  O    1.315106   0.000000
     3  H    1.816578   0.993216   0.000000
     4  O    2.865904   2.687239   1.777666   0.000000
     5  H    3.540774   3.354250   2.439604   0.966177   0.000000
     6  H    2.403453   2.689593   2.027297   0.970613   1.534849
                    6
     6  H    0.000000
 Stoichiometry    H3O3(2)
 Framework group  C1[X(H3O3)]
 Deg. of freedom    12
 Full point group                 C1      NOp   1
 Largest Abelian subgroup         C1      NOp   1
 Largest concise Abelian subgroup C1      NOp   1
                         Standard orientation:                         
 ---------------------------------------------------------------------
 Center     Atomic      Atomic             Coordinates (Angstroms)
 Number     Number       Type             X           Y           Z
 ---------------------------------------------------------------------
      1          8           0       -1.138344    0.648440    0.014941
      2          8           0       -0.956784   -0.654031    0.004436
      3          1           0        0.032650   -0.740219   -0.003926
      4          8           0        1.649530   -0.006872   -0.093362
      5          1           0        2.278715   -0.037911    0.639210
      6          1           0        1.253426    0.877829   -0.043405
 ---------------------------------------------------------------------
 Rotational constants (GHZ):          32.7944304           5.8746567           5.0343857
 Standard basis: Aug-CC-pVDZ (5D, 7F)
 There are   102 symmetry adapted cartesian basis functions of A   symmetry.
 There are    96 symmetry adapted basis functions of A   symmetry.
    96 basis functions,   162 primitive gaussians,   102 cartesian basis functions
    14 alpha electrons       13 beta electrons
       nuclear repulsion energy        74.5061538695 Hartrees.
 NAtoms=    6 NActive=    6 NUniq=    6 SFac= 1.00D+00 NAtFMM=   60 NAOKFM=F Big=F
 Integral buffers will be    131072 words long.
 Raffenetti 2 integral format.
 Two-electron integral symmetry is turned on.
 One-electron integrals computed using PRISM.
 NBasis=    96 RedAO= T EigKep=  7.41D-04  NBF=    96
 NBsUse=    96 1.00D-06 EigRej= -1.00D+00 NBFU=    96
 ExpMin= 2.97D-02 ExpMax= 1.17D+04 ExpMxC= 4.01D+02 IAcc=3 IRadAn=         5 AccDes= 0.00D+00
 Harris functional with IExCor=  205 and IRadAn=       5 diagonalized for initial guess.
 HarFok:  IExCor=  205 AccDes= 0.00D+00 IRadAn=         5 IDoV= 1 UseB2=F ITyADJ=14
 ICtDFT=  3500011 ScaDFX=  1.000000  1.000000  1.000000  1.000000
 FoFCou: FMM=F IPFlag=           0 FMFlag=      100000 FMFlg1=           0
         NFxFlg=           0 DoJE=T BraDBF=F KetDBF=T FulRan=T
         wScrn=  0.000000 ICntrl=       500 IOpCl=  0 I1Cent=   200000004 NGrid=           0
         NMat0=    1 NMatS0=      1 NMatT0=    0 NMatD0=    1 NMtDS0=    0 NMtDT0=    0
 Petite list used in FoFCou.
 Initial guess <Sx>= 0.0000 <Sy>= 0.0000 <Sz>= 0.5000 <S**2>= 0.7500 S= 0.5000
 Keep R1 and R2 ints in memory in canonical form, NReq=30103551.
 Requested convergence on RMS density matrix=1.00D-08 within 128 cycles.
 Requested convergence on MAX density matrix=1.00D-06.
 Requested convergence on             energy=1.00D-06.
 No special actions if energy rises.
 SCF Done:  E(UHF) =  -226.251549832     A.U. after   22 cycles
            NFock= 22  Conv=0.31D-08     -V/T= 2.0011
 <Sx>= 0.0000 <Sy>= 0.0000 <Sz>= 0.5000 <S**2>= 0.7640 S= 0.5070
 <L.S>= 0.000000000000E+00
 Annihilation of the first spin contaminant:
 S**2 before annihilation     0.7640,   after     0.7501
 ExpMin= 2.97D-02 ExpMax= 1.17D+04 ExpMxC= 4.01D+02 IAcc=3 IRadAn=         5 AccDes= 0.00D+00
 HarFok:  IExCor=  205 AccDes= 0.00D+00 IRadAn=         5 IDoV=-2 UseB2=F ITyADJ=14
 ICtDFT= 12500011 ScaDFX=  1.000000  1.000000  1.000000  1.000000
 Range of M.O.s used for correlation:     4    96
 NBasis=    96 NAE=    14 NBE=    13 NFC=     3 NFV=     0
 NROrb=     93 NOA=    11 NOB=    10 NVA=    82 NVB=    83

 **** Warning!!: The largest alpha MO coefficient is  0.10611646D+02

 Fully direct method using O(ONN) memory.
 JobTyp=2 Pass  1:  I=   4 to  14 NPSUse= 40 ParTrn=T ParDer=T DoDerP=T.
 JobTyp=3 Pass  1:  I=   4 to  13 NPSUse= 40 ParTrn=T ParDer=T DoDerP=T.
 Spin components of T(2) and E(2):
     alpha-alpha T2 =       0.2110603234D-01 E2=     -0.8010920204D-01
     alpha-beta  T2 =       0.1170361067D+00 E2=     -0.4363832654D+00
     beta-beta   T2 =       0.2279863794D-01 E2=     -0.7655960029D-01
 (S**2,0)=  0.76395D+00           (S**2,1)=  0.75332D+00
 E(PUHF)=      -0.22625634185D+03        E(PMP2)=      -0.22684757784D+03
 ANorm=    0.1077469618D+01
 E2 =    -0.5930520677D+00 EUMP2 =    -0.22684460189960D+03
          IDoAtm=111111
          Differentiating once with respect to electric field.
                with respect to dipole field.
          Differentiating once with respect to nuclear coordinates.
 Keep R1 and R2 ints in memory in canonical form, NReq=30107174.
          There are     1 degrees of freedom in the 1st order CPHF.  IDoFFX=0 NUNeed=     1.
 LinEq1:  Iter=  0 NonCon=     1 RMS=3.95D-03 Max=9.10D-02 NDo=     1
 AX will form     1 AO Fock derivatives at one time.
 LinEq1:  Iter=  1 NonCon=     1 RMS=1.09D-03 Max=1.70D-02 NDo=     1
 LinEq1:  Iter=  2 NonCon=     1 RMS=5.91D-04 Max=1.08D-02 NDo=     1
 LinEq1:  Iter=  3 NonCon=     1 RMS=1.64D-04 Max=1.95D-03 NDo=     1
 LinEq1:  Iter=  4 NonCon=     1 RMS=6.41D-05 Max=4.95D-04 NDo=     1
 LinEq1:  Iter=  5 NonCon=     1 RMS=2.48D-05 Max=2.56D-04 NDo=     1
 LinEq1:  Iter=  6 NonCon=     1 RMS=1.02D-05 Max=1.12D-04 NDo=     1
 LinEq1:  Iter=  7 NonCon=     1 RMS=4.18D-06 Max=4.20D-05 NDo=     1
 LinEq1:  Iter=  8 NonCon=     1 RMS=8.57D-07 Max=9.74D-06 NDo=     1
 LinEq1:  Iter=  9 NonCon=     1 RMS=2.17D-07 Max=2.46D-06 NDo=     1
 LinEq1:  Iter= 10 NonCon=     1 RMS=6.90D-08 Max=1.38D-06 NDo=     1
 LinEq1:  Iter= 11 NonCon=     1 RMS=2.23D-08 Max=5.66D-07 NDo=     1
 LinEq1:  Iter= 12 NonCon=     1 RMS=6.36D-09 Max=9.40D-08 NDo=     1
 LinEq1:  Iter= 13 NonCon=     1 RMS=1.62D-09 Max=1.06D-08 NDo=     1
 LinEq1:  Iter= 14 NonCon=     1 RMS=3.33D-10 Max=3.73D-09 NDo=     1
 LinEq1:  Iter= 15 NonCon=     0 RMS=7.63D-11 Max=9.16D-10 NDo=     1
 Linear equations converged to 1.000D-10 1.000D-09 after    15 iterations.
 End of Minotr F.D. properties file   721 does not exist.
 End of Minotr F.D. properties file   722 does not exist.
 End of Minotr F.D. properties file   788 does not exist.

 **********************************************************************

            Population analysis using the SCF Density.

 **********************************************************************

 Orbital symmetries:
 Alpha Orbitals:
       Occupied  (A) (A) (A) (A) (A) (A) (A) (A) (A) (A) (A) (A)
                 (A) (A)
       Virtual   (A) (A) (A) (A) (A) (A) (A) (A) (A) (A) (A) (A)
                 (A) (A) (A) (A) (A) (A) (A) (A) (A) (A) (A) (A)
                 (A) (A) (A) (A) (A) (A) (A) (A) (A) (A) (A) (A)
                 (A) (A) (A) (A) (A) (A) (A) (A) (A) (A) (A) (A)
                 (A) (A) (A) (A) (A) (A) (A) (A) (A) (A) (A) (A)
                 (A) (A) (A) (A) (A) (A) (A) (A) (A) (A) (A) (A)
                 (A) (A) (A) (A) (A) (A) (A) (A) (A) (A)
 Beta  Orbitals:
       Occupied  (A) (A) (A) (A) (A) (A) (A) (A) (A) (A) (A) (A)
                 (A)
       Virtual   (A) (A) (A) (A) (A) (A) (A) (A) (A) (A) (A) (A)
                 (A) (A) (A) (A) (A) (A) (A) (A) (A) (A) (A) (A)
                 (A) (A) (A) (A) (A) (A) (A) (A) (A) (A) (A) (A)
                 (A) (A) (A) (A) (A) (A) (A) (A) (A) (A) (A) (A)
                 (A) (A) (A) (A) (A) (A) (A) (A) (A) (A) (A) (A)
                 (A) (A) (A) (A) (A) (A) (A) (A) (A) (A) (A) (A)
                 (A) (A) (A) (A) (A) (A) (A) (A) (A) (A) (A)
 The electronic state is 2-A.
 Alpha  occ. eigenvalues --  -20.68034 -20.65800 -20.61414  -1.57285  -1.39073
 Alpha  occ. eigenvalues --   -1.18719  -0.77685  -0.74348  -0.73787  -0.66439
 Alpha  occ. eigenvalues --   -0.62677  -0.55190  -0.50538  -0.49899
 Alpha virt. eigenvalues --    0.02819   0.05661   0.06945   0.14267   0.15841
 Alpha virt. eigenvalues --    0.18570   0.19821   0.21674   0.22429   0.23997
 Alpha virt. eigenvalues --    0.24309   0.25241   0.26697   0.29770   0.31951
 Alpha virt. eigenvalues --    0.35734   0.37977   0.38344   0.41827   0.45388
 Alpha virt. eigenvalues --    0.47808   0.50584   0.53695   0.54441   0.59523
 Alpha virt. eigenvalues --    0.64201   0.67165   0.75464   0.81116   0.86406
 Alpha virt. eigenvalues --    0.95694   0.98997   1.04446   1.05138   1.11031
 Alpha virt. eigenvalues --    1.12981   1.14201   1.17716   1.21883   1.23143
 Alpha virt. eigenvalues --    1.25261   1.28042   1.33003   1.34597   1.43679
 Alpha virt. eigenvalues --    1.45372   1.49226   1.55200   1.57230   1.63461
 Alpha virt. eigenvalues --    1.70539   1.81014   1.85511   1.97674   2.06933
 Alpha virt. eigenvalues --    2.13392   2.24067   2.29969   2.41119   2.44245
 Alpha virt. eigenvalues --    2.47063   2.59611   2.69841   2.70326   2.94250
 Alpha virt. eigenvalues --    3.05083   3.26407   3.29501   3.46216   3.52520
 Alpha virt. eigenvalues --    3.58777   3.66063   3.67855   3.68229   3.75353
 Alpha virt. eigenvalues --    3.79763   3.88646   3.90921   4.03455   4.20077
 Alpha virt. eigenvalues --    4.31855   4.38214
  Beta  occ. eigenvalues --  -20.64839 -20.63975 -20.61425  -1.50847  -1.39068
  Beta  occ. eigenvalues --   -1.08502  -0.76710  -0.72895  -0.63841  -0.62583
  Beta  occ. eigenvalues --   -0.55166  -0.54261  -0.46484
  Beta virt. eigenvalues --    0.02828   0.05687   0.06959   0.10542   0.14677
  Beta virt. eigenvalues --    0.16132   0.18686   0.20085   0.22214   0.22892
  Beta virt. eigenvalues --    0.24380   0.25308   0.26843   0.28172   0.30094
  Beta virt. eigenvalues --    0.32036   0.35832   0.38269   0.40123   0.42476
  Beta virt. eigenvalues --    0.45746   0.48403   0.50857   0.53894   0.54560
  Beta virt. eigenvalues --    0.59757   0.64258   0.67230   0.75543   0.81150
  Beta virt. eigenvalues --    0.86616   0.95896   1.00501   1.05296   1.07865
  Beta virt. eigenvalues --    1.11172   1.13802   1.15600   1.18011   1.23085
  Beta virt. eigenvalues --    1.24043   1.29450   1.33665   1.34076   1.37724
  Beta virt. eigenvalues --    1.44584   1.49172   1.50361   1.56054   1.57978
  Beta virt. eigenvalues --    1.63832   1.74604   1.81437   1.85659   1.97712
  Beta virt. eigenvalues --    2.07053   2.13510   2.24153   2.30126   2.41453
  Beta virt. eigenvalues --    2.44708   2.47843   2.59622   2.70015   2.71227
  Beta virt. eigenvalues --    2.94397   3.05128   3.31113   3.32881   3.47293
  Beta virt. eigenvalues --    3.60842   3.65209   3.67330   3.69784   3.70020
  Beta virt. eigenvalues --    3.76020   3.81014   3.92038   3.94510   4.03564
  Beta virt. eigenvalues --    4.21659   4.31854   4.39654
          Condensed to atoms (all electrons):
               1          2          3          4          5          6
     1  O    8.435682  -0.259109  -0.106405   0.010216   0.002355   0.007004
     2  O   -0.259109   8.294062   0.276919  -0.040718   0.001176  -0.011318
     3  H   -0.106405   0.276919   0.454582  -0.005037  -0.004370  -0.003082
     4  O    0.010216  -0.040718  -0.005037   7.793056   0.355422   0.339148
     5  H    0.002355   0.001176  -0.004370   0.355422   0.489373  -0.032765
     6  H    0.007004  -0.011318  -0.003082   0.339148  -0.032765   0.474375
          Atomic-Atomic Spin Densities.
               1          2          3          4          5          6
     1  O    1.034664  -0.111252  -0.009069   0.004512  -0.000053  -0.004896
     2  O   -0.111252   0.233257  -0.004350  -0.000445   0.000122  -0.000639
     3  H   -0.009069  -0.004350  -0.016301  -0.000509  -0.000114   0.002020
     4  O    0.004512  -0.000445  -0.000509  -0.002200   0.000572  -0.000813
     5  H   -0.000053   0.000122  -0.000114   0.000572  -0.000219  -0.000189
     6  H   -0.004896  -0.000639   0.002020  -0.000813  -0.000189   0.001000
 Mulliken charges and spin densities:
               1          2
     1  O   -0.089742   0.913907
     2  O   -0.261012   0.116695
     3  H    0.387394  -0.028321
     4  O   -0.452087   0.001116
     5  H    0.188808   0.000120
     6  H    0.226638  -0.003516
 Sum of Mulliken charges =  -0.00000   1.00000
 Mulliken charges and spin densities with hydrogens summed into heavy atoms:
               1          2
     1  O   -0.089742   0.913907
     2  O    0.126382   0.088373
     4  O   -0.036640  -0.002280
 Electronic spatial extent (au):  <R**2>=            234.1087
 Charge=             -0.0000 electrons
 Dipole moment (field-independent basis, Debye):
    X=              2.9246    Y=              0.7475    Z=              1.3082  Tot=              3.2898
 Quadrupole moment (field-independent basis, Debye-Ang):
   XX=            -17.4355   YY=            -16.8288   ZZ=            -17.3528
   XY=              0.7579   XZ=              3.4793   YZ=             -0.1693
 Traceless Quadrupole moment (field-independent basis, Debye-Ang):
   XX=             -0.2298   YY=              0.3769   ZZ=             -0.1471
   XY=              0.7579   XZ=              3.4793   YZ=             -0.1693
 Octapole moment (field-independent basis, Debye-Ang**2):
  XXX=             12.7865  YYY=              1.1135  ZZZ=              1.1033  XYY=              3.4829
  XXY=              1.6580  XXZ=              8.3786  XZZ=              1.2386  YZZ=              0.5965
  YYZ=              0.0401  XYZ=             -0.2696
 Hexadecapole moment (field-independent basis, Debye-Ang**3):
 XXXX=           -176.6758 YYYY=            -41.9039 ZZZZ=            -15.1621 XXXY=              0.0349
 XXXZ=             20.8290 YYYX=              0.7672 YYYZ=             -0.1410 ZZZX=              2.9645
 ZZZY=             -0.1117 XXYY=            -40.7572 XXZZ=            -31.9600 YYZZ=            -10.2039
 XXYZ=             -0.5367 YYXZ=              0.4340 ZZXY=             -0.6991
 N-N= 7.450615386952D+01 E-N=-6.861045405033D+02  KE= 2.260039832689D+02
                          Isotropic Fermi Contact Couplings
        Atom                 a.u.       MegaHertz       Gauss      10(-4) cm-1
     1  O(17)              0.19508    -118.25722     -42.19712     -39.44636
     2  O(17)              0.12701     -76.99027     -27.47204     -25.68119
     3  H(1)              -0.00853     -38.14236     -13.61014     -12.72292
     4  O(17)             -0.00304       1.84234       0.65739       0.61454
     5  H(1)              -0.00005      -0.22500      -0.08029      -0.07505
     6  H(1)               0.00007       0.29223       0.10428       0.09748
 --------------------------------------------------------
       Center         ----  Spin Dipole Couplings  ----
                      3XX-RR        3YY-RR        3ZZ-RR
 --------------------------------------------------------
     1   Atom       -1.391380     -1.614070      3.005449
     2   Atom       -0.817622     -0.732241      1.549863
     3   Atom        0.071970     -0.040321     -0.031649
     4   Atom        0.009919     -0.006200     -0.003719
     5   Atom        0.005886     -0.002763     -0.003123
     6   Atom        0.014743     -0.007010     -0.007733
 --------------------------------------------------------
                        XY            XZ            YZ
 --------------------------------------------------------
     1   Atom        0.037167      0.036026     -0.031087
     2   Atom       -0.023546      0.015715     -0.014826
     3   Atom       -0.024294     -0.000786      0.000124
     4   Atom       -0.002955      0.001663      0.000328
     5   Atom       -0.000486      0.001291     -0.000039
     6   Atom        0.005213     -0.000488     -0.000101
 --------------------------------------------------------


 ---------------------------------------------------------------------------------
              Anisotropic Spin Dipole Couplings in Principal Axis System
 ---------------------------------------------------------------------------------

       Atom             a.u.   MegaHertz   Gauss  10(-4) cm-1        Axes

              Baa    -1.6204   117.251    41.838    39.111 -0.1614  0.9869  0.0079
     1 O(17)  Bbb    -1.3856   100.258    35.774    33.442  0.9869  0.1615 -0.0070
              Bcc     3.0059  -217.508   -77.612   -72.553  0.0081 -0.0067  0.9999
 
              Baa    -0.8237    59.605    21.269    19.882  0.9686  0.2485 -0.0049
     2 O(17)  Bbb    -0.7263    52.556    18.753    17.531 -0.2484  0.9686  0.0080
              Bcc     1.5501  -112.162   -40.022   -37.413  0.0067 -0.0066  1.0000
 
              Baa    -0.0454   -24.198    -8.634    -8.071  0.2028  0.9792  0.0028
     3 H(1)   Bbb    -0.0317   -16.889    -6.027    -5.634  0.0066 -0.0042  1.0000
              Bcc     0.0770    41.087    14.661    13.705  0.9792 -0.2028 -0.0073
 
              Baa    -0.0069     0.496     0.177     0.165  0.1893  0.9611 -0.2012
     4 O(17)  Bbb    -0.0038     0.273     0.097     0.091 -0.0712  0.2178  0.9734
              Bcc     0.0106    -0.768    -0.274    -0.256  0.9793 -0.1699  0.1097
 
              Baa    -0.0033    -1.764    -0.629    -0.588 -0.1417 -0.0554  0.9884
     5 H(1)   Bbb    -0.0028    -1.488    -0.531    -0.496  0.0466  0.9970  0.0625
              Bcc     0.0061     3.252     1.160     1.085  0.9888 -0.0549  0.1387
 
              Baa    -0.0082    -4.373    -1.560    -1.459 -0.2220  0.9748 -0.0205
     6 H(1)   Bbb    -0.0077    -4.132    -1.474    -1.378  0.0160  0.0246  0.9996
              Bcc     0.0159     8.504     3.034     2.837  0.9749  0.2216 -0.0210
 

 ---------------------------------------------------------------------------------

 Calling FoFJK, ICntrl=  10002127 FMM=F ISym2X=0 I1Cent= 0 IOpClX= 1 NMat=1 NMatS=1 NMatT=0.
 ***** Axes restored to original set *****
 -------------------------------------------------------------------
 Center     Atomic                   Forces (Hartrees/Bohr)
 Number     Number              X              Y              Z
 -------------------------------------------------------------------
      1        8           0.000000031    0.000000202   -0.000000128
      2        8          -0.000000682    0.000000002    0.000000272
      3        1           0.000000605   -0.000000274   -0.000000329
      4        8          -0.000000097    0.000000053    0.000000407
      5        1          -0.000000219    0.000000166   -0.000000342
      6        1           0.000000362   -0.000000150    0.000000121
 -------------------------------------------------------------------
 Cartesian Forces:  Max     0.000000682 RMS     0.000000306

 GradGradGradGradGradGradGradGradGradGradGradGradGradGradGradGradGradGrad
 Berny optimization.
 FormGI is forming the generalized inverse of G from B-inverse, IUseBI=4.
 Internal  Forces:  Max     0.000000661 RMS     0.000000268
 Search for a local minimum.
 Step number   1 out of a maximum of   24
 All quantities printed in internal units (Hartrees-Bohrs-Radians)
 Mixed Optimization -- En-DIIS/RFO-DIIS
 Second derivative matrix not updated -- first step.
 The second derivative matrix:
                          R1        R2        R3        R4        R5
           R1           0.63167
           R2           0.00000   0.48901
           R3           0.00000   0.00000   0.06376
           R4           0.00000   0.00000   0.00000   0.54166
           R5           0.00000   0.00000   0.00000   0.00000   0.53252
           A1           0.00000   0.00000   0.00000   0.00000   0.00000
           A2           0.00000   0.00000   0.00000   0.00000   0.00000
           A3           0.00000   0.00000   0.00000   0.00000   0.00000
           A4           0.00000   0.00000   0.00000   0.00000   0.00000
           A5           0.00000   0.00000   0.00000   0.00000   0.00000
           D1           0.00000   0.00000   0.00000   0.00000   0.00000
           D2           0.00000   0.00000   0.00000   0.00000   0.00000
           D3           0.00000   0.00000   0.00000   0.00000   0.00000
           D4           0.00000   0.00000   0.00000   0.00000   0.00000
                          A1        A2        A3        A4        A5
           A1           0.16000
           A2           0.00000   0.25000
           A3           0.00000   0.00000   0.16000
           A4           0.00000   0.00000   0.00000   0.16000
           A5           0.00000   0.00000   0.00000   0.00000   0.16000
           D1           0.00000   0.00000   0.00000   0.00000   0.00000
           D2           0.00000   0.00000   0.00000   0.00000   0.00000
           D3           0.00000   0.00000   0.00000   0.00000   0.00000
           D4           0.00000   0.00000   0.00000   0.00000   0.00000
                          D1        D2        D3        D4
           D1           0.01118
           D2           0.00000   0.00230
           D3           0.00000   0.00000   0.00230
           D4           0.00000   0.00000   0.00000   0.01476
 ITU=  0
     Eigenvalues ---    0.00230   0.01118   0.04861   0.06376   0.13474
     Eigenvalues ---    0.16000   0.16000   0.25000   0.48901   0.53252
     Eigenvalues ---    0.54166   0.63167
 RFO step:  Lambda= 0.00000000D+00 EMin= 2.30000000D-03
 Linear search not attempted -- first point.
 Iteration  1 RMS(Cart)=  0.00001700 RMS(Int)=  0.00000000
 Iteration  2 RMS(Cart)=  0.00000000 RMS(Int)=  0.00000000
 Variable       Old X    -DE/DX   Delta X   Delta X   Delta X     New X
                                 (Linear)    (Quad)   (Total)
    R1        2.48519   0.00000   0.00000   0.00000   0.00000   2.48519
    R2        1.87691   0.00000   0.00000   0.00000   0.00000   1.87691
    R3        3.35930   0.00000   0.00000   0.00000   0.00000   3.35930
    R4        1.82581  -0.00000   0.00000  -0.00000  -0.00000   1.82581
    R5        1.83419  -0.00000   0.00000  -0.00000  -0.00000   1.83419
    A1        1.79624  -0.00000   0.00000  -0.00000  -0.00000   1.79624
    A2        2.62745  -0.00000   0.00000  -0.00000  -0.00000   2.62745
    A3        2.14232   0.00000   0.00000   0.00000   0.00000   2.14232
    A4        1.57304   0.00000   0.00000   0.00000   0.00000   1.57304
    A5        1.82969  -0.00000   0.00000  -0.00000  -0.00000   1.82969
    D1       -0.09378   0.00000   0.00000   0.00002   0.00002  -0.09375
    D2        2.00539  -0.00000   0.00000   0.00002   0.00002   2.00541
    D3        0.12378   0.00000   0.00000   0.00002   0.00002   0.12380
    D4       -1.74476  -0.00000   0.00000  -0.00000  -0.00000  -1.74476
         Item               Value     Threshold  Converged?
 Maximum Force            0.000001     0.000450     YES
 RMS     Force            0.000000     0.000300     YES
 Maximum Displacement     0.000036     0.001800     YES
 RMS     Displacement     0.000017     0.001200     YES
 Predicted change in Energy=-5.320628D-12
 Optimization completed.
    -- Stationary point found.
                           ----------------------------
                           !   Optimized Parameters   !
                           ! (Angstroms and Degrees)  !
 --------------------------                            --------------------------
 ! Name  Definition              Value          Derivative Info.                !
 --------------------------------------------------------------------------------
 ! R1    R(1,2)                  1.3151         -DE/DX =    0.0                 !
 ! R2    R(2,3)                  0.9932         -DE/DX =    0.0                 !
 ! R3    R(3,4)                  1.7777         -DE/DX =    0.0                 !
 ! R4    R(4,5)                  0.9662         -DE/DX =    0.0                 !
 ! R5    R(4,6)                  0.9706         -DE/DX =    0.0                 !
 ! A1    A(1,2,3)              102.9171         -DE/DX =    0.0                 !
 ! A2    A(2,3,4)              150.5417         -DE/DX =    0.0                 !
 ! A3    A(3,4,5)              122.7456         -DE/DX =    0.0                 !
 ! A4    A(3,4,6)               90.1286         -DE/DX =    0.0                 !
 ! A5    A(5,4,6)              104.8337         -DE/DX =    0.0                 !
 ! D1    D(1,2,3,4)             -5.3729         -DE/DX =    0.0                 !
 ! D2    D(2,3,4,5)            114.9003         -DE/DX =    0.0                 !
 ! D3    D(2,3,4,6)              7.0921         -DE/DX =    0.0                 !
 ! D4    D(3,4,5,6)            -99.9671         -DE/DX =    0.0                 !
 --------------------------------------------------------------------------------
 GradGradGradGradGradGradGradGradGradGradGradGradGradGradGradGradGradGrad

                          Input orientation:                          
 ---------------------------------------------------------------------
 Center     Atomic      Atomic             Coordinates (Angstroms)
 Number     Number       Type             X           Y           Z
 ---------------------------------------------------------------------
      1          8           0       -1.138344    0.648440    0.014941
      2          8           0       -0.956784   -0.654031    0.004436
      3          1           0        0.032650   -0.740219   -0.003926
      4          8           0        1.649530   -0.006872   -0.093362
      5          1           0        2.278715   -0.037911    0.639210
      6          1           0        1.253426    0.877829   -0.043405
 ---------------------------------------------------------------------
                    Distance matrix (angstroms):
                    1          2          3          4          5
     1  O    0.000000
     2  O    1.315106   0.000000
     3  H    1.816578   0.993216   0.000000
     4  O    2.865904   2.687239   1.777666   0.000000
     5  H    3.540774   3.354250   2.439604   0.966177   0.000000
     6  H    2.403453   2.689593   2.027297   0.970613   1.534849
                    6
     6  H    0.000000
 Stoichiometry    H3O3(2)
 Framework group  C1[X(H3O3)]
 Deg. of freedom    12
 Full point group                 C1      NOp   1
 Largest Abelian subgroup         C1      NOp   1
 Largest concise Abelian subgroup C1      NOp   1
                         Standard orientation:                         
 ---------------------------------------------------------------------
 Center     Atomic      Atomic             Coordinates (Angstroms)
 Number     Number       Type             X           Y           Z
 ---------------------------------------------------------------------
      1          8           0       -1.138344    0.648440    0.014941
      2          8           0       -0.956784   -0.654031    0.004436
      3          1           0        0.032650   -0.740219   -0.003926
      4          8           0        1.649530   -0.006872   -0.093362
      5          1           0        2.278715   -0.037911    0.639210
      6          1           0        1.253426    0.877829   -0.043405
 ---------------------------------------------------------------------
 Rotational constants (GHZ):          32.7944304           5.8746567           5.0343857
 Unable to Open any file for archive entry.
 1\1\GINC-N3040\FOpt\UMP2-FC\Aug-CC-pVDZ\H3O3(2)\GDS001\20-Mar-2025\0\\
 # MP2/aug-cc-pVDZ opt freq=(vibrot,anharmonic)\\blah\\0,2\O,-1.138344,
 0.64844,0.014941\O,-0.956784,-0.654031,0.004436\H,0.03265,-0.740219,-0
 .003926\O,1.64953,-0.006872,-0.093362\H,2.278715,-0.037911,0.63921\H,1
 .253426,0.877829,-0.043405\\Version=EM64L-G16RevC.01\State=2-A\HF=-226
 .2515498\MP2=-226.8446019\PUHF=-226.2563418\PMP2-0=-226.8475778\S2=0.7
 63951\S2-1=0.753315\S2A=0.750136\RMSD=3.060e-09\RMSF=3.060e-07\Dipole=
 1.1549597,0.0867794,0.4816608\PG=C01 [X(H3O3)]\\@
 The archive entry for this job was punched.


 THOSE WHO ARE UNABLE TO LEARN FROM PAST MEETINGS
 ARE CONDEMNED TO REPEAT THEM.
 Job cpu time:       0 days  0 hours  3 minutes 49.5 seconds.
 Elapsed time:       0 days  0 hours  0 minutes  7.4 seconds.
 File lengths (MBytes):  RWF=     10 Int=      0 D2E=      0 Chk=      2 Scr=      1
 Normal termination of Gaussian 16 at Thu Mar 20 21:44:22 2025.
 Link1:  Proceeding to internal job step number  2.
 ----------------------------------------------------------------------
 #N Geom=AllCheck Guess=TCheck SCRF=Check GenChk UMP2(FC)/Aug-CC-pVDZ F
 req
 ----------------------------------------------------------------------
 1/10=4,29=7,30=1,38=21,40=1,80=1/1,6,3;
 2/12=2,40=1/2;
 3/5=16,7=10,11=2,14=-4,25=1,30=1,70=2,71=2,116=2,140=1/1,2,3;
 4/5=101,69=2/1;
 5/5=2,38=6,98=1/2;
 8/6=3,8=1,10=1,19=11,30=-1/1;
 9/15=3,16=-3/6;
 11/6=1,8=1,15=11,17=12,24=-1,27=1,28=-2,29=300,32=6,42=3/1,2,10;
 10/6=2,21=1,60=-2/2;
 8/6=4,8=1,10=1,19=11,30=-1/11,4;
 10/5=1,20=4,60=-2/2;
 11/12=2,14=11,16=1,17=2,28=-2,42=3,76=2/2,10,12;
 6/7=2,8=2,9=2,10=2,22=-1/1;
 7/10=1,12=2,25=1,44=2,70=1,71=2/1,2,3,16;
 1/38=20,80=1/6(3);
 7/8=1,25=202,44=-1,70=1,71=1,92=10/16,17;
 1/10=4,30=1,38=20,80=1/3;
 99//99;
 3/5=16,7=10,11=2,14=-2,25=1,30=1,70=5,71=2,116=2,140=1/1,2,3;
 4/5=5,16=3,69=2/1;
 5/5=2,38=5,98=1/2;
 8/6=3,8=1,10=1,19=11,30=-1/1;
 9/15=3,16=-3/6;
 11/6=1,8=1,15=11,17=12,24=-1,27=1,28=-2,29=300,32=6,42=3/1,2,10;
 10/6=2,21=1,60=-2/2;
 8/6=4,8=1,10=1,19=11,30=-1/11,4;
 10/5=1,20=4,60=-2/2;
 11/12=2,14=11,16=1,17=2,28=-2,42=3,76=2/2,10,12;
 6/7=2,8=2,9=2,10=2,22=-1/1;
 7/7=1,10=1,12=2,25=1,44=2,70=1,71=1/1,2,3,16;
 1/38=20,80=1/6(-12);
 7/8=1,25=202,44=-1,70=1,71=1,92=10/16,17;
 1/10=4,30=1,38=20,80=1/3;
 99//99;
 Structure from the checkpoint file:  "/scr/Gau-84711.chk"
 ----
 blah
 ----
 Charge =  0 Multiplicity = 2
 Redundant internal coordinates found in file.  (old form).
 O,0,-1.138344,0.64844,0.014941
 O,0,-0.956784,-0.654031,0.004436
 H,0,0.03265,-0.740219,-0.003926
 O,0,1.64953,-0.006872,-0.093362
 H,0,2.278715,-0.037911,0.63921
 H,0,1.253426,0.877829,-0.043405
 Recover connectivity data from disk.
 Numerical evaluation of third derivatives.
 Nuclear step= 0.010000 Angstroms, electric field step= 0.000333 atomic units, NStep=1.

 GradGradGradGradGradGradGradGradGradGradGradGradGradGradGradGradGradGrad
 Berny optimization.
 Initialization pass.
                           ----------------------------
                           !    Initial Parameters    !
                           ! (Angstroms and Degrees)  !
 --------------------------                            --------------------------
 ! Name  Definition              Value          Derivative Info.                !
 --------------------------------------------------------------------------------
 ! R1    R(1,2)                  1.3151         calculate D2E/DX2 analytically  !
 ! R2    R(2,3)                  0.9932         calculate D2E/DX2 analytically  !
 ! R3    R(3,4)                  1.7777         calculate D2E/DX2 analytically  !
 ! R4    R(4,5)                  0.9662         calculate D2E/DX2 analytically  !
 ! R5    R(4,6)                  0.9706         calculate D2E/DX2 analytically  !
 ! A1    A(1,2,3)              102.9171         calculate D2E/DX2 analytically  !
 ! A2    A(2,3,4)              150.5417         calculate D2E/DX2 analytically  !
 ! A3    A(3,4,5)              122.7456         calculate D2E/DX2 analytically  !
 ! A4    A(3,4,6)               90.1286         calculate D2E/DX2 analytically  !
 ! A5    A(5,4,6)              104.8337         calculate D2E/DX2 analytically  !
 ! D1    D(1,2,3,4)             -5.3729         calculate D2E/DX2 analytically  !
 ! D2    D(2,3,4,5)            114.9003         calculate D2E/DX2 analytically  !
 ! D3    D(2,3,4,6)              7.0921         calculate D2E/DX2 analytically  !
 ! D4    D(3,4,5,6)            -99.9671         calculate D2E/DX2 analytically  !
 --------------------------------------------------------------------------------
 Trust Radius=3.00D-01 FncErr=1.00D-07 GrdErr=1.00D-07 EigMax=2.50D+02 EigMin=1.00D-04
 Number of steps in this run=      2 maximum allowed number of steps=      2.
 GradGradGradGradGradGradGradGradGradGradGradGradGradGradGradGradGradGrad

                          Input orientation:                          
 ---------------------------------------------------------------------
 Center     Atomic      Atomic             Coordinates (Angstroms)
 Number     Number       Type             X           Y           Z
 ---------------------------------------------------------------------
      1          8           0       -1.138344    0.648440    0.014941
      2          8           0       -0.956784   -0.654031    0.004436
      3          1           0        0.032650   -0.740219   -0.003926
      4          8           0        1.649530   -0.006872   -0.093362
      5          1           0        2.278715   -0.037911    0.639210
      6          1           0        1.253426    0.877829   -0.043405
 ---------------------------------------------------------------------
                    Distance matrix (angstroms):
                    1          2          3          4          5
     1  O    0.000000
     2  O    1.315106   0.000000
     3  H    1.816578   0.993216   0.000000
     4  O    2.865904   2.687239   1.777666   0.000000
     5  H    3.540774   3.354250   2.439604   0.966177   0.000000
     6  H    2.403453   2.689593   2.027297   0.970613   1.534849
                    6
     6  H    0.000000
 Stoichiometry    H3O3(2)
 Framework group  C1[X(H3O3)]
 Deg. of freedom    12
 Full point group                 C1      NOp   1
 Largest Abelian subgroup         C1      NOp   1
 Largest concise Abelian subgroup C1      NOp   1
                         Standard orientation:                         
 ---------------------------------------------------------------------
 Center     Atomic      Atomic             Coordinates (Angstroms)
 Number     Number       Type             X           Y           Z
 ---------------------------------------------------------------------
      1          8           0       -1.138344    0.648440    0.014941
      2          8           0       -0.956784   -0.654031    0.004436
      3          1           0        0.032650   -0.740219   -0.003926
      4          8           0        1.649530   -0.006872   -0.093362
      5          1           0        2.278715   -0.037911    0.639210
      6          1           0        1.253426    0.877829   -0.043405
 ---------------------------------------------------------------------
 Rotational constants (GHZ):          32.7944304           5.8746567           5.0343857
 Standard basis: Aug-CC-pVDZ (5D, 7F)
 There are   102 symmetry adapted cartesian basis functions of A   symmetry.
 There are    96 symmetry adapted basis functions of A   symmetry.
    96 basis functions,   162 primitive gaussians,   102 cartesian basis functions
    14 alpha electrons       13 beta electrons
       nuclear repulsion energy        74.5061538695 Hartrees.
 NAtoms=    6 NActive=    6 NUniq=    6 SFac= 1.00D+00 NAtFMM=   60 NAOKFM=F Big=F
 Integral buffers will be    131072 words long.
 Raffenetti 2 integral format.
 Two-electron integral symmetry is turned on.
 One-electron integrals computed using PRISM.
 NBasis=    96 RedAO= T EigKep=  7.41D-04  NBF=    96
 NBsUse=    96 1.00D-06 EigRej= -1.00D+00 NBFU=    96
 Initial guess from the checkpoint file:  "/scr/Gau-84711.chk"
 B after Tr=    -0.000000   -0.000000   -0.000000
         Rot=    1.000000    0.000000    0.000000   -0.000000 Ang=   0.00 deg.
 Initial guess <Sx>= 0.0000 <Sy>= 0.0000 <Sz>= 0.5000 <S**2>= 0.7640 S= 0.5070
 Keep R1 and R2 ints in memory in canonical form, NReq=30103551.
 Requested convergence on RMS density matrix=1.00D-08 within 128 cycles.
 Requested convergence on MAX density matrix=1.00D-06.
 Requested convergence on             energy=1.00D-06.
 No special actions if energy rises.
 SCF Done:  E(UHF) =  -226.251549832     A.U. after    1 cycles
            NFock=  1  Conv=0.35D-09     -V/T= 2.0011
 <Sx>= 0.0000 <Sy>= 0.0000 <Sz>= 0.5000 <S**2>= 0.7640 S= 0.5070
 <L.S>= 0.000000000000E+00
 Annihilation of the first spin contaminant:
 S**2 before annihilation     0.7640,   after     0.7501
 ExpMin= 2.97D-02 ExpMax= 1.17D+04 ExpMxC= 4.01D+02 IAcc=3 IRadAn=         5 AccDes= 0.00D+00
 HarFok:  IExCor=  205 AccDes= 0.00D+00 IRadAn=         5 IDoV=-2 UseB2=F ITyADJ=14
 ICtDFT= 12500011 ScaDFX=  1.000000  1.000000  1.000000  1.000000
 Range of M.O.s used for correlation:     4    96
 NBasis=    96 NAE=    14 NBE=    13 NFC=     3 NFV=     0
 NROrb=     93 NOA=    11 NOB=    10 NVA=    82 NVB=    83

 **** Warning!!: The largest alpha MO coefficient is  0.10611646D+02

 Disk-based method using ON**2 memory for 11 occupieds at a time.
 Permanent disk used for amplitudes=     1806337 words.
 Estimated scratch disk usage=    22897128 words.
 Actual    scratch disk usage=    21386728 words.
 JobTyp=2 Pass  1:  I=   4 to  14 NPSUse= 40 ParTrn=T ParDer=T DoDerP=T.
 (rs|ai) integrals will be sorted in core.
 Actual    scratch disk usage=    21386728 words.
 JobTyp=3 Pass  1:  I=   4 to  13 NPSUse= 40 ParTrn=T ParDer=T DoDerP=T.
 (rs|ai) integrals will be sorted in core.
 Spin components of T(2) and E(2):
     alpha-alpha T2 =       0.2110603231D-01 E2=     -0.8010920196D-01
     alpha-beta  T2 =       0.1170361058D+00 E2=     -0.4363832638D+00
     beta-beta   T2 =       0.2279863750D-01 E2=     -0.7655959953D-01
 (S**2,0)=  0.76395D+00           (S**2,1)=  0.75332D+00
 E(PUHF)=      -0.22625634185D+03        E(PMP2)=      -0.22684757784D+03
 ANorm=    0.1077469617D+01
 E2 =    -0.5930520653D+00 EUMP2 =    -0.22684460189722D+03
 G2DrvN: will do     7 centers at a time, making    1 passes.
 Calling FoFCou, ICntrl=  3107 FMM=F I1Cent=   0 AccDes= 0.00D+00.
 End of G2Drv F.D. properties file   721 does not exist.
 End of G2Drv F.D. properties file   722 does not exist.
 End of G2Drv F.D. properties file   788 does not exist.
          IDoAtm=111111
          Differentiating once with respect to electric field.
                with respect to dipole field.
          Differentiating once with respect to nuclear coordinates.
 Keep R1 and R2 ints in memory in canonical form, NReq=30104637.
          There are    21 degrees of freedom in the 1st order CPHF.  IDoFFX=6 NUNeed=    21.
     18 vectors produced by pass  0 Test12= 1.06D-14 4.76D-09 XBig12= 9.87D+00 1.05D+00.
 AX will form    18 AO Fock derivatives at one time.
     18 vectors produced by pass  1 Test12= 1.06D-14 4.76D-09 XBig12= 9.69D-01 1.59D-01.
     18 vectors produced by pass  2 Test12= 1.06D-14 4.76D-09 XBig12= 7.45D-02 5.63D-02.
     18 vectors produced by pass  3 Test12= 1.06D-14 4.76D-09 XBig12= 2.02D-03 8.00D-03.
     18 vectors produced by pass  4 Test12= 1.06D-14 4.76D-09 XBig12= 5.73D-05 1.80D-03.
     18 vectors produced by pass  5 Test12= 1.06D-14 4.76D-09 XBig12= 1.00D-06 2.33D-04.
     18 vectors produced by pass  6 Test12= 1.06D-14 4.76D-09 XBig12= 1.14D-08 1.43D-05.
     13 vectors produced by pass  7 Test12= 1.06D-14 4.76D-09 XBig12= 1.54D-10 2.29D-06.
      6 vectors produced by pass  8 Test12= 1.06D-14 4.76D-09 XBig12= 2.47D-12 1.90D-07.
      3 vectors produced by pass  9 Test12= 1.06D-14 4.76D-09 XBig12= 3.74D-14 2.65D-08.
 InvSVY:  IOpt=1 It=  1 EMax= 2.66D-15
 Solved reduced A of dimension   148 with    21 vectors.
 End of Minotr F.D. properties file   721 does not exist.
 End of Minotr F.D. properties file   722 does not exist.
 End of Minotr F.D. properties file   788 does not exist.
 MDV=  6710886400.
 Form MO integral derivatives with frozen-active canonical formalism.
 Discarding MO integrals.
 Reordered first order wavefunction length =      7330017
 In DefCFB: NBatch=  1 ICI= 14 ICA= 83 LFMax= 83
            Large arrays: LIAPS=    87227136 LIARS=    41483400 words.
 In DefCFB: NBatch=  1 ICI= 14 ICA= 83 LFMax= 83
            Large arrays: LIAPS=    87227136 LIARS=    41483400 words.
 Semi-Direct transformation.
 ModeAB=           2 MOrb=            14 LenV=    6710473846
 LASXX=      5541277 LTotXX=     5541277 LenRXX=     5541277
 LTotAB=     5833968 MaxLAS=     7060032 LenRXY=     7060032
 NonZer=    11082554 LenScr=    17369600 LnRSAI=           0
 LnScr1=           0 LExtra=           0 Total=     29970909
 MaxDsk=          -1 SrtSym=           F ITran=            4
 JobTyp=1 Pass  1:  I=   1 to  14.
 (rs|ai) integrals will be sorted in core.
 ModeAB=           2 MOrb=            13 LenV=    6710473846
 LASXX=      5188755 LTotXX=     5188755 LenRXX=     6555744
 LTotAB=     3981510 MaxLAS=     6555744 LenRXY=     3981510
 NonZer=    10377510 LenScr=    16343040 LnRSAI=           0
 LnScr1=           0 LExtra=           0 Total=     26880294
 MaxDsk=          -1 SrtSym=           F ITran=            4
 JobTyp=2 Pass  1:  I=   1 to  13.
 (rs|ai) integrals will be sorted in core.
 SymMOI:  orbitals are not symmetric.
 Spin components of T(2) and E(2):
     alpha-alpha T2 =       0.2110603231D-01 E2=     -0.8010920196D-01
     alpha-beta  T2 =       0.1170361058D+00 E2=     -0.4363832638D+00
     beta-beta   T2 =       0.2279863750D-01 E2=     -0.7655959953D-01
 ANorm=    0.1523772145D+01
 E2 =    -0.5930520653D+00 EUMP2 =    -0.22684460189722D+03
 (S**2,0)=  0.76395D+00           (S**2,1)=  0.75332D+00
 E(PUHF)=      -0.22625634185D+03        E(PMP2)=      -0.22684757784D+03
          IDoAtm=111111
          Differentiating once with respect to electric field.
                with respect to dipole field.
          Differentiating once with respect to nuclear coordinates.
          There are     1 degrees of freedom in the 1st order CPHF.  IDoFFX=0 NUNeed=     1.
 LinEq1:  Iter=  0 NonCon=     1 RMS=3.95D-03 Max=9.10D-02 NDo=     1
 LinEq1:  Iter=  1 NonCon=     1 RMS=1.09D-03 Max=1.70D-02 NDo=     1
 LinEq1:  Iter=  2 NonCon=     1 RMS=5.91D-04 Max=1.08D-02 NDo=     1
 LinEq1:  Iter=  3 NonCon=     1 RMS=1.64D-04 Max=1.95D-03 NDo=     1
 LinEq1:  Iter=  4 NonCon=     1 RMS=6.41D-05 Max=4.95D-04 NDo=     1
 LinEq1:  Iter=  5 NonCon=     1 RMS=2.48D-05 Max=2.56D-04 NDo=     1
 LinEq1:  Iter=  6 NonCon=     1 RMS=1.02D-05 Max=1.12D-04 NDo=     1
 LinEq1:  Iter=  7 NonCon=     1 RMS=4.18D-06 Max=4.20D-05 NDo=     1
 LinEq1:  Iter=  8 NonCon=     1 RMS=8.57D-07 Max=9.74D-06 NDo=     1
 LinEq1:  Iter=  9 NonCon=     1 RMS=2.17D-07 Max=2.46D-06 NDo=     1
 LinEq1:  Iter= 10 NonCon=     1 RMS=6.90D-08 Max=1.38D-06 NDo=     1
 LinEq1:  Iter= 11 NonCon=     1 RMS=2.23D-08 Max=5.66D-07 NDo=     1
 LinEq1:  Iter= 12 NonCon=     1 RMS=6.36D-09 Max=9.40D-08 NDo=     1
 LinEq1:  Iter= 13 NonCon=     1 RMS=1.62D-09 Max=1.06D-08 NDo=     1
 LinEq1:  Iter= 14 NonCon=     1 RMS=3.33D-10 Max=3.73D-09 NDo=     1
 LinEq1:  Iter= 15 NonCon=     0 RMS=7.63D-11 Max=9.16D-10 NDo=     1
 Linear equations converged to 1.000D-10 1.000D-09 after    15 iterations.
 End of Minotr F.D. properties file   721 does not exist.
 End of Minotr F.D. properties file   722 does not exist.
 End of Minotr F.D. properties file   788 does not exist.
 Symmetrizing basis deriv contribution to polar:
 IMax=3 JMax=2 DiffMx= 0.00D+00
 G2DrvN: will do     7 centers at a time, making    1 passes.
 Calling FoFCou, ICntrl=  3107 FMM=F I1Cent=   0 AccDes= 0.00D+00.
 End of G2Drv F.D. properties file   721 does not exist.
 End of G2Drv F.D. properties file   722 does not exist.
 End of G2Drv F.D. properties file   788 does not exist.
 R2 and R3 integrals will be kept in memory, NReq=    28419262.
 DD1Dir will call FoFMem   1 times, MxPair=       534
 NAB=   182 NAA=    91 NBB=    78.
 Discarding MO integrals.

 **********************************************************************

            Population analysis using the MP2 Density.

 **********************************************************************

 Orbital symmetries:
 Alpha Orbitals:
       Occupied  (A) (A) (A) (A) (A) (A) (A) (A) (A) (A) (A) (A)
                 (A) (A)
       Virtual   (A) (A) (A) (A) (A) (A) (A) (A) (A) (A) (A) (A)
                 (A) (A) (A) (A) (A) (A) (A) (A) (A) (A) (A) (A)
                 (A) (A) (A) (A) (A) (A) (A) (A) (A) (A) (A) (A)
                 (A) (A) (A) (A) (A) (A) (A) (A) (A) (A) (A) (A)
                 (A) (A) (A) (A) (A) (A) (A) (A) (A) (A) (A) (A)
                 (A) (A) (A) (A) (A) (A) (A) (A) (A) (A) (A) (A)
                 (A) (A) (A) (A) (A) (A) (A) (A) (A) (A)
 Beta  Orbitals:
       Occupied  (A) (A) (A) (A) (A) (A) (A) (A) (A) (A) (A) (A)
                 (A)
       Virtual   (A) (A) (A) (A) (A) (A) (A) (A) (A) (A) (A) (A)
                 (A) (A) (A) (A) (A) (A) (A) (A) (A) (A) (A) (A)
                 (A) (A) (A) (A) (A) (A) (A) (A) (A) (A) (A) (A)
                 (A) (A) (A) (A) (A) (A) (A) (A) (A) (A) (A) (A)
                 (A) (A) (A) (A) (A) (A) (A) (A) (A) (A) (A) (A)
                 (A) (A) (A) (A) (A) (A) (A) (A) (A) (A) (A) (A)
                 (A) (A) (A) (A) (A) (A) (A) (A) (A) (A) (A)
 The electronic state is 2-A.
 Alpha  occ. eigenvalues --  -20.68034 -20.65800 -20.61414  -1.57285  -1.39073
 Alpha  occ. eigenvalues --   -1.18719  -0.77685  -0.74348  -0.73787  -0.66439
 Alpha  occ. eigenvalues --   -0.62677  -0.55190  -0.50538  -0.49899
 Alpha virt. eigenvalues --    0.02819   0.05661   0.06945   0.14267   0.15841
 Alpha virt. eigenvalues --    0.18570   0.19821   0.21674   0.22429   0.23997
 Alpha virt. eigenvalues --    0.24309   0.25241   0.26697   0.29770   0.31951
 Alpha virt. eigenvalues --    0.35734   0.37977   0.38344   0.41827   0.45388
 Alpha virt. eigenvalues --    0.47808   0.50584   0.53695   0.54441   0.59523
 Alpha virt. eigenvalues --    0.64201   0.67165   0.75464   0.81116   0.86406
 Alpha virt. eigenvalues --    0.95694   0.98997   1.04446   1.05138   1.11031
 Alpha virt. eigenvalues --    1.12981   1.14201   1.17716   1.21883   1.23143
 Alpha virt. eigenvalues --    1.25261   1.28042   1.33003   1.34597   1.43679
 Alpha virt. eigenvalues --    1.45372   1.49226   1.55200   1.57230   1.63461
 Alpha virt. eigenvalues --    1.70539   1.81014   1.85511   1.97674   2.06933
 Alpha virt. eigenvalues --    2.13392   2.24067   2.29969   2.41119   2.44245
 Alpha virt. eigenvalues --    2.47063   2.59611   2.69841   2.70326   2.94250
 Alpha virt. eigenvalues --    3.05083   3.26407   3.29501   3.46216   3.52520
 Alpha virt. eigenvalues --    3.58777   3.66063   3.67855   3.68229   3.75353
 Alpha virt. eigenvalues --    3.79763   3.88646   3.90921   4.03455   4.20077
 Alpha virt. eigenvalues --    4.31855   4.38214
  Beta  occ. eigenvalues --  -20.64839 -20.63975 -20.61425  -1.50847  -1.39068
  Beta  occ. eigenvalues --   -1.08502  -0.76710  -0.72895  -0.63841  -0.62583
  Beta  occ. eigenvalues --   -0.55166  -0.54261  -0.46484
  Beta virt. eigenvalues --    0.02828   0.05687   0.06959   0.10542   0.14677
  Beta virt. eigenvalues --    0.16132   0.18686   0.20085   0.22214   0.22892
  Beta virt. eigenvalues --    0.24380   0.25308   0.26843   0.28172   0.30094
  Beta virt. eigenvalues --    0.32036   0.35832   0.38269   0.40123   0.42476
  Beta virt. eigenvalues --    0.45746   0.48403   0.50857   0.53894   0.54560
  Beta virt. eigenvalues --    0.59757   0.64258   0.67230   0.75543   0.81150
  Beta virt. eigenvalues --    0.86616   0.95896   1.00501   1.05296   1.07865
  Beta virt. eigenvalues --    1.11172   1.13802   1.15600   1.18011   1.23085
  Beta virt. eigenvalues --    1.24043   1.29450   1.33665   1.34076   1.37724
  Beta virt. eigenvalues --    1.44584   1.49172   1.50361   1.56054   1.57978
  Beta virt. eigenvalues --    1.63832   1.74604   1.81437   1.85659   1.97712
  Beta virt. eigenvalues --    2.07053   2.13510   2.24153   2.30126   2.41453
  Beta virt. eigenvalues --    2.44708   2.47843   2.59622   2.70015   2.71227
  Beta virt. eigenvalues --    2.94397   3.05128   3.31113   3.32881   3.47293
  Beta virt. eigenvalues --    3.60842   3.65209   3.67330   3.69784   3.70020
  Beta virt. eigenvalues --    3.76020   3.81014   3.92038   3.94510   4.03564
  Beta virt. eigenvalues --    4.21659   4.31854   4.39654
          Condensed to atoms (all electrons):
               1          2          3          4          5          6
     1  O    8.585710  -0.328452  -0.092886   0.002112   0.002070   0.014608
     2  O   -0.328452   8.258082   0.234290  -0.039935   0.001126  -0.010112
     3  H   -0.092886   0.234290   0.541824   0.014525  -0.004445  -0.007276
     4  O    0.002112  -0.039935   0.014525   7.719503   0.335948   0.318000
     5  H    0.002070   0.001126  -0.004445   0.335948   0.566068  -0.049840
     6  H    0.014608  -0.010112  -0.007276   0.318000  -0.049840   0.549346
          Atomic-Atomic Spin Densities.
               1          2          3          4          5          6
     1  O    0.835900  -0.147552  -0.007800   0.003179  -0.000152  -0.003505
     2  O   -0.147552   0.516761  -0.008415  -0.000012   0.000404  -0.001034
     3  H   -0.007800  -0.008415  -0.024736   0.001418  -0.000038   0.001454
     4  O    0.003179  -0.000012   0.001418  -0.003781   0.000470  -0.000263
     5  H   -0.000152   0.000404  -0.000038   0.000470  -0.000555   0.000052
     6  H   -0.003505  -0.001034   0.001454  -0.000263   0.000052  -0.000002
 Mulliken charges and spin densities:
               1          2
     1  O   -0.183163   0.680070
     2  O   -0.115000   0.360152
     3  H    0.313969  -0.038117
     4  O   -0.350152   0.001012
     5  H    0.149073   0.000181
     6  H    0.185273  -0.003298
 Sum of Mulliken charges =   0.00000   1.00000
 Mulliken charges and spin densities with hydrogens summed into heavy atoms:
               1          2
     1  O   -0.183163   0.680070
     2  O    0.198969   0.322036
     4  O   -0.015806  -0.002106
 APT charges:
               1
     1  O    0.060923
     2  O   -0.502405
     3  H    0.437030
     4  O   -0.569944
     5  H    0.274316
     6  H    0.300080
 Sum of APT charges =   0.00000
 APT charges with hydrogens summed into heavy atoms:
               1
     1  O    0.060923
     2  O   -0.065375
     4  O    0.004452
 Electronic spatial extent (au):  <R**2>=            235.4309
 Charge=             -0.0000 electrons
 Dipole moment (field-independent basis, Debye):
    X=              2.9356    Y=              0.2206    Z=              1.2243  Tot=              3.1883
 Quadrupole moment (field-independent basis, Debye-Ang):
   XX=            -18.1375   YY=            -17.2187   ZZ=            -18.0394
   XY=              1.1483   XZ=              3.3578   YZ=             -0.1733
 Traceless Quadrupole moment (field-independent basis, Debye-Ang):
   XX=             -0.3390   YY=              0.5798   ZZ=             -0.2408
   XY=              1.1483   XZ=              3.3578   YZ=             -0.1733
 Octapole moment (field-independent basis, Debye-Ang**2):
  XXX=             12.7253  YYY=              0.7304  ZZZ=              0.9706  XYY=              3.0703
  XXY=              0.7584  XXZ=              8.1495  XZZ=              1.2237  YZZ=              0.1495
  YYZ=              0.0182  XYZ=             -0.2689
 Hexadecapole moment (field-independent basis, Debye-Ang**3):
 XXXX=           -186.2385 YYYY=            -44.0231 ZZZZ=            -17.1381 XXXY=              0.4728
 XXXZ=             20.4280 YYYX=              0.7106 YYYZ=             -0.1469 ZZZX=              2.8347
 ZZZY=             -0.1249 XXYY=            -42.1425 XXZZ=            -33.9800 YYZZ=            -10.9081
 XXYZ=             -0.5427 YYXZ=              0.4084 ZZXY=             -0.3398
 N-N= 7.450615386952D+01 E-N=-6.854419933671D+02  KE= 2.262180958199D+02
  Exact polarizability:      24.037      -1.682      26.308       0.494      -0.024      17.628
 Approx polarizability:      16.313      -1.359      19.836       0.674       0.060      14.368
                          Isotropic Fermi Contact Couplings
        Atom                 a.u.       MegaHertz       Gauss      10(-4) cm-1
     1  O(17)              0.19508    -118.25721     -42.19711     -39.44636
     2  O(17)              0.12701     -76.99027     -27.47204     -25.68119
     3  H(1)              -0.00853     -38.14236     -13.61014     -12.72292
     4  O(17)             -0.00304       1.84235       0.65740       0.61454
     5  H(1)              -0.00005      -0.22500      -0.08029      -0.07505
     6  H(1)               0.00007       0.29224       0.10428       0.09748
 --------------------------------------------------------
       Center         ----  Spin Dipole Couplings  ----
                      3XX-RR        3YY-RR        3ZZ-RR
 --------------------------------------------------------
     1   Atom       -1.391380     -1.614070      3.005450
     2   Atom       -0.817622     -0.732241      1.549863
     3   Atom        0.071970     -0.040321     -0.031649
     4   Atom        0.009919     -0.006200     -0.003719
     5   Atom        0.005886     -0.002763     -0.003123
     6   Atom        0.014743     -0.007010     -0.007733
 --------------------------------------------------------
                        XY            XZ            YZ
 --------------------------------------------------------
     1   Atom        0.037167      0.036026     -0.031087
     2   Atom       -0.023546      0.015715     -0.014826
     3   Atom       -0.024294     -0.000786      0.000124
     4   Atom       -0.002955      0.001663      0.000328
     5   Atom       -0.000486      0.001291     -0.000039
     6   Atom        0.005213     -0.000488     -0.000101
 --------------------------------------------------------


 ---------------------------------------------------------------------------------
              Anisotropic Spin Dipole Couplings in Principal Axis System
 ---------------------------------------------------------------------------------

       Atom             a.u.   MegaHertz   Gauss  10(-4) cm-1        Axes

              Baa    -1.6204   117.251    41.838    39.111 -0.1614  0.9869  0.0079
     1 O(17)  Bbb    -1.3856   100.258    35.774    33.442  0.9869  0.1615 -0.0070
              Bcc     3.0059  -217.508   -77.612   -72.553  0.0081 -0.0067  0.9999
 
              Baa    -0.8237    59.605    21.269    19.882  0.9686  0.2485 -0.0049
     2 O(17)  Bbb    -0.7263    52.556    18.753    17.531 -0.2484  0.9686  0.0080
              Bcc     1.5501  -112.162   -40.022   -37.413  0.0067 -0.0066  1.0000
 
              Baa    -0.0454   -24.198    -8.634    -8.071  0.2028  0.9792  0.0028
     3 H(1)   Bbb    -0.0317   -16.889    -6.027    -5.634  0.0066 -0.0042  1.0000
              Bcc     0.0770    41.087    14.661    13.705  0.9792 -0.2028 -0.0073
 
              Baa    -0.0069     0.496     0.177     0.165  0.1893  0.9611 -0.2012
     4 O(17)  Bbb    -0.0038     0.273     0.097     0.091 -0.0712  0.2178  0.9734
              Bcc     0.0106    -0.768    -0.274    -0.256  0.9793 -0.1699  0.1097
 
              Baa    -0.0033    -1.764    -0.629    -0.588 -0.1417 -0.0554  0.9884
     5 H(1)   Bbb    -0.0028    -1.488    -0.531    -0.496  0.0466  0.9970  0.0625
              Bcc     0.0061     3.252     1.160     1.085  0.9888 -0.0549  0.1387
 
              Baa    -0.0082    -4.373    -1.560    -1.459 -0.2220  0.9748 -0.0205
     6 H(1)   Bbb    -0.0077    -4.132    -1.474    -1.378  0.0160  0.0246  0.9996
              Bcc     0.0159     8.504     3.034     2.837  0.9749  0.2216 -0.0210
 

 ---------------------------------------------------------------------------------

 Calling FoFJK, ICntrl=  10100127 FMM=F ISym2X=0 I1Cent= 0 IOpClX= 1 NMat=1 NMatS=1 NMatT=0.
 Full mass-weighted force constant matrix:
 Low frequencies ---   -0.0009    0.0005    0.0017    0.5537    0.6668    1.7236
 Low frequencies ---  117.7915  189.6928  258.5624
 Diagonal vibrational polarizability:
      149.0976730      29.8253398      20.9279641
 Harmonic frequencies (cm**-1), IR intensities (KM/Mole), Raman scattering
 activities (A**4/AMU), depolarization ratios for plane and unpolarized
 incident light, reduced masses (AMU), force constants (mDyne/A),
 and normal coordinates:
                      1                      2                      3
                      A                      A                      A
 Frequencies --    117.7915               189.6928               258.5624
 Red. masses --      3.2315                 1.0803                 2.9111
 Frc consts  --      0.0264                 0.0229                 0.1147
 IR Inten    --     37.8785                67.8403                24.0634
  Atom  AN      X      Y      Z        X      Y      Z        X      Y      Z
     1   8     0.31  -0.01  -0.01    -0.00  -0.00  -0.05    -0.02   0.01  -0.02
     2   8    -0.05  -0.05  -0.01    -0.01  -0.01   0.03     0.26   0.05   0.03
     3   1    -0.07  -0.32   0.03    -0.01  -0.01   0.05     0.29   0.29  -0.12
     4   8    -0.20   0.07   0.00    -0.03   0.03   0.01    -0.23  -0.04  -0.02
     5   1    -0.10   0.35  -0.08     0.54  -0.32  -0.49    -0.52  -0.58   0.20
     6   1    -0.74  -0.18   0.15     0.13   0.07   0.58     0.06   0.08   0.19
                      4                      5                      6
                      A                      A                      A
 Frequencies --    294.1316               461.0585               689.1114
 Red. masses --      1.4832                 1.3051                 1.0643
 Frc consts  --      0.0756                 0.1635                 0.2978
 IR Inten    --    135.3844                88.3547               145.0565
  Atom  AN      X      Y      Z        X      Y      Z        X      Y      Z
     1   8    -0.03   0.01   0.04     0.08  -0.02   0.01     0.01  -0.00   0.01
     2   8     0.08   0.03  -0.06    -0.06  -0.04  -0.00    -0.01  -0.00  -0.04
     3   1     0.09   0.09   0.30    -0.06  -0.04  -0.03     0.01   0.01   0.96
     4   8    -0.09  -0.07   0.06    -0.06   0.05   0.02     0.01   0.02  -0.04
     5   1     0.47   0.51  -0.40    -0.07  -0.22   0.01    -0.16  -0.17   0.10
     6   1     0.07   0.03  -0.46     0.77   0.43  -0.39     0.01   0.01   0.10
                      7                      8                      9
                      A                      A                      A
 Frequencies --   1264.0691              1573.0842              1622.7511
 Red. masses --     13.7301                 1.1085                 1.0798
 Frc consts  --     12.9260                 1.6162                 1.6753
 IR Inten    --     88.3322                80.8684                53.8344
  Atom  AN      X      Y      Z        X      Y      Z        X      Y      Z
     1   8     0.07  -0.64  -0.01     0.04  -0.04  -0.00    -0.01   0.01  -0.00
     2   8    -0.07   0.66   0.01    -0.05  -0.01   0.00     0.01   0.00   0.00
     3   1    -0.14  -0.35   0.01     0.05   0.96  -0.02    -0.02  -0.25  -0.00
     4   8     0.00   0.01   0.00     0.00  -0.02  -0.01    -0.02  -0.05  -0.04
     5   1    -0.00  -0.05  -0.00    -0.02   0.20   0.03    -0.16   0.62   0.16
     6   1     0.05   0.03  -0.04     0.04   0.01   0.17     0.42   0.15   0.55
                     10                     11                     12
                      A                      A                      A
 Frequencies --   3365.5709              3761.6618              3903.4275
 Red. masses --      1.0671                 1.0471                 1.0796
 Frc consts  --      7.1218                 8.7299                 9.6916
 IR Inten    --    541.7816                25.8006               106.3136
  Atom  AN      X      Y      Z        X      Y      Z        X      Y      Z
     1   8    -0.00   0.00  -0.00     0.00   0.00   0.00     0.00  -0.00  -0.00
     2   8    -0.06   0.00   0.00     0.00  -0.00   0.00    -0.00   0.00   0.00
     3   1     0.99  -0.11  -0.01    -0.05  -0.00  -0.00     0.00   0.00  -0.00
     4   8     0.00  -0.00  -0.00     0.00  -0.04  -0.02    -0.05   0.03  -0.04
     5   1     0.02   0.01   0.02     0.35  -0.05   0.38     0.56  -0.04   0.64
     6   1    -0.01   0.04   0.00    -0.36   0.77   0.01     0.20  -0.48  -0.04

 -------------------
 - Thermochemistry -
 -------------------
 Temperature   298.150 Kelvin.  Pressure   1.00000 Atm.
 Atom     1 has atomic number  8 and mass  15.99491
 Atom     2 has atomic number  8 and mass  15.99491
 Atom     3 has atomic number  1 and mass   1.00783
 Atom     4 has atomic number  8 and mass  15.99491
 Atom     5 has atomic number  1 and mass   1.00783
 Atom     6 has atomic number  1 and mass   1.00783
 Molecular mass:    51.00822 amu.
 Principal axes and moments of inertia in atomic units:
                           1         2         3
     Eigenvalues --    55.03194 307.20794 358.48290
           X            0.99976   0.01405   0.01681
           Y           -0.01401   0.99990  -0.00286
           Z           -0.01685   0.00263   0.99985
 This molecule is an asymmetric top.
 Rotational symmetry number  1.
 Rotational temperatures (Kelvin)      1.57388     0.28194     0.24161
 Rotational constants (GHZ):          32.79443     5.87466     5.03439
 Zero-point vibrational energy     104678.7 (Joules/Mol)
                                   25.01881 (Kcal/Mol)
 Warning -- explicit consideration of   5 degrees of freedom as
           vibrations may cause significant error
 Vibrational temperatures:    169.48   272.93   372.01   423.19   663.36
          (Kelvin)            991.48  1818.71  2263.32  2334.78  4842.31
                             5412.19  5616.16
 
 Zero-point correction=                           0.039870 (Hartree/Particle)
 Thermal correction to Energy=                    0.045274
 Thermal correction to Enthalpy=                  0.046218
 Thermal correction to Gibbs Free Energy=         0.011996
 Sum of electronic and zero-point Energies=           -226.804732
 Sum of electronic and thermal Energies=              -226.799328
 Sum of electronic and thermal Enthalpies=            -226.798384
 Sum of electronic and thermal Free Energies=         -226.832606
 
                     E (Thermal)             CV                S
                      KCal/Mol        Cal/Mol-Kelvin    Cal/Mol-Kelvin
 Total                   28.410             15.643             72.027
 Electronic               0.000              0.000              1.377
 Translational            0.889              2.981             37.711
 Rotational               0.889              2.981             23.320
 Vibrational             26.632              9.681              9.618
 Vibration     1          0.608              1.935              3.136
 Vibration     2          0.633              1.854              2.231
 Vibration     3          0.667              1.748              1.671
 Vibration     4          0.689              1.685              1.450
 Vibration     5          0.819              1.336              0.763
                       Q            Log10(Q)             Ln(Q)
 Total Bot       0.303644D-05         -5.517635        -12.704824
 Total V=0       0.662646D+13         12.821282         29.522092
 Vib (Bot)       0.380467D-17        -17.419682        -40.110301
 Vib (Bot)    1  0.173579D+01          0.239496          0.551461
 Vib (Bot)    2  0.105519D+01          0.023332          0.053723
 Vib (Bot)    3  0.751727D+00         -0.123940         -0.285381
 Vib (Bot)    4  0.648689D+00         -0.187963         -0.432802
 Vib (Bot)    5  0.368584D+00         -0.433464         -0.998087
 Vib (V=0)       0.830299D+01          0.919234          2.116615
 Vib (V=0)    1  0.230637D+01          0.362928          0.835673
 Vib (V=0)    2  0.166766D+01          0.222108          0.511422
 Vib (V=0)    3  0.140283D+01          0.147004          0.338489
 Vib (V=0)    4  0.131902D+01          0.120252          0.276891
 Vib (V=0)    5  0.112117D+01          0.049672          0.114374
 Electronic      0.200000D+01          0.301030          0.693147
 Translational   0.143190D+08          7.155914         16.477101
 Rotational      0.278679D+05          4.445103         10.235229

     ==================================================
      Anharmonic Data: Displacement Vectors Definition
     ==================================================

 Framework definition based on atomic masses: C1  

 **********************************************************************

                  Harmonic vibro-rotational analysis

 **********************************************************************


     ==================================================
               Analysis of the Rotor Symmetry
     ==================================================

 Framework Group : C1  
 Rotor Type      : Asymmetric Top
 Asymm. param.   : Kappa = -0.939462
 Inertia moments : X=    15.41051 , Y=    86.02699 , Z=   100.38544
 Representation  : IIIr Representation, Ix < Iy < Iz

 Axes Definition for the Symmetric-Top Representation
 ----------------------------------------------------
 Axis Z automatically chosen to be collinear with X from Eckart orient.
 NOTE: In Vibro-rotational analysis, this will be referred to as the
       spectroscopic orientation.

     ==================================================
        Vibro-Rotational Analysis Based on Symmetry
     ==================================================

 Input/Output information
 ------------------------
 Normal modes will be PRINTED in DESCENDING order (imag. freq. first)
   and sorted by irreducible representation
 The connection between this new numbering (A) and the one used before
   (H) is reported in the present equivalency table:
 ----+------+------+------+------+------+------+------+------+------+
 (H) |     1|     2|     3|     4|     5|     6|     7|     8|     9|
 (A) |    12|    11|    10|     9|     8|     7|     6|     5|     4|
 ----+------+------+------+------+------+------+------+------+------+
 ----+------+------+------+
 (H) |    10|    11|    12|
 (A) |     3|     2|     1|
 ----+------+------+------+

 Normal modes will be READ in ASCENDING order (imag. freq. first)

     ==================================================
                   Coriolis Couplings
     ==================================================

 Coriolis Couplings along the X axis
 -----------------------------------
                1             2             3             4             5 
      1   0.000000D+00
      2   0.218598D-02  0.000000D+00
      3  -0.641896D-02  0.000000D+00  0.000000D+00
      4  -0.664155D+00  0.172797D+00  0.120820D-01  0.000000D+00
      5  -0.204868D+00  0.491337D-01  0.161851D-01  0.773545D-02  0.000000D+00
      6   0.149547D-01 -0.218363D-02 -0.300811D-02 -0.749965D-02 -0.485433D-02
      7   0.459291D-01  0.159704D+00 -0.913213D-01 -0.944912D-01  0.896622D+00
      8   0.322068D+00 -0.187155D+00 -0.104074D-01 -0.188971D+00 -0.836843D-01
      9  -0.828581D-01 -0.487884D+00 -0.556355D-01 -0.467922D+00  0.113657D+00
     10  -0.134744D+00 -0.208509D+00 -0.207388D-01 -0.128802D+00  0.336625D-01
     11  -0.217174D-01  0.565720D+00  0.217082D-01 -0.195463D+00 -0.202781D-01
     12   0.140517D+00 -0.533566D-02  0.206722D-02 -0.278569D-01 -0.215066D-01
                6             7             8             9            10 
      6   0.000000D+00
      7  -0.220192D+00  0.000000D+00
      8  -0.149929D-01  0.173369D-01  0.000000D+00
      9  -0.255135D+00 -0.669802D-01 -0.601626D-02  0.000000D+00
     10  -0.953716D-01  0.148339D+00 -0.371309D-01  0.295455D-01  0.000000D+00
     11   0.200380D+00  0.136913D+00  0.319672D+00 -0.292209D+00 -0.235125D+00
     12   0.254603D-02 -0.168748D+00  0.898813D-02  0.000000D+00  0.855979D-02
               11            12 
     11   0.000000D+00
     12  -0.178842D+00  0.000000D+00

 Coriolis Couplings along the Y axis
 -----------------------------------
                1             2             3             4             5 
      1   0.000000D+00
      2   0.176991D-02  0.000000D+00
      3   0.000000D+00  0.000000D+00  0.000000D+00
      4  -0.311900D+00  0.860988D-01  0.590183D-02  0.000000D+00
      5  -0.662679D-01  0.380482D-01  0.160959D-01 -0.461523D-01  0.000000D+00
      6   0.107209D-02 -0.381742D-02  0.000000D+00  0.948124D-02  0.427977D-02
      7  -0.204993D+00 -0.135708D-01 -0.941656D+00 -0.301714D-01 -0.879974D-01
      8   0.461603D-01 -0.118826D+00  0.267305D-01  0.527066D+00  0.123388D+00
      9   0.572244D+00  0.171607D+00 -0.280468D+00  0.281744D+00 -0.305077D-01
     10   0.209142D+00  0.691261D-01 -0.845243D-01 -0.235309D-01 -0.428938D-01
     11   0.494147D+00  0.569441D+00  0.251957D-02 -0.135136D+00  0.563358D-01
     12  -0.550971D-01 -0.642634D-01  0.164409D-01  0.193121D+00  0.561561D-01
                6             7             8             9            10 
      6   0.000000D+00
      7   0.214073D-01  0.000000D+00
      8  -0.947615D-02  0.820566D-01  0.000000D+00
      9  -0.105142D-01  0.462818D-01  0.167935D+00  0.000000D+00
     10  -0.862884D-02 -0.140250D+00  0.120759D+00  0.204969D+00  0.000000D+00
     11   0.136232D-01  0.320583D-02 -0.365107D+00 -0.121892D+00  0.134291D+00
     12   0.194752D-02 -0.116499D-01 -0.668955D-01 -0.201775D+00 -0.764241D-01
               11            12 
     11   0.000000D+00
     12   0.353666D+00  0.000000D+00

 Coriolis Couplings along the Z axis
 -----------------------------------
                1             2             3             4             5 
      1   0.000000D+00
      2   0.000000D+00  0.000000D+00
      3   0.574178D-02  0.382184D-02  0.000000D+00
      4   0.575527D+00 -0.157934D+00 -0.245888D+00  0.000000D+00
      5   0.138079D+00 -0.151395D-01  0.904655D+00 -0.229072D-01  0.000000D+00
      6  -0.267560D-02 -0.443718D-02 -0.264569D+00  0.553162D-01 -0.209471D+00
      7  -0.103464D+00 -0.687820D-01  0.125320D-01  0.122058D+00  0.345061D-01
      8   0.272750D+00 -0.747985D+00 -0.383960D-01  0.409382D-01  0.110851D+00
      9   0.353305D+00  0.580011D-01  0.521725D-01 -0.315729D+00 -0.178216D+00
     10   0.863088D-01  0.274087D+00 -0.129397D+00 -0.192160D+00  0.116352D+00
     11  -0.834869D-01 -0.222523D+00 -0.235737D-01 -0.290277D+00 -0.875970D-01
     12   0.770709D-01 -0.341348D+00  0.129841D+00  0.980652D-01 -0.124633D+00
                6             7             8             9            10 
      6   0.000000D+00
      7   0.411902D-01  0.000000D+00
      8   0.361679D+00  0.403015D-01  0.000000D+00
      9  -0.255834D+00  0.907878D-02  0.167834D+00  0.000000D+00
     10   0.469293D+00 -0.374109D-01 -0.153437D+00  0.119511D+00  0.000000D+00
     11   0.334827D-01  0.143239D+00  0.105500D+00 -0.401454D+00 -0.190241D+00
     12  -0.578212D+00 -0.727298D-02 -0.163947D+00  0.939486D-01 -0.272560D+00
               11            12 
     11   0.000000D+00
     12  -0.139444D+00  0.000000D+00

   64 Coriolis couplings larger than .100D-02 along the X axis
   63 Coriolis couplings larger than .100D-02 along the Y axis
   65 Coriolis couplings larger than .100D-02 along the Z axis

     ==================================================
      Inertia Moments Derivatives w.r.t. Normal Modes
     ==================================================

 Units: amu^1/2.Ang

                 Ixx        Ixy        Iyy        Ixz        Iyz        Izz
 Q(     1)     0.08261   -0.30471    1.43193   -0.81551    0.09773   -0.30497
 Q(     2)     1.92202    0.63035    1.18834   -0.47227    0.00169    1.99822
 Q(     3)     0.18081    0.20543    2.07330   -0.00660   -0.01227    2.21058
 Q(     4)     0.91772   -0.32017   -0.47980    0.17483   -0.89980   -0.11647
 Q(     5)    -1.80221   -1.84961    0.14447    0.01625   -0.26615   -1.76950
 Q(     6)    -7.12628   -0.87126   -0.07304   -0.00276    0.08020   -7.19745
 Q(     7)     0.27906   -0.33752    0.18336    0.22676    0.25880    0.01931
 Q(     8)     1.16252   -3.97205   -2.47191   -0.05602    0.41594   -1.28741
 Q(     9)    -0.93677    1.96484   -3.84026   -0.71823   -0.71917   -3.70008
 Q(    10)     0.46440   -3.62282   12.38413    0.01936   -0.36498   13.21567
 Q(    11)    -0.51298   -0.40058    0.63761   -0.74282    0.48794    1.55300
 Q(    12)    -0.51617    3.58926   12.70162    0.38111    0.14655   12.04220

[...]
 .04948937,-0.00036598,0.00034986,-0.00000082,-0.00380959,0.00075054,0.
 00033070,0.00041666,-0.00197108,-0.00001933,0.05673807,-0.00076502,-0.
 00000151,0.00010910,-0.00012301,0.00102654,-0.00005394,0.00118756,-0.0
 0100808,-0.00009859,-0.00005264,-0.11124346,-0.00928659,-0.09361001,-0
 .00012629,0.00015704,-0.00007369,0.00011051,-0.00035921,0.00041025,-0.
 00145605,0.00028818,-0.00140987,0.06313327,-0.02470285,0.11409884,-0.0
 6235045,-0.00005259,-0.00005564,0.00002318,0.00023300,-0.00010324,0.00
 002687,-0.00055726,0.00040491,-0.00005901,-0.02118345,-0.04809730,0.00
 930692,0.02673929,0.04720445,0.00005570,-0.00004387,0.00002046,-0.0005
 8246,-0.00002867,0.00005798,0.00012485,0.00031841,-0.00039828,0.118034
 72,0.00481459,0.10102903,-0.11710400,-0.00496754,-0.10101599,-0.000160
 00,-0.00010056,-0.00004267,-0.00046980,0.00027639,0.00019143,0.0009379
 4,-0.00049275,-0.00038869,-0.00195053,-0.02827630,-0.00287233,0.000689
 01,-0.00517899,-0.00052881,0.00095338,-0.00006175,-0.00008875,-0.00003
 149,0.00021502,0.00017306,-0.00002611,-0.00014532,-0.00015169,-0.00017
 445,-0.03165770,0.04973300,0.00002310,-0.00212245,0.00064682,-0.000092
 91,0.03377220,-0.05031244,-0.00005704,0.00000999,0.00009764,0.00008003
 ,0.00001624,-0.00002231,0.00016594,-0.00015913,-0.00022578,-0.00790846
 ,0.00416145,-0.00843090,0.00407847,-0.00433042,0.00030680,0.00364107,0
 .00030186,0.00827455,0.00038409,0.00028154,-0.01468234,-0.00130344,0.0
 0120520,0.00234075,0.00264277,-0.00310633,0.00105564,-0.10508232,0.003
 42843,0.01571501,-0.00135086,0.00648982,-0.01090863,0.00054026,-0.0012
 1442,-0.00422727,0.00183601,0.00547480,0.03763516,-0.00146232,0.002445
 61,-0.00020378,0.10260359,-0.00976318,-0.00188292,-0.09956590,-0.00357
 160,-0.00067593,0.00026533,-0.00257877,-0.00521903,-0.00431684,0.00647
 045,0.00326992,0.00047544,-0.00001803,0.00105019,-0.00326652,-0.004060
 09,-0.03226692,0.00207317,0.00370042,0.03018751,-0.00013974,0.00004583
 ,0.00010201,-0.00140783,0.00055722,-0.00010985,-0.00042419,-0.00123066
 ,-0.00038755,-0.22826855,0.00045924,-0.00097626,-0.00004842,-0.0020247
 7,0.00029879,0.00088599,-0.00002307,0.00237328,-0.00155330,0.20661597,
 -0.09689480,0.00104516,-0.00043602,-0.00042999,-0.00081965,0.00037775,
 -0.00119727,0.00336534,0.00018359,0.00346630,-0.54206700,-0.10588757,-
 0.32213908,-0.00008878,0.00049996,-0.00014609,0.00146459,-0.00061500,0
 .00002263,-0.00209901,-0.00063146,0.00076704,0.21807055,-0.09846102,0.
 49780826,-0.21854730,-0.00060558,0.00060600,0.00018281,0.00193622,-0.0
 0016379,-0.00069536,-0.00127607,-0.00119522,0.00138209,-0.07879094,-0.
 13180736,0.06279501,0.08710688,0.14002026,-0.00082522,0.00013470,0.000
 19155,0.00040286,-0.00012861,0.00101048,-0.00225871,0.00013077,-0.0018
 1666,0.51818363,0.04655041,0.38916266,-0.49794157,-0.04658893,-0.38626
 118,-0.00133606,-0.00016662,0.00049566,-0.00022081,-0.00009730,-0.0004
 0613,0.00094784,0.00154204,0.00033842,0.01216978,-0.10656635,0.0406679
 0,0.00119995,-0.00837052,-0.01756098,-0.01276070,0.00000797,0.00001349
 ,-0.00025407,-0.00071617,0.00027763,-0.00013417,0.00214626,0.00144697,
 0.00054891,-0.12719742,0.22700633,0.04296724,0.01210062,-0.00745989,-0
 .00009834,0.11365874,-0.22128453,0.00006782,0.00032857,0.00107476,0.00
 079165,-0.00031299,-0.00095419,-0.00109309,0.00003672,-0.00062043,0.02
 427877,0.06005289,-0.06886261,-0.00051026,-0.01707563,-0.00228685,-0.0
 2353488,-0.04302956,0.07164933,-0.00234728,0.00445960,-0.01672711,-0.0
 0102870,0.00080052,0.00165628,0.00035357,-0.00414129,0.00016396,0.0018
 8262,-0.00326895,0.01692173,-0.00084654,0.00526519,-0.01470364,0.00025
 065,-0.00058751,-0.00112094,0.00064147,0.00113920,0.00075169,-0.001440
 25,0.00231293,-0.00020147,-0.00049755,-0.00237532,-0.00011424,0.002154
 78,-0.00161622,0.00036938,-0.00002185,0.00021249,0.00118890,-0.0003913
 9,0.00541001,0.00086157,-0.00014966,-0.00004324,0.00019601,-0.00033062
 ,-0.00031006,0.00021269,0.00087192,0.00140359,-0.00321202,-0.00573385,
 0.00295928,-0.00026867,0.00950009,0.00182621,0.00071166,-0.00610352,-0
 .00621302,-0.00132035,0.03751356,0.00580514,-0.00292729,0.00059629,-0.
 00467953,0.00001680,-0.00019675,0.00234630,0.00239306,-0.00063152,0.52
 199343,-0.77767657,-0.00028588,-0.00122963,0.00034194,-0.00095879,0.00
 069683,-0.00104259,-0.00021076,0.00175778,0.00206965,-0.09039006,-0.11
 174265,0.09600124,-0.00038517,-0.00021586,-0.00002267,-0.00043415,0.00
 022487,-0.00010571,0.00073409,0.00067964,0.00032230,0.01578766,-0.0222
 9896,0.03253615,-0.02075056,0.00036757,0.00035369,0.00003417,0.0002121
 2,-0.00017949,-0.00021309,0.00035285,-0.00084909,0.00058217,-0.0091345
 4,0.00183041,0.01846287,0.02491781,0.00020407,0.00074255,-0.00014917,0
 .00004547,-0.00036712,-0.00004839,0.00008880,0.00036175,0.00019595,-0.
 00016197,0.04527601,-0.00900279,0.03417980,-0.04698198,0.00290472,-0.0
 3512590,0.00955296,-0.00537466,0.00135755,-0.01080458,-0.00167201,-0.0
 0138384,0.00515245,0.00152710,0.00060640,-0.05096391,-0.50316638,0.059
 30934,0.00504814,-0.01671581,0.00096878,0.04201495,-0.00574713,0.00200
 958,-0.00056260,0.00313101,-0.00324432,0.00024954,-0.00804679,-0.00396
 382,-0.00100094,-0.51143136,0.77636359,0.09205480,-0.00330749,-0.00135
 959,0.00609968,0.52540175,-0.76980544,0.00047104,0.00120902,-0.0011187
 5,0.00085109,-0.00063103,0.00111035,-0.00070720,-0.00294409,0.00089565
 ,0.04599140,0.12097741,-0.13155002,0.01425190,-0.02177085,0.00097380,-
 0.06085823,-0.09684047,0.12968899,-0.02753525,-0.00184923,-0.01288116,
 0.00042091,-0.00266571,0.02155146,0.03635053,-0.01722167,0.00078291,-1
 .07848565,0.03669013,0.01656470,0.00269054,0.06655094,0.03910480,0.002
 47407,0.00198190,-0.03130394,-0.00262889,-0.00227733,0.37278688,-0.008
 54148,0.01961462,-0.00111633,1.04069684,-0.10528648,0.00152651,-1.0313
 4168,-0.03243778,-0.00450627,-0.00007665,-0.05039470,-0.05631154,0.000
 81375,0.08613535,0.05797851,-0.00257315,0.00049493,0.00922293,0.000039
 91,-0.00034941,-0.33907844,0.00500546,0.00284132,0.31584330,0.00073460
 ,-0.00073840,-0.00004939,0.00018324,0.00262482,-0.00011977,0.00540058,
 -0.00209642,-0.00763171,-0.04086322,-0.00080075,0.00030820,0.00019510,
 0.00057042,-0.00047022,0.00001217,-0.00074532,0.00263287,-0.00925276,0
 .01606664,-0.00746096,-0.00011544,0.00020205,-0.00066436,0.00217147,-0
 .00019224,-0.00011338,-0.00560324,-0.00348911,0.01418218,-0.05621328,0
 .00113302,-0.06440844,-0.00024347,-0.00004627,-0.00018411,0.00129106,0
 .00030722,-0.00093279,-0.00603762,-0.00340345,0.00557374,0.03187574,-0
 .00736086,0.05659519,-0.02718612,-0.00029378,-0.00012357,-0.00010570,0
 .00041561,0.00029250,-0.00060670,-0.00066422,-0.00054509,0.00532142,-0
 .00918625,-0.01401352,0.00062281,0.01049245,0.01508263,-0.00018318,-0.
 00003394,-0.00009114,-0.00095839,-0.00001871,-0.00002335,0.00140291,0.
 00101151,-0.00141604,0.06314462,0.00236746,0.05718606,-0.06155409,-0.0
 0302943,-0.05536907,-0.00076494,0.00024096,0.00014601,-0.00003600,-0.0
 0088663,-0.00031914,-0.00017664,0.00219699,-0.00041426,0.00266907,-0.0
 0773013,0.00316530,0.00030042,-0.00076381,-0.00185187,-0.00199190,-0.0
 0130858,0.00063809,-0.00003760,0.00007940,0.00081976,0.00007621,0.0009
 4604,0.00075152,0.00094449,-0.00667039,0.01900363,0.00172347,0.0000109
 1,-0.00069294,-0.00029689,0.00694262,-0.02052006,-0.00002323,0.0000207
 8,0.00128504,0.00059298,0.00014715,-0.00226777,-0.00121531,-0.00110083
 ,0.00124607,0.00086953,0.00554501,-0.00618204,0.00050207,-0.00220240,-
 0.00028647,-0.00072604,-0.00240970,0.00620517,-0.06695492,-0.16097441,
 1.00671512,-0.00130635,0.00864896,-0.10765384,0.06262336,0.14336474,0.
 00115145,-0.14924638,0.15103125,-1.01348022,-0.00854312,-0.11424622,1.
 04580994,0.00117603,-0.00839901,0.10763314,-0.00014155,0.00813312,-0.1
 0039842,0.00483468,0.00232247,0.00014610,0.07936174,-0.01917097,-0.001
 08958,-0.07484201,0.01178838,-0.00055017,-0.00020159,-0.03384748,-0.02
 480271,0.00031259,0.02250427,0.02443138,0.00004430,0.00030724,0.000257
 55,-0.00076477,-0.00021283,-0.00747652,0.00066065,0.00001853,0.0060052
 9,0.00096263,0.00873407,0.00008430,0.00426569,-0.01091138,0.00003578,-
 0.00661297,-0.00054389,-0.00028938,-0.00055258,-0.00190079,0.00920369,
 0.00022507,0.00501698,-0.00993205,-0.00015318,-0.00592625,0.00110279,-
 0.00048460,0.00166120,-0.00268128,0.00022265,-0.00138819,-0.00041676,-
 0.00049593,0.00145374,0.00013478,0.00044786,-0.00009646,0.00130012,0.0
 0135356,0.00026123,-0.00134098,0.00019331,-0.00027656,-0.00014228,0.00
 001780,0.00028438,0.00002279,-0.00015264,-0.00015703,0.00034873,0.0003
 0080,0.00057539,-0.00151874,-0.00019754,0.00005603,0.00081387,-0.00011
 882,0.00047042,-0.00103123,0.00011221,-0.00050708,-0.00012349,0.000327
 92,0.00006423,0.00254362,-0.00049024,-0.00058153,-0.00166016,-0.000131
 89,0.00017920,0.00005227,-0.00003100,-0.00008728,-0.00000795,0.0001068
 4,-0.00002845,-0.00001289,-0.00134274,0.00002251,-0.00079119,0.0013489
 6,0.00011635,0.00070288,-0.00165909,0.00682969,0.00006679,0.00297778,-
 0.00698706,-0.00000347,-0.00258880,0.00025574,0.00000046,0.00163645,0.
 00057347,-0.00000940,-0.00016173,0.00049793,0.00004983,-0.00020461,-0.
 00000046,-0.00270232,-0.00001050,-0.00075844,0.00343627,-0.00000573,0.
 00077755,-0.00005779,0.00004374,0.00099577,-0.00023678,0.00025992,0.00
 015535,-0.00054260,-0.00020233,-0.00116978,0.00010322,-0.00000474,0.00
 065180,0.00012764,0.00028180,-0.00074363,0.00011497,-0.00027187,-0.000
 00462,-0.00007356,0.00015849,0.00012896,0.00111405,-0.00005946,0.00005
 258,0.00005688,-0.00010422,-0.00008510,-0.00133998,-0.06015905,-0.0231
 0222,0.13633766,0.00008202,0.00291972,-0.04622799,0.11683272,-0.054305
 38,-0.00241996,-1.02124501,0.10809899,-0.14181598,-0.00374218,-0.04518
 668,0.22175653,-0.00170044,-0.00230029,0.04472248,0.01245031,0.0006646
 3,0.01187222,-0.05912774,0.08086110,0.00231119,0.91527125,-0.06048728,
 -0.01098434,-0.86314648,-0.08668273,0.00419749,0.00079294,0.09920879,-
 0.07712069,0.00155201,-0.00587404,0.07091659,0.00149569,-0.00054624,0.
 00146277,-0.00941531,0.00347856,-0.05591466,0.00571437,-0.00172718,0.0
 5195057,0.00206875,-0.00307731,0.00009962,-0.01126985,-0.00319323,0.00
 009773,0.01037530,-0.00208236,0.00244942,-0.03181665,0.00127056,-0.000
 17053,0.00006976,-0.00170725,-0.00220953,0.00039365,-0.00522767,0.0078
 5869,-0.00197203,0.00998717,-0.03566379,-0.00007155,-0.00045590,0.0001
 4422,-0.00174359,-0.00133560,-0.00025306,0.00622127,0.00144972,-0.0009
 0023,-0.02718780,-0.01698726,-0.03076642,0.00034209,-0.00041037,0.0000
 3993,-0.00157684,0.00002586,-0.00014215,0.00299510,-0.00103635,0.00015
 463,0.02095838,0.00507671,0.02616496,-0.02011190,0.00055209,-0.0001693
 3,-0.00006447,-0.00057636,-0.00055228,-0.00020721,0.00003794,-0.002930
 78,0.00108574,0.00757504,-0.00159194,0.00817770,-0.00633336,0.00702461
 ,0.00007601,0.00025071,-0.00007357,0.00162209,0.00133127,-0.00001675,-
 0.00462814,-0.00129977,0.00068914,0.03299659,0.00254949,0.03185764,-0.
 02760664,-0.00366635,-0.03111682,0.00004319,0.00003419,-0.00011279,0.0
 0198775,0.00074234,0.00027889,-0.00636743,-0.00353331,-0.00039881,0.00
 968410,-0.00939952,-0.00338329,-0.00260683,-0.00125535,-0.00245992,-0.
 00274078,-0.00013668,0.00162067,0.00002422,0.00256689,-0.00005807,-0.0
 0010280,-0.00931005,-0.00292130,-0.00031885,-0.00920932,0.03177710,0.0
 0915134,0.00267752,-0.00178028,0.00083464,0.01341165,-0.02863811,0.000
 11827,0.00013199,-0.00002793,-0.00049354,-0.00039668,-0.00041022,0.001
 36565,-0.00076773,0.00271241,-0.00845556,0.01594639,-0.00008212,0.0013
 8927,-0.00532542,-0.00133965,0.00607591,-0.00958855,-0.00085249,-0.005
 32824,0.00037845,0.00949007,0.00191082,-0.00098184,-0.00298761,0.00878
 886,-0.00531749,-0.00058737,-0.07207676,0.00524952,-0.01048465,0.00109
 738,-0.00556082,0.01766859,-0.00077364,0.00063832,0.00337331,0.0001701
 7,-0.00089677,-0.00079943,-0.00566821,0.00668506,0.00069932,0.06670118
 ,-0.00009132,-0.00027261,-0.06475429,-0.00671739,0.00110084,0.00000474
 ,0.01180442,-0.00570142,0.00040089,-0.00392619,0.00665499,0.00068858,0
 .00027761,-0.00042717,-0.00000910,-0.00014050,-0.00239588,-0.00178707,
 -0.00295369,0.00201258,-0.00394266,0.00114334,0.00111696,0.00017013,-0
 .00090016,-0.00061431,0.00261218,-0.00065512,-0.00007942,-0.23835252,0
 .00454163,-0.00098615,-0.00046518,-0.00267139,0.00032912,0.00060752,0.
 00216709,-0.00037596,-0.00127572,0.13288475,-0.54572079,-0.00319754,0.
 00088682,0.00086439,0.00260239,-0.00046397,-0.00044032,-0.00172295,0.0
 0068899,-0.00047997,-0.23598252,-0.17193627,-0.35954132,0.00034838,-0.
 00059788,-0.00013994,-0.00003665,0.00055176,0.00026828,-0.00119348,0.0
 0058502,-0.00002259,0.20887143,0.03122561,0.27438919,-0.19243518,0.000
 00210,-0.00023451,-0.00040746,-0.00038059,-0.00010148,-0.00002419,0.00
 071313,0.00026506,0.00089933,0.11213457,-0.04117263,0.11579920,-0.0797
 6781,0.08004738,0.00143424,-0.00044378,-0.00014608,-0.00139648,0.00034
 935,0.00028786,0.00100903,-0.00013910,-0.00016852,0.32130696,0.0204469
 6,0.38280796,-0.27944249,-0.05511135,-0.35709648,0.00580188,-0.0022914
 8,-0.00299979,-0.00354676,0.00075102,0.00122211,0.00230262,-0.00109074
 ,0.00120960,0.03064146,-0.16814769,-0.03608857,-0.01555449,-0.03270140
 ,-0.04291126,-0.01964470,-0.00345431,0.00111438,0.00075236,0.00212587,
 -0.00171018,-0.00072578,-0.00554777,-0.00194351,0.00319298,-0.24460738
 ,0.58792638,0.05502523,0.04800330,-0.03880383,0.03489792,0.20348029,-0
 .54658325,-0.00006245,-0.00037713,-0.00067684,-0.00077962,0.00005450,-
 0.00002556,0.00207428,0.00199817,0.00145897,-0.08574766,0.15262269,-0.
 02321074,0.00494754,-0.06115553,-0.02568474,0.07956791,-0.09314271,0.0
 4813889,-0.00315503,0.00611715,0.02343120,0.00019428,-0.00005347,0.015
 53925,-0.01125886,0.03024864,0.00023845,5.81852772,-0.03581585,-0.0040
 2643,0.00022275,-0.53981874,-1.02662472,-0.00052025,-0.00012469,-0.015
 30309,-0.05233148,0.00508895,-1.16432295,0.00657889,-0.05388278,-0.000
 52256,-5.79847295,0.59344724,0.05203904,5.75850951,0.02683067,-0.03243
 575,-0.00034783,0.51563361,1.04599762,-0.00527434,-0.57173789,-1.01069
 961,-0.00004430,0.00121425,0.00113990,0.05343138,-0.00682323,1.1776754
 3,-0.05212354,0.00319267,-1.16120550,0.00363346,0.01515824,0.00032749,
 -0.00364793,-0.01626982,0.00051601,0.01818862,0.02486571,0.00157408,-0
 .00756010,0.00281365,0.01323909,0.00045405,-0.00493916,-0.01356936,0.0
 0021985,0.02602722,-0.00207344,0.00830761,-0.02101293,0.01473771,0.000
 60491,-0.00136053,-0.00060617,-0.00352835,0.00269312,0.00134251,0.0042
 2275,0.00466157,-0.01669120,-0.00319507,-0.01716020,0.01460385,0.00093
 447,0.00010052,-0.00026531,-0.00002509,0.00014498,0.00016237,-0.002682
 83,0.00151494,-0.00316635,0.00151823,-0.00634063,0.00178727,0.00058317
 ,0.00061922,0.00114454,-0.00024481,-0.00161975,-0.00100781,0.00015089,
 0.00506168,0.00437033,-0.00485388,-0.00350934,-0.00547807,0.01041073,0
 .00190796,-0.00029228,-0.00018341,-0.00029809,-0.00011686,0.00184509,-
 0.00059497,-0.00005223,-0.00412059,-0.00431800,0.00127407,-0.00003648,
 0.00943037,-0.00483093,0.00191284,-0.00528939,0.00350571,0.00326703,0.
 00225824,0.00002764,-0.00512289,-0.00168781,0.00013431,0.01787876,0.00
 289297,0.00032872,-0.01213226,0.00345185,0.00010849,-0.00032796,-0.002
 45977,0.00058255,-0.00356268,-0.00056484,-0.00135268,-0.00003069,0.000
 49541,-0.00076931,-0.00006065,0.00108453,-0.00515915,-0.00103742,0.000
 76814,-0.00685595,0.00075531,0.00267224,0.00126329,0.00107007,-0.00445
 547,0.01287380,-0.00005123,0.00062253,-0.00065307,0.00034490,-0.000586
 62,0.00066033,0.00050490,0.00208593,-0.00219270,0.00081397,-0.00125168
 ,0.00618195,-0.00043083,-0.00017354,0.00022023,-0.00118171,-0.00069662
 ,-0.00421675,-0.00056483,-0.00113582,-0.00196360,0.00004969,0.00001749
 ,0.00055310,-0.00083560,0.00012615,-0.00001344,0.01374049,-0.00082668,
 0.00332254,0.00014615,-0.00213983,-0.00826139,0.00005509,0.00007432,-0
 .00075923,-0.00033480,-0.00007840,-0.00196400,-0.00049908,0.00000548,0
 .00009862,-0.01521915,0.00101283,0.00043289,0.01718732,0.00047997,-0.0
 0013676,-0.00005312,0.00192601,0.00217067,-0.00011217,-0.00210069,-0.0
 0421975,-0.00006257,-0.00000548,0.00040643,0.00025283,-0.00019724,0.00
 295578,-0.00044605,0.00052609,-0.00365969,0.00039619,-0.00105970,0.000
 01297,-0.00024313,-0.00061276,-0.00039194,0.00117668,0.00304514,0.0007
 4457,0.56522814,0.00170275,-0.00015844,-0.00025478,-0.00088694,0.00099
 020,0.00006328,0.00182096,-0.00034847,0.00053677,-2.21358545,3.4649159
 8,0.00033759,-0.00028006,0.00019304,0.00022247,0.00038236,0.00026103,0
 .00060601,-0.00079815,-0.00112790,0.94173631,0.22908770,-0.06701750,0.
 00024666,-0.00001217,-0.00003726,0.00001639,0.00038929,0.00012048,-0.0
 0008306,-0.00047080,-0.00063523,-0.55784472,0.09118367,-1.03144415,0.5
 7263486,-0.00024402,0.00036175,-0.00001766,0.00053552,-0.00039306,0.00
 006841,-0.00171510,0.00027845,-0.00023302,0.04303266,0.32087909,0.0335
 7319,-0.09845877,-0.33064588,-0.00004588,0.00016743,-0.00021516,-0.000
 16232,0.00009087,-0.00012923,0.00002349,0.00011695,0.00042576,-1.06254
 803,0.09384169,-0.86366781,1.08146286,-0.08854625,0.85902830,0.0012566
 3,0.00207606,-0.00011058,0.00254099,0.00217716,0.00011828,-0.00256272,
 -0.00287963,0.00014644,-0.00871315,2.11976501,0.08854177,-0.01497014,0
 .05684972,-0.01873012,0.02244839,0.00002381,-0.00142550,0.00016192,0.0
 0043910,0.00217103,-0.00001544,0.00097652,0.00225586,-0.00062711,2.169
 18011,-3.78627837,-0.26196503,0.00736878,0.00951965,-0.00567069,-2.177
 98833,3.77375733,-0.00033393,0.00002631,-0.00017820,0.00003526,-0.0003
 4374,-0.00036436,-0.00071496,0.00032041,0.00099962,0.12044613,-0.32327
 466,0.93135915,-0.04946671,0.05515533,0.00455814,-0.06996578,0.2681163
 5,-0.93637435,-0.00070841,-0.00035984,0.00055365,0.00021093,0.00002186
 ,0.00075405,-0.00045942,0.00026508,-0.00003490,0.00029752,-0.00057443,
 0.00006495,-0.00008803,-0.00035061,-0.00113262,-0.00013002,0.00007439,
 -0.00072562,0.00034727,0.00011249,0.00083207,-0.00038648,0.00002382,-0
 .00007734,0.00022399,-0.00061319,-0.00007095,-0.00151863,0.00005824,0.
 00004494,-0.00006900,0.00049596,-0.00024783,-0.00013477,-0.00109771,0.
 00001056,0.00003227,-0.00009821,0.00032866,-0.00066824,-0.00000808,-0.
 00022093,0.00099408,0.00050455,0.00044908,0.00047833,-0.00045344,-0.00
 018434,0.00027734,0.00002405,-0.00009914,0.00130639,0.00150290,0.00052
 739,1.43326319,-0.00001994,0.00016517,0.00019347,0.00020849,0.00080995
 ,-0.00022482,0.00108734,-0.00147319,0.00027352,-0.87765336,0.44932865,
 -0.00039996,0.00054558,0.00012822,-0.00006713,-0.00091495,0.00066598,-
 0.00200816,-0.00086862,-0.00260041,2.96661361,0.10373073,2.12158278,-0
 .00021037,0.00012345,0.00000103,-0.00077037,-0.00012508,0.00006391,-0.
 00024341,-0.00038113,-0.00094968,-1.47885832,0.06689344,-3.02081343,1.
 47520252,0.00102325,-0.00025252,-0.00035749,-0.00077002,0.00039295,0.0
 0018194,0.00045818,0.00059641,-0.00032483,0.06359716,1.04241606,0.0570
 2061,-0.06875126,-1.03563587,0.00094274,-0.00012349,-0.00021985,0.0006
 5110,0.00064655,-0.00039849,0.00041905,-0.00065051,0.00160755,-3.02455
 614,0.05947807,-2.49377270,3.01310388,-0.05952617,2.48187506,0.0012863
 2,0.00040093,0.00008462,0.00043093,0.00163926,-0.00011107,0.00061815,-
 0.00057826,0.00006419,0.04353312,0.80948404,0.05667508,0.00487995,0.00
 444269,0.00943936,-0.05074847,-0.00012728,-0.00057623,0.00029919,0.000
 15110,0.00011259,-0.00000924,0.00014156,0.00106911,-0.00034695,0.81298
 269,-1.49124664,-0.15951336,0.00224059,-0.00751703,0.00017555,-0.81538
 866,1.49815819,-0.00065596,-0.00042014,-0.00026547,-0.00022809,0.00025
 202,-0.00015302,0.00074333,0.00121835,0.00043606,0.05769862,-0.1634509
 7,0.37399617,0.00859429,0.00300593,0.01090844,-0.06615218,0.15939481,-
 0.38492218\\@
 The archive entry for this job was punched.


 The best way to pay for a lovely moment is to enjoy it.
 -- Richard Bach
 Job cpu time:       0 days 14 hours 25 minutes 51.8 seconds.
 Elapsed time:       0 days  0 hours 22 minutes  6.8 seconds.
 File lengths (MBytes):  RWF=   1133 Int=      0 D2E=      0 Chk=     40 Scr=      1
 Normal termination of Gaussian 16 at Thu Mar 20 22:06:34 2025.
