 Entering Gaussian System, Link 0=g16
 Input=enolt_h2o_mp2_avtz_opt_anharm.gjf
 Output=enolt_h2o_mp2_avtz_opt_anharm.log
 Initial command:
 /sw/contrib/chem-src/g16/c01/g16/l1.exe "/scr/Gau-59460.inp" -scrdir="/scr/"
 Entering Link 1 = /sw/contrib/chem-src/g16/c01/g16/l1.exe PID=     59461.
  
 Copyright (c) 1988-2019, Gaussian, Inc.  All Rights Reserved.
  
 This is part of the Gaussian(R) 16 program.  It is based on
 the Gaussian(R) 09 system (copyright 2009, Gaussian, Inc.),
 the Gaussian(R) 03 system (copyright 2003, Gaussian, Inc.),
 the Gaussian(R) 98 system (copyright 1998, Gaussian, Inc.),
 the Gaussian(R) 94 system (copyright 1995, Gaussian, Inc.),
 the Gaussian 92(TM) system (copyright 1992, Gaussian, Inc.),
 the Gaussian 90(TM) system (copyright 1990, Gaussian, Inc.),
 the Gaussian 88(TM) system (copyright 1988, Gaussian, Inc.),
 the Gaussian 86(TM) system (copyright 1986, Carnegie Mellon
 University), and the Gaussian 82(TM) system (copyright 1983,
 Carnegie Mellon University). Gaussian is a federally registered
 trademark of Gaussian, Inc.
  
 This software contains proprietary and confidential information,
 including trade secrets, belonging to Gaussian, Inc.
  
 This software is provided under written license and may be
 used, copied, transmitted, or stored only in accord with that
 written license.
  
 The following legend is applicable only to US Government
 contracts under FAR:
  
                    RESTRICTED RIGHTS LEGEND
  
 Use, reproduction and disclosure by the US Government is
 subject to restrictions as set forth in subparagraphs (a)
 and (c) of the Commercial Computer Software - Restricted
 Rights clause in FAR 52.227-19.
  
 Gaussian, Inc.
 340 Quinnipiac St., Bldg. 40, Wallingford CT 06492
  
  
 ---------------------------------------------------------------
 Warning -- This program may not be used in any manner that
 competes with the business of Gaussian, Inc. or will provide
 assistance to any competitor of Gaussian, Inc.  The licensee
 of this program is prohibited from giving any competitor of
 Gaussian, Inc. access to this program.  By using this program,
 the user acknowledges that Gaussian, Inc. is engaged in the
 business of creating and licensing software in the field of
 computational chemistry and represents and warrants to the
 licensee that it is not a competitor of Gaussian, Inc. and that
 it will not use this program in any manner prohibited above.
 ---------------------------------------------------------------
  

 Cite this work as:
 Gaussian 16, Revision C.01,
 M. J. Frisch, G. W. Trucks, H. B. Schlegel, G. E. Scuseria, 
 M. A. Robb, J. R. Cheeseman, G. Scalmani, V. Barone, 
 G. A. Petersson, H. Nakatsuji, X. Li, M. Caricato, A. V. Marenich, 
 J. Bloino, B. G. Janesko, R. Gomperts, B. Mennucci, H. P. Hratchian, 
 J. V. Ortiz, A. F. Izmaylov, J. L. Sonnenberg, D. Williams-Young, 
 F. Ding, F. Lipparini, F. Egidi, J. Goings, B. Peng, A. Petrone, 
 T. Henderson, D. Ranasinghe, V. G. Zakrzewski, J. Gao, N. Rega, 
 G. Zheng, W. Liang, M. Hada, M. Ehara, K. Toyota, R. Fukuda, 
 J. Hasegawa, M. Ishida, T. Nakajima, Y. Honda, O. Kitao, H. Nakai, 
 T. Vreven, K. Throssell, J. A. Montgomery, Jr., J. E. Peralta, 
 F. Ogliaro, M. J. Bearpark, J. J. Heyd, E. N. Brothers, K. N. Kudin, 
 V. N. Staroverov, T. A. Keith, R. Kobayashi, J. Normand, 
 K. Raghavachari, A. P. Rendell, J. C. Burant, S. S. Iyengar, 
 J. Tomasi, M. Cossi, J. M. Millam, M. Klene, C. Adamo, R. Cammi, 
 J. W. Ochterski, R. L. Martin, K. Morokuma, O. Farkas, 
 J. B. Foresman, and D. J. Fox, Gaussian, Inc., Wallingford CT, 2019.
 
 ******************************************
 Gaussian 16:  EM64L-G16RevC.01  3-Jul-2019
                21-Mar-2025 
 ******************************************
 %nprocshared=40
 Will use up to   40 processors via shared memory.
 %mem=50gb
 ----------------------------------------------
 # MP2/aug-cc-pVTZ opt freq=(vibrot,anharmonic)
 ----------------------------------------------
 1/18=20,19=15,38=1,80=1/1,3;
 2/9=110,12=2,17=6,18=5,40=1/2;
 3/5=16,6=1,7=10,11=9,25=1,30=1,71=1/1,2,3;
 4//1;
 5/5=2,38=5/2;
 8/6=4,10=1/1;
 9/15=2,16=-3/6;
 10/5=1/2;
 6/7=2,8=2,9=2,10=2/1;
 7/12=2/1,2,3,16;
 1/18=20,19=15,80=1/3(2);
 2/9=110/2;
 99//99;
 2/9=110/2;
 3/5=16,6=1,7=10,11=9,25=1,30=1,71=1/1,2,3;
 4/5=5,16=3,69=1/1;
 5/5=2,38=5/2;
 8/6=4,10=1/1;
 9/15=2,16=-3/6;
 10/5=1/2;
 7/12=2/1,2,3,16;
 1/18=20,19=15,80=1/3(-8);
 2/9=110/2;
 6/7=2,8=2,9=2,10=2/1;
 99/9=10/99;
 ----
 blah
 ----
 Symbolic Z-matrix:
 Charge =  0 Multiplicity = 1
 C                    -0.3736    0.89942   0.61725 
 C                    -1.26247  -0.08821   0.53292 
 H                     0.04955   1.25865   1.54636 
 O                     0.08544   1.55312  -0.49034 
 H                    -1.61813  -0.59833   1.42022 
 H                    -1.64891  -0.40188  -0.43092 
 H                     0.73056   2.24059  -0.19419 
 O                     1.84678   3.44476   0.20268 
 H                     1.68609   4.40273   0.26647 
 H                     2.81726   3.39525   0.14508 
 
 Add virtual bond connecting atoms O8         and H7         Dist= 3.19D+00.

 GradGradGradGradGradGradGradGradGradGradGradGradGradGradGradGradGradGrad
 Berny optimization.
 Initialization pass.
                           ----------------------------
                           !    Initial Parameters    !
                           ! (Angstroms and Degrees)  !
 --------------------------                            --------------------------
 ! Name  Definition              Value          Derivative Info.                !
 --------------------------------------------------------------------------------
 ! R1    R(1,2)                  1.3314         estimate D2E/DX2                !
 ! R2    R(1,3)                  1.0823         estimate D2E/DX2                !
 ! R3    R(1,4)                  1.3656         estimate D2E/DX2                !
 ! R4    R(2,5)                  1.0835         estimate D2E/DX2                !
 ! R5    R(2,6)                  1.0848         estimate D2E/DX2                !
 ! R6    R(4,7)                  0.9882         estimate D2E/DX2                !
 ! R7    R(7,8)                  1.6892         estimate D2E/DX2                !
 ! R8    R(8,9)                  0.9734         estimate D2E/DX2                !
 ! R9    R(8,10)                 0.9734         estimate D2E/DX2                !
 ! A1    A(2,1,3)              124.1682         estimate D2E/DX2                !
 ! A2    A(2,1,4)              121.88           estimate D2E/DX2                !
 ! A3    A(3,1,4)              113.9518         estimate D2E/DX2                !
 ! A4    A(1,2,5)              121.0981         estimate D2E/DX2                !
 ! A5    A(1,2,6)              120.5719         estimate D2E/DX2                !
 ! A6    A(5,2,6)              118.33           estimate D2E/DX2                !
 ! A7    A(1,4,7)              108.023          estimate D2E/DX2                !
 ! A8    A(7,8,9)              127.4329         estimate D2E/DX2                !
 ! A9    A(7,8,10)             127.4902         estimate D2E/DX2                !
 ! A10   A(9,8,10)             102.6207         estimate D2E/DX2                !
 ! A11   L(4,7,8,3,-1)         183.866          estimate D2E/DX2                !
 ! A12   L(4,7,8,3,-2)         180.0059         estimate D2E/DX2                !
 ! D1    D(3,1,2,5)             -0.0002         estimate D2E/DX2                !
 ! D2    D(3,1,2,6)            179.9997         estimate D2E/DX2                !
 ! D3    D(4,1,2,5)            180.0            estimate D2E/DX2                !
 ! D4    D(4,1,2,6)             -0.0002         estimate D2E/DX2                !
 ! D5    D(2,1,4,7)           -179.9996         estimate D2E/DX2                !
 ! D6    D(3,1,4,7)              0.0005         estimate D2E/DX2                !
 ! D7    D(1,4,8,9)           -101.6903         estimate D2E/DX2                !
 ! D8    D(1,4,8,10)           101.3871         estimate D2E/DX2                !
 ! D9    D(7,8,9,10)          -163.1052         estimate D2E/DX2                !
 --------------------------------------------------------------------------------
 Trust Radius=3.00D-01 FncErr=1.00D-07 GrdErr=1.00D-07 EigMax=2.50D+02 EigMin=1.00D-04
 Number of steps in this run=     40 maximum allowed number of steps=    100.
 GradGradGradGradGradGradGradGradGradGradGradGradGradGradGradGradGradGrad

                          Input orientation:                          
 ---------------------------------------------------------------------
 Center     Atomic      Atomic             Coordinates (Angstroms)
 Number     Number       Type             X           Y           Z
 ---------------------------------------------------------------------
      1          6           0       -0.373600    0.899418    0.617252
      2          6           0       -1.262468   -0.088212    0.532916
      3          1           0        0.049553    1.258654    1.546360
      4          8           0        0.085438    1.553117   -0.490342
      5          1           0       -1.618125   -0.598329    1.420224
      6          1           0       -1.648909   -0.401880   -0.430917
      7          1           0        0.730561    2.240591   -0.194186
      8          8           0        1.846784    3.444757    0.202680
      9          1           0        1.686088    4.402726    0.266472
     10          1           0        2.817260    3.395255    0.145083
 ---------------------------------------------------------------------
                    Distance matrix (angstroms):
                    1          2          3          4          5
     1  C    0.000000
     2  C    1.331394   0.000000
     3  H    1.082290   2.136004   0.000000
     4  O    1.365578   2.357513   2.058192   0.000000
     5  H    2.106384   1.083525   2.499089   3.343817   0.000000
     6  H    2.102010   1.084757   3.090594   2.614097   1.861790
     7  H    1.917380   3.150264   2.111273   0.988187   4.022700
     8  O    3.403046   4.717877   3.132820   2.675990   5.462101
     9  H    4.079035   5.378987   3.768495   3.354866   6.104058
    10  H    4.078448   5.378581   3.766809   3.355606   6.103060
                    6          7          8          9         10
     6  H    0.000000
     7  H    3.563786   0.000000
     8  O    5.236213   1.689222   0.000000
     9  H    5.890059   2.408333   0.973447   0.000000
    10  H    5.890388   2.408873   0.973444   1.519633   0.000000
 Stoichiometry    C2H6O2
 Framework group  C1[X(C2H6O2)]
 Deg. of freedom    24
 Full point group                 C1      NOp   1
 Largest Abelian subgroup         C1      NOp   1
 Largest concise Abelian subgroup C1      NOp   1
                         Standard orientation:                         
 ---------------------------------------------------------------------
 Center     Atomic      Atomic             Coordinates (Angstroms)
 Number     Number       Type             X           Y           Z
 ---------------------------------------------------------------------
      1          6           0       -0.966380   -0.328018    0.000120
      2          6           0       -2.284437   -0.140039    0.000089
      3          1           0       -0.491060   -1.300346    0.000491
      4          8           0       -0.088664    0.718126   -0.000321
      5          1           0       -2.969472   -0.979535    0.000441
      6          1           0       -2.698772    0.862470   -0.000291
      7          1           0        0.827737    0.348365   -0.000211
      8          8           0        2.433298   -0.176651    0.000096
      9          1           0        3.039945   -0.224758    0.759874
     10          1           0        3.039448   -0.229649   -0.759751
 ---------------------------------------------------------------------
 Rotational constants (GHZ):          33.5836604           2.4580629           2.3148380
 Standard basis: Aug-CC-pVTZ (5D, 7F)
 There are   370 symmetry adapted cartesian basis functions of A   symmetry.
 There are   322 symmetry adapted basis functions of A   symmetry.
   322 basis functions,   450 primitive gaussians,   370 cartesian basis functions
    17 alpha electrons       17 beta electrons
       nuclear repulsion energy       116.3920370049 Hartrees.
 NAtoms=   10 NActive=   10 NUniq=   10 SFac= 1.00D+00 NAtFMM=   60 NAOKFM=F Big=F
 Integral buffers will be    131072 words long.
 Raffenetti 1 integral format.
 Two-electron integral symmetry is turned on.
 One-electron integrals computed using PRISM.
 NBasis=   322 RedAO= T EigKep=  6.11D-06  NBF=   322
 NBsUse=   322 1.00D-06 EigRej= -1.00D+00 NBFU=   322
 ExpMin= 2.53D-02 ExpMax= 1.53D+04 ExpMxC= 5.22D+02 IAcc=3 IRadAn=         5 AccDes= 0.00D+00
 Harris functional with IExCor=  205 and IRadAn=       5 diagonalized for initial guess.
 HarFok:  IExCor=  205 AccDes= 0.00D+00 IRadAn=         5 IDoV= 1 UseB2=F ITyADJ=14
 ICtDFT=  3500011 ScaDFX=  1.000000  1.000000  1.000000  1.000000
 FoFCou: FMM=F IPFlag=           0 FMFlag=      100000 FMFlg1=           0
         NFxFlg=           0 DoJE=T BraDBF=F KetDBF=T FulRan=T
         wScrn=  0.000000 ICntrl=       500 IOpCl=  0 I1Cent=   200000004 NGrid=           0
         NMat0=    1 NMatS0=      1 NMatT0=    0 NMatD0=    1 NMtDS0=    0 NMtDT0=    0
 Petite list used in FoFCou.
 Keep R1 ints in memory in canonical form, NReq=1377716038.
 Requested convergence on RMS density matrix=1.00D-08 within 128 cycles.
 Requested convergence on MAX density matrix=1.00D-06.
 Requested convergence on             energy=1.00D-06.
 No special actions if energy rises.
 SCF Done:  E(RHF) =  -229.018994595     A.U. after   12 cycles
            NFock= 12  Conv=0.10D-07     -V/T= 2.0018
 ExpMin= 2.53D-02 ExpMax= 1.53D+04 ExpMxC= 5.22D+02 IAcc=3 IRadAn=         5 AccDes= 0.00D+00
 HarFok:  IExCor=  205 AccDes= 0.00D+00 IRadAn=         5 IDoV=-2 UseB2=F ITyADJ=14
 ICtDFT= 12500011 ScaDFX=  1.000000  1.000000  1.000000  1.000000
 Range of M.O.s used for correlation:     5   322
 NBasis=   322 NAE=    17 NBE=    17 NFC=     4 NFV=     0
 NROrb=    318 NOA=    13 NOB=    13 NVA=   305 NVB=   305

 **** Warning!!: The largest alpha MO coefficient is  0.70354212D+02

 Disk-based method using ON**2 memory for 13 occupieds at a time.
 Estimated scratch disk usage=  1212208912 words.
 Actual    scratch disk usage=  1110649616 words.
 JobTyp=1 Pass  1:  I=   5 to  17 NPSUse= 40 ParTrn=T ParDer=T DoDerP=T.
 (rs|ai) integrals will be sorted in core.
 Spin components of T(2) and E(2):
     alpha-alpha T2 =       0.2944390911D-01 E2=     -0.1031222438D+00
     alpha-beta  T2 =       0.1749389203D+00 E2=     -0.6490875399D+00
     beta-beta   T2 =       0.2944390911D-01 E2=     -0.1031222438D+00
 ANorm=    0.1110777538D+01
 E2 =    -0.8553320276D+00 EUMP2 =    -0.22987432662268D+03
          IDoAtm=1111111111
          Differentiating once with respect to electric field.
                with respect to dipole field.
          Differentiating once with respect to nuclear coordinates.
 Keep R1 ints in memory in canonical form, NReq=1377718044.
          There are     1 degrees of freedom in the 1st order CPHF.  IDoFFX=0 NUNeed=     1.
 LinEq1:  Iter=  0 NonCon=     1 RMS=2.84D-03 Max=8.57D-02 NDo=     1
 AX will form     1 AO Fock derivatives at one time.
 LinEq1:  Iter=  1 NonCon=     1 RMS=6.65D-04 Max=6.91D-03 NDo=     1
 LinEq1:  Iter=  2 NonCon=     1 RMS=2.39D-04 Max=5.55D-03 NDo=     1
 LinEq1:  Iter=  3 NonCon=     1 RMS=6.95D-05 Max=8.06D-04 NDo=     1
 LinEq1:  Iter=  4 NonCon=     1 RMS=2.81D-05 Max=4.82D-04 NDo=     1
 LinEq1:  Iter=  5 NonCon=     1 RMS=5.87D-06 Max=8.15D-05 NDo=     1
 LinEq1:  Iter=  6 NonCon=     1 RMS=1.90D-06 Max=5.50D-05 NDo=     1
 LinEq1:  Iter=  7 NonCon=     1 RMS=6.00D-07 Max=6.37D-06 NDo=     1
 LinEq1:  Iter=  8 NonCon=     1 RMS=1.55D-07 Max=4.18D-06 NDo=     1
 LinEq1:  Iter=  9 NonCon=     1 RMS=3.20D-08 Max=5.56D-07 NDo=     1
 LinEq1:  Iter= 10 NonCon=     1 RMS=7.99D-09 Max=1.28D-07 NDo=     1
 LinEq1:  Iter= 11 NonCon=     1 RMS=3.33D-09 Max=5.27D-08 NDo=     1
 LinEq1:  Iter= 12 NonCon=     1 RMS=8.51D-10 Max=1.44D-08 NDo=     1
 LinEq1:  Iter= 13 NonCon=     1 RMS=1.45D-10 Max=1.55D-09 NDo=     1
 LinEq1:  Iter= 14 NonCon=     0 RMS=2.49D-11 Max=2.81D-10 NDo=     1
 Linear equations converged to 1.000D-10 1.000D-09 after    14 iterations.
 End of Minotr F.D. properties file   721 does not exist.
 End of Minotr F.D. properties file   722 does not exist.
 End of Minotr F.D. properties file   788 does not exist.

 **********************************************************************

            Population analysis using the SCF Density.

 **********************************************************************

 Orbital symmetries:
       Occupied  (A) (A) (A) (A) (A) (A) (A) (A) (A) (A) (A) (A)
                 (A) (A) (A) (A) (A)
       Virtual   (A) (A) (A) (A) (A) (A) (A) (A) (A) (A) (A) (A)
                 (A) (A) (A) (A) (A) (A) (A) (A) (A) (A) (A) (A)
                 (A) (A) (A) (A) (A) (A) (A) (A) (A) (A) (A) (A)
                 (A) (A) (A) (A) (A) (A) (A) (A) (A) (A) (A) (A)
                 (A) (A) (A) (A) (A) (A) (A) (A) (A) (A) (A) (A)
                 (A) (A) (A) (A) (A) (A) (A) (A) (A) (A) (A) (A)
                 (A) (A) (A) (A) (A) (A) (A) (A) (A) (A) (A) (A)
                 (A) (A) (A) (A) (A) (A) (A) (A) (A) (A) (A) (A)
                 (A) (A) (A) (A) (A) (A) (A) (A) (A) (A) (A) (A)
                 (A) (A) (A) (A) (A) (A) (A) (A) (A) (A) (A) (A)
                 (A) (A) (A) (A) (A) (A) (A) (A) (A) (A) (A) (A)
                 (A) (A) (A) (A) (A) (A) (A) (A) (A) (A) (A) (A)
                 (A) (A) (A) (A) (A) (A) (A) (A) (A) (A) (A) (A)
                 (A) (A) (A) (A) (A) (A) (A) (A) (A) (A) (A) (A)
                 (A) (A) (A) (A) (A) (A) (A) (A) (A) (A) (A) (A)
                 (A) (A) (A) (A) (A) (A) (A) (A) (A) (A) (A) (A)
                 (A) (A) (A) (A) (A) (A) (A) (A) (A) (A) (A) (A)
                 (A) (A) (A) (A) (A) (A) (A) (A) (A) (A) (A) (A)
                 (A) (A) (A) (A) (A) (A) (A) (A) (A) (A) (A) (A)
                 (A) (A) (A) (A) (A) (A) (A) (A) (A) (A) (A) (A)
                 (A) (A) (A) (A) (A) (A) (A) (A) (A) (A) (A) (A)
                 (A) (A) (A) (A) (A) (A) (A) (A) (A) (A) (A) (A)
                 (A) (A) (A) (A) (A) (A) (A) (A) (A) (A) (A) (A)
                 (A) (A) (A) (A) (A) (A) (A) (A) (A) (A) (A) (A)
                 (A) (A) (A) (A) (A) (A) (A) (A) (A) (A) (A) (A)
                 (A) (A) (A) (A) (A)
 The electronic state is 1-A.
 Alpha  occ. eigenvalues --  -20.61320 -20.55099 -11.27516 -11.19071  -1.39609
 Alpha  occ. eigenvalues --   -1.36134  -0.99908  -0.77180  -0.74993  -0.72701
 Alpha  occ. eigenvalues --   -0.63398  -0.59747  -0.55758  -0.54259  -0.53836
 Alpha  occ. eigenvalues --   -0.49285  -0.32235
 Alpha virt. eigenvalues --    0.01463   0.04018   0.04304   0.04871   0.05919
 Alpha virt. eigenvalues --    0.06697   0.10792   0.11286   0.11675   0.12097
 Alpha virt. eigenvalues --    0.14165   0.14780   0.15606   0.16590   0.17348
 Alpha virt. eigenvalues --    0.17858   0.18571   0.18750   0.20317   0.21256
 Alpha virt. eigenvalues --    0.23802   0.24542   0.24558   0.25805   0.25968
 Alpha virt. eigenvalues --    0.28666   0.30303   0.30419   0.31239   0.32052
 Alpha virt. eigenvalues --    0.33609   0.34899   0.36725   0.36967   0.37195
 Alpha virt. eigenvalues --    0.38303   0.39849   0.40699   0.41382   0.41934
 Alpha virt. eigenvalues --    0.42065   0.43561   0.44502   0.45024   0.45237
 Alpha virt. eigenvalues --    0.46215   0.46319   0.47032   0.50131   0.51485
 Alpha virt. eigenvalues --    0.51832   0.53680   0.55175   0.55958   0.59102
 Alpha virt. eigenvalues --    0.61581   0.61695   0.62195   0.64221   0.64239
 Alpha virt. eigenvalues --    0.68445   0.70204   0.72905   0.74890   0.75502
 Alpha virt. eigenvalues --    0.76241   0.78632   0.79547   0.80658   0.82474
 Alpha virt. eigenvalues --    0.82693   0.86829   0.87884   0.88042   0.89444
 Alpha virt. eigenvalues --    0.90660   0.90764   0.91099   0.91956   0.92507
 Alpha virt. eigenvalues --    0.93103   0.94244   0.95015   0.96870   0.97863
 Alpha virt. eigenvalues --    0.98223   0.99683   1.00643   1.00751   1.02648
 Alpha virt. eigenvalues --    1.03793   1.03802   1.04775   1.05127   1.06475
 Alpha virt. eigenvalues --    1.08441   1.08848   1.11259   1.12116   1.13047
 Alpha virt. eigenvalues --    1.14183   1.14976   1.16885   1.17308   1.19452
 Alpha virt. eigenvalues --    1.20219   1.21935   1.23431   1.25908   1.26954
 Alpha virt. eigenvalues --    1.28902   1.28993   1.32788   1.33384   1.34755
 Alpha virt. eigenvalues --    1.38704   1.41644   1.43410   1.46990   1.48152
 Alpha virt. eigenvalues --    1.48730   1.49216   1.54155   1.58222   1.58767
 Alpha virt. eigenvalues --    1.60737   1.63026   1.63611   1.66116   1.66508
 Alpha virt. eigenvalues --    1.69515   1.69797   1.71529   1.71758   1.75358
 Alpha virt. eigenvalues --    1.76839   1.80521   1.81802   1.83420   1.87158
 Alpha virt. eigenvalues --    1.89648   1.89849   1.90066   1.91183   1.91591
 Alpha virt. eigenvalues --    1.94200   1.99182   2.02087   2.06967   2.07954
 Alpha virt. eigenvalues --    2.09160   2.13645   2.14291   2.15489   2.20544
 Alpha virt. eigenvalues --    2.26329   2.28051   2.28676   2.31219   2.33743
 Alpha virt. eigenvalues --    2.39979   2.41734   2.43068   2.50018   2.52088
 Alpha virt. eigenvalues --    2.52226   2.53514   2.59897   2.61219   2.64338
 Alpha virt. eigenvalues --    2.67451   2.71299   2.72502   2.77206   2.78729
 Alpha virt. eigenvalues --    2.81328   2.82719   2.83240   2.90027   2.90196
 Alpha virt. eigenvalues --    2.94443   3.02959   3.09607   3.10589   3.14079
 Alpha virt. eigenvalues --    3.19698   3.20996   3.24892   3.28104   3.29888
 Alpha virt. eigenvalues --    3.32983   3.38196   3.38352   3.42823   3.48216
 Alpha virt. eigenvalues --    3.48760   3.54023   3.58983   3.60087   3.70743
 Alpha virt. eigenvalues --    3.72342   3.74446   3.76674   3.80514   3.81118
 Alpha virt. eigenvalues --    3.84822   3.87433   3.88692   3.95395   3.99017
 Alpha virt. eigenvalues --    4.00694   4.07212   4.08488   4.12606   4.12763
 Alpha virt. eigenvalues --    4.15799   4.18842   4.20031   4.23231   4.25445
 Alpha virt. eigenvalues --    4.25689   4.28873   4.32746   4.34091   4.36769
 Alpha virt. eigenvalues --    4.40540   4.41374   4.48076   4.49225   4.50676
 Alpha virt. eigenvalues --    4.52310   4.52348   4.57778   4.60233   4.61686
 Alpha virt. eigenvalues --    4.64773   4.67942   4.68418   4.80226   4.81051
 Alpha virt. eigenvalues --    4.85436   4.85472   4.89696   4.92563   4.97763
 Alpha virt. eigenvalues --    4.98666   5.03312   5.05843   5.11261   5.13261
 Alpha virt. eigenvalues --    5.13542   5.18122   5.20681   5.21088   5.32026
 Alpha virt. eigenvalues --    5.33704   5.38433   5.40689   5.41358   5.49547
 Alpha virt. eigenvalues --    5.51308   5.55926   5.59207   5.63754   5.76595
 Alpha virt. eigenvalues --    5.82288   5.85790   6.00895   6.04305   6.27474
 Alpha virt. eigenvalues --    6.29876   6.32496   6.54588   6.54945   6.68864
 Alpha virt. eigenvalues --    6.75281   6.80369   6.85590   6.91559   6.98691
 Alpha virt. eigenvalues --    7.05103   7.13070   7.17861   7.21592   7.25693
 Alpha virt. eigenvalues --    7.32436   7.33725   7.42587   7.48244   7.48478
 Alpha virt. eigenvalues --    7.57412   7.62055   7.69942   7.74836   7.80942
 Alpha virt. eigenvalues --    7.87462   7.88823   8.09591   8.33600   8.71239
 Alpha virt. eigenvalues --    8.80282  15.72368  16.44121  17.35154  17.92108
          Condensed to atoms (all electrons):
               1          2          3          4          5          6
     1  C    5.753614   0.124667   0.169713   0.209167  -0.010463  -0.093073
     2  C    0.124667   6.289606  -0.111740  -0.096447   0.403829   0.364996
     3  H    0.169713  -0.111740   0.531191   0.019323  -0.062915   0.028075
     4  O    0.209167  -0.096447   0.019323   8.377870  -0.015303   0.006494
     5  H   -0.010463   0.403829  -0.062915  -0.015303   0.397067  -0.065591
     6  H   -0.093073   0.364996   0.028075   0.006494  -0.065591   0.317290
     7  H    0.106928  -0.023411  -0.149310   0.095046   0.013385  -0.013685
     8  O    0.023376  -0.019839   0.038056  -0.058458  -0.000861  -0.000265
     9  H   -0.001350   0.000873  -0.000678   0.002178   0.000074   0.000060
    10  H   -0.001355   0.000875  -0.000674   0.002199   0.000074   0.000060
               7          8          9         10
     1  C    0.106928   0.023376  -0.001350  -0.001355
     2  C   -0.023411  -0.019839   0.000873   0.000875
     3  H   -0.149310   0.038056  -0.000678  -0.000674
     4  O    0.095046  -0.058458   0.002178   0.002199
     5  H    0.013385  -0.000861   0.000074   0.000074
     6  H   -0.013685  -0.000265   0.000060   0.000060
     7  H    0.636860  -0.045589  -0.001402  -0.001413
     8  O   -0.045589   7.871194   0.306249   0.306173
     9  H   -0.001402   0.306249   0.471965  -0.007399
    10  H   -0.001413   0.306173  -0.007399   0.472045
 Mulliken charges:
               1
     1  C   -0.281224
     2  C   -0.933407
     3  H    0.538959
     4  O   -0.542069
     5  H    0.340703
     6  H    0.455638
     7  H    0.382591
     8  O   -0.420037
     9  H    0.229430
    10  H    0.229416
 Sum of Mulliken charges =  -0.00000
 Mulliken charges with hydrogens summed into heavy atoms:
               1
     1  C    0.257736
     2  C   -0.137066
     4  O   -0.159478
     8  O    0.038809
 Electronic spatial extent (au):  <R**2>=            510.7617
 Charge=             -0.0000 electrons
 Dipole moment (field-independent basis, Debye):
    X=              4.6179    Y=             -1.7091    Z=              0.0004  Tot=              4.9241
 Quadrupole moment (field-independent basis, Debye-Ang):
   XX=            -11.2462   YY=            -26.8483   ZZ=            -25.6116
   XY=             -1.0947   XZ=              0.0007   YZ=              0.0099
 Traceless Quadrupole moment (field-independent basis, Debye-Ang):
   XX=              9.9891   YY=             -5.6129   ZZ=             -4.3762
   XY=             -1.0947   XZ=              0.0007   YZ=              0.0099
 Octapole moment (field-independent basis, Debye-Ang**2):
  XXX=             68.7061  YYY=             -0.2786  ZZZ=             -0.0012  XYY=              2.5984
  XXY=             -1.9082  XXZ=              0.0057  XZZ=             18.0949  YZZ=              0.5428
  YYZ=             -0.0036  XYZ=              0.0336
 Hexadecapole moment (field-independent basis, Debye-Ang**3):
 XXXX=           -357.7044 YYYY=            -63.3353 ZZZZ=            -31.1410 XXXY=            -18.3839
 XXXZ=              0.0298 YYYX=             -2.3271 YYYZ=              0.0047 ZZZX=              0.0060
 ZZZY=              0.0123 XXYY=           -100.2433 XXZZ=            -83.3973 YYZZ=            -17.0676
 XXYZ=              0.0868 YYXZ=             -0.0150 ZZXY=             -4.5506
 N-N= 1.163920370049D+02 E-N=-7.727854587329D+02  KE= 2.286043911170D+02
 Calling FoFJK, ICntrl=  10002127 FMM=F ISym2X=0 I1Cent= 0 IOpClX= 0 NMat=1 NMatS=1 NMatT=0.
 ***** Axes restored to original set *****
 -------------------------------------------------------------------
 Center     Atomic                   Forces (Hartrees/Bohr)
 Number     Number              X              Y              Z
 -------------------------------------------------------------------
      1        6           0.004230006    0.005772488   -0.008177417
      2        6          -0.005852483   -0.006735419    0.001306554
      3        1          -0.001880903   -0.002592843    0.003860554
      4        8           0.006153573    0.005925186    0.007906702
      5        1           0.002750338    0.003331252   -0.001946120
      6        1           0.001691850    0.001591064    0.002474288
      7        1          -0.010612548   -0.010976230   -0.007619453
      8        8           0.016028618    0.017627262    0.003054046
      9        1          -0.002419179   -0.010387208   -0.000839352
     10        1          -0.010089272   -0.003555553   -0.000019801
 -------------------------------------------------------------------
 Cartesian Forces:  Max     0.017627262 RMS     0.007049917

 GradGradGradGradGradGradGradGradGradGradGradGradGradGradGradGradGradGrad
 Berny optimization.
 FormGI is forming the generalized inverse of G from B-inverse, IUseBI=4.
 Internal  Forces:  Max     0.011319745 RMS     0.004114927
 Search for a local minimum.
 Step number   1 out of a maximum of   40
 All quantities printed in internal units (Hartrees-Bohrs-Radians)
 Mixed Optimization -- RFO/linear search
 Second derivative matrix not updated -- first step.
 ITU=  0
     Eigenvalues ---    0.00230   0.00230   0.00230   0.01184   0.02147
     Eigenvalues ---    0.02749   0.02996   0.02996   0.07569   0.15650
     Eigenvalues ---    0.16000   0.16000   0.16000   0.16000   0.16000
     Eigenvalues ---    0.22000   0.35426   0.35572   0.35719   0.49825
     Eigenvalues ---    0.51836   0.52679   0.52679   0.59178
 RFO step:  Lambda=-2.57689215D-03 EMin= 2.30000000D-03
 Linear search not attempted -- first point.
 Maximum step size (   0.300) exceeded in Quadratic search.
    -- Step size scaled by   0.757
 Iteration  1 RMS(Cart)=  0.12353298 RMS(Int)=  0.01826603
 Iteration  2 RMS(Cart)=  0.06564303 RMS(Int)=  0.00130493
 Iteration  3 RMS(Cart)=  0.00214686 RMS(Int)=  0.00025599
 Iteration  4 RMS(Cart)=  0.00000040 RMS(Int)=  0.00025599
 Variable       Old X    -DE/DX   Delta X   Delta X   Delta X     New X
                                 (Linear)    (Quad)   (Total)
    R1        2.51597   0.00217   0.00000   0.00276   0.00276   2.51874
    R2        2.04523   0.00172   0.00000   0.00362   0.00362   2.04885
    R3        2.58057  -0.00298   0.00000  -0.00434  -0.00434   2.57623
    R4        2.04757  -0.00406   0.00000  -0.00859  -0.00859   2.03898
    R5        2.04989  -0.00326   0.00000  -0.00692  -0.00692   2.04297
    R6        1.86740  -0.01132   0.00000  -0.01712  -0.01709   1.85032
    R7        3.19217   0.00546   0.00000   0.05287   0.05285   3.24502
    R8        1.83955  -0.00988   0.00000  -0.01413  -0.01413   1.82542
    R9        1.83954  -0.00988   0.00000  -0.01413  -0.01413   1.82542
    A1        2.16714  -0.00590   0.00000  -0.02611  -0.02611   2.14104
    A2        2.12721   0.00215   0.00000   0.00733   0.00733   2.13453
    A3        1.98883   0.00374   0.00000   0.01878   0.01878   2.00761
    A4        2.11356  -0.00268   0.00000  -0.01249  -0.01249   2.10107
    A5        2.10438   0.00038   0.00000   0.00177   0.00177   2.10614
    A6        2.06525   0.00230   0.00000   0.01072   0.01072   2.07597
    A7        1.88536   0.00187   0.00000   0.00870   0.00870   1.89406
    A8        2.22412  -0.00264   0.00000  -0.01368  -0.01356   2.21057
    A9        2.22512  -0.00245   0.00000  -0.01324  -0.01333   2.21179
   A10        1.79107   0.00490   0.00000   0.02153   0.02163   1.81270
   A11        3.20907  -0.00173   0.00000  -0.28980  -0.29019   2.91888
   A12        3.14170   0.00000   0.00000   0.00046   0.00046   3.14216
    D1       -0.00000  -0.00000   0.00000  -0.00000  -0.00000  -0.00001
    D2        3.14159  -0.00000   0.00000  -0.00000  -0.00000   3.14159
    D3        3.14159  -0.00000   0.00000   0.00000   0.00000   3.14159
    D4       -0.00000   0.00000   0.00000   0.00000   0.00000  -0.00000
    D5       -3.14159   0.00000   0.00000   0.00003   0.00003  -3.14156
    D6        0.00001   0.00000   0.00000   0.00003   0.00003   0.00004
    D7       -1.77483   0.00072   0.00000   0.07150   0.07079  -1.70404
    D8        1.76954  -0.00071   0.00000  -0.07083  -0.07012   1.69942
    D9       -2.84672   0.00082   0.00000   0.01911   0.01824  -2.82849
         Item               Value     Threshold  Converged?
 Maximum Force            0.011320     0.000450     NO 
 RMS     Force            0.004115     0.000300     NO 
 Maximum Displacement     0.476128     0.001800     NO 
 RMS     Displacement     0.186386     0.001200     NO 
 Predicted change in Energy=-1.340939D-03
 GradGradGradGradGradGradGradGradGradGradGradGradGradGradGradGradGradGrad

                          Input orientation:                          
 ---------------------------------------------------------------------
 Center     Atomic      Atomic             Coordinates (Angstroms)
 Number     Number       Type             X           Y           Z
 ---------------------------------------------------------------------
      1          6           0       -0.334061    0.954883    0.527023
      2          6           0       -1.217284   -0.042277    0.572832
      3          1           0        0.131042    1.366087    1.415892
      4          8           0        0.051108    1.533561   -0.645717
      5          1           0       -1.500103   -0.477754    1.518649
      6          1           0       -1.661463   -0.427702   -0.334317
      7          1           0        0.701036    2.238181   -0.446142
      8          8           0        1.783312    3.365688    0.265295
      9          1           0        1.613455    4.301894    0.431926
     10          1           0        2.745540    3.293536    0.310101
 ---------------------------------------------------------------------
                    Distance matrix (angstroms):
                    1          2          3          4          5
     1  C    0.000000
     2  C    1.332857   0.000000
     3  H    1.084203   2.124199   0.000000
     4  O    1.363283   2.361555   2.069943   0.000000
     5  H    2.096527   1.078980   2.463928   3.337083   0.000000
     6  H    2.101296   1.081096   3.081231   2.622293   1.860652
     7  H    1.914505   3.149404   2.133685   0.979145   4.010202
     8  O    3.219278   4.551086   2.837653   2.680889   5.208047
     9  H    3.873545   5.186980   3.432886   3.356473   5.806914
    10  H    3.873021   5.186583   3.431243   3.357240   5.805919
                    6          7          8          9         10
     6  H    0.000000
     7  H    3.563824   0.000000
     8  O    5.159052   1.717189   0.000000
     9  H    5.803560   2.421245   0.965971   0.000000
    10  H    5.803840   2.421915   0.965969   1.520935   0.000000
 Stoichiometry    C2H6O2
 Framework group  C1[X(C2H6O2)]
 Deg. of freedom    24
 Full point group                 C1      NOp   1
 Largest Abelian subgroup         C1      NOp   1
 Largest concise Abelian subgroup C1      NOp   1
                         Standard orientation:                         
 ---------------------------------------------------------------------
 Center     Atomic      Atomic             Coordinates (Angstroms)
 Number     Number       Type             X           Y           Z
 ---------------------------------------------------------------------
      1          6           0       -0.880105   -0.285110   -0.000072
      2          6           0       -2.212485   -0.249459    0.000213
      3          1           0       -0.319437   -1.213091   -0.000132
      4          8           0       -0.121072    0.847326   -0.000302
      5          1           0       -2.782902   -1.165331    0.000390
      6          1           0       -2.738926    0.694802    0.000272
      7          1           0        0.823320    0.588774   -0.000521
      8          8           0        2.338500   -0.219288    0.000115
      9          1           0        2.917261   -0.358986    0.760786
     10          1           0        2.916803   -0.363053   -0.760144
 ---------------------------------------------------------------------
 Rotational constants (GHZ):          26.5446046           2.6571231           2.4425614
 Standard basis: Aug-CC-pVTZ (5D, 7F)
 There are   370 symmetry adapted cartesian basis functions of A   symmetry.
 There are   322 symmetry adapted basis functions of A   symmetry.
   322 basis functions,   450 primitive gaussians,   370 cartesian basis functions
    17 alpha electrons       17 beta electrons
       nuclear repulsion energy       117.4304113082 Hartrees.
 NAtoms=   10 NActive=   10 NUniq=   10 SFac= 1.00D+00 NAtFMM=   60 NAOKFM=F Big=F
 Integral buffers will be    131072 words long.
 Raffenetti 1 integral format.
 Two-electron integral symmetry is turned on.
 One-electron integrals computed using PRISM.
 NBasis=   322 RedAO= T EigKep=  6.38D-06  NBF=   322
 NBsUse=   322 1.00D-06 EigRej= -1.00D+00 NBFU=   322
 Initial guess from the checkpoint file:  "/scr/Gau-59461.chk"
 B after Tr=     0.000000    0.000000    0.000000
         Rot=    0.999985   -0.000118   -0.000001   -0.005384 Ang=  -0.62 deg.
 ExpMin= 2.53D-02 ExpMax= 1.53D+04 ExpMxC= 5.22D+02 IAcc=3 IRadAn=         5 AccDes= 0.00D+00
 Harris functional with IExCor=  205 and IRadAn=       5 diagonalized for initial guess.
 HarFok:  IExCor=  205 AccDes= 0.00D+00 IRadAn=         5 IDoV= 1 UseB2=F ITyADJ=14
 ICtDFT=  3500011 ScaDFX=  1.000000  1.000000  1.000000  1.000000
 FoFCou: FMM=F IPFlag=           0 FMFlag=      100000 FMFlg1=           0
         NFxFlg=           0 DoJE=T BraDBF=F KetDBF=T FulRan=T
         wScrn=  0.000000 ICntrl=       500 IOpCl=  0 I1Cent=   200000004 NGrid=           0
         NMat0=    1 NMatS0=      1 NMatT0=    0 NMatD0=    1 NMtDS0=    0 NMtDT0=    0
 Petite list used in FoFCou.
 Keep R1 ints in memory in canonical form, NReq=1377716038.
 Requested convergence on RMS density matrix=1.00D-08 within 128 cycles.
 Requested convergence on MAX density matrix=1.00D-06.
 Requested convergence on             energy=1.00D-06.
 No special actions if energy rises.
 SCF Done:  E(RHF) =  -229.021090164     A.U. after   11 cycles
            NFock= 11  Conv=0.39D-08     -V/T= 2.0016
 ExpMin= 2.53D-02 ExpMax= 1.53D+04 ExpMxC= 5.22D+02 IAcc=3 IRadAn=         5 AccDes= 0.00D+00
 HarFok:  IExCor=  205 AccDes= 0.00D+00 IRadAn=         5 IDoV=-2 UseB2=F ITyADJ=14
 ICtDFT= 12500011 ScaDFX=  1.000000  1.000000  1.000000  1.000000
 Range of M.O.s used for correlation:     5   322
 NBasis=   322 NAE=    17 NBE=    17 NFC=     4 NFV=     0
 NROrb=    318 NOA=    13 NOB=    13 NVA=   305 NVB=   305

 **** Warning!!: The largest alpha MO coefficient is  0.62702522D+02

 Disk-based method using ON**2 memory for 13 occupieds at a time.
 Estimated scratch disk usage=  1219217198 words.
 Actual    scratch disk usage=  1116852014 words.
 JobTyp=1 Pass  1:  I=   5 to  17 NPSUse= 40 ParTrn=T ParDer=T DoDerP=T.
 (rs|ai) integrals will be sorted in core.
 Spin components of T(2) and E(2):
     alpha-alpha T2 =       0.2932426170D-01 E2=     -0.1029836930D+00
     alpha-beta  T2 =       0.1741497314D+00 E2=     -0.6481625089D+00
     beta-beta   T2 =       0.2932426170D-01 E2=     -0.1029836930D+00
 ANorm=    0.1110314485D+01
 E2 =    -0.8541298948D+00 EUMP2 =    -0.22987522005888D+03
          IDoAtm=1111111111
          Differentiating once with respect to electric field.
                with respect to dipole field.
          Differentiating once with respect to nuclear coordinates.
 Keep R1 ints in memory in canonical form, NReq=1377718044.
          There are     1 degrees of freedom in the 1st order CPHF.  IDoFFX=0 NUNeed=     1.
 LinEq1:  Iter=  0 NonCon=     1 RMS=2.82D-03 Max=8.52D-02 NDo=     1
 AX will form     1 AO Fock derivatives at one time.
 LinEq1:  Iter=  1 NonCon=     1 RMS=6.56D-04 Max=6.42D-03 NDo=     1
 LinEq1:  Iter=  2 NonCon=     1 RMS=2.35D-04 Max=5.53D-03 NDo=     1
 LinEq1:  Iter=  3 NonCon=     1 RMS=6.69D-05 Max=8.21D-04 NDo=     1
 LinEq1:  Iter=  4 NonCon=     1 RMS=2.72D-05 Max=4.16D-04 NDo=     1
 LinEq1:  Iter=  5 NonCon=     1 RMS=5.70D-06 Max=8.02D-05 NDo=     1
 LinEq1:  Iter=  6 NonCon=     1 RMS=1.81D-06 Max=4.95D-05 NDo=     1
 LinEq1:  Iter=  7 NonCon=     1 RMS=5.80D-07 Max=6.41D-06 NDo=     1
 LinEq1:  Iter=  8 NonCon=     1 RMS=1.39D-07 Max=3.35D-06 NDo=     1
 LinEq1:  Iter=  9 NonCon=     1 RMS=2.75D-08 Max=4.27D-07 NDo=     1
 LinEq1:  Iter= 10 NonCon=     1 RMS=5.88D-09 Max=1.20D-07 NDo=     1
 LinEq1:  Iter= 11 NonCon=     1 RMS=1.27D-09 Max=1.90D-08 NDo=     1
 LinEq1:  Iter= 12 NonCon=     1 RMS=4.53D-10 Max=9.18D-09 NDo=     1
 LinEq1:  Iter= 13 NonCon=     1 RMS=1.29D-10 Max=1.49D-09 NDo=     1
 LinEq1:  Iter= 14 NonCon=     0 RMS=2.34D-11 Max=2.72D-10 NDo=     1
 Linear equations converged to 1.000D-10 1.000D-09 after    14 iterations.
 End of Minotr F.D. properties file   721 does not exist.
 End of Minotr F.D. properties file   722 does not exist.
 End of Minotr F.D. properties file   788 does not exist.
 Calling FoFJK, ICntrl=  10002127 FMM=F ISym2X=0 I1Cent= 0 IOpClX= 0 NMat=1 NMatS=1 NMatT=0.
 ***** Axes restored to original set *****
 -------------------------------------------------------------------
 Center     Atomic                   Forces (Hartrees/Bohr)
 Number     Number              X              Y              Z
 -------------------------------------------------------------------
      1        6           0.002887305    0.003817430   -0.004622147
      2        6          -0.002547540   -0.002836839   -0.000183695
      3        1          -0.000589195   -0.000802536    0.001146614
      4        8           0.001663022    0.001627160    0.001884571
      5        1           0.001210900    0.001374641   -0.000121208
      6        1           0.000448413    0.000438986    0.000514682
      7        1          -0.006594398   -0.007379467   -0.000199644
      8        8           0.008570725    0.009177422    0.003679465
      9        1          -0.001700302   -0.003442390   -0.001135488
     10        1          -0.003348929   -0.001974407   -0.000963151
 -------------------------------------------------------------------
 Cartesian Forces:  Max     0.009177422 RMS     0.003537513

 GradGradGradGradGradGradGradGradGradGradGradGradGradGradGradGradGradGrad
 Berny optimization.
 Using GEDIIS/GDIIS optimizer.
 FormGI is forming the generalized inverse of G from B-inverse, IUseBI=4.
 Internal  Forces:  Max     0.005331372 RMS     0.002027011
 Search for a local minimum.
 Step number   2 out of a maximum of   40
 All quantities printed in internal units (Hartrees-Bohrs-Radians)
 Mixed Optimization -- RFO/linear search
 Update second derivatives using D2CorX and points    1    2
 DE= -8.93D-04 DEPred=-1.34D-03 R= 6.66D-01
 TightC=F SS=  1.41D+00  RLast= 3.17D-01 DXNew= 5.0454D-01 9.5050D-01
 Trust test= 6.66D-01 RLast= 3.17D-01 DXMaxT set to 5.05D-01
 ITU=  1  0
 Use linear search instead of GDIIS.
     Eigenvalues ---    0.00230   0.00230   0.00924   0.01331   0.02147
     Eigenvalues ---    0.02740   0.02996   0.02996   0.04296   0.13019
     Eigenvalues ---    0.15806   0.16000   0.16000   0.16000   0.16486
     Eigenvalues ---    0.21821   0.34696   0.35487   0.35705   0.43521
     Eigenvalues ---    0.51057   0.52679   0.52695   0.59113
 RFO step:  Lambda=-2.83656914D-03 EMin= 2.29999562D-03
 Quartic linear search produced a step of -0.09095.
 Iteration  1 RMS(Cart)=  0.14983207 RMS(Int)=  0.01962746
 Iteration  2 RMS(Cart)=  0.06090572 RMS(Int)=  0.00247962
 Iteration  3 RMS(Cart)=  0.00279282 RMS(Int)=  0.00198938
 Iteration  4 RMS(Cart)=  0.00000206 RMS(Int)=  0.00198938
 Iteration  5 RMS(Cart)=  0.00000001 RMS(Int)=  0.00198938
 Variable       Old X    -DE/DX   Delta X   Delta X   Delta X     New X
                                 (Linear)    (Quad)   (Total)
    R1        2.51874   0.00136  -0.00025   0.00787   0.00761   2.52635
    R2        2.04885   0.00038  -0.00033   0.00834   0.00801   2.05685
    R3        2.57623  -0.00405   0.00039  -0.01651  -0.01612   2.56011
    R4        2.03898  -0.00098   0.00078  -0.02000  -0.01922   2.01975
    R5        2.04297  -0.00077   0.00063  -0.01608  -0.01545   2.02752
    R6        1.85032  -0.00434   0.00155  -0.04308  -0.04146   1.80885
    R7        3.24502   0.00533  -0.00481   0.17112   0.16628   3.41130
    R8        1.82542  -0.00323   0.00128  -0.03459  -0.03330   1.79212
    R9        1.82542  -0.00323   0.00128  -0.03458  -0.03330   1.79212
    A1        2.14104  -0.00203   0.00237  -0.06364  -0.06126   2.07978
    A2        2.13453   0.00104  -0.00067   0.01935   0.01868   2.15322
    A3        2.00761   0.00098  -0.00171   0.04428   0.04258   2.05019
    A4        2.10107  -0.00194   0.00114  -0.03681  -0.03567   2.06540
    A5        2.10614   0.00072  -0.00016   0.00792   0.00776   2.11391
    A6        2.07597   0.00123  -0.00098   0.02888   0.02791   2.10388
    A7        1.89406  -0.00119  -0.00079   0.01003   0.00924   1.90330
    A8        2.21057  -0.00137   0.00123  -0.03223  -0.03185   2.17872
    A9        2.21179  -0.00147   0.00121  -0.03251  -0.03065   2.18114
   A10        1.81270   0.00300  -0.00197   0.06475   0.06101   1.87371
   A11        2.91888   0.00284   0.02639   0.26056   0.28964   3.20852
   A12        3.14216  -0.00000  -0.00004  -0.00049  -0.00054   3.14162
    D1       -0.00001  -0.00000   0.00000  -0.00002  -0.00002  -0.00002
    D2        3.14159  -0.00000   0.00000  -0.00002  -0.00001   3.14157
    D3        3.14159   0.00000  -0.00000   0.00002   0.00002  -3.14157
    D4       -0.00000   0.00000  -0.00000   0.00002   0.00002   0.00002
    D5       -3.14156   0.00000  -0.00000   0.00009   0.00009  -3.14147
    D6        0.00004   0.00000  -0.00000   0.00012   0.00012   0.00016
    D7       -1.70404  -0.00050  -0.00644  -0.07128  -0.07199  -1.77603
    D8        1.69942   0.00051   0.00638   0.07298   0.07362   1.77304
    D9       -2.82849  -0.00038  -0.00166   0.00274   0.00753  -2.82095
         Item               Value     Threshold  Converged?
 Maximum Force            0.005331     0.000450     NO 
 RMS     Force            0.002027     0.000300     NO 
 Maximum Displacement     0.453477     0.001800     NO 
 RMS     Displacement     0.204470     0.001200     NO 
 Predicted change in Energy=-1.620077D-03
 GradGradGradGradGradGradGradGradGradGradGradGradGradGradGradGradGradGrad

                          Input orientation:                          
 ---------------------------------------------------------------------
 Center     Atomic      Atomic             Coordinates (Angstroms)
 Number     Number       Type             X           Y           Z
 ---------------------------------------------------------------------
      1          6           0       -0.384773    0.889913    0.593699
      2          6           0       -1.277004   -0.103044    0.521427
      3          1           0       -0.006590    1.193253    1.568207
      4          8           0        0.083707    1.551260   -0.491891
      5          1           0       -1.591628   -0.569548    1.430127
      6          1           0       -1.670475   -0.427318   -0.422599
      7          1           0        0.708810    2.217480   -0.206173
      8          8           0        1.901960    3.504442    0.216671
      9          1           0        1.705151    4.430899    0.264696
     10          1           0        2.843423    3.418761    0.141378
 ---------------------------------------------------------------------
                    Distance matrix (angstroms):
                    1          2          3          4          5
     1  C    0.000000
     2  C    1.336886   0.000000
     3  H    1.088441   2.095254   0.000000
     4  O    1.354754   2.369614   2.092923   0.000000
     5  H    2.070299   1.068808   2.374632   3.316433   0.000000
     6  H    2.102615   1.072920   3.059097   2.645133   1.859849
     7  H    1.896879   3.139696   2.170083   0.957203   3.966991
     8  O    3.493860   4.817951   3.287979   2.760983   5.502275
     9  H    4.124876   5.432844   3.887357   3.390254   6.101757
    10  H    4.125641   5.433735   3.887326   3.391847   6.102226
                    6          7          8          9         10
     6  H    0.000000
     7  H    3.564098   0.000000
     8  O    5.350672   1.805181   0.000000
     9  H    5.955627   2.472577   0.948347   0.000000
    10  H    5.956985   2.473953   0.948348   1.528167   0.000000
 Stoichiometry    C2H6O2
 Framework group  C1[X(C2H6O2)]
 Deg. of freedom    24
 Full point group                 C1      NOp   1
 Largest Abelian subgroup         C1      NOp   1
 Largest concise Abelian subgroup C1      NOp   1
                         Standard orientation:                         
 ---------------------------------------------------------------------
 Center     Atomic      Atomic             Coordinates (Angstroms)
 Number     Number       Type             X           Y           Z
 ---------------------------------------------------------------------
      1          6           0       -0.988267   -0.311287    0.000116
      2          6           0       -2.314552   -0.143259    0.000001
      3          1           0       -0.581552   -1.320884    0.000502
      4          8           0       -0.106793    0.717481   -0.000179
      5          1           0       -2.936108   -1.012751    0.000274
      6          1           0       -2.749193    0.837681   -0.000355
      7          1           0        0.783561    0.366045   -0.000133
      8          8           0        2.503235   -0.182951   -0.000039
      9          1           0        3.063853   -0.207808    0.764456
     10          1           0        3.064816   -0.211251   -0.763707
 ---------------------------------------------------------------------
 Rotational constants (GHZ):          33.6044371           2.3640313           2.2316088
 Standard basis: Aug-CC-pVTZ (5D, 7F)
 There are   370 symmetry adapted cartesian basis functions of A   symmetry.
 There are   322 symmetry adapted basis functions of A   symmetry.
   322 basis functions,   450 primitive gaussians,   370 cartesian basis functions
    17 alpha electrons       17 beta electrons
       nuclear repulsion energy       115.8700850718 Hartrees.
 NAtoms=   10 NActive=   10 NUniq=   10 SFac= 1.00D+00 NAtFMM=   60 NAOKFM=F Big=F
 Integral buffers will be    131072 words long.
 Raffenetti 1 integral format.
 Two-electron integral symmetry is turned on.
 One-electron integrals computed using PRISM.
 NBasis=   322 RedAO= T EigKep=  6.10D-06  NBF=   322
 NBsUse=   322 1.00D-06 EigRej= -1.00D+00 NBFU=   322
 Initial guess from the checkpoint file:  "/scr/Gau-59461.chk"
 B after Tr=     0.000000    0.000000    0.000000
         Rot=    0.999991    0.000005    0.000009    0.004144 Ang=   0.47 deg.
 ExpMin= 2.53D-02 ExpMax= 1.53D+04 ExpMxC= 5.22D+02 IAcc=3 IRadAn=         5 AccDes= 0.00D+00
 Harris functional with IExCor=  205 and IRadAn=       5 diagonalized for initial guess.
 HarFok:  IExCor=  205 AccDes= 0.00D+00 IRadAn=         5 IDoV= 1 UseB2=F ITyADJ=14
 ICtDFT=  3500011 ScaDFX=  1.000000  1.000000  1.000000  1.000000
 FoFCou: FMM=F IPFlag=           0 FMFlag=      100000 FMFlg1=           0
         NFxFlg=           0 DoJE=T BraDBF=F KetDBF=T FulRan=T
         wScrn=  0.000000 ICntrl=       500 IOpCl=  0 I1Cent=   200000004 NGrid=           0
         NMat0=    1 NMatS0=      1 NMatT0=    0 NMatD0=    1 NMtDS0=    0 NMtDT0=    0
 Petite list used in FoFCou.
 Keep R1 ints in memory in canonical form, NReq=1377716038.
 Requested convergence on RMS density matrix=1.00D-08 within 128 cycles.
 Requested convergence on MAX density matrix=1.00D-06.
 Requested convergence on             energy=1.00D-06.
 No special actions if energy rises.
 SCF Done:  E(RHF) =  -229.024670450     A.U. after   11 cycles
            NFock= 11  Conv=0.37D-08     -V/T= 2.0011
 ExpMin= 2.53D-02 ExpMax= 1.53D+04 ExpMxC= 5.22D+02 IAcc=3 IRadAn=         5 AccDes= 0.00D+00
 HarFok:  IExCor=  205 AccDes= 0.00D+00 IRadAn=         5 IDoV=-2 UseB2=F ITyADJ=14
 ICtDFT= 12500011 ScaDFX=  1.000000  1.000000  1.000000  1.000000
 Range of M.O.s used for correlation:     5   322
 NBasis=   322 NAE=    17 NBE=    17 NFC=     4 NFV=     0
 NROrb=    318 NOA=    13 NOB=    13 NVA=   305 NVB=   305

 **** Warning!!: The largest alpha MO coefficient is  0.87288000D+02

 Disk-based method using ON**2 memory for 13 occupieds at a time.
 Estimated scratch disk usage=  1211204158 words.
 Actual    scratch disk usage=  1109574206 words.
 JobTyp=1 Pass  1:  I=   5 to  17 NPSUse= 40 ParTrn=T ParDer=T DoDerP=T.
 (rs|ai) integrals will be sorted in core.
 Spin components of T(2) and E(2):
     alpha-alpha T2 =       0.2896800903D-01 E2=     -0.1024069539D+00
     alpha-beta  T2 =       0.1723571461D+00 E2=     -0.6456987917D+00
     beta-beta   T2 =       0.2896800903D-01 E2=     -0.1024069539D+00
 ANorm=    0.1109185811D+01
 E2 =    -0.8505126994D+00 EUMP2 =    -0.22987518314951D+03
          IDoAtm=1111111111
          Differentiating once with respect to electric field.
                with respect to dipole field.
          Differentiating once with respect to nuclear coordinates.
 Keep R1 ints in memory in canonical form, NReq=1377718044.
          There are     1 degrees of freedom in the 1st order CPHF.  IDoFFX=0 NUNeed=     1.
 LinEq1:  Iter=  0 NonCon=     1 RMS=2.77D-03 Max=8.33D-02 NDo=     1
 AX will form     1 AO Fock derivatives at one time.
 LinEq1:  Iter=  1 NonCon=     1 RMS=6.45D-04 Max=7.30D-03 NDo=     1
 LinEq1:  Iter=  2 NonCon=     1 RMS=2.28D-04 Max=5.28D-03 NDo=     1
 LinEq1:  Iter=  3 NonCon=     1 RMS=6.34D-05 Max=7.61D-04 NDo=     1
 LinEq1:  Iter=  4 NonCon=     1 RMS=2.55D-05 Max=4.02D-04 NDo=     1
 LinEq1:  Iter=  5 NonCon=     1 RMS=5.44D-06 Max=9.12D-05 NDo=     1
 LinEq1:  Iter=  6 NonCon=     1 RMS=1.71D-06 Max=4.40D-05 NDo=     1
 LinEq1:  Iter=  7 NonCon=     1 RMS=5.60D-07 Max=7.47D-06 NDo=     1
 LinEq1:  Iter=  8 NonCon=     1 RMS=1.24D-07 Max=2.51D-06 NDo=     1
 LinEq1:  Iter=  9 NonCon=     1 RMS=2.35D-08 Max=2.98D-07 NDo=     1
 LinEq1:  Iter= 10 NonCon=     1 RMS=4.92D-09 Max=1.15D-07 NDo=     1
 LinEq1:  Iter= 11 NonCon=     1 RMS=1.56D-09 Max=2.64D-08 NDo=     1
 LinEq1:  Iter= 12 NonCon=     1 RMS=6.59D-10 Max=8.53D-09 NDo=     1
 LinEq1:  Iter= 13 NonCon=     1 RMS=1.19D-10 Max=1.25D-09 NDo=     1
 LinEq1:  Iter= 14 NonCon=     0 RMS=2.09D-11 Max=2.57D-10 NDo=     1
 Linear equations converged to 1.000D-10 1.000D-09 after    14 iterations.
 End of Minotr F.D. properties file   721 does not exist.
 End of Minotr F.D. properties file   722 does not exist.
 End of Minotr F.D. properties file   788 does not exist.
 Calling FoFJK, ICntrl=  10002127 FMM=F ISym2X=0 I1Cent= 0 IOpClX= 0 NMat=1 NMatS=1 NMatT=0.
 ***** Axes restored to original set *****
 -------------------------------------------------------------------
 Center     Atomic                   Forces (Hartrees/Bohr)
 Number     Number              X              Y              Z
 -------------------------------------------------------------------
      1        6          -0.003392596   -0.004449334    0.005173594
      2        6           0.005710707    0.006778595   -0.002939092
      3        1           0.001816614    0.002480579   -0.003553461
      4        8          -0.008348552   -0.009023091   -0.002761275
      5        1          -0.002646312   -0.003557327    0.004701432
      6        1          -0.002348828   -0.002165641   -0.003792095
      7        1           0.008352426    0.009081276    0.002213200
      8        8          -0.011543195   -0.013209964    0.001958992
      9        1          -0.000635358    0.013116735    0.000242025
     10        1           0.013035095    0.000948173   -0.001243322
 -------------------------------------------------------------------
 Cartesian Forces:  Max     0.013209964 RMS     0.006340416

 GradGradGradGradGradGradGradGradGradGradGradGradGradGradGradGradGradGrad
 Berny optimization.
 Using GEDIIS/GDIIS optimizer.
 FormGI is forming the generalized inverse of G from B-inverse, IUseBI=4.
 Internal  Forces:  Max     0.013872566 RMS     0.004676239
 Search for a local minimum.
 Step number   3 out of a maximum of   40
 All quantities printed in internal units (Hartrees-Bohrs-Radians)
 Mixed Optimization -- RFO/linear search
 Update second derivatives using D2CorX and points    1    3    2
 DE=  3.69D-05 DEPred=-1.62D-03 R=-2.28D-02
 Trust test=-2.28D-02 RLast= 3.75D-01 DXMaxT set to 2.52D-01
 ITU= -1  1  0
 Use linear search instead of GDIIS.
     Eigenvalues ---    0.00230   0.00230   0.01103   0.01627   0.02147
     Eigenvalues ---    0.02719   0.02996   0.02996   0.04567   0.14582
     Eigenvalues ---    0.15779   0.16000   0.16000   0.16242   0.16389
     Eigenvalues ---    0.21870   0.35471   0.35705   0.36255   0.50143
     Eigenvalues ---    0.51203   0.52679   0.58189   0.59125
 RFO step:  Lambda=-3.16481996D-04 EMin= 2.29999600D-03
 Quartic linear search produced a step of -0.51681.
 Iteration  1 RMS(Cart)=  0.08828739 RMS(Int)=  0.00311581
 Iteration  2 RMS(Cart)=  0.00495789 RMS(Int)=  0.00072776
 Iteration  3 RMS(Cart)=  0.00000250 RMS(Int)=  0.00072775
 Iteration  4 RMS(Cart)=  0.00000000 RMS(Int)=  0.00072775
 Variable       Old X    -DE/DX   Delta X   Delta X   Delta X     New X
                                 (Linear)    (Quad)   (Total)
    R1        2.52635  -0.00115  -0.00394   0.00084  -0.00309   2.52326
    R2        2.05685  -0.00186  -0.00414  -0.00120  -0.00534   2.05151
    R3        2.56011   0.00042   0.00833  -0.00460   0.00373   2.56384
    R4        2.01975   0.00633   0.00993   0.00536   0.01530   2.03505
    R5        2.02752   0.00485   0.00798   0.00403   0.01202   2.03954
    R6        1.80885   0.01387   0.02143   0.00531   0.02676   1.83561
    R7        3.41130   0.00140  -0.08593   0.05386  -0.03208   3.37921
    R8        1.79212   0.01296   0.01721   0.00569   0.02291   1.81502
    R9        1.79212   0.01295   0.01721   0.00569   0.02290   1.81502
    A1        2.07978   0.00492   0.03166   0.00315   0.03481   2.11459
    A2        2.15322  -0.00096  -0.00966   0.00183  -0.00783   2.14539
    A3        2.05019  -0.00396  -0.02200  -0.00498  -0.02699   2.02320
    A4        2.06540   0.00107   0.01843  -0.00550   0.01293   2.07833
    A5        2.11391   0.00050  -0.00401   0.00416   0.00015   2.11405
    A6        2.10388  -0.00157  -0.01442   0.00134  -0.01308   2.09080
    A7        1.90330   0.00021  -0.00477  -0.00149  -0.00627   1.89703
    A8        2.17872   0.00111   0.01646  -0.00535   0.01146   2.19018
    A9        2.18114   0.00121   0.01584  -0.00489   0.01070   2.19184
   A10        1.87371  -0.00252  -0.03153   0.00439  -0.02661   1.84710
   A11        3.20852  -0.00178  -0.14969   0.01776  -0.13296   3.07556
   A12        3.14162   0.00001   0.00028   0.00133   0.00160   3.14322
    D1       -0.00002   0.00000   0.00001   0.00001   0.00001  -0.00001
    D2        3.14157   0.00000   0.00001   0.00001   0.00001   3.14159
    D3       -3.14157  -0.00000  -0.00001  -0.00000  -0.00001  -3.14158
    D4        0.00002  -0.00000  -0.00001   0.00000  -0.00001   0.00001
    D5       -3.14147  -0.00000  -0.00004   0.00002  -0.00003  -3.14150
    D6        0.00016  -0.00000  -0.00006   0.00001  -0.00005   0.00011
    D7       -1.77603  -0.00031   0.03720  -0.01387   0.02127  -1.75476
    D8        1.77304   0.00031  -0.03805   0.01437  -0.02162   1.75142
    D9       -2.82095   0.00050  -0.00389   0.01892   0.01261  -2.80834
         Item               Value     Threshold  Converged?
 Maximum Force            0.013873     0.000450     NO 
 RMS     Force            0.004676     0.000300     NO 
 Maximum Displacement     0.215136     0.001800     NO 
 RMS     Displacement     0.089720     0.001200     NO 
 Predicted change in Energy=-7.938948D-04
 GradGradGradGradGradGradGradGradGradGradGradGradGradGradGradGradGradGrad

                          Input orientation:                          
 ---------------------------------------------------------------------
 Center     Atomic      Atomic             Coordinates (Angstroms)
 Number     Number       Type             X           Y           Z
 ---------------------------------------------------------------------
      1          6           0       -0.368532    0.911744    0.559327
      2          6           0       -1.257961   -0.084053    0.545336
      3          1           0        0.056543    1.272136    1.490986
      4          8           0        0.060197    1.533384   -0.567821
      5          1           0       -1.555005   -0.533660    1.477718
      6          1           0       -1.680246   -0.441948   -0.381178
      7          1           0        0.700541    2.220482   -0.320018
      8          8           0        1.861630    3.455664    0.249074
      9          1           0        1.676851    4.393551    0.342469
     10          1           0        2.818562    3.378796    0.219649
 ---------------------------------------------------------------------
                    Distance matrix (angstroms):
                    1          2          3          4          5
     1  C    0.000000
     2  C    1.335250   0.000000
     3  H    1.085615   2.112208   0.000000
     4  O    1.356727   2.364902   2.075319   0.000000
     5  H    2.083352   1.076902   2.420364   3.326527   0.000000
     6  H    2.106568   1.079279   3.075633   2.639302   1.865366
     7  H    1.904983   3.145704   2.143322   0.971366   3.988063
     8  O    3.397264   4.727496   3.093296   2.758195   5.394225
     9  H    4.043958   5.357538   3.699693   3.409216   6.000925
    10  H    4.044662   5.358679   3.699063   3.410899   6.001512
                    6          7          8          9         10
     6  H    0.000000
     7  H    3.572174   0.000000
     8  O    5.304101   1.788202   0.000000
     9  H    5.930921   2.472711   0.960468   0.000000
    10  H    5.932820   2.473650   0.960465   1.532422   0.000000
 Stoichiometry    C2H6O2
 Framework group  C1[X(C2H6O2)]
 Deg. of freedom    24
 Full point group                 C1      NOp   1
 Largest Abelian subgroup         C1      NOp   1
 Largest concise Abelian subgroup C1      NOp   1
                         Standard orientation:                         
 ---------------------------------------------------------------------
 Center     Atomic      Atomic             Coordinates (Angstroms)
 Number     Number       Type             X           Y           Z
 ---------------------------------------------------------------------
      1          6           0       -0.946125   -0.297785   -0.000355
      2          6           0       -2.277694   -0.198711    0.000475
      3          1           0       -0.454924   -1.265918   -0.000965
      4          8           0       -0.126280    0.783215   -0.000477
      5          1           0       -2.869486   -1.098433    0.000529
      6          1           0       -2.765512    0.764033    0.001087
      7          1           0        0.794968    0.475231   -0.001219
      8          8           0        2.449800   -0.202408    0.000241
      9          1           0        3.024245   -0.269312    0.767076
     10          1           0        3.025459   -0.273080   -0.765341
 ---------------------------------------------------------------------
 Rotational constants (GHZ):          29.8352148           2.4567022           2.2941876
 Standard basis: Aug-CC-pVTZ (5D, 7F)
 There are   370 symmetry adapted cartesian basis functions of A   symmetry.
 There are   322 symmetry adapted basis functions of A   symmetry.
   322 basis functions,   450 primitive gaussians,   370 cartesian basis functions
    17 alpha electrons       17 beta electrons
       nuclear repulsion energy       116.1469973312 Hartrees.
 NAtoms=   10 NActive=   10 NUniq=   10 SFac= 1.00D+00 NAtFMM=   60 NAOKFM=F Big=F
 Integral buffers will be    131072 words long.
 Raffenetti 1 integral format.
 Two-electron integral symmetry is turned on.
 One-electron integrals computed using PRISM.
 NBasis=   322 RedAO= T EigKep=  6.16D-06  NBF=   322
 NBsUse=   322 1.00D-06 EigRej= -1.00D+00 NBFU=   322
 Lowest energy guess from the checkpoint file:  "/scr/Gau-59461.chk"
 B after Tr=    -0.000000    0.000000   -0.000000
         Rot=    0.999999    0.000037    0.000008    0.001153 Ang=   0.13 deg.
 B after Tr=    -0.000000   -0.000000   -0.000000
         Rot=    0.999996   -0.000024    0.000002   -0.002844 Ang=  -0.33 deg.
 Keep R1 ints in memory in canonical form, NReq=1377716038.
 Requested convergence on RMS density matrix=1.00D-08 within 128 cycles.
 Requested convergence on MAX density matrix=1.00D-06.
 Requested convergence on             energy=1.00D-06.
 No special actions if energy rises.
 SCF Done:  E(RHF) =  -229.023680766     A.U. after    9 cycles
            NFock=  9  Conv=0.72D-08     -V/T= 2.0015
 ExpMin= 2.53D-02 ExpMax= 1.53D+04 ExpMxC= 5.22D+02 IAcc=3 IRadAn=         5 AccDes= 0.00D+00
 HarFok:  IExCor=  205 AccDes= 0.00D+00 IRadAn=         5 IDoV=-2 UseB2=F ITyADJ=14
 ICtDFT= 12500011 ScaDFX=  1.000000  1.000000  1.000000  1.000000
 Range of M.O.s used for correlation:     5   322
 NBasis=   322 NAE=    17 NBE=    17 NFC=     4 NFV=     0
 NROrb=    318 NOA=    13 NOB=    13 NVA=   305 NVB=   305

 **** Warning!!: The largest alpha MO coefficient is  0.73477208D+02

 Disk-based method using ON**2 memory for 13 occupieds at a time.
 Estimated scratch disk usage=  1212910232 words.
 Actual    scratch disk usage=  1111244440 words.
 JobTyp=1 Pass  1:  I=   5 to  17 NPSUse= 40 ParTrn=T ParDer=T DoDerP=T.
 (rs|ai) integrals will be sorted in core.
 Spin components of T(2) and E(2):
     alpha-alpha T2 =       0.2916724549D-01 E2=     -0.1026638758D+00
     alpha-beta  T2 =       0.1735241021D+00 E2=     -0.6470808595D+00
     beta-beta   T2 =       0.2916724549D-01 E2=     -0.1026638758D+00
 ANorm=    0.1109891253D+01
 E2 =    -0.8524086110D+00 EUMP2 =    -0.22987608937672D+03
          IDoAtm=1111111111
          Differentiating once with respect to electric field.
                with respect to dipole field.
          Differentiating once with respect to nuclear coordinates.
 Keep R1 ints in memory in canonical form, NReq=1377718044.
          There are     1 degrees of freedom in the 1st order CPHF.  IDoFFX=0 NUNeed=     1.
 LinEq1:  Iter=  0 NonCon=     1 RMS=2.80D-03 Max=8.43D-02 NDo=     1
 AX will form     1 AO Fock derivatives at one time.
 LinEq1:  Iter=  1 NonCon=     1 RMS=6.51D-04 Max=6.41D-03 NDo=     1
 LinEq1:  Iter=  2 NonCon=     1 RMS=2.31D-04 Max=5.38D-03 NDo=     1
 LinEq1:  Iter=  3 NonCon=     1 RMS=6.48D-05 Max=8.17D-04 NDo=     1
 LinEq1:  Iter=  4 NonCon=     1 RMS=2.62D-05 Max=4.02D-04 NDo=     1
 LinEq1:  Iter=  5 NonCon=     1 RMS=5.56D-06 Max=8.49D-05 NDo=     1
 LinEq1:  Iter=  6 NonCon=     1 RMS=1.75D-06 Max=4.66D-05 NDo=     1
 LinEq1:  Iter=  7 NonCon=     1 RMS=5.68D-07 Max=6.68D-06 NDo=     1
 LinEq1:  Iter=  8 NonCon=     1 RMS=1.32D-07 Max=2.98D-06 NDo=     1
 LinEq1:  Iter=  9 NonCon=     1 RMS=2.56D-08 Max=3.70D-07 NDo=     1
 LinEq1:  Iter= 10 NonCon=     1 RMS=5.37D-09 Max=1.23D-07 NDo=     1
 LinEq1:  Iter= 11 NonCon=     1 RMS=1.21D-09 Max=2.47D-08 NDo=     1
 LinEq1:  Iter= 12 NonCon=     1 RMS=5.81D-10 Max=6.71D-09 NDo=     1
 LinEq1:  Iter= 13 NonCon=     1 RMS=1.24D-10 Max=1.48D-09 NDo=     1
 LinEq1:  Iter= 14 NonCon=     0 RMS=2.18D-11 Max=2.59D-10 NDo=     1
 Linear equations converged to 1.000D-10 1.000D-09 after    14 iterations.
 End of Minotr F.D. properties file   721 does not exist.
 End of Minotr F.D. properties file   722 does not exist.
 End of Minotr F.D. properties file   788 does not exist.
 Calling FoFJK, ICntrl=  10002127 FMM=F ISym2X=0 I1Cent= 0 IOpClX= 0 NMat=1 NMatS=1 NMatT=0.
 ***** Axes restored to original set *****
 -------------------------------------------------------------------
 Center     Atomic                   Forces (Hartrees/Bohr)
 Number     Number              X              Y              Z
 -------------------------------------------------------------------
      1        6          -0.000648022   -0.000892864    0.001321904
      2        6           0.000770557    0.000931133   -0.000530931
      3        1           0.000176213    0.000256022   -0.000460125
      4        8           0.000170216    0.000261212   -0.000681235
      5        1          -0.000252873   -0.000326455    0.000349056
      6        1          -0.000220033   -0.000229985   -0.000139091
      7        1          -0.001047096   -0.001080592   -0.000604880
      8        8          -0.000250450   -0.000444011    0.001250259
      9        1           0.000262797    0.001106093   -0.000210011
     10        1           0.001038690    0.000419446   -0.000294946
 -------------------------------------------------------------------
 Cartesian Forces:  Max     0.001321904 RMS     0.000661343

 GradGradGradGradGradGradGradGradGradGradGradGradGradGradGradGradGradGrad
 Berny optimization.
 Using GEDIIS/GDIIS optimizer.
 FormGI is forming the generalized inverse of G from B-inverse, IUseBI=4.
 Internal  Forces:  Max     0.001665225 RMS     0.000492601
 Search for a local minimum.
 Step number   4 out of a maximum of   40
 All quantities printed in internal units (Hartrees-Bohrs-Radians)
 Mixed Optimization -- En-DIIS/RFO-DIIS
 Update second derivatives using D2CorX and points    1    3    2    4
 DE= -8.69D-04 DEPred=-7.94D-04 R= 1.10D+00
 TightC=F SS=  1.41D+00  RLast= 2.30D-01 DXNew= 4.2426D-01 6.8901D-01
 Trust test= 1.10D+00 RLast= 2.30D-01 DXMaxT set to 4.24D-01
 ITU=  1 -1  1  0
 Use linear search instead of GDIIS.
     Eigenvalues ---    0.00230   0.00230   0.01079   0.01608   0.02147
     Eigenvalues ---    0.02732   0.02996   0.02996   0.03541   0.15106
     Eigenvalues ---    0.15776   0.16000   0.16002   0.16182   0.16280
     Eigenvalues ---    0.21908   0.35475   0.35710   0.36114   0.50219
     Eigenvalues ---    0.51843   0.52679   0.57837   0.59376
 RFO step:  Lambda=-1.05928487D-04 EMin= 2.29998784D-03
 Quartic linear search produced a step of  0.10091.
 Iteration  1 RMS(Cart)=  0.01326214 RMS(Int)=  0.00017055
 Iteration  2 RMS(Cart)=  0.00015314 RMS(Int)=  0.00013177
 Iteration  3 RMS(Cart)=  0.00000002 RMS(Int)=  0.00013177
 Variable       Old X    -DE/DX   Delta X   Delta X   Delta X     New X
                                 (Linear)    (Quad)   (Total)
    R1        2.52326  -0.00047   0.00046  -0.00073  -0.00027   2.52298
    R2        2.05151  -0.00024   0.00027  -0.00070  -0.00044   2.05108
    R3        2.56384   0.00062  -0.00125   0.00069  -0.00056   2.56328
    R4        2.03505   0.00051  -0.00040   0.00161   0.00121   2.03626
    R5        2.03954   0.00028  -0.00035   0.00082   0.00047   2.04001
    R6        1.83561   0.00004  -0.00148  -0.00084  -0.00233   1.83329
    R7        3.37921   0.00167   0.01354   0.03757   0.05111   3.43032
    R8        1.81502   0.00101  -0.00105   0.00180   0.00075   1.81578
    R9        1.81502   0.00101  -0.00105   0.00181   0.00076   1.81577
    A1        2.11459   0.00060  -0.00267   0.00299   0.00033   2.11492
    A2        2.14539  -0.00018   0.00110  -0.00036   0.00074   2.14613
    A3        2.02320  -0.00042   0.00157  -0.00264  -0.00107   2.02214
    A4        2.07833   0.00011  -0.00229  -0.00063  -0.00292   2.07541
    A5        2.11405   0.00015   0.00080   0.00177   0.00257   2.11662
    A6        2.09080  -0.00026   0.00150  -0.00114   0.00035   2.09115
    A7        1.89703  -0.00034   0.00030  -0.00269  -0.00239   1.89464
    A8        2.19018   0.00016  -0.00206  -0.00411  -0.00653   2.18365
    A9        2.19184   0.00025  -0.00201  -0.00336  -0.00569   2.18615
   A10        1.84710  -0.00054   0.00347  -0.00633  -0.00325   1.84386
   A11        3.07556  -0.00021   0.01581  -0.02637  -0.01045   3.06511
   A12        3.14322  -0.00002   0.00011  -0.00877  -0.00866   3.13456
    D1       -0.00001   0.00000  -0.00000   0.00000  -0.00000  -0.00001
    D2        3.14159  -0.00000  -0.00000  -0.00000  -0.00000   3.14158
    D3       -3.14158   0.00000   0.00000   0.00004   0.00004  -3.14155
    D4        0.00001   0.00000   0.00000   0.00003   0.00003   0.00004
    D5       -3.14150  -0.00000   0.00001  -0.00001  -0.00000  -3.14150
    D6        0.00011   0.00000   0.00001   0.00003   0.00003   0.00014
    D7       -1.75476  -0.00023  -0.00512  -0.01809  -0.02298  -1.77774
    D8        1.75142   0.00023   0.00525   0.01965   0.02467   1.77609
    D9       -2.80834   0.00036   0.00203   0.04165   0.04382  -2.76452
         Item               Value     Threshold  Converged?
 Maximum Force            0.001665     0.000450     NO 
 RMS     Force            0.000493     0.000300     NO 
 Maximum Displacement     0.030538     0.001800     NO 
 RMS     Displacement     0.013223     0.001200     NO 
 Predicted change in Energy=-5.541686D-05
 GradGradGradGradGradGradGradGradGradGradGradGradGradGradGradGradGradGrad

                          Input orientation:                          
 ---------------------------------------------------------------------
 Center     Atomic      Atomic             Coordinates (Angstroms)
 Number     Number       Type             X           Y           Z
 ---------------------------------------------------------------------
      1          6           0       -0.373706    0.910342    0.554718
      2          6           0       -1.259205   -0.088817    0.545901
      3          1           0        0.050959    1.276565    1.484018
      4          8           0        0.052017    1.529229   -0.574727
      5          1           0       -1.551893   -0.533813    1.482602
      6          1           0       -1.682577   -0.454291   -0.377444
      7          1           0        0.688803    2.218242   -0.327901
      8          8           0        1.870728    3.461774    0.265234
      9          1           0        1.690119    4.402126    0.345127
     10          1           0        2.827336    3.384740    0.218014
 ---------------------------------------------------------------------
                    Distance matrix (angstroms):
                    1          2          3          4          5
     1  C    0.000000
     2  C    1.335105   0.000000
     3  H    1.085384   2.112075   0.000000
     4  O    1.356431   2.364991   2.074192   0.000000
     5  H    2.081989   1.077542   2.417975   3.325849   0.000000
     6  H    2.108149   1.079528   3.076695   2.642364   1.866326
     7  H    1.902248   3.143372   2.139311   0.970134   3.984024
     8  O    3.410439   4.741514   3.093886   2.783519   5.400096
     9  H    4.061509   5.376560   3.708510   3.432645   6.013982
    10  H    4.059888   5.373354   3.708833   3.431291   6.010981
                    6          7          8          9         10
     6  H    0.000000
     7  H    3.573280   0.000000
     8  O    5.326779   1.815248   0.000000
     9  H    5.956675   2.494985   0.960867   0.000000
    10  H    5.952482   2.496410   0.960866   1.531175   0.000000
 Stoichiometry    C2H6O2
 Framework group  C1[X(C2H6O2)]
 Deg. of freedom    24
 Full point group                 C1      NOp   1
 Largest Abelian subgroup         C1      NOp   1
 Largest concise Abelian subgroup C1      NOp   1
                         Standard orientation:                         
 ---------------------------------------------------------------------
 Center     Atomic      Atomic             Coordinates (Angstroms)
 Number     Number       Type             X           Y           Z
 ---------------------------------------------------------------------
      1          6           0       -0.948221   -0.295058    0.002093
      2          6           0       -2.280388   -0.206641   -0.001965
      3          1           0       -0.449098   -1.258861    0.006450
      4          8           0       -0.136408    0.791618    0.001153
      5          1           0       -2.862678   -1.113301   -0.000865
      6          1           0       -2.778451    0.751115   -0.006290
      7          1           0        0.785150    0.488502    0.004601
      8          8           0        2.461125   -0.208778   -0.001139
      9          1           0        3.041182   -0.259697    0.763195
     10          1           0        3.037814   -0.260290   -0.767976
 ---------------------------------------------------------------------
 Rotational constants (GHZ):          29.3709629           2.4410803           2.2777717
 Standard basis: Aug-CC-pVTZ (5D, 7F)
 There are   370 symmetry adapted cartesian basis functions of A   symmetry.
 There are   322 symmetry adapted basis functions of A   symmetry.
   322 basis functions,   450 primitive gaussians,   370 cartesian basis functions
    17 alpha electrons       17 beta electrons
       nuclear repulsion energy       115.9279834764 Hartrees.
 NAtoms=   10 NActive=   10 NUniq=   10 SFac= 1.00D+00 NAtFMM=   60 NAOKFM=F Big=F
 Integral buffers will be    131072 words long.
 Raffenetti 1 integral format.
 Two-electron integral symmetry is turned on.
 One-electron integrals computed using PRISM.
 NBasis=   322 RedAO= T EigKep=  6.16D-06  NBF=   322
 NBsUse=   322 1.00D-06 EigRej= -1.00D+00 NBFU=   322
 Initial guess from the checkpoint file:  "/scr/Gau-59461.chk"
 B after Tr=    -0.000000   -0.000000   -0.000000
         Rot=    1.000000   -0.000207   -0.000028   -0.000867 Ang=  -0.10 deg.
 ExpMin= 2.53D-02 ExpMax= 1.53D+04 ExpMxC= 5.22D+02 IAcc=3 IRadAn=         5 AccDes= 0.00D+00
 Harris functional with IExCor=  205 and IRadAn=       5 diagonalized for initial guess.
 HarFok:  IExCor=  205 AccDes= 0.00D+00 IRadAn=         5 IDoV= 1 UseB2=F ITyADJ=14
 ICtDFT=  3500011 ScaDFX=  1.000000  1.000000  1.000000  1.000000
 FoFCou: FMM=F IPFlag=           0 FMFlag=      100000 FMFlg1=           0
         NFxFlg=           0 DoJE=T BraDBF=F KetDBF=T FulRan=T
         wScrn=  0.000000 ICntrl=       500 IOpCl=  0 I1Cent=   200000004 NGrid=           0
         NMat0=    1 NMatS0=      1 NMatT0=    0 NMatD0=    1 NMtDS0=    0 NMtDT0=    0
 Petite list used in FoFCou.
 Keep R1 ints in memory in canonical form, NReq=1377716038.
 Requested convergence on RMS density matrix=1.00D-08 within 128 cycles.
 Requested convergence on MAX density matrix=1.00D-06.
 Requested convergence on             energy=1.00D-06.
 No special actions if energy rises.
 SCF Done:  E(RHF) =  -229.023942268     A.U. after    9 cycles
            NFock=  9  Conv=0.46D-08     -V/T= 2.0015
 ExpMin= 2.53D-02 ExpMax= 1.53D+04 ExpMxC= 5.22D+02 IAcc=3 IRadAn=         5 AccDes= 0.00D+00
 HarFok:  IExCor=  205 AccDes= 0.00D+00 IRadAn=         5 IDoV=-2 UseB2=F ITyADJ=14
 ICtDFT= 12500011 ScaDFX=  1.000000  1.000000  1.000000  1.000000
 Range of M.O.s used for correlation:     5   322
 NBasis=   322 NAE=    17 NBE=    17 NFC=     4 NFV=     0
 NROrb=    318 NOA=    13 NOB=    13 NVA=   305 NVB=   305

 **** Warning!!: The largest alpha MO coefficient is  0.71354432D+02

 Disk-based method using ON**2 memory for 13 occupieds at a time.
 Estimated scratch disk usage=  1212817252 words.
 Actual    scratch disk usage=  1111078756 words.
 JobTyp=1 Pass  1:  I=   5 to  17 NPSUse= 40 ParTrn=T ParDer=T DoDerP=T.
 (rs|ai) integrals will be sorted in core.
 Spin components of T(2) and E(2):
     alpha-alpha T2 =       0.2915406398D-01 E2=     -0.1026127400D+00
     alpha-beta  T2 =       0.1735312097D+00 E2=     -0.6470134167D+00
     beta-beta   T2 =       0.2915406398D-01 E2=     -0.1026127400D+00
 ANorm=    0.1109882578D+01
 E2 =    -0.8522388968D+00 EUMP2 =    -0.22987618116510D+03
          IDoAtm=1111111111
          Differentiating once with respect to electric field.
                with respect to dipole field.
          Differentiating once with respect to nuclear coordinates.
 Keep R1 ints in memory in canonical form, NReq=1377718044.
          There are     1 degrees of freedom in the 1st order CPHF.  IDoFFX=0 NUNeed=     1.
 LinEq1:  Iter=  0 NonCon=     1 RMS=2.79D-03 Max=8.41D-02 NDo=     1
 AX will form     1 AO Fock derivatives at one time.
[...]
 00017924,0.00042131,-0.00105529,0.00003083,0.00001558,-0.00035900,-0.0
 0003071,-0.00012202,0.00012346,-0.00018063,-0.00027497,0.00048822,-0.0
 0001122,-0.00003752,0.00082024,-0.00002131,-0.00005574,0.00001270,-0.0
 0008759,-0.00008238,0.00003940,-0.00003683,-0.00001544,0.00021593,0.00
 015666,0.00016369,-0.00010466,-0.00000026,0.00001006,-0.00002929,-0.00
 011610,-0.00010162,-0.00005861,-0.00005937,-0.00001484,-0.00009530,-0.
 00006074,-0.00009321,0.00003822,0.00012603,0.00023757,0.00004853,0.000
 19381,0.00000122,-0.00006610,0.00017433,0.00015815,0.00020593,-0.00006
 710,-0.00000139,0.00000284,-0.00002213,-0.00010646,-0.00009368,-0.0000
 3590,-0.00002337,-0.00004727,-0.00011344,-0.00008702,-0.00008273,0.000
 03215,0.00022096,0.00010106,0.00004211,-0.00009780,-0.00019314,0.00000
 017,-0.00005370,0.00042609,-0.00005880,-0.00002291,-0.00035292,0.00001
 527,0.00003723,-0.00007676,0.00000020,0.00002210,-0.00010516,-0.000017
 11,-0.00002657,0.00002161,-0.00001095,-0.00002313,0.00011393,0.0001050
 0,0.00010464,-0.00014425,-0.00009844,0.00012013,-0.00000467,0.00001188
 ,-0.00001746,-0.00004191,0.00001026,0.00002313,0.00006064,0.00001713,0
 .00000992,0.00001330,-0.00003282,-0.00003868,-0.00000960,-0.00000175,-
 0.00000238,-0.00003063,-0.00000738,-0.00001405,-0.00001442,0.00005303,
 0.00003029,0.00004919,-0.00007997,-0.00002598,0.00004772,0.00004580,0.
 00003572,0.00003047,-0.00004595,-0.00005066,-0.00004099,0.00005482,-0.
 00000905,-0.00001120,0.00000084,0.00000210,-0.00002554,-0.00000244,0.0
 0001812,0.00000971,0.00000618,0.00001931,0.00002463,-0.00002613,0.0000
 0228,0.00002413,0.00004132,-0.00004345,0.00024954,-0.00005154,-0.00002
 462,-0.00021990,0.00001256,0.00006367,-0.00007942,-0.00001002,-0.00003
 493,0.00009690,-0.00001383,-0.00002443,0.00000446,-0.00001966,-0.00004
 264,0.00002006,0.00000691,0.00000676,-0.00002126,0.00000764,0.00001749
 ,-0.00002462,0.00004516,0.00001193,0.00003471,-0.00002268,-0.00005382,
 0.00007148,0.00000332,0.00000908,-0.00010493,0.00003325,0.00003582,-0.
 00006144,-0.00003853,-0.00006221,0.00006068,-0.00001228,-0.00001923,0.
 00000376,-0.00000383,-0.00000716,0.00001679,0.00000915,0.00002012,0.00
 000792,0.00002292,0.00002663,-0.00002809,-0.00002304,0.00000499,0.0000
 2356,-0.00012322,-0.00003831,0.00001695,-0.00001617,0.00005026,-0.0000
 0939,0.00015176,-0.00002850,0.00001779,-0.00003669,0.00003157,-0.00000
 117,0.00005209,0.00001065,0.00001869,0.00001721,-0.00004444,-0.0000389
 2,-0.00001177,-0.00000527,0.00000182,-0.00002744,-0.00001447,-0.000005
 33,-0.00001490,0.00004648,0.00005499,0.00005214,-0.00004495,-0.0000764
 5,-0.00010624,0.00005984,-0.00004084,0.00004689,-0.00001090,0.00006943
 ,0.00004750,0.00002344,-0.00008046,-0.00001391,-0.00001553,0.00009695,
 -0.00001889,-0.00001393,0.00000540,-0.00004247,-0.00003455,0.00002055,
 0.00000085,0.00000816,-0.00002496,0.00000974,0.00000816,-0.00002416,0.
 00001923,0.00005807,0.00004000,0.00010629,-0.00007635,0.00005064,-0.00
 007761,0.00001383,0.00000261,-0.00003074,0.00002872,-0.00008657,0.0033
 9313,-0.00525840,0.00080138,0.00461184,0.01019120,-0.03419448,0.000236
 93,0.00060207,-0.00248211,-0.00175648,0.00015913,0.00031499,-0.0034274
 1,0.00176046,-0.00129550,0.00152689,0.00110627,0.00519132,0.00049096,0
 .00052128,-0.00413139,0.00056401,-0.00104024,0.00223132,0.00012621,-0.
 00001932,-0.00040410,-0.00092792,-0.00074805,0.00012974,0.00230247,-0.
 00005497,0.00019127,-0.00044105,-0.00036976,-0.00141421,-0.00072146,-0
 .00106729,0.00301141,-0.00010967,-0.00000832,-0.00037689,0.00158524,0.
 00201899,-0.00302310,-0.01161073,0.00443310,-0.01091531,-0.00054940,-0
 .00156916,0.00150055,0.00111158,0.00012639,0.00074450,1.97385868,0.007
 43497,-0.00385463,-0.01791502,-0.00161463,-0.00142287,0.00154392,0.000
 05993,0.00083137,0.00158669,3.52083326,2.43639395,-0.03639007,-0.04643
 670,0.03223714,0.00266828,0.00277232,0.00230398,0.00110498,0.00198801,
 -0.00511874,1.51122416,1.61423300,-0.63489196,0.00020395,-0.00021039,-
 0.00042414,0.00065917,-0.00019420,-0.00019104,0.00015369,-0.00000810,0
 .00002631,-0.00058963,-0.00015315,-0.00024154,-0.00067671,-0.00019762,
 0.00018884,-0.00030103,-0.00016966,0.00071988,-0.00017792,0.00000223,0
 .00014256,0.00009119,-0.00024238,-0.00067150,-0.00034872,0.00029500,-0
 .00059971,-0.00021844,-0.00017347,-0.00023715,-0.00058625,-0.00062188,
 0.00107915,0.00003663,0.00012161,-0.00016708,0.00058908,0.00059864,-0.
 00002497,0.00012204,-0.00002238,-0.00055030,0.00005484,0.00027233,0.00
 051261,0.00050516,-0.00021520,-0.00010171,-0.00024612,0.00004337,-0.00
 007868,-0.00051383,0.00065938,-0.00008621,-0.00018297,-0.00008254,0.00
 003177,-0.00000683,0.00036102,0.00007901,0.00050768,-0.00022319,0.0005
 0878,0.00001935,0.00002111,-0.00021927,-0.00011948,0.00065232,-0.00034
 036,-0.00023137,-0.00005415,-0.00021492,0.00006394,0.00004239,0.000029
 73,-0.00001846,-0.00004131,-0.00026286,-0.00038397,-0.00030948,0.00000
 565,-0.00016453,-0.00013258,-0.00022086,0.00009235,-0.00006526,0.00004
 846,0.00005692,0.00001269,-0.00004308,-0.00008409,-0.00016305,0.000593
 78,0.00527725,-0.00178869,0.01866759,0.00289917,0.00270084,-0.00619156
 ,-0.00103789,0.00107286,-0.00394147,-1.95313554,-3.51507565,-1.4813530
 7,0.00105468,0.00090646,-0.00029435,-0.00001747,-0.00109078,0.00065593
 ,1.93396820,-0.00325110,-0.00145569,0.02174870,0.00180646,0.00393840,-
 0.00617571,0.00110386,0.00034998,-0.00522110,-3.51283077,-2.41965437,-
 1.57532036,0.00077194,0.00117338,-0.00028504,-0.00097860,-0.00031414,0
 .00083651,3.47963822,2.39942016,0.03110361,0.03569331,-0.00124028,0.00
 128842,0.00225397,-0.00544052,-0.00437136,-0.00576071,0.00514184,-1.50
 009379,-1.59634961,0.60258804,0.00087725,0.00103889,-0.00018915,-0.000
 31380,-0.00024668,0.00000424,1.46174430,1.55367984,-0.59132545,0.00174
 602,0.00244510,-0.01014312,-0.00189801,-0.00219008,0.00269367,0.000166
 05,-0.00005951,0.00201028,-0.00686414,-0.01067358,0.00289724,-0.000545
 13,-0.00044153,0.00029463,0.00036713,0.00022584,-0.00016111,0.00417444
 ,0.03079044,0.00273729,0.02972827,0.00122805,0.00336959,-0.01097561,-0
 .00180716,-0.00261911,0.00288971,0.00019159,-0.00004140,0.00219866,-0.
 01019182,-0.00946871,0.00321087,-0.00038662,-0.00065175,0.00029727,0.0
 0020272,0.00042797,-0.00014495,0.03050283,0.01053294,0.00163922,-0.027
 66453,0.02196170,-0.00016936,0.00024994,-0.00295922,-0.00049136,-0.000
 69820,0.00095323,-0.00008063,-0.00014045,0.00051367,-0.00114766,-0.001
 34240,0.00288068,-0.00015886,-0.00021303,0.00010077,0.00004233,0.00008
 323,-0.00010725,0.00511261,0.00430400,-0.01190733,0.00060266,0.0066856
 6,0.00693786,0.00016723,0.00063782,-0.00183786,-0.00026465,-0.00048639
 ,0.00053230,0.00006152,-0.00001438,0.00033468,-0.00242866,-0.00192963,
 0.00016073,-0.00004709,-0.00008150,0.00003922,-0.00000330,0.00006179,0
 .00001904,0.01052477,0.00385695,0.00564234,-0.00911471,0.00652151,-0.0
 0905855,0.00015263,-0.00009390,0.00001885,-0.00032546,0.00005339,0.000
 01392,0.00017631,0.00003256,0.00000489,0.00017292,0.00025839,0.0006353
 7,0.00005496,0.00000850,-0.00002989,-0.00001630,-0.00000489,0.00004337
 ,-0.00000342,0.00017100,-0.00348814,0.00160255,0.00424582,-0.01767361,
 0.00151341,-0.00751512,0.01936288,0.00007420,0.00024641,-0.00068023,-0
 .00014324,-0.00024671,0.00018381,0.00002453,0.00002878,0.00011020,-0.0
 0112758,-0.00074168,0.00001373,-0.00001527,-0.00004987,0.00001182,0.00
 001735,0.00006147,-0.00000813,0.00539696,-0.00004938,0.00058282,-0.010
 07460,0.00489815,0.00358674,0.00496427,-0.00372690,-0.00452150,-0.0000
 3229,-0.00009216,-0.00022088,0.00004210,0.00005409,0.00014403,0.000028
 23,0.00001123,0.00015044,0.00072175,0.00045917,0.00001553,-0.00002987,
 0.00001153,-0.00001445,0.00004331,0.00000369,-0.00001205,-0.00370758,-
 0.00090733,0.00138570,-0.01775994,0.00140343,0.00534884,0.00095227,0.0
 0284426,0.00088336,0.01974202,0.00036640,0.00040835,-0.00180539,-0.000
 35253,-0.00034939,0.00053763,0.00001709,0.00002410,0.00034806,-0.00146
 926,-0.00244818,0.00007801,-0.00006886,-0.00005678,0.00003732,0.000061
 11,-0.00000027,0.00001093,0.00296295,0.00949751,0.00644916,0.00332204,
 -0.00583763,-0.01044212,-0.00105105,0.00111235,-0.00042028,-0.00378789
 ,-0.00235006,0.00020136,0.00023195,-0.00086736,-0.00025178,-0.00023656
 ,0.00023334,0.00003849,0.00001569,0.00012865,-0.00086632,-0.00154831,-
 0.00003627,-0.00005162,-0.00002991,0.00002139,0.00006036,0.00002487,-0
 .00001041,0.00020315,0.00648265,0.00178573,0.00914305,-0.01069900,0.00
 000081,-0.00079617,0.00055194,0.00072075,-0.00768053,0.00520669,-0.001
 97663,-0.00038550,0.00010207,0.00008869,-0.00023085,-0.00042270,0.0004
 8658,0.00023155,0.00015155,0.00002878,0.00001661,0.00021053,0.00007801
 ,0.00003965,-0.00031322,0.00010149,-0.00010530,-0.00007733,-0.00003641
 ,0.00008828,-0.00000493,0.00014004,-0.00011290,0.00010439,0.00009852,-
 0.00000223,-0.00010097,-0.00004125,0.00014721,0.00003570,-0.00019289,0
 .00010253,-0.00009911,0.00000568,-0.00009441,-0.00005067,0.00017516,0.
 00011491,0.00006793,-0.00006751,-0.00005790,-0.00001177,0.00003539,-0.
 00007953,-0.00010304,0.00002553,0.00022259,-0.00025708,0.00048375,0.00
 008512,0.00007473,-0.00009423,-0.00003084,0.00000250,-0.00009928,0.012
 28292,-0.00028059,0.00001323,0.00064537,0.00017396,0.00011908,-0.00006
 479,-0.00004018,-0.00001662,-0.00010533,0.02241485,0.01541144,-0.00004
 588,0.00014340,-0.00052981,-0.00010800,-0.00016122,0.00013801,0.000076
 74,0.00009106,0.00006224,0.00948578,0.00997055,-0.00304697,0.00011157,
 -0.00010792,-0.00005651,-0.00016605,0.00005360,0.00001391,-0.00002381,
 0.00006628,0.00002043,-0.00000132,0.00002839,0.00000563,0.00009813,-0.
 00008078,0.00005423,0.00005189,0.00003180,-0.00015233,0.00006710,0.000
 08417,-0.00000199,0.00004068,0.00004157,0.00000897,-0.00002611,0.00000
 330,0.00012858,0.00002458,0.00003825,0.00003777,0.00000424,0.00005681,
 -0.00011590,-0.00003177,0.00000067,-0.00004695,-0.00001198,-0.00002964
 ,-0.00000372,0.00000870,-0.00009778,0.00006986,-0.00007291,0.00004324,
 0.00009421,-0.00009864,0.00008759,0.00000771,-0.00000929,-0.00002280,-
 0.00000941,-0.00001539,-0.00002774,-0.00000691,-0.00001514,-0.00004249
 ,-0.00000425,0.00016782,0.00007317,-0.00006404,0.00002270,0.00004092,-
 0.00008189,0.00004412,-0.00005377,-0.00002595,-0.00003190,-0.00001576,
 -0.00001465,0.00000129,-0.00001154,-0.00002654,0.00002727,-0.00005728,
 0.00016717,0.00005223,0.00002304,-0.00001388,0.00004238,0.00007136,-0.
 00006906,-0.00002367,0.00003528,-0.00001532,0.00000721,-0.00001815,-0.
 00002534,0.00000057,-0.00004676,0.00006155,-0.00007909,-0.00006208,0.0
 0006733,0.00009616,0.00015086,-0.00073950,-0.00011904,-0.00011847,0.00
 020412,0.00000860,0.00007460,0.00012280,-0.01308691,-0.02329700,-0.009
 82785,-0.00001627,-0.00004499,0.00001073,0.00004373,0.00003178,0.00000
 704,0.01333687,0.00007844,0.00018311,-0.00074039,-0.00007955,-0.000145
 61,0.00019519,0.00006221,0.00002774,0.00014139,-0.02327098,-0.01620432
 ,-0.01045937,-0.00003741,-0.00002466,0.00000426,0.00002604,0.00004446,
 0.00000275,0.02486515,0.01658038,0.00027395,0.00038100,-0.00040156,-0.
 00004780,-0.00006178,0.00008574,0.00003434,-0.00001904,0.00009728,-0.0
 1032281,-0.01099220,0.00354221,-0.00000870,-0.00000841,-0.00000435,0.0
 0001508,0.00001666,-0.00000062,0.01098994,0.01160994,-0.00363080,0.000
 01996,-0.00022880,-0.00002044,-0.00003212,0.00008924,-0.00005075,-0.00
 001697,0.00004881,0.00005284,0.00065704,0.00069026,0.00046809,-0.00000
 172,-0.00001635,0.00000783,-0.00000071,-0.00000619,0.00000851,-0.00074
 348,0.00032609,-0.00030069,2.45793928,-0.00022294,-0.00001889,-0.00004
 956,0.00007845,-0.00001591,-0.00003258,0.00005343,-0.00000406,0.000058
 60,0.00068195,0.00074038,0.00048749,-0.00001420,-0.00000396,0.00000852
 ,-0.00000038,0.00000323,0.00000867,0.00027187,-0.00070219,-0.00037387,
 -1.23720126,2.34308418,-0.00016930,-0.00020302,0.00035281,0.00003687,0
 .00005743,-0.00025595,-0.00000327,0.00000560,-0.00004815,0.00056106,0.
 00058377,0.00047297,-0.00000136,-0.00000250,0.00001754,-0.00003693,-0.
 00004237,0.00001756,0.00005141,0.00002099,-0.00086273,-0.98867527,-0.5
 5623808,-0.84671090,-0.00027324,-0.00025823,0.00061808,0.00015082,0.00
 015416,-0.00006839,-0.00003466,-0.00010783,0.00001165,0.00032087,0.000
 63730,-0.00035229,0.00002505,0.00001996,-0.00001604,0.00000444,0.00001
 173,0.00000667,-0.00037752,-0.00186119,-0.00050090,0.41989000,0.840426
 69,-0.13931944,-0.41090560,0.00022634,0.00019068,-0.00021486,-0.000109
 50,-0.00006504,0.00003576,0.00003528,0.00007191,-0.00007254,-0.0001586
 3,-0.00045547,0.00026143,0.00000566,-0.00000941,0.00000555,-0.00001507
 ,-0.00000412,-0.00001766,-0.00027205,0.00077861,-0.00012116,0.91990300
 ,-2.94140677,0.64782822,-0.91501898,2.94160665,0.00005030,0.00007004,0
 .00003838,-0.00000862,-0.00000732,0.00004615,-0.00001860,0.00000947,-0
 .00002492,-0.00010273,0.00000786,-0.00026295,0.00001420,0.00000327,-0.
 00000699,0.00000770,0.00001248,-0.00001213,0.00001816,-0.00061868,0.00
 056853,-0.16170869,0.67662979,0.54483014,0.14514829,-0.65909077,-0.578
 21897,0.00016302,0.00030049,-0.00027612,-0.00006629,-0.00013756,0.0000
 4578,0.00007470,0.00005213,-0.00007644,-0.00043402,-0.00029920,0.00030
 467,-0.00001071,0.00000339,0.00000793,-0.00000371,-0.00001263,-0.00002
 157,0.00085795,-0.00010867,-0.00013253,-2.87771128,0.39592639,1.127556
 26,-0.00880015,-0.00459606,0.01659998,2.88593048,-0.00014143,-0.000331
 74,0.00056532,0.00012437,0.00015624,-0.00006825,-0.00009428,-0.0000392
 9,0.00001612,0.00048690,0.00039806,-0.00030853,0.00001345,0.00002682,-
 0.00001403,0.00000934,0.00000259,0.00000382,-0.00166164,-0.00053740,-0
 .00043128,0.31639520,0.59832400,-0.09201002,0.07599638,-0.00070707,-0.
 01701614,-0.39112827,-0.59729222,0.00003581,-0.00002004,0.00013294,0.0
 0002131,0.00002125,0.00003215,-0.00001132,-0.00002784,-0.00001797,0.00
 009316,0.00000249,-0.00034659,0.00000279,0.00001815,-0.00000800,0.0000
 1205,0.00001195,-0.00000996,-0.00083679,-0.00015600,0.00060625,1.15021
 855,-0.12049898,0.30218670,-0.00552761,0.01138603,0.03304277,-1.144007
 95,0.10926299,-0.33561828,-0.00023942,-0.00036320,-0.00003831,0.000349
 56,0.00041886,-0.00057894,0.00039173,-0.00006072,-0.00015083,-0.000502
 63,-0.00003022,0.00019646,-0.00012458,0.00034618,-0.00024850,-0.000051
 69,0.00002042,0.00002210,0.00007168,-0.00012279,-0.00014486,-0.0001412
 9,0.00014109,-0.00001192,0.00004080,-0.00004982,0.00005130,0.00004679,
 0.00006157,-0.00019628,-0.00003672,-0.00003700,0.00005008,0.00001089,-
 0.00011150,0.00002351,0.00009360,0.00002876,0.00000730,-0.00005574,-0.
 00000821,0.00001382,0.00007947,0.00006286,0.00006739,0.00003415,0.0002
 7387,-0.00033656,-0.00007592,-0.00022655,0.00003383,0.00005442,-0.0000
 0706,0.00001571,-0.00020927,0.00020104,0.00011867,-0.00048740,-0.00014
 907,-0.00017148,0.00011274,-0.00001707,0.00007228,0.00004765,-0.000136
 63,-0.00017695,-0.00045733,-0.00053033,0.00064088,0.00019752,0.0002157
 1,-0.00004647,-0.00007765,-0.00005858,-0.00005244,0.00025667,0.0003459
 4,-0.00059952,0.00000127,-0.00000238,-0.00001374,-0.00002320,-0.000044
 77,-0.00009941,0.00004384,-0.00000456,0.00000604,-0.00002294,-0.000000
 83,0.00002185,0.00004517,0.00003306,-0.00003004,0.00007939,-0.00007407
 ,-0.00001558,-0.00004072,0.00001085,0.00004837,0.00003702,0.00000924,-
 0.00002677,-0.00000880,0.00005591,0.00007656,-0.00000176,-0.00001143,-
 0.00000249,-0.00004719,0.00001828,-0.00003315,-0.00002508,0.00002055,-
 0.00001801,0.00003068,0.00001734,0.00000693,0.00006153,-0.00005173,0.0
 0007361,-0.00008459,0.00008183,-0.00000034,0.00020182,-0.00006133,0.00
 006390,-0.00001592,0.00002982,-0.00000367,-0.00000167,-0.00002211,0.00
 003413,-0.00003301,-0.00002991,-0.00003208,-0.00009010,0.00009865,-0.0
 0005927,-0.00007844,-0.00009402,0.00018349,0.00012767,0.00000090,-0.00
 001816,-0.00003406,-0.00000710,-0.00000553,0.00004239,-0.00000534,-0.0
 0004275,0.00000457,0.00001708,-0.00007567,0.00006737,0.00004478,-0.000
 09153,-0.00001684,0.00002548,0.00018805,-0.00003595,0.00001288,0.00000
 326,0.00002224,-0.00000629,0.00002004,0.00002467,-0.00001103,-0.000035
 38,-0.00005952,-0.00006144,-0.00008243,-0.00009977,-0.00018364,0.00025
 056,-0.00000633,0.00007989,-0.00002845,-0.00002313,-0.00000352,-0.0000
 9624,0.00027834,0.00032103,0.00000041,-0.00000527,0.00000329,0.0000012
 1,0.00003778,0.00000162,0.00000319,-0.00014739,-0.00009664,-0.00014340
 ,0.00028731,0.00008154,0.00002692,-0.00005534,-0.00004645,-0.00000628,
 -0.00007637,0.00027230,0.00025727,-0.00001740,0.00000814,-0.00000280,-
 0.00001002,-0.00000231,0.00003455,-0.00000039,-0.00042334,-0.00007475,
 -0.00004806,-0.00006501,0.00029195,0.00002761,0.00003374,-0.00004402,0
 .00006567,0.00004453,-0.00007625,0.00012438,0.00014460,-0.00023553,0.0
 0000455,0.00000286,-0.00000525,-0.00000559,-0.00000529,0.00001097,-0.0
 0057050,-0.00058458,0.00011237,0.00007632,0.00012665,-0.00011922,0.000
 05370,-0.00000730,-0.00015864,-0.00002942,0.00008371,0.00005733,0.0006
 8807,0.00004892,0.00012235,-0.00002856,-0.00000558,0.00003597,-0.00004
 489,-0.00003488,0.00001587,-0.00160754,0.00080032,0.00040546,2.4876094
 4,0.00007535,0.00006846,-0.00003585,-0.00001585,0.00007595,-0.00015698
 ,0.00008893,-0.00000679,0.00002934,0.00008172,0.00075711,0.00006379,0.
 00000582,-0.00002474,0.00003174,-0.00002741,-0.00004743,0.00001380,0.0
 0066331,-0.00170613,0.00029222,-1.12045729,2.42414239,0.00017749,0.000
 31267,-0.00091997,-0.00008332,-0.00008144,-0.00004289,0.00000758,-0.00
 001735,0.00018946,-0.00012176,-0.00021771,0.00139773,-0.00004614,-0.00
 006195,0.00004698,-0.00004031,-0.00004956,0.00002407,0.00142967,0.0014
 4376,-0.00118681,-1.08576055,-0.66063725,-0.95004082,-0.00003402,-0.00
 008317,0.00020728,0.00000185,0.00003893,0.00001110,0.00000375,-0.00001
 230,-0.00003179,-0.00027522,-0.00017638,-0.00025781,0.00001442,0.00000
 596,-0.00001337,0.00000535,0.00000521,-0.00000256,0.00049451,-0.000315
 89,-0.00000493,0.53332950,0.84392024,-0.15085593,-0.53740895,0.0000575
 0,0.00012207,-0.00017263,-0.00002561,-0.00009435,0.00009203,-0.0000051
 0,0.00002538,-0.00006133,0.00001173,-0.00056605,0.00012828,-0.00001436
 ,0.00000778,-0.00000728,0.00000989,0.00002618,-0.00001415,-0.00036983,
 0.00118764,0.00012203,0.83991505,-3.11856754,0.74257218,-0.84157375,3.
 11339905,-0.00007052,-0.00008931,0.00029543,-0.00000253,0.00003939,0.0
 0005269,-0.00001630,-0.00002578,-0.00006986,-0.00025929,0.00024071,-0.
 00051764,0.00003370,0.00001425,-0.00001763,0.00003043,0.00002129,-0.00
 002016,0.00015512,-0.00104778,0.00049944,-0.15009151,0.74234937,0.6056
 4751,0.15348873,-0.73973955,-0.60316074,0.00009487,0.00006899,-0.00017
 450,-0.00008191,-0.00004528,0.00010652,0.00002081,0.00000153,-0.000064
 90,-0.00046995,-0.00006886,0.00015978,0.00000848,-0.00000860,-0.000010
 08,0.00002517,0.00001794,-0.00001823,0.00107877,-0.00027764,0.00000119
 ,-3.02004663,0.27566518,1.23529329,0.00386880,0.00199447,-0.00326781,3
 .01550157,-0.00003780,-0.00003933,0.00015035,0.00002838,-0.00000311,0.
 00001220,-0.00001118,0.00000870,-0.00002580,-0.00027148,-0.00025850,-0
 .00018108,0.00000256,0.00001028,-0.00001226,0.00000453,0.00000451,-0.0
 0000336,-0.00008881,0.00042698,0.00001465,0.27953038,0.69530873,-0.083
 26334,-0.00180886,0.00445982,-0.00176258,-0.27734772,-0.69991810,-0.00
 005828,-0.00012901,0.00033525,0.00005937,0.00000408,0.00003517,-0.0000
 3697,-0.00001305,-0.00006515,0.00023411,-0.00019754,-0.00061409,0.0000
 0651,0.00004016,-0.00001503,0.00001320,0.00003306,-0.00001725,-0.00114
 491,0.00006087,0.00063308,1.23549293,-0.08195018,0.34488472,-0.0025407
 2,-0.00291960,-0.00270903,-1.23202525,0.08507123,-0.34246766\\@
 The archive entry for this job was punched.


 EVERYTHING'S GOT A MORAL, IF ONLY YOU CAN FIND IT.

                                    -- LEWIS CARROL, ALICE IN WONDERLAND
 Job cpu time:      37 days  1 hours 49 minutes 25.0 seconds.
 Elapsed time:       0 days 22 hours 52 minutes 43.4 seconds.
 File lengths (MBytes):  RWF=  25546 Int=      0 D2E=      0 Chk=     56 Scr=      1
 Normal termination of Gaussian 16 at Sat Mar 22 16:19:19 2025.
