 Entering Gaussian System, Link 0=g16
 Input=enolt_h2o_mp2_avdz_opt_anharm.gjf
 Output=enolt_h2o_mp2_avdz_opt_anharm.log
 Initial command:
 /sw/contrib/chem-src/g16/c01/g16/l1.exe "/scr/Gau-98125.inp" -scrdir="/scr/"
 Entering Link 1 = /sw/contrib/chem-src/g16/c01/g16/l1.exe PID=     98126.
  
 Copyright (c) 1988-2019, Gaussian, Inc.  All Rights Reserved.
  
 This is part of the Gaussian(R) 16 program.  It is based on
 the Gaussian(R) 09 system (copyright 2009, Gaussian, Inc.),
 the Gaussian(R) 03 system (copyright 2003, Gaussian, Inc.),
 the Gaussian(R) 98 system (copyright 1998, Gaussian, Inc.),
 the Gaussian(R) 94 system (copyright 1995, Gaussian, Inc.),
 the Gaussian 92(TM) system (copyright 1992, Gaussian, Inc.),
 the Gaussian 90(TM) system (copyright 1990, Gaussian, Inc.),
 the Gaussian 88(TM) system (copyright 1988, Gaussian, Inc.),
 the Gaussian 86(TM) system (copyright 1986, Carnegie Mellon
 University), and the Gaussian 82(TM) system (copyright 1983,
 Carnegie Mellon University). Gaussian is a federally registered
 trademark of Gaussian, Inc.
  
 This software contains proprietary and confidential information,
 including trade secrets, belonging to Gaussian, Inc.
  
 This software is provided under written license and may be
 used, copied, transmitted, or stored only in accord with that
 written license.
  
 The following legend is applicable only to US Government
 contracts under FAR:
  
                    RESTRICTED RIGHTS LEGEND
  
 Use, reproduction and disclosure by the US Government is
 subject to restrictions as set forth in subparagraphs (a)
 and (c) of the Commercial Computer Software - Restricted
 Rights clause in FAR 52.227-19.
  
 Gaussian, Inc.
 340 Quinnipiac St., Bldg. 40, Wallingford CT 06492
  
  
 ---------------------------------------------------------------
 Warning -- This program may not be used in any manner that
 competes with the business of Gaussian, Inc. or will provide
 assistance to any competitor of Gaussian, Inc.  The licensee
 of this program is prohibited from giving any competitor of
 Gaussian, Inc. access to this program.  By using this program,
 the user acknowledges that Gaussian, Inc. is engaged in the
 business of creating and licensing software in the field of
 computational chemistry and represents and warrants to the
 licensee that it is not a competitor of Gaussian, Inc. and that
 it will not use this program in any manner prohibited above.
 ---------------------------------------------------------------
  

 Cite this work as:
 Gaussian 16, Revision C.01,
 M. J. Frisch, G. W. Trucks, H. B. Schlegel, G. E. Scuseria, 
 M. A. Robb, J. R. Cheeseman, G. Scalmani, V. Barone, 
 G. A. Petersson, H. Nakatsuji, X. Li, M. Caricato, A. V. Marenich, 
 J. Bloino, B. G. Janesko, R. Gomperts, B. Mennucci, H. P. Hratchian, 
 J. V. Ortiz, A. F. Izmaylov, J. L. Sonnenberg, D. Williams-Young, 
 F. Ding, F. Lipparini, F. Egidi, J. Goings, B. Peng, A. Petrone, 
 T. Henderson, D. Ranasinghe, V. G. Zakrzewski, J. Gao, N. Rega, 
 G. Zheng, W. Liang, M. Hada, M. Ehara, K. Toyota, R. Fukuda, 
 J. Hasegawa, M. Ishida, T. Nakajima, Y. Honda, O. Kitao, H. Nakai, 
 T. Vreven, K. Throssell, J. A. Montgomery, Jr., J. E. Peralta, 
 F. Ogliaro, M. J. Bearpark, J. J. Heyd, E. N. Brothers, K. N. Kudin, 
 V. N. Staroverov, T. A. Keith, R. Kobayashi, J. Normand, 
 K. Raghavachari, A. P. Rendell, J. C. Burant, S. S. Iyengar, 
 J. Tomasi, M. Cossi, J. M. Millam, M. Klene, C. Adamo, R. Cammi, 
 J. W. Ochterski, R. L. Martin, K. Morokuma, O. Farkas, 
 J. B. Foresman, and D. J. Fox, Gaussian, Inc., Wallingford CT, 2019.
 
 ******************************************
 Gaussian 16:  EM64L-G16RevC.01  3-Jul-2019
                21-Mar-2025 
 ******************************************
 %nprocshared=40
 Will use up to   40 processors via shared memory.
 %mem=50gb
 ----------------------------------------------
 # MP2/aug-cc-pVDZ opt freq=(vibrot,anharmonic)
 ----------------------------------------------
 1/18=20,19=15,38=1,80=1/1,3;
 2/9=110,12=2,17=6,18=5,40=1/2;
 3/5=16,7=10,11=9,25=1,30=1,71=1/1,2,3;
 4//1;
 5/5=2,38=5/2;
 8/6=4,10=1/1;
 9/15=2,16=-3/6;
 10/5=1/2;
 6/7=2,8=2,9=2,10=2/1;
 7/12=2/1,2,3,16;
 1/18=20,19=15,80=1/3(2);
 2/9=110/2;
 99//99;
 2/9=110/2;
 3/5=16,7=10,11=9,25=1,30=1,71=1/1,2,3;
 4/5=5,16=3,69=1/1;
 5/5=2,38=5/2;
 8/6=4,10=1/1;
 9/15=2,16=-3/6;
 10/5=1/2;
 7/12=2/1,2,3,16;
 1/18=20,19=15,80=1/3(-8);
 2/9=110/2;
 6/7=2,8=2,9=2,10=2/1;
 99/9=10/99;
 ----
 blah
 ----
 Symbolic Z-matrix:
 Charge =  0 Multiplicity = 1
 C                    -0.3736    0.89942   0.61725 
 C                    -1.26247  -0.08821   0.53292 
 H                     0.04955   1.25865   1.54636 
 O                     0.08544   1.55312  -0.49034 
 H                    -1.61813  -0.59833   1.42022 
 H                    -1.64891  -0.40188  -0.43092 
 H                     0.73056   2.24059  -0.19419 
 O                     1.84678   3.44476   0.20268 
 H                     1.68609   4.40273   0.26647 
 H                     2.81726   3.39525   0.14508 
 
 Add virtual bond connecting atoms O8         and H7         Dist= 3.19D+00.

 GradGradGradGradGradGradGradGradGradGradGradGradGradGradGradGradGradGrad
 Berny optimization.
 Initialization pass.
                           ----------------------------
                           !    Initial Parameters    !
                           ! (Angstroms and Degrees)  !
 --------------------------                            --------------------------
 ! Name  Definition              Value          Derivative Info.                !
 --------------------------------------------------------------------------------
 ! R1    R(1,2)                  1.3314         estimate D2E/DX2                !
 ! R2    R(1,3)                  1.0823         estimate D2E/DX2                !
 ! R3    R(1,4)                  1.3656         estimate D2E/DX2                !
 ! R4    R(2,5)                  1.0835         estimate D2E/DX2                !
 ! R5    R(2,6)                  1.0848         estimate D2E/DX2                !
 ! R6    R(4,7)                  0.9882         estimate D2E/DX2                !
 ! R7    R(7,8)                  1.6892         estimate D2E/DX2                !
 ! R8    R(8,9)                  0.9734         estimate D2E/DX2                !
 ! R9    R(8,10)                 0.9734         estimate D2E/DX2                !
 ! A1    A(2,1,3)              124.1682         estimate D2E/DX2                !
 ! A2    A(2,1,4)              121.88           estimate D2E/DX2                !
 ! A3    A(3,1,4)              113.9518         estimate D2E/DX2                !
 ! A4    A(1,2,5)              121.0981         estimate D2E/DX2                !
 ! A5    A(1,2,6)              120.5719         estimate D2E/DX2                !
 ! A6    A(5,2,6)              118.33           estimate D2E/DX2                !
 ! A7    A(1,4,7)              108.023          estimate D2E/DX2                !
 ! A8    A(7,8,9)              127.4329         estimate D2E/DX2                !
 ! A9    A(7,8,10)             127.4902         estimate D2E/DX2                !
 ! A10   A(9,8,10)             102.6207         estimate D2E/DX2                !
 ! A11   L(4,7,8,3,-1)         183.866          estimate D2E/DX2                !
 ! A12   L(4,7,8,3,-2)         180.0059         estimate D2E/DX2                !
 ! D1    D(3,1,2,5)             -0.0002         estimate D2E/DX2                !
 ! D2    D(3,1,2,6)            179.9997         estimate D2E/DX2                !
 ! D3    D(4,1,2,5)            180.0            estimate D2E/DX2                !
 ! D4    D(4,1,2,6)             -0.0002         estimate D2E/DX2                !
 ! D5    D(2,1,4,7)           -179.9996         estimate D2E/DX2                !
 ! D6    D(3,1,4,7)              0.0005         estimate D2E/DX2                !
 ! D7    D(1,4,8,9)           -101.6903         estimate D2E/DX2                !
 ! D8    D(1,4,8,10)           101.3871         estimate D2E/DX2                !
 ! D9    D(7,8,9,10)          -163.1052         estimate D2E/DX2                !
 --------------------------------------------------------------------------------
 Trust Radius=3.00D-01 FncErr=1.00D-07 GrdErr=1.00D-07 EigMax=2.50D+02 EigMin=1.00D-04
 Number of steps in this run=     40 maximum allowed number of steps=    100.
 GradGradGradGradGradGradGradGradGradGradGradGradGradGradGradGradGradGrad

                          Input orientation:                          
 ---------------------------------------------------------------------
 Center     Atomic      Atomic             Coordinates (Angstroms)
 Number     Number       Type             X           Y           Z
 ---------------------------------------------------------------------
      1          6           0       -0.373600    0.899418    0.617252
      2          6           0       -1.262468   -0.088212    0.532916
      3          1           0        0.049553    1.258654    1.546360
      4          8           0        0.085438    1.553117   -0.490342
      5          1           0       -1.618125   -0.598329    1.420224
      6          1           0       -1.648909   -0.401880   -0.430917
      7          1           0        0.730561    2.240591   -0.194186
      8          8           0        1.846784    3.444757    0.202680
      9          1           0        1.686088    4.402726    0.266472
     10          1           0        2.817260    3.395255    0.145083
 ---------------------------------------------------------------------
                    Distance matrix (angstroms):
                    1          2          3          4          5
     1  C    0.000000
     2  C    1.331394   0.000000
     3  H    1.082290   2.136004   0.000000
     4  O    1.365578   2.357513   2.058192   0.000000
     5  H    2.106384   1.083525   2.499089   3.343817   0.000000
     6  H    2.102010   1.084757   3.090594   2.614097   1.861790
     7  H    1.917380   3.150264   2.111273   0.988187   4.022700
     8  O    3.403046   4.717877   3.132820   2.675990   5.462101
     9  H    4.079035   5.378987   3.768495   3.354866   6.104058
    10  H    4.078448   5.378581   3.766809   3.355606   6.103060
                    6          7          8          9         10
     6  H    0.000000
     7  H    3.563786   0.000000
     8  O    5.236213   1.689222   0.000000
     9  H    5.890059   2.408333   0.973447   0.000000
    10  H    5.890388   2.408873   0.973444   1.519633   0.000000
 Stoichiometry    C2H6O2
 Framework group  C1[X(C2H6O2)]
 Deg. of freedom    24
 Full point group                 C1      NOp   1
 Largest Abelian subgroup         C1      NOp   1
 Largest concise Abelian subgroup C1      NOp   1
                         Standard orientation:                         
 ---------------------------------------------------------------------
 Center     Atomic      Atomic             Coordinates (Angstroms)
 Number     Number       Type             X           Y           Z
 ---------------------------------------------------------------------
      1          6           0       -0.966380   -0.328018    0.000120
      2          6           0       -2.284437   -0.140039    0.000089
      3          1           0       -0.491060   -1.300346    0.000491
      4          8           0       -0.088664    0.718126   -0.000321
      5          1           0       -2.969472   -0.979535    0.000441
      6          1           0       -2.698772    0.862470   -0.000291
      7          1           0        0.827737    0.348365   -0.000211
      8          8           0        2.433298   -0.176651    0.000096
      9          1           0        3.039945   -0.224758    0.759874
     10          1           0        3.039448   -0.229649   -0.759751
 ---------------------------------------------------------------------
 Rotational constants (GHZ):          33.5836604           2.4580629           2.3148380
 Standard basis: Aug-CC-pVDZ (5D, 7F)
 There are   154 symmetry adapted cartesian basis functions of A   symmetry.
 There are   146 symmetry adapted basis functions of A   symmetry.
   146 basis functions,   238 primitive gaussians,   154 cartesian basis functions
    17 alpha electrons       17 beta electrons
       nuclear repulsion energy       116.3920370049 Hartrees.
 NAtoms=   10 NActive=   10 NUniq=   10 SFac= 1.00D+00 NAtFMM=   60 NAOKFM=F Big=F
 Integral buffers will be    131072 words long.
 Raffenetti 1 integral format.
 Two-electron integral symmetry is turned on.
 One-electron integrals computed using PRISM.
 NBasis=   146 RedAO= T EigKep=  4.40D-05  NBF=   146
 NBsUse=   146 1.00D-06 EigRej= -1.00D+00 NBFU=   146
 ExpMin= 2.97D-02 ExpMax= 1.17D+04 ExpMxC= 4.01D+02 IAcc=3 IRadAn=         5 AccDes= 0.00D+00
 Harris functional with IExCor=  205 and IRadAn=       5 diagonalized for initial guess.
 HarFok:  IExCor=  205 AccDes= 0.00D+00 IRadAn=         5 IDoV= 1 UseB2=F ITyADJ=14
 ICtDFT=  3500011 ScaDFX=  1.000000  1.000000  1.000000  1.000000
 FoFCou: FMM=F IPFlag=           0 FMFlag=      100000 FMFlg1=           0
         NFxFlg=           0 DoJE=T BraDBF=F KetDBF=T FulRan=T
         wScrn=  0.000000 ICntrl=       500 IOpCl=  0 I1Cent=   200000004 NGrid=           0
         NMat0=    1 NMatS0=      1 NMatT0=    0 NMatD0=    1 NMtDS0=    0 NMtDT0=    0
 Petite list used in FoFCou.
 Keep R1 ints in memory in canonical form, NReq=66243569.
 Requested convergence on RMS density matrix=1.00D-08 within 128 cycles.
 Requested convergence on MAX density matrix=1.00D-06.
 Requested convergence on             energy=1.00D-06.
 No special actions if energy rises.
 SCF Done:  E(RHF) =  -228.961615948     A.U. after   13 cycles
            NFock= 13  Conv=0.55D-08     -V/T= 2.0016
 ExpMin= 2.97D-02 ExpMax= 1.17D+04 ExpMxC= 4.01D+02 IAcc=3 IRadAn=         5 AccDes= 0.00D+00
 HarFok:  IExCor=  205 AccDes= 0.00D+00 IRadAn=         5 IDoV=-2 UseB2=F ITyADJ=14
 ICtDFT= 12500011 ScaDFX=  1.000000  1.000000  1.000000  1.000000
 Range of M.O.s used for correlation:     5   146
 NBasis=   146 NAE=    17 NBE=    17 NFC=     4 NFV=     0
 NROrb=    142 NOA=    13 NOB=    13 NVA=   129 NVB=   129

 **** Warning!!: The largest alpha MO coefficient is  0.36890198D+02

 Fully direct method using O(ONN) memory.
 JobTyp=1 Pass  1:  I=   5 to  17 NPSUse= 40 ParTrn=T ParDer=T DoDerP=T.
 Spin components of T(2) and E(2):
     alpha-alpha T2 =       0.2789851642D-01 E2=     -0.8923171132D-01
     alpha-beta  T2 =       0.1620325874D+00 E2=     -0.5285586307D+00
     beta-beta   T2 =       0.2789851642D-01 E2=     -0.8923171132D-01
 ANorm=    0.1103553180D+01
 E2 =    -0.7070220533D+00 EUMP2 =    -0.22966863800133D+03
          IDoAtm=1111111111
          Differentiating once with respect to electric field.
                with respect to dipole field.
          Differentiating once with respect to nuclear coordinates.
 Keep R1 ints in memory in canonical form, NReq=66251523.
          There are     1 degrees of freedom in the 1st order CPHF.  IDoFFX=0 NUNeed=     1.
 LinEq1:  Iter=  0 NonCon=     1 RMS=4.54D-03 Max=7.88D-02 NDo=     1
 AX will form     1 AO Fock derivatives at one time.
 LinEq1:  Iter=  1 NonCon=     1 RMS=1.10D-03 Max=9.10D-03 NDo=     1
 LinEq1:  Iter=  2 NonCon=     1 RMS=3.94D-04 Max=5.44D-03 NDo=     1
 LinEq1:  Iter=  3 NonCon=     1 RMS=9.02D-05 Max=8.14D-04 NDo=     1
 LinEq1:  Iter=  4 NonCon=     1 RMS=3.51D-05 Max=5.07D-04 NDo=     1
 LinEq1:  Iter=  5 NonCon=     1 RMS=9.05D-06 Max=9.19D-05 NDo=     1
 LinEq1:  Iter=  6 NonCon=     1 RMS=3.04D-06 Max=2.89D-05 NDo=     1
 LinEq1:  Iter=  7 NonCon=     1 RMS=8.47D-07 Max=8.19D-06 NDo=     1
 LinEq1:  Iter=  8 NonCon=     1 RMS=2.17D-07 Max=1.74D-06 NDo=     1
 LinEq1:  Iter=  9 NonCon=     1 RMS=1.01D-07 Max=2.34D-06 NDo=     1
 LinEq1:  Iter= 10 NonCon=     1 RMS=2.46D-08 Max=1.95D-07 NDo=     1
 LinEq1:  Iter= 11 NonCon=     1 RMS=5.76D-09 Max=6.72D-08 NDo=     1
 LinEq1:  Iter= 12 NonCon=     1 RMS=8.80D-10 Max=7.14D-09 NDo=     1
 LinEq1:  Iter= 13 NonCon=     1 RMS=1.28D-10 Max=8.47D-10 NDo=     1
 LinEq1:  Iter= 14 NonCon=     0 RMS=2.20D-11 Max=2.05D-10 NDo=     1
 Linear equations converged to 1.000D-10 1.000D-09 after    14 iterations.
 End of Minotr F.D. properties file   721 does not exist.
 End of Minotr F.D. properties file   722 does not exist.
 End of Minotr F.D. properties file   788 does not exist.

 **********************************************************************

            Population analysis using the SCF Density.

 **********************************************************************

 Orbital symmetries:
       Occupied  (A) (A) (A) (A) (A) (A) (A) (A) (A) (A) (A) (A)
                 (A) (A) (A) (A) (A)
       Virtual   (A) (A) (A) (A) (A) (A) (A) (A) (A) (A) (A) (A)
                 (A) (A) (A) (A) (A) (A) (A) (A) (A) (A) (A) (A)
                 (A) (A) (A) (A) (A) (A) (A) (A) (A) (A) (A) (A)
                 (A) (A) (A) (A) (A) (A) (A) (A) (A) (A) (A) (A)
                 (A) (A) (A) (A) (A) (A) (A) (A) (A) (A) (A) (A)
                 (A) (A) (A) (A) (A) (A) (A) (A) (A) (A) (A) (A)
                 (A) (A) (A) (A) (A) (A) (A) (A) (A) (A) (A) (A)
                 (A) (A) (A) (A) (A) (A) (A) (A) (A) (A) (A) (A)
                 (A) (A) (A) (A) (A) (A) (A) (A) (A) (A) (A) (A)
                 (A) (A) (A) (A) (A) (A) (A) (A) (A) (A) (A) (A)
                 (A) (A) (A) (A) (A) (A) (A) (A) (A)
 The electronic state is 1-A.
 Alpha  occ. eigenvalues --  -20.62304 -20.56000 -11.28239 -11.19812  -1.39921
 Alpha  occ. eigenvalues --   -1.36516  -1.00147  -0.77327  -0.75127  -0.72806
 Alpha  occ. eigenvalues --   -0.63478  -0.59788  -0.55644  -0.54191  -0.53832
 Alpha  occ. eigenvalues --   -0.49271  -0.32171
 Alpha virt. eigenvalues --    0.01936   0.04877   0.05207   0.05986   0.07077
 Alpha virt. eigenvalues --    0.08126   0.12869   0.13454   0.14205   0.14788
 Alpha virt. eigenvalues --    0.16778   0.18571   0.18899   0.20809   0.21210
 Alpha virt. eigenvalues --    0.22853   0.22966   0.23643   0.25335   0.26135
 Alpha virt. eigenvalues --    0.29216   0.29866   0.30121   0.31932   0.34355
 Alpha virt. eigenvalues --    0.36120   0.36556   0.38765   0.40130   0.41471
 Alpha virt. eigenvalues --    0.43627   0.44117   0.47172   0.48430   0.50932
 Alpha virt. eigenvalues --    0.52518   0.54546   0.54879   0.55105   0.55545
 Alpha virt. eigenvalues --    0.56056   0.56815   0.61440   0.63307   0.63773
 Alpha virt. eigenvalues --    0.65245   0.65608   0.66140   0.67335   0.69692
 Alpha virt. eigenvalues --    0.70119   0.73965   0.75773   0.76407   0.81766
 Alpha virt. eigenvalues --    0.83453   0.86926   0.88336   0.90559   0.90858
 Alpha virt. eigenvalues --    0.95538   0.98078   0.99835   1.04317   1.08750
 Alpha virt. eigenvalues --    1.11902   1.19190   1.22777   1.24247   1.24250
 Alpha virt. eigenvalues --    1.25010   1.28233   1.33261   1.34263   1.42657
 Alpha virt. eigenvalues --    1.50731   1.52146   1.56076   1.57159   1.58540
 Alpha virt. eigenvalues --    1.63627   1.64708   1.68970   1.72420   1.77354
 Alpha virt. eigenvalues --    1.81908   1.83172   1.90880   1.92306   1.95664
 Alpha virt. eigenvalues --    1.99131   2.01461   2.03085   2.06351   2.11389
 Alpha virt. eigenvalues --    2.11759   2.12893   2.17430   2.19718   2.23160
 Alpha virt. eigenvalues --    2.29005   2.40738   2.41480   2.43645   2.46997
 Alpha virt. eigenvalues --    2.51234   2.53821   2.59190   2.70999   2.73201
 Alpha virt. eigenvalues --    2.80432   2.84683   2.88150   2.97162   3.03053
 Alpha virt. eigenvalues --    3.18252   3.24802   3.33601   3.56451   3.66037
 Alpha virt. eigenvalues --    3.74071   3.74129   3.78937   3.83348   3.84985
 Alpha virt. eigenvalues --    3.99821   4.04660   4.28896   4.51790
          Condensed to atoms (all electrons):
               1          2          3          4          5          6
     1  C    4.468900   0.357589   0.049518   0.025870   0.036891   0.009422
     2  C    0.357589   5.098160  -0.167368  -0.066250   0.178774   0.267869
     3  H    0.049518  -0.167368   1.682036  -0.005218  -0.118048   0.075973
     4  O    0.025870  -0.066250  -0.005218   8.566757   0.030528  -0.051442
     5  H    0.036891   0.178774  -0.118048   0.030528   1.401370  -0.283083
     6  H    0.009422   0.267869   0.075973  -0.051442  -0.283083   1.262275
     7  H   -0.000487  -0.009498  -0.106550   0.301387   0.009855  -0.015107
     8  O    0.020002  -0.033859   0.006369  -0.061908  -0.001513  -0.000039
     9  H    0.002288   0.000837   0.000074  -0.001083  -0.000147   0.000234
    10  H    0.002272   0.000837   0.000078  -0.001072  -0.000146   0.000232
               7          8          9         10
     1  C   -0.000487   0.020002   0.002288   0.002272
     2  C   -0.009498  -0.033859   0.000837   0.000837
     3  H   -0.106550   0.006369   0.000074   0.000078
     4  O    0.301387  -0.061908  -0.001083  -0.001072
     5  H    0.009855  -0.001513  -0.000147  -0.000146
     6  H   -0.015107  -0.000039   0.000234   0.000232
     7  H    0.539316  -0.087943  -0.001394  -0.001378
     8  O   -0.087943   7.960997   0.351628   0.351569
     9  H   -0.001394   0.351628   0.484295  -0.040730
    10  H   -0.001378   0.351569  -0.040730   0.484228
 Mulliken charges:
               1
     1  C    1.027735
     2  C    0.372909
     3  H   -0.416865
     4  O   -0.737569
     5  H   -0.254482
     6  H   -0.266334
     7  H    0.371799
     8  O   -0.505303
     9  H    0.203998
    10  H    0.204111
 Sum of Mulliken charges =  -0.00000
 Mulliken charges with hydrogens summed into heavy atoms:
               1
     1  C    0.610871
     2  C   -0.147908
     4  O   -0.365770
     8  O   -0.097194
 Electronic spatial extent (au):  <R**2>=            510.9373
 Charge=             -0.0000 electrons
 Dipole moment (field-independent basis, Debye):
    X=              4.6196    Y=             -1.7240    Z=              0.0004  Tot=              4.9308
 Quadrupole moment (field-independent basis, Debye-Ang):
   XX=            -11.2418   YY=            -26.9474   ZZ=            -25.7529
   XY=             -1.0959   XZ=              0.0007   YZ=              0.0100
 Traceless Quadrupole moment (field-independent basis, Debye-Ang):
   XX=             10.0723   YY=             -5.6334   ZZ=             -4.4389
   XY=             -1.0959   XZ=              0.0007   YZ=              0.0100
 Octapole moment (field-independent basis, Debye-Ang**2):
  XXX=             69.0496  YYY=             -0.3326  ZZZ=             -0.0011  XYY=              2.5312
  XXY=             -2.0140  XXZ=              0.0059  XZZ=             18.1107  YZZ=              0.5026
  YYZ=             -0.0036  XYZ=              0.0336
 Hexadecapole moment (field-independent basis, Debye-Ang**3):
 XXXX=           -358.1823 YYYY=            -63.8129 ZZZZ=            -31.7419 XXXY=            -18.5494
 XXXZ=              0.0300 YYYX=             -2.2798 YYYZ=              0.0048 ZZZX=              0.0061
 ZZZY=              0.0122 XXYY=           -100.5240 XXZZ=            -84.0757 YYZZ=            -17.2261
 XXYZ=              0.0864 YYXZ=             -0.0149 ZZXY=             -4.5291
 N-N= 1.163920370049D+02 E-N=-7.725613499533D+02  KE= 2.285854900211D+02
 Calling FoFJK, ICntrl=  10002127 FMM=F ISym2X=0 I1Cent= 0 IOpClX= 0 NMat=1 NMatS=1 NMatT=0.
 ***** Axes restored to original set *****
 -------------------------------------------------------------------
 Center     Atomic                   Forces (Hartrees/Bohr)
 Number     Number              X              Y              Z
 -------------------------------------------------------------------
      1        6           0.010079784    0.012155648   -0.006685194
      2        6          -0.012263179   -0.013856020    0.000679213
      3        1           0.001364906    0.000116257    0.011363474
      4        8           0.007510583    0.008504136   -0.000544397
      5        1          -0.000165531   -0.000796265    0.004889637
      6        1          -0.001497556   -0.001075862   -0.004854630
      7        1          -0.008874052   -0.009072856   -0.007247206
      8        8           0.013318876    0.014548990    0.003350138
      9        1          -0.002973023   -0.006833043   -0.000662409
     10        1          -0.006500807   -0.003690986   -0.000288627
 -------------------------------------------------------------------
 Cartesian Forces:  Max     0.014548990 RMS     0.007470542

 GradGradGradGradGradGradGradGradGradGradGradGradGradGradGradGradGradGrad
 Berny optimization.
 FormGI is forming the generalized inverse of G from B-inverse, IUseBI=4.
 Internal  Forces:  Max     0.020919392 RMS     0.005588948
 Search for a local minimum.
 Step number   1 out of a maximum of   40
 All quantities printed in internal units (Hartrees-Bohrs-Radians)
 Mixed Optimization -- RFO/linear search
 Second derivative matrix not updated -- first step.
 ITU=  0
     Eigenvalues ---    0.00230   0.00230   0.00230   0.01184   0.02147
     Eigenvalues ---    0.02749   0.02996   0.02996   0.07569   0.15650
     Eigenvalues ---    0.16000   0.16000   0.16000   0.16000   0.16000
     Eigenvalues ---    0.22000   0.35426   0.35572   0.35719   0.49825
     Eigenvalues ---    0.51836   0.52679   0.52679   0.59178
 RFO step:  Lambda=-3.45700950D-03 EMin= 2.30000000D-03
 Linear search not attempted -- first point.
 Maximum step size (   0.300) exceeded in Quadratic search.
    -- Step size scaled by   0.817
 Iteration  1 RMS(Cart)=  0.11653480 RMS(Int)=  0.01772972
 Iteration  2 RMS(Cart)=  0.06394553 RMS(Int)=  0.00126635
 Iteration  3 RMS(Cart)=  0.00207389 RMS(Int)=  0.00029405
 Iteration  4 RMS(Cart)=  0.00000036 RMS(Int)=  0.00029405
 Variable       Old X    -DE/DX   Delta X   Delta X   Delta X     New X
                                 (Linear)    (Quad)   (Total)
    R1        2.51597   0.02092   0.00000   0.02871   0.02871   2.54468
    R2        2.04523   0.01033   0.00000   0.02340   0.02340   2.06863
    R3        2.58057   0.00686   0.00000   0.01074   0.01074   2.59131
    R4        2.04757   0.00443   0.00000   0.01008   0.01008   2.05765
    R5        2.04989   0.00516   0.00000   0.01178   0.01178   2.06168
    R6        1.86740  -0.00824   0.00000  -0.01342  -0.01339   1.85402
    R7        3.19217   0.00597   0.00000   0.06163   0.06161   3.25378
    R8        1.83955  -0.00628   0.00000  -0.00967  -0.00967   1.82988
    R9        1.83954  -0.00628   0.00000  -0.00967  -0.00967   1.82987
    A1        2.16714  -0.00619   0.00000  -0.02939  -0.02939   2.13776
    A2        2.12721   0.00228   0.00000   0.00833   0.00833   2.13554
    A3        1.98883   0.00391   0.00000   0.02106   0.02106   2.00989
    A4        2.11356  -0.00262   0.00000  -0.01307  -0.01307   2.10049
    A5        2.10438   0.00069   0.00000   0.00345   0.00345   2.10783
    A6        2.06525   0.00192   0.00000   0.00962   0.00962   2.07487
    A7        1.88536   0.00240   0.00000   0.01200   0.01200   1.89736
    A8        2.22412  -0.00264   0.00000  -0.01502  -0.01491   2.20922
    A9        2.22512  -0.00243   0.00000  -0.01443  -0.01457   2.21056
   A10        1.79107   0.00485   0.00000   0.02246   0.02256   1.81363
   A11        3.20907  -0.00189   0.00000  -0.28509  -0.28554   2.92353
   A12        3.14170   0.00000   0.00000   0.00054   0.00054   3.14224
    D1       -0.00000  -0.00000   0.00000  -0.00001  -0.00001  -0.00001
    D2        3.14159  -0.00000   0.00000  -0.00000  -0.00000   3.14158
    D3        3.14159   0.00000   0.00000   0.00000   0.00000  -3.14159
    D4       -0.00000   0.00000   0.00000   0.00000   0.00000   0.00000
    D5       -3.14159   0.00000   0.00000   0.00004   0.00004  -3.14155
    D6        0.00001   0.00000   0.00000   0.00004   0.00004   0.00005
    D7       -1.77483   0.00069   0.00000   0.06716   0.06635  -1.70848
    D8        1.76954  -0.00068   0.00000  -0.06631  -0.06549   1.70404
    D9       -2.84672   0.00090   0.00000   0.02455   0.02354  -2.82318
         Item               Value     Threshold  Converged?
 Maximum Force            0.020919     0.000450     NO 
 RMS     Force            0.005589     0.000300     NO 
 Maximum Displacement     0.473562     0.001800     NO 
 RMS     Displacement     0.176314     0.001200     NO 
 Predicted change in Energy=-1.841591D-03
 GradGradGradGradGradGradGradGradGradGradGradGradGradGradGradGradGradGrad

                          Input orientation:                          
 ---------------------------------------------------------------------
 Center     Atomic      Atomic             Coordinates (Angstroms)
 Number     Number       Type             X           Y           Z
 ---------------------------------------------------------------------
      1          6           0       -0.335490    0.952849    0.530216
      2          6           0       -1.228264   -0.054400    0.571514
      3          1           0        0.130182    1.363055    1.431983
      4          8           0        0.055869    1.538888   -0.646117
      5          1           0       -1.515785   -0.496005    1.524371
      6          1           0       -1.675353   -0.441881   -0.345128
      7          1           0        0.707022    2.244598   -0.444784
      8          8           0        1.793384    3.377193    0.263541
      9          1           0        1.622815    4.316422    0.426067
     10          1           0        2.758201    3.305378    0.303878
 ---------------------------------------------------------------------
                    Distance matrix (angstroms):
                    1          2          3          4          5
     1  C    0.000000
     2  C    1.346589   0.000000
     3  H    1.094670   2.143586   0.000000
     4  O    1.371263   2.381215   2.086849   0.000000
     5  H    2.116747   1.088861   2.484723   3.364803   0.000000
     6  H    2.122906   1.090992   3.110607   2.647861   1.877077
     7  H    1.925116   3.172315   2.152236   0.981103   4.040958
     8  O    3.237386   4.582689   2.861512   2.688086   5.248043
     9  H    3.893512   5.220526   3.458641   3.364461   5.849491
    10  H    3.893141   5.220311   3.457127   3.365350   5.848681
                    6          7          8          9         10
     6  H    0.000000
     7  H    3.592048   0.000000
     8  O    5.194992   1.721825   0.000000
     9  H    5.840728   2.426833   0.968329   0.000000
    10  H    5.841195   2.427568   0.968327   1.525203   0.000000
 Stoichiometry    C2H6O2
 Framework group  C1[X(C2H6O2)]
 Deg. of freedom    24
 Full point group                 C1      NOp   1
 Largest Abelian subgroup         C1      NOp   1
 Largest concise Abelian subgroup C1      NOp   1
                         Standard orientation:                         
 ---------------------------------------------------------------------
 Center     Atomic      Atomic             Coordinates (Angstroms)
 Number     Number       Type             X           Y           Z
 ---------------------------------------------------------------------
      1          6           0       -0.884835   -0.287561   -0.000096
      2          6           0       -2.230768   -0.245544    0.000229
      3          1           0       -0.326019   -1.228851   -0.000201
      4          8           0       -0.115150    0.847317   -0.000309
      5          1           0       -2.809986   -1.167567    0.000391
      6          1           0       -2.759387    0.708827    0.000334
      7          1           0        0.830568    0.586204   -0.000573
      8          8           0        2.351851   -0.220257    0.000119
      9          1           0        2.932550   -0.356224    0.762984
     10          1           0        2.932290   -0.360240   -0.762214
 ---------------------------------------------------------------------
 Rotational constants (GHZ):          26.4564324           2.6223099           2.4125324
 Standard basis: Aug-CC-pVDZ (5D, 7F)
 There are   154 symmetry adapted cartesian basis functions of A   symmetry.
 There are   146 symmetry adapted basis functions of A   symmetry.
   146 basis functions,   238 primitive gaussians,   154 cartesian basis functions
    17 alpha electrons       17 beta electrons
       nuclear repulsion energy       116.6869698786 Hartrees.
 NAtoms=   10 NActive=   10 NUniq=   10 SFac= 1.00D+00 NAtFMM=   60 NAOKFM=F Big=F
 Integral buffers will be    131072 words long.
 Raffenetti 1 integral format.
 Two-electron integral symmetry is turned on.
 One-electron integrals computed using PRISM.
 NBasis=   146 RedAO= T EigKep=  4.12D-05  NBF=   146
 NBsUse=   146 1.00D-06 EigRej= -1.00D+00 NBFU=   146
 Initial guess from the checkpoint file:  "/scr/Gau-98126.chk"
 B after Tr=    -0.000000    0.000000   -0.000000
         Rot=    0.999988   -0.000125    0.000001   -0.004873 Ang=  -0.56 deg.
 ExpMin= 2.97D-02 ExpMax= 1.17D+04 ExpMxC= 4.01D+02 IAcc=3 IRadAn=         5 AccDes= 0.00D+00
 Harris functional with IExCor=  205 and IRadAn=       5 diagonalized for initial guess.
 HarFok:  IExCor=  205 AccDes= 0.00D+00 IRadAn=         5 IDoV= 1 UseB2=F ITyADJ=14
 ICtDFT=  3500011 ScaDFX=  1.000000  1.000000  1.000000  1.000000
 FoFCou: FMM=F IPFlag=           0 FMFlag=      100000 FMFlg1=           0
         NFxFlg=           0 DoJE=T BraDBF=F KetDBF=T FulRan=T
         wScrn=  0.000000 ICntrl=       500 IOpCl=  0 I1Cent=   200000004 NGrid=           0
         NMat0=    1 NMatS0=      1 NMatT0=    0 NMatD0=    1 NMtDS0=    0 NMtDT0=    0
 Petite list used in FoFCou.
 Keep R1 ints in memory in canonical form, NReq=66244919.
 Requested convergence on RMS density matrix=1.00D-08 within 128 cycles.
 Requested convergence on MAX density matrix=1.00D-06.
 Requested convergence on             energy=1.00D-06.
 No special actions if energy rises.
 SCF Done:  E(RHF) =  -228.962391909     A.U. after   12 cycles
            NFock= 12  Conv=0.86D-08     -V/T= 2.0020
 ExpMin= 2.97D-02 ExpMax= 1.17D+04 ExpMxC= 4.01D+02 IAcc=3 IRadAn=         5 AccDes= 0.00D+00
 HarFok:  IExCor=  205 AccDes= 0.00D+00 IRadAn=         5 IDoV=-2 UseB2=F ITyADJ=14
 ICtDFT= 12500011 ScaDFX=  1.000000  1.000000  1.000000  1.000000
 Range of M.O.s used for correlation:     5   146
 NBasis=   146 NAE=    17 NBE=    17 NFC=     4 NFV=     0
 NROrb=    142 NOA=    13 NOB=    13 NVA=   129 NVB=   129

 **** Warning!!: The largest alpha MO coefficient is  0.37923664D+02

 Fully direct method using O(ONN) memory.
 JobTyp=1 Pass  1:  I=   5 to  17 NPSUse= 40 ParTrn=T ParDer=T DoDerP=T.
 Spin components of T(2) and E(2):
     alpha-alpha T2 =       0.2799970666D-01 E2=     -0.8923390355D-01
     alpha-beta  T2 =       0.1629338010D+00 E2=     -0.5291204728D+00
     beta-beta   T2 =       0.2799970666D-01 E2=     -0.8923390355D-01
 ANorm=    0.1104053085D+01
 E2 =    -0.7075882799D+00 EUMP2 =    -0.22966998018926D+03
          IDoAtm=1111111111
          Differentiating once with respect to electric field.
                with respect to dipole field.
          Differentiating once with respect to nuclear coordinates.
 Keep R1 ints in memory in canonical form, NReq=66254105.
          There are     1 degrees of freedom in the 1st order CPHF.  IDoFFX=0 NUNeed=     1.
 LinEq1:  Iter=  0 NonCon=     1 RMS=4.55D-03 Max=7.79D-02 NDo=     1
 AX will form     1 AO Fock derivatives at one time.
 LinEq1:  Iter=  1 NonCon=     1 RMS=1.10D-03 Max=9.01D-03 NDo=     1
 LinEq1:  Iter=  2 NonCon=     1 RMS=3.95D-04 Max=5.47D-03 NDo=     1
 LinEq1:  Iter=  3 NonCon=     1 RMS=9.29D-05 Max=9.09D-04 NDo=     1
 LinEq1:  Iter=  4 NonCon=     1 RMS=3.55D-05 Max=4.83D-04 NDo=     1
 LinEq1:  Iter=  5 NonCon=     1 RMS=9.31D-06 Max=1.16D-04 NDo=     1
 LinEq1:  Iter=  6 NonCon=     1 RMS=3.03D-06 Max=2.84D-05 NDo=     1
 LinEq1:  Iter=  7 NonCon=     1 RMS=7.95D-07 Max=7.64D-06 NDo=     1
 LinEq1:  Iter=  8 NonCon=     1 RMS=1.93D-07 Max=1.80D-06 NDo=     1
 LinEq1:  Iter=  9 NonCon=     1 RMS=8.72D-08 Max=1.97D-06 NDo=     1
 LinEq1:  Iter= 10 NonCon=     1 RMS=2.21D-08 Max=1.93D-07 NDo=     1
 LinEq1:  Iter= 11 NonCon=     1 RMS=5.61D-09 Max=8.16D-08 NDo=     1
 LinEq1:  Iter= 12 NonCon=     1 RMS=8.90D-10 Max=7.05D-09 NDo=     1
 LinEq1:  Iter= 13 NonCon=     1 RMS=1.30D-10 Max=8.81D-10 NDo=     1
 LinEq1:  Iter= 14 NonCon=     0 RMS=2.22D-11 Max=2.14D-10 NDo=     1
 Linear equations converged to 1.000D-10 1.000D-09 after    14 iterations.
 End of Minotr F.D. properties file   721 does not exist.
 End of Minotr F.D. properties file   722 does not exist.
 End of Minotr F.D. properties file   788 does not exist.
 Calling FoFJK, ICntrl=  10002127 FMM=F ISym2X=0 I1Cent= 0 IOpClX= 0 NMat=1 NMatS=1 NMatT=0.
 ***** Axes restored to original set *****
 -------------------------------------------------------------------
 Center     Atomic                   Forces (Hartrees/Bohr)
 Number     Number              X              Y              Z
 -------------------------------------------------------------------
      1        6           0.003441751    0.004150718   -0.002302417
      2        6          -0.002687635   -0.002899824   -0.000938816
      3        1          -0.000171112   -0.000399393    0.001680932
      4        8           0.000818371    0.001055021   -0.001133266
      5        1           0.000875620    0.000832549    0.001207298
      6        1          -0.000124636   -0.000057574   -0.000661889
      7        1          -0.005670666   -0.006424844    0.000452922
      8        8           0.007090985    0.007532227    0.003550193
      9        1          -0.001590017   -0.002069233   -0.000945227
     10        1          -0.001982662   -0.001719648   -0.000909730
 -------------------------------------------------------------------
 Cartesian Forces:  Max     0.007532227 RMS     0.002994575

 GradGradGradGradGradGradGradGradGradGradGradGradGradGradGradGradGradGrad
 Berny optimization.
 Using GEDIIS/GDIIS optimizer.
 FormGI is forming the generalized inverse of G from B-inverse, IUseBI=4.
 Internal  Forces:  Max     0.005366703 RMS     0.001741337
 Search for a local minimum.
 Step number   2 out of a maximum of   40
 All quantities printed in internal units (Hartrees-Bohrs-Radians)
 Mixed Optimization -- RFO/linear search
 Update second derivatives using D2CorX and points    1    2
 DE= -1.34D-03 DEPred=-1.84D-03 R= 7.29D-01
 TightC=F SS=  1.41D+00  RLast= 3.15D-01 DXNew= 5.0454D-01 9.4586D-01
 Trust test= 7.29D-01 RLast= 3.15D-01 DXMaxT set to 5.05D-01
 ITU=  1  0
 Use linear search instead of GDIIS.
     Eigenvalues ---    0.00230   0.00230   0.00600   0.01240   0.02147
     Eigenvalues ---    0.02739   0.02996   0.02996   0.05213   0.13847
     Eigenvalues ---    0.15794   0.16000   0.16000   0.16000   0.16671
     Eigenvalues ---    0.22007   0.34703   0.35484   0.35604   0.47636
     Eigenvalues ---    0.51708   0.52679   0.52866   0.57490
 RFO step:  Lambda=-2.60691312D-03 EMin= 2.29999534D-03
 Quartic linear search produced a step of -0.04727.
 Iteration  1 RMS(Cart)=  0.15970981 RMS(Int)=  0.03722851
 Iteration  2 RMS(Cart)=  0.12488026 RMS(Int)=  0.00629959
 Iteration  3 RMS(Cart)=  0.01087640 RMS(Int)=  0.00238244
 Iteration  4 RMS(Cart)=  0.00000530 RMS(Int)=  0.00238244
 Iteration  5 RMS(Cart)=  0.00000003 RMS(Int)=  0.00238244
 Variable       Old X    -DE/DX   Delta X   Delta X   Delta X     New X
                                 (Linear)    (Quad)   (Total)
    R1        2.54468   0.00286  -0.00136   0.04284   0.04148   2.58616
    R2        2.06863   0.00116  -0.00111   0.03409   0.03298   2.10161
    R3        2.59131  -0.00195  -0.00051   0.01024   0.00973   2.60104
    R4        2.05765   0.00049  -0.00048   0.01466   0.01418   2.07183
    R5        2.06168   0.00063  -0.00056   0.01730   0.01675   2.07842
    R6        1.85402  -0.00289   0.00063  -0.02363  -0.02280   1.83121
    R7        3.25378   0.00537  -0.00291   0.15019   0.14717   3.40095
    R8        1.82988  -0.00189   0.00046  -0.01645  -0.01599   1.81388
    R9        1.82987  -0.00189   0.00046  -0.01645  -0.01599   1.81388
    A1        2.13776  -0.00143   0.00139  -0.04726  -0.04588   2.09188
    A2        2.13554   0.00019  -0.00039   0.01179   0.01139   2.14693
    A3        2.00989   0.00124  -0.00100   0.03548   0.03448   2.04437
    A4        2.10049  -0.00207   0.00062  -0.03031  -0.02970   2.07079
    A5        2.10783   0.00078  -0.00016   0.00949   0.00932   2.11715
    A6        2.07487   0.00130  -0.00045   0.02083   0.02037   2.09524
    A7        1.89736  -0.00230  -0.00057   0.00085   0.00028   1.89764
    A8        2.20922  -0.00121   0.00070  -0.02509  -0.02535   2.18387
    A9        2.21056  -0.00127   0.00069  -0.02511  -0.02352   2.18704
   A10        1.81363   0.00258  -0.00107   0.04803   0.04452   1.85815
   A11        2.92353   0.00262   0.01350   0.37605   0.39274   3.31627
   A12        3.14224  -0.00001  -0.00003  -0.00078  -0.00080   3.14143
    D1       -0.00001  -0.00000   0.00000  -0.00002  -0.00002  -0.00003
    D2        3.14158  -0.00000   0.00000  -0.00002  -0.00002   3.14157
    D3       -3.14159   0.00000  -0.00000   0.00003   0.00003  -3.14157
    D4        0.00000   0.00000  -0.00000   0.00003   0.00003   0.00003
    D5       -3.14155   0.00000  -0.00000   0.00011   0.00010  -3.14144
    D6        0.00005   0.00000  -0.00000   0.00015   0.00015   0.00020
    D7       -1.70848  -0.00054  -0.00314  -0.10636  -0.10264  -1.81112
    D8        1.70404   0.00055   0.00310   0.10851   0.10475   1.80879
    D9       -2.82318  -0.00019  -0.00111   0.00893   0.01544  -2.80775
         Item               Value     Threshold  Converged?
 Maximum Force            0.005367     0.000450     NO 
 RMS     Force            0.001741     0.000300     NO 
 Maximum Displacement     0.627296     0.001800     NO 
 RMS     Displacement     0.272623     0.001200     NO 
 Predicted change in Energy=-1.569732D-03
 GradGradGradGradGradGradGradGradGradGradGradGradGradGradGradGradGradGrad

                          Input orientation:                          
 ---------------------------------------------------------------------
 Center     Atomic      Atomic             Coordinates (Angstroms)
 Number     Number       Type             X           Y           Z
 ---------------------------------------------------------------------
      1          6           0       -0.395141    0.873233    0.634743
      2          6           0       -1.309118   -0.137051    0.504847
      3          1           0       -0.027317    1.160651    1.644156
      4          8           0        0.107902    1.571975   -0.439137
      5          1           0       -1.662051   -0.646085    1.409470
      6          1           0       -1.688910   -0.440725   -0.481669
      7          1           0        0.734700    2.235060   -0.112833
      8          8           0        1.933408    3.542722    0.190570
      9          1           0        1.736631    4.482192    0.194950
     10          1           0        2.882478    3.464123    0.070445
 ---------------------------------------------------------------------
                    Distance matrix (angstroms):
                    1          2          3          4          5
     1  C    0.000000
     2  C    1.368539   0.000000
     3  H    1.112124   2.150597   0.000000
     4  O    1.376412   2.412430   2.127811   0.000000
     5  H    2.124521   1.096367   2.447801   3.386720   0.000000
     6  H    2.155621   1.099853   3.137584   2.698389   1.902447
     7  H    1.920933   3.191493   2.195913   0.969036   4.045098
     8  O    3.570098   4.914618   3.410515   2.759138   5.653242
     9  H    4.214552   5.541662   4.030427   3.394728   6.270990
    10  H    4.215914   5.543161   4.031061   3.396787   6.272124
                    6          7          8          9         10
     6  H    0.000000
     7  H    3.629015   0.000000
     8  O    5.425950   1.799703   0.000000
     9  H    6.035499   2.479555   0.959866   0.000000
    10  H    6.037405   2.481358   0.959865   1.537833   0.000000
 Stoichiometry    C2H6O2
 Framework group  C1[X(C2H6O2)]
 Deg. of freedom    24
 Full point group                 C1      NOp   1
 Largest Abelian subgroup         C1      NOp   1
 Largest concise Abelian subgroup C1      NOp   1
                         Standard orientation:                         
 ---------------------------------------------------------------------
 Center     Atomic      Atomic             Coordinates (Angstroms)
 Number     Number       Type             X           Y           Z
 ---------------------------------------------------------------------
      1          6           0       -1.019267   -0.333996    0.000170
      2          6           0       -2.367051   -0.096554   -0.000083
      3          1           0       -0.641371   -1.379946    0.000670
      4          8           0       -0.080527    0.672621   -0.000104
      5          1           0       -3.051636   -0.952921    0.000189
      6          1           0       -2.766797    0.928082   -0.000552
      7          1           0        0.802830    0.274236    0.000019
      8          8           0        2.547029   -0.169277   -0.000118
      9          1           0        3.120621   -0.154859    0.769380
     10          1           0        3.122253   -0.158046   -0.768448
 ---------------------------------------------------------------------
 Rotational constants (GHZ):          35.7649350           2.2707414           2.1568969
 Standard basis: Aug-CC-pVDZ (5D, 7F)
 There are   154 symmetry adapted cartesian basis functions of A   symmetry.
 There are   146 symmetry adapted basis functions of A   symmetry.
   146 basis functions,   238 primitive gaussians,   154 cartesian basis functions
    17 alpha electrons       17 beta electrons
       nuclear repulsion energy       114.0146259879 Hartrees.
 NAtoms=   10 NActive=   10 NUniq=   10 SFac= 1.00D+00 NAtFMM=   60 NAOKFM=F Big=F
 Integral buffers will be    131072 words long.
 Raffenetti 1 integral format.
 Two-electron integral symmetry is turned on.
 One-electron integrals computed using PRISM.
 NBasis=   146 RedAO= T EigKep=  5.34D-05  NBF=   146
 NBsUse=   146 1.00D-06 EigRej= -1.00D+00 NBFU=   146
 Initial guess from the checkpoint file:  "/scr/Gau-98126.chk"
 B after Tr=     0.000000    0.000000    0.000000
         Rot=    0.999979   -0.000003    0.000013    0.006542 Ang=  -0.75 deg.
 ExpMin= 2.97D-02 ExpMax= 1.17D+04 ExpMxC= 4.01D+02 IAcc=3 IRadAn=         5 AccDes= 0.00D+00
 Harris functional with IExCor=  205 and IRadAn=       5 diagonalized for initial guess.
 HarFok:  IExCor=  205 AccDes= 0.00D+00 IRadAn=         5 IDoV= 1 UseB2=F ITyADJ=14
 ICtDFT=  3500011 ScaDFX=  1.000000  1.000000  1.000000  1.000000
 FoFCou: FMM=F IPFlag=           0 FMFlag=      100000 FMFlg1=           0
         NFxFlg=           0 DoJE=T BraDBF=F KetDBF=T FulRan=T
         wScrn=  0.000000 ICntrl=       500 IOpCl=  0 I1Cent=   200000004 NGrid=           0
         NMat0=    1 NMatS0=      1 NMatT0=    0 NMatD0=    1 NMtDS0=    0 NMtDT0=    0
 Petite list used in FoFCou.
 Keep R1 ints in memory in canonical form, NReq=66241432.
 Requested convergence on RMS density matrix=1.00D-08 within 128 cycles.
 Requested convergence on MAX density matrix=1.00D-06.
 Requested convergence on             energy=1.00D-06.
 No special actions if energy rises.
 SCF Done:  E(RHF) =  -228.961810378     A.U. after   13 cycles
            NFock= 13  Conv=0.76D-08     -V/T= 2.0024
 ExpMin= 2.97D-02 ExpMax= 1.17D+04 ExpMxC= 4.01D+02 IAcc=3 IRadAn=         5 AccDes= 0.00D+00
 HarFok:  IExCor=  205 AccDes= 0.00D+00 IRadAn=         5 IDoV=-2 UseB2=F ITyADJ=14
 ICtDFT= 12500011 ScaDFX=  1.000000  1.000000  1.000000  1.000000
 Range of M.O.s used for correlation:     5   146
 NBasis=   146 NAE=    17 NBE=    17 NFC=     4 NFV=     0
 NROrb=    142 NOA=    13 NOB=    13 NVA=   129 NVB=   129

 **** Warning!!: The largest alpha MO coefficient is  0.34740962D+02

 Fully direct method using O(ONN) memory.
 JobTyp=1 Pass  1:  I=   5 to  17 NPSUse= 40 ParTrn=T ParDer=T DoDerP=T.
 Spin components of T(2) and E(2):
     alpha-alpha T2 =       0.2807626778D-01 E2=     -0.8904573169D-01
     alpha-beta  T2 =       0.1642109149D+00 E2=     -0.5296410424D+00
     beta-beta   T2 =       0.2807626778D-01 E2=     -0.8904573169D-01
 ANorm=    0.1104700616D+01
 E2 =    -0.7077325058D+00 EUMP2 =    -0.22966954288426D+03
          IDoAtm=1111111111
          Differentiating once with respect to electric field.
                with respect to dipole field.
          Differentiating once with respect to nuclear coordinates.
 Keep R1 ints in memory in canonical form, NReq=66249229.
          There are     1 degrees of freedom in the 1st order CPHF.  IDoFFX=0 NUNeed=     1.
 LinEq1:  Iter=  0 NonCon=     1 RMS=4.56D-03 Max=7.21D-02 NDo=     1
 AX will form     1 AO Fock derivatives at one time.
 LinEq1:  Iter=  1 NonCon=     1 RMS=1.12D-03 Max=8.15D-03 NDo=     1
 LinEq1:  Iter=  2 NonCon=     1 RMS=4.01D-04 Max=5.74D-03 NDo=     1
 LinEq1:  Iter=  3 NonCon=     1 RMS=9.73D-05 Max=1.07D-03 NDo=     1
 LinEq1:  Iter=  4 NonCon=     1 RMS=3.58D-05 Max=4.31D-04 NDo=     1
 LinEq1:  Iter=  5 NonCon=     1 RMS=9.77D-06 Max=1.23D-04 NDo=     1
 LinEq1:  Iter=  6 NonCon=     1 RMS=3.15D-06 Max=2.78D-05 NDo=     1
 LinEq1:  Iter=  7 NonCon=     1 RMS=7.96D-07 Max=7.00D-06 NDo=     1
 LinEq1:  Iter=  8 NonCon=     1 RMS=1.58D-07 Max=1.12D-06 NDo=     1
 LinEq1:  Iter=  9 NonCon=     1 RMS=5.83D-08 Max=1.02D-06 NDo=     1
 LinEq1:  Iter= 10 NonCon=     1 RMS=1.75D-08 Max=1.45D-07 NDo=     1
 LinEq1:  Iter= 11 NonCon=     1 RMS=4.55D-09 Max=8.79D-08 NDo=     1
 LinEq1:  Iter= 12 NonCon=     1 RMS=8.13D-10 Max=7.34D-09 NDo=     1
 LinEq1:  Iter= 13 NonCon=     1 RMS=1.37D-10 Max=1.02D-09 NDo=     1
 LinEq1:  Iter= 14 NonCon=     0 RMS=2.46D-11 Max=2.39D-10 NDo=     1
 Linear equations converged to 1.000D-10 1.000D-09 after    14 iterations.
 End of Minotr F.D. properties file   721 does not exist.
 End of Minotr F.D. properties file   722 does not exist.
 End of Minotr F.D. properties file   788 does not exist.
 Calling FoFJK, ICntrl=  10002127 FMM=F ISym2X=0 I1Cent= 0 IOpClX= 0 NMat=1 NMatS=1 NMatT=0.
 ***** Axes restored to original set *****
 -------------------------------------------------------------------
 Center     Atomic                   Forces (Hartrees/Bohr)
 Number     Number              X              Y              Z
 -------------------------------------------------------------------
      1        6          -0.009046489   -0.010637146    0.003894646
      2        6           0.010276111    0.011670724   -0.001049911
      3        1          -0.001722676   -0.000654403   -0.010304188
      4        8          -0.007130044   -0.008700125    0.005652010
      5        1           0.001382112    0.002058328   -0.004065290
      6        1           0.001918014    0.001507081    0.005193672
      7        1           0.003267993    0.003725906   -0.000712622
      8        8          -0.004418589   -0.005320295    0.002966808
      9        1           0.000340323    0.005313359   -0.000525029
     10        1           0.005133246    0.001036570   -0.001050097
 -------------------------------------------------------------------
 Cartesian Forces:  Max     0.011670724 RMS     0.005524369

 GradGradGradGradGradGradGradGradGradGradGradGradGradGradGradGradGradGrad
 Berny optimization.
 Using GEDIIS/GDIIS optimizer.
 FormGI is forming the generalized inverse of G from B-inverse, IUseBI=4.
 Internal  Forces:  Max     0.020321943 RMS     0.005045717
 Search for a local minimum.
 Step number   3 out of a maximum of   40
 All quantities printed in internal units (Hartrees-Bohrs-Radians)
 Mixed Optimization -- RFO/linear search
 Update second derivatives using D2CorX and points    1    3    2
 DE=  4.37D-04 DEPred=-1.57D-03 R=-2.79D-01
 Trust test=-2.79D-01 RLast= 4.58D-01 DXMaxT set to 2.52D-01
 ITU= -1  1  0
 Use linear search instead of GDIIS.
     Eigenvalues ---    0.00230   0.00230   0.01102   0.01590   0.02147
     Eigenvalues ---    0.02723   0.02996   0.02996   0.04678   0.14587
     Eigenvalues ---    0.15669   0.16000   0.16000   0.16083   0.16496
     Eigenvalues ---    0.22038   0.35472   0.35601   0.37335   0.49467
     Eigenvalues ---    0.51971   0.52679   0.53354   0.66585
 RFO step:  Lambda=-4.05763605D-04 EMin= 2.29999265D-03
 Quartic linear search produced a step of -0.59454.
 Iteration  1 RMS(Cart)=  0.13936039 RMS(Int)=  0.01198777
 Iteration  2 RMS(Cart)=  0.04000970 RMS(Int)=  0.00099494
 Iteration  3 RMS(Cart)=  0.00068836 RMS(Int)=  0.00090506
 Iteration  4 RMS(Cart)=  0.00000022 RMS(Int)=  0.00090506
 Variable       Old X    -DE/DX   Delta X   Delta X   Delta X     New X
                                 (Linear)    (Quad)   (Total)
    R1        2.58616  -0.02032  -0.02466  -0.00592  -0.03058   2.55559
    R2        2.10161  -0.01009  -0.01961  -0.00551  -0.02512   2.07649
    R3        2.60104  -0.00797  -0.00578  -0.00745  -0.01323   2.58781
    R4        2.07183  -0.00475  -0.00843  -0.00288  -0.01131   2.06052
    R5        2.07842  -0.00574  -0.00996  -0.00347  -0.01343   2.06499
    R6        1.83121   0.00628   0.01356  -0.00125   0.01235   1.84356
    R7        3.40095   0.00169  -0.08750   0.06826  -0.01926   3.38169
    R8        1.81388   0.00513   0.00951  -0.00022   0.00929   1.82317
    R9        1.81388   0.00512   0.00951  -0.00022   0.00928   1.82317
    A1        2.09188   0.00366   0.02727  -0.00193   0.02534   2.11722
    A2        2.14693  -0.00147  -0.00677  -0.00084  -0.00762   2.13932
    A3        2.04437  -0.00219  -0.02050   0.00278  -0.01772   2.02665
    A4        2.07079   0.00027   0.01766  -0.01079   0.00686   2.07766
    A5        2.11715  -0.00002  -0.00554   0.00405  -0.00149   2.11566
    A6        2.09524  -0.00025  -0.01211   0.00674  -0.00537   2.08987
    A7        1.89764  -0.00024  -0.00017  -0.00968  -0.00984   1.88780
    A8        2.18387   0.00068   0.01507  -0.00816   0.00741   2.19128
    A9        2.18704   0.00084   0.01398  -0.00739   0.00632   2.19335
   A10        1.85815  -0.00181  -0.02647   0.00783  -0.01793   1.84022
   A11        3.31627  -0.00310  -0.23350  -0.02042  -0.25520   3.06107
   A12        3.14143   0.00002   0.00048   0.00175   0.00223   3.14366
    D1       -0.00003   0.00000   0.00001   0.00000   0.00002  -0.00001
    D2        3.14157   0.00000   0.00001   0.00001   0.00002   3.14158
    D3       -3.14157  -0.00000  -0.00002   0.00000  -0.00001  -3.14158
    D4        0.00003  -0.00000  -0.00002   0.00000  -0.00001   0.00001
    D5       -3.14144  -0.00000  -0.00006   0.00003  -0.00003  -3.14147
    D6        0.00020  -0.00000  -0.00009   0.00003  -0.00006   0.00014
    D7       -1.81112  -0.00012   0.06102  -0.00632   0.05214  -1.75898
    D8        1.80879   0.00012  -0.06228   0.00704  -0.05268   1.75611
    D9       -2.80775   0.00077  -0.00918   0.02392   0.01175  -2.79600
         Item               Value     Threshold  Converged?
 Maximum Force            0.020322     0.000450     NO 
 RMS     Force            0.005046     0.000300     NO 
 Maximum Displacement     0.427746     0.001800     NO 
 RMS     Displacement     0.176755     0.001200     NO 
 Predicted change in Energy=-5.904664D-04
 GradGradGradGradGradGradGradGradGradGradGradGradGradGradGradGradGradGrad

                          Input orientation:                          
 ---------------------------------------------------------------------
 Center     Atomic      Atomic             Coordinates (Angstroms)
 Number     Number       Type             X           Y           Z
 ---------------------------------------------------------------------
      1          6           0       -0.364039    0.916830    0.557561
      2          6           0       -1.264768   -0.091871    0.548466
      3          1           0        0.070076    1.286238    1.496980
      4          8           0        0.060853    1.536196   -0.587487
      5          1           0       -1.562663   -0.544036    1.494898
      6          1           0       -1.695565   -0.458087   -0.386626
      7          1           0        0.704183    2.226276   -0.339186
      8          8           0        1.861871    3.455296    0.253792
      9          1           0        1.679179    4.397721    0.350037
     10          1           0        2.823455    3.381534    0.227108
 ---------------------------------------------------------------------
                    Distance matrix (angstroms):
                    1          2          3          4          5
     1  C    0.000000
     2  C    1.352359   0.000000
     3  H    1.098829   2.140250   0.000000
     4  O    1.369410   2.387104   2.099421   0.000000
     5  H    2.109367   1.090380   2.452701   3.361473   0.000000
     6  H    2.134209   1.092747   3.115786   2.665054   1.888169
     7  H    1.913087   3.168359   2.158071   0.975570   4.022075
     8  O    3.389802   4.737625   3.075851   2.763034   5.409476
     9  H    4.041584   5.372395   3.685921   3.418516   6.020067
    10  H    4.042781   5.374140   3.685640   3.420644   6.021248
                    6          7          8          9         10
     6  H    0.000000
     7  H    3.600950   0.000000
     8  O    5.327293   1.789512   0.000000
     9  H    5.959063   2.478067   0.964782   0.000000
    10  H    5.961619   2.479239   0.964778   1.535290   0.000000
 Stoichiometry    C2H6O2
 Framework group  C1[X(C2H6O2)]
 Deg. of freedom    24
 Full point group                 C1      NOp   1
 Largest Abelian subgroup         C1      NOp   1
 Largest concise Abelian subgroup C1      NOp   1
                         Standard orientation:                         
 ---------------------------------------------------------------------
 Center     Atomic      Atomic             Coordinates (Angstroms)
 Number     Number       Type             X           Y           Z
 ---------------------------------------------------------------------
      1          6           0       -0.939162   -0.300072   -0.000495
      2          6           0       -2.288233   -0.205843    0.000585
      3          1           0       -0.434973   -1.276401   -0.001380
      4          8           0       -0.123275    0.799752   -0.000529
      5          1           0       -2.882678   -1.119935    0.000560
      6          1           0       -2.788113    0.765864    0.001472
      7          1           0        0.802384    0.491710   -0.001511
      8          8           0        2.449392   -0.208088    0.000278
      9          1           0        3.028468   -0.277697    0.768803
     10          1           0        3.030347   -0.281356   -0.766481
 ---------------------------------------------------------------------
 Rotational constants (GHZ):          28.7933307           2.4491665           2.2813766
 Standard basis: Aug-CC-pVDZ (5D, 7F)
 There are   154 symmetry adapted cartesian basis functions of A   symmetry.
 There are   146 symmetry adapted basis functions of A   symmetry.
   146 basis functions,   238 primitive gaussians,   154 cartesian basis functions
    17 alpha electrons       17 beta electrons
       nuclear repulsion energy       115.3626077096 Hartrees.
 NAtoms=   10 NActive=   10 NUniq=   10 SFac= 1.00D+00 NAtFMM=   60 NAOKFM=F Big=F
 Integral buffers will be    131072 words long.
 Raffenetti 1 integral format.
 Two-electron integral symmetry is turned on.
 One-electron integrals computed using PRISM.
 NBasis=   146 RedAO= T EigKep=  4.49D-05  NBF=   146
 NBsUse=   146 1.00D-06 EigRej= -1.00D+00 NBFU=   146
 Lowest energy guess from the checkpoint file:  "/scr/Gau-98126.chk"
 B after Tr=     0.000000   -0.000000    0.000000
         Rot=    1.000000    0.000031    0.000011    0.000587 Ang=   0.07 deg.
 B after Tr=    -0.000000   -0.000000   -0.000000
         Rot=    0.999984   -0.000070    0.000002   -0.005654 Ang=  -0.65 deg.
 Keep R1 ints in memory in canonical form, NReq=66243143.
 Requested convergence on RMS density matrix=1.00D-08 within 128 cycles.
 Requested convergence on MAX density matrix=1.00D-06.
 Requested convergence on             energy=1.00D-06.
 No special actions if energy rises.
 SCF Done:  E(RHF) =  -228.963899029     A.U. after   11 cycles
            NFock= 11  Conv=0.19D-08     -V/T= 2.0021
 ExpMin= 2.97D-02 ExpMax= 1.17D+04 ExpMxC= 4.01D+02 IAcc=3 IRadAn=         5 AccDes= 0.00D+00
 HarFok:  IExCor=  205 AccDes= 0.00D+00 IRadAn=         5 IDoV=-2 UseB2=F ITyADJ=14
 ICtDFT= 12500011 ScaDFX=  1.000000  1.000000  1.000000  1.000000
 Range of M.O.s used for correlation:     5   146
 NBasis=   146 NAE=    17 NBE=    17 NFC=     4 NFV=     0
 NROrb=    142 NOA=    13 NOB=    13 NVA=   129 NVB=   129

 **** Warning!!: The largest alpha MO coefficient is  0.35994549D+02

 Fully direct method using O(ONN) memory.
 JobTyp=1 Pass  1:  I=   5 to  17 NPSUse= 40 ParTrn=T ParDer=T DoDerP=T.
 Spin components of T(2) and E(2):
     alpha-alpha T2 =       0.2795074271D-01 E2=     -0.8903231413D-01
     alpha-beta  T2 =       0.1630232843D+00 E2=     -0.5287929769D+00
     beta-beta   T2 =       0.2795074271D-01 E2=     -0.8903231413D-01
 ANorm=    0.1104049261D+01
 E2 =    -0.7068576052D+00 EUMP2 =    -0.22967075663413D+03
          IDoAtm=1111111111
          Differentiating once with respect to electric field.
                with respect to dipole field.
          Differentiating once with respect to nuclear coordinates.
 Keep R1 ints in memory in canonical form, NReq=66251005.
          There are     1 degrees of freedom in the 1st order CPHF.  IDoFFX=0 NUNeed=     1.
 LinEq1:  Iter=  0 NonCon=     1 RMS=4.53D-03 Max=7.58D-02 NDo=     1
 AX will form     1 AO Fock derivatives at one time.
 LinEq1:  Iter=  1 NonCon=     1 RMS=1.10D-03 Max=8.40D-03 NDo=     1
 LinEq1:  Iter=  2 NonCon=     1 RMS=3.94D-04 Max=5.51D-03 NDo=     1
 LinEq1:  Iter=  3 NonCon=     1 RMS=9.33D-05 Max=8.82D-04 NDo=     1
 LinEq1:  Iter=  4 NonCon=     1 RMS=3.50D-05 Max=4.63D-04 NDo=     1
 LinEq1:  Iter=  5 NonCon=     1 RMS=9.26D-06 Max=1.18D-04 NDo=     1
 LinEq1:  Iter=  6 NonCon=     1 RMS=3.01D-06 Max=2.78D-05 NDo=     1
 LinEq1:  Iter=  7 NonCon=     1 RMS=7.77D-07 Max=6.92D-06 NDo=     1
 LinEq1:  Iter=  8 NonCon=     1 RMS=1.78D-07 Max=1.63D-06 NDo=     1
 LinEq1:  Iter=  9 NonCon=     1 RMS=7.94D-08 Max=1.73D-06 NDo=     1
 LinEq1:  Iter= 10 NonCon=     1 RMS=2.10D-08 Max=1.78D-07 NDo=     1
 LinEq1:  Iter= 11 NonCon=     1 RMS=5.46D-09 Max=8.43D-08 NDo=     1
 LinEq1:  Iter= 12 NonCon=     1 RMS=8.77D-10 Max=6.34D-09 NDo=     1
 LinEq1:  Iter= 13 NonCon=     1 RMS=1.29D-10 Max=8.20D-10 NDo=     1
 LinEq1:  Iter= 14 NonCon=     0 RMS=2.22D-11 Max=2.02D-10 NDo=     1
 Linear equations converged to 1.000D-10 1.000D-09 after    14 iterations.
 End of Minotr F.D. properties file   721 does not exist.
 End of Minotr F.D. properties file   722 does not exist.
 End of Minotr F.D. properties file   788 does not exist.
 Calling FoFJK, ICntrl=  10002127 FMM=F ISym2X=0 I1Cent= 0 IOpClX= 0 NMat=1 NMatS=1 NMatT=0.
 ***** Axes restored to original set *****
 -------------------------------------------------------------------
 Center     Atomic                   Forces (Hartrees/Bohr)
 Number     Number              X              Y              Z
 -------------------------------------------------------------------
      1        6          -0.001858201   -0.002236426    0.001217064
      2        6           0.001608466    0.001842869   -0.000311627
      3        1          -0.000293474   -0.000119147   -0.001671681
      4        8           0.000260492    0.000192183    0.000649072
      5        1           0.000047531    0.000118999   -0.000518071
      6        1           0.000312178    0.000250427    0.000791073
      7        1          -0.001247313   -0.001248226   -0.001018740
      8        8           0.000323180    0.000159455    0.001572218
      9        1           0.000091601    0.000812828   -0.000318103
     10        1           0.000755539    0.000227038   -0.000391206
 -------------------------------------------------------------------
 Cartesian Forces:  Max     0.002236426 RMS     0.000979915

 GradGradGradGradGradGradGradGradGradGradGradGradGradGradGradGradGradGrad
 Berny optimization.
 Using GEDIIS/GDIIS optimizer.
 FormGI is forming the generalized inverse of G from B-inverse, IUseBI=4.
 Internal  Forces:  Max     0.002960743 RMS     0.000783656
 Search for a local minimum.
 Step number   4 out of a maximum of   40
 All quantities printed in internal units (Hartrees-Bohrs-Radians)
 Mixed Optimization -- En-DIIS/RFO-DIIS
 Update second derivatives using D2CorX and points    1    3    2    4
 DE= -7.76D-04 DEPred=-5.90D-04 R= 1.31D+00
 TightC=F SS=  1.41D+00  RLast= 2.11D-01 DXNew= 4.2426D-01 6.3379D-01
 Trust test= 1.31D+00 RLast= 2.11D-01 DXMaxT set to 4.24D-01
 ITU=  1 -1  1  0
 Use linear search instead of GDIIS.
     Eigenvalues ---    0.00230   0.00230   0.01085   0.01513   0.02147
     Eigenvalues ---    0.02732   0.02996   0.02996   0.03481   0.15334
     Eigenvalues ---    0.15773   0.16000   0.16010   0.16141   0.16537
     Eigenvalues ---    0.22078   0.35471   0.35613   0.37125   0.49447
     Eigenvalues ---    0.52582   0.52679   0.53423   0.65647
 RFO step:  Lambda=-1.48455588D-04 EMin= 2.29998053D-03
 Quartic linear search produced a step of  0.15204.
 Iteration  1 RMS(Cart)=  0.01620627 RMS(Int)=  0.00025419
 Iteration  2 RMS(Cart)=  0.00018044 RMS(Int)=  0.00019143
 Iteration  3 RMS(Cart)=  0.00000005 RMS(Int)=  0.00019143
 Variable       Old X    -DE/DX   Delta X   Delta X   Delta X     New X
                                 (Linear)    (Quad)   (Total)
    R1        2.55559  -0.00296   0.00166  -0.00448  -0.00283   2.55276
    R2        2.07649  -0.00159   0.00119  -0.00420  -0.00301   2.07348
    R3        2.58781  -0.00029  -0.00053  -0.00029  -0.00083   2.58698
    R4        2.06052  -0.00051   0.00044  -0.00117  -0.00074   2.05978
    R5        2.06499  -0.00088   0.00050  -0.00245  -0.00194   2.06305
    R6        1.84356  -0.00012  -0.00159  -0.00158  -0.00317   1.84039
    R7        3.38169   0.00186   0.01945   0.04159   0.06104   3.44273
    R8        1.82317   0.00074  -0.00102   0.00102  -0.00000   1.82317
    R9        1.82317   0.00075  -0.00102   0.00102   0.00000   1.82317
    A1        2.11722   0.00053  -0.00312   0.00229  -0.00083   2.11639
    A2        2.13932   0.00021   0.00057   0.00190   0.00247   2.14179
    A3        2.02665  -0.00075   0.00255  -0.00419  -0.00164   2.02501
    A4        2.07766   0.00016  -0.00347  -0.00035  -0.00382   2.07383
    A5        2.11566  -0.00001   0.00119   0.00046   0.00166   2.11732
    A6        2.08987  -0.00015   0.00228  -0.00011   0.00217   2.09204
    A7        1.88780   0.00023  -0.00145   0.00166   0.00020   1.88800
    A8        2.19128  -0.00001  -0.00273  -0.00627  -0.00951   2.18177
    A9        2.19335   0.00010  -0.00262  -0.00535  -0.00842   2.18493
   A10        1.84022  -0.00025   0.00404  -0.00473  -0.00125   1.83897
   A11        3.06107  -0.00014   0.02091  -0.02644  -0.00536   3.05570
   A12        3.14366  -0.00002   0.00022  -0.01160  -0.01139   3.13227
    D1       -0.00001   0.00000  -0.00000   0.00000   0.00000  -0.00001
    D2        3.14158  -0.00000  -0.00000  -0.00000  -0.00000   3.14158
    D3       -3.14158   0.00000   0.00000   0.00005   0.00005  -3.14153
    D4        0.00001   0.00000   0.00000   0.00005   0.00005   0.00006
    D5       -3.14147  -0.00000   0.00001  -0.00001   0.00000  -3.14147
    D6        0.00014   0.00000   0.00001   0.00004   0.00005   0.00020
    D7       -1.75898  -0.00026  -0.00768  -0.02136  -0.02870  -1.78768
    D8        1.75611   0.00027   0.00792   0.02321   0.03078   1.78689
    D9       -2.79600   0.00043   0.00413   0.04750   0.05184  -2.74415
         Item               Value     Threshold  Converged?
 Maximum Force            0.002961     0.000450     NO 
 RMS     Force            0.000784     0.000300     NO 
 Maximum Displacement     0.033828     0.001800     NO 
 RMS     Displacement     0.016124     0.001200     NO 
 Predicted change in Energy=-7.883494D-05
 GradGradGradGradGradGradGradGradGradGradGradGradGradGradGradGradGradGrad

                          Input orientation:                          
 ---------------------------------------------------------------------
 Center     Atomic      Atomic             Coordinates (Angstroms)
 Number     Number       Type             X           Y           Z
 ---------------------------------------------------------------------
      1          6           0       -0.372480    0.912843    0.554751
      2          6           0       -1.267360   -0.099073    0.547964
      3          1           0        0.057800    1.286142    1.492534
      4          8           0        0.052396    1.532493   -0.589626
      5          1           0       -1.561399   -0.546891    1.497216
      6          1           0       -1.696026   -0.471164   -0.384583
      7          1           0        0.690826    2.224693   -0.341170
      8          8           0        1.875650    3.465784    0.271110
      9          1           0        1.697079    4.410777    0.347957
     10          1           0        2.836096    3.390493    0.219390
 ---------------------------------------------------------------------
                    Distance matrix (angstroms):
                    1          2          3          4          5
     1  C    0.000000
     2  C    1.350863   0.000000
     3  H    1.097238   2.137074   0.000000
     4  O    1.368973   2.387023   2.096690   0.000000
     5  H    2.105372   1.089990   2.445780   3.359030   0.000000
     6  H    2.132978   1.091718   3.112491   2.667145   1.888128
     7  H    1.911608   3.166219   2.155011   0.973891   4.016698
     8  O    3.413510   4.760606   3.089869   2.793337   5.423855
     9  H    4.069568   5.400616   3.709533   3.445078   6.042925
    10  H    4.067699   5.396609   3.710541   3.443204   6.039354
                    6          7          8          9         10
     6  H    0.000000
     7  H    3.600915   0.000000
     8  O    5.355965   1.821812   0.000000
     9  H    5.990252   2.503278   0.964782   0.000000
    10  H    5.984756   2.505095   0.964780   1.534558   0.000000
 Stoichiometry    C2H6O2
 Framework group  C1[X(C2H6O2)]
 Deg. of freedom    24
 Full point group                 C1      NOp   1
 Largest Abelian subgroup         C1      NOp   1
 Largest concise Abelian subgroup C1      NOp   1
                         Standard orientation:                         
 ---------------------------------------------------------------------
 Center     Atomic      Atomic             Coordinates (Angstroms)
 Number     Number       Type             X           Y           Z
 ---------------------------------------------------------------------
      1          6           0       -0.945691   -0.297547    0.002794
      2          6           0       -2.293799   -0.211499   -0.002642
      3          1           0       -0.437226   -1.269844    0.008554
      4          8           0       -0.133931    0.804782    0.001599
      5          1           0       -2.879044   -1.131045   -0.001234
      6          1           0       -2.800601    0.755439   -0.008363
      7          1           0        0.791265    0.500715    0.006163
      8          8           0        2.466805   -0.214480   -0.001561
      9          1           0        3.051872   -0.261894    0.764110
     10          1           0        3.047677   -0.261511   -0.770441
 ---------------------------------------------------------------------
 Rotational constants (GHZ):          28.5255527           2.4239196           2.2577777
 Standard basis: Aug-CC-pVDZ (5D, 7F)
 There are   154 symmetry adapted cartesian basis functions of A   symmetry.
 There are   146 symmetry adapted basis functions of A   symmetry.
   146 basis functions,   238 primitive gaussians,   154 cartesian basis functions
    17 alpha electrons       17 beta electrons
       nuclear repulsion energy       115.1051275643 Hartrees.
 NAtoms=   10 NActive=   10 NUniq=   10 SFac= 1.00D+00 NAtFMM=   60 NAOKFM=F Big=F
 Integral buffers will be    131072 words long.
 Raffenetti 1 integral format.
 Two-electron integral symmetry is turned on.
 One-electron integrals computed using PRISM.
 NBasis=   146 RedAO= T EigKep=  4.49D-05  NBF=   146
 NBsUse=   146 1.00D-06 EigRej= -1.00D+00 NBFU=   146
 Initial guess from the checkpoint file:  "/scr/Gau-98126.chk"
 B after Tr=    -0.000000    0.000000   -0.000000
         Rot=    1.000000   -0.000260   -0.000037   -0.000813 Ang=  -0.10 deg.
 ExpMin= 2.97D-02 ExpMax= 1.17D+04 ExpMxC= 4.01D+02 IAcc=3 IRadAn=         5 AccDes= 0.00D+00
 Harris functional with IExCor=  205 and IRadAn=       5 diagonalized for initial guess.
 HarFok:  IExCor=  205 AccDes= 0.00D+00 IRadAn=         5 IDoV= 1 UseB2=F ITyADJ=14
 ICtDFT=  3500011 ScaDFX=  1.000000  1.000000  1.000000  1.000000
 FoFCou: FMM=F IPFlag=           0 FMFlag=      100000 FMFlg1=           0
         NFxFlg=           0 DoJE=T BraDBF=F KetDBF=T FulRan=T
         wScrn=  0.000000 ICntrl=       500 IOpCl=  0 I1Cent=   200000004 NGrid=           0
         NMat0=    1 NMatS0=      1 NMatT0=    0 NMatD0=    1 NMtDS0=    0 NMtDT0=    0
 Petite list used in FoFCou.
 Keep R1 ints in memory in canonical form, NReq=66242848.
 Requested convergence on RMS density matrix=1.00D-08 within 128 cycles.
 Requested convergence on MAX density matrix=1.00D-06.
 Requested convergence on             energy=1.00D-06.
 No special actions if energy rises.
 SCF Done:  E(RHF) =  -228.964457064     A.U. after   10 cycles
            NFock= 10  Conv=0.88D-08     -V/T= 2.0021
 ExpMin= 2.97D-02 ExpMax= 1.17D+04 ExpMxC= 4.01D+02 IAcc=3 IRadAn=         5 AccDes= 0.00D+00
 HarFok:  IExCor=  205 AccDes= 0.00D+00 IRadAn=         5 IDoV=-2 UseB2=F ITyADJ=14
 ICtDFT= 12500011 ScaDFX=  1.000000  1.000000  1.000000  1.000000
 Range of M.O.s used for correlation:     5   146
 NBasis=   146 NAE=    17 NBE=    17 NFC=     4 NFV=     0
 NROrb=    142 NOA=    13 NOB=    13 NVA=   129 NVB=   129

 **** Warning!!: The largest alpha MO coefficient is  0.36183701D+02

 Fully direct method using O(ONN) memory.
 JobTyp=1 Pass  1:  I=   5 to  17 NPSUse= 40 ParTrn=T ParDer=T DoDerP=T.
 Spin components of T(2) and E(2):
     alpha-alpha T2 =       0.2791033093D-01 E2=     -0.8894873117D-01
     alpha-beta  T2 =       0.1628514047D+00 E2=     -0.5285302933D+00
     beta-beta   T2 =       0.2791033093D-01 E2=     -0.8894873117D-01
 ANorm=    0.1103934811D+01
 E2 =    -0.7064277557D+00 EUMP2 =    -0.22967088481960D+03
          IDoAtm=1111111111
          Differentiating once with respect to electric field.
                with respect to dipole field.
          Differentiating once with respect to nuclear coordinates.
 Keep R1 ints in memory in canonical form, NReq=66250815.
          There are     1 degrees of freedom in the 1st order CPHF.  IDoFFX=0 NUNeed=     1.
 LinEq1:  Iter=  0 NonCon=     1 RMS=4.52D-03 Max=7.55D-02 NDo=     1
 AX will form     1 AO Fock derivatives at one time.
 LinEq1:  Iter=  1 NonCon=     1 RMS=1.09D-03 Max=8.33D-03 NDo=     1
 LinEq1:  Iter=  2 NonCon=     1 RMS=3.92D-04 Max=5.46D-03 NDo=     1
 LinEq1:  Iter=  3 NonCon=     1 RMS=9.27D-05 Max=8.83D-04 NDo=     1
 LinEq1:  Iter=  4 NonCon=     1 RMS=3.47D-05 Max=4.62D-04 NDo=     1
 LinEq1:  Iter=  5 NonCon=     1 RMS=9.13D-06 Max=1.16D-04 NDo=     1
 LinEq1:  Iter=  6 NonCon=     1 RMS=2.98D-06 Max=2.75D-05 NDo=     1
 LinEq1:  Iter=  7 NonCon=     1 RMS=7.71D-07 Max=6.80D-06 NDo=     1
 LinEq1:  Iter=  8 NonCon=     1 RMS=1.79D-07 Max=1.56D-06 NDo=     1
 LinEq1:  Iter=  9 NonCon=     1 RMS=7.99D-08 Max=1.73D-06 NDo=     1
 LinEq1:  Iter= 10 NonCon=     1 RMS=2.10D-08 Max=1.78D-07 NDo=     1
 LinEq1:  Iter= 11 NonCon=     1 RMS=5.43D-09 Max=8.23D-08 NDo=     1
 LinEq1:  Iter= 12 NonCon=     1 RMS=8.70D-10 Max=6.27D-09 NDo=     1
 LinEq1:  Iter= 13 NonCon=     1 RMS=1.27D-10 Max=8.02D-10 NDo=     1
 LinEq1:  Iter= 14 NonCon=     0 RMS=2.18D-11 Max=1.99D-10 NDo=     1
 Linear equations converged to 1.000D-10 1.000D-09 after    14 iterations.
 End of Minotr F.D. properties file   721 does not exist.
 End of Minotr F.D. properties file   722 does not exist.
 End of Minotr F.D. properties file   788 does not exist.
 Calling FoFJK, ICntrl=  10002127 FMM=F ISym2X=0 I1Cent= 0 IOpClX= 0 NMat=1 NMatS=1 NMatT=0.
 ***** Axes restored to original set *****
 -------------------------------------------------------------------
 Center     Atomic                   Forces (Hartrees/Bohr)
 Number     Number              X              Y              Z
 -------------------------------------------------------------------
      1        6          -0.001186263   -0.001465836    0.001230295
      2        6           0.001106849    0.001248646   -0.000015559
      3        1           0.000106637    0.000198848   -0.000742815
      4        8          -0.000187094   -0.000068294   -0.000270824
      5        1          -0.000206527   -0.000186978   -0.000429484
      6        1          -0.000006710   -0.000034205    0.000254629
      7        1          -0.000077668   -0.000234960   -0.000578374
      8        8          -0.000465974   -0.000540469    0.001297292
      9        1           0.000150262    0.000851405   -0.000323467
     10        1           0.000766489    0.000231844   -0.000421694
 -------------------------------------------------------------------
 Cartesian Forces:  Max     0.001465836 RMS     0.000662243

 GradGradGradGradGradGradGradGradGradGradGradGradGradGradGradGradGradGrad
 Berny optimization.
 Using GEDIIS/GDIIS optimizer.
 FormGI is forming the generalized inverse of G from B-inverse, IUseBI=4.
 Internal  Forces:  Max     0.001360677 RMS     0.000461128
 Search for a local minimum.
 Step number   5 out of a maximum of   40
 All quantities printed in internal units (Hartrees-Bohrs-Radians)
 Mixed Optimization -- En-DIIS/RFO-DIIS
 Swapping is turned off.
 Update second derivatives using D2CorX and points    1    3    2    4    5
 DE= -1.28D-04 DEPred=-7.88D-05 R= 1.63D+00
 TightC=F SS=  1.41D+00  RLast= 9.26D-02 DXNew= 7.1352D-01 2.7772D-01
 Trust test= 1.63D+00 RLast= 9.26D-02 DXMaxT set to 4.24D-01
 ITU=  1  1 -1  1  0
     Eigenvalues ---    0.00229   0.00231   0.00577   0.01392   0.02147
     Eigenvalues ---    0.02732   0.02996   0.02996   0.03626   0.15185
     Eigenvalues ---    0.15699   0.15914   0.16000   0.16186   0.16633
     Eigenvalues ---    0.22595   0.35496   0.35631   0.37192   0.50154
     Eigenvalues ---    0.52448   0.52679   0.53947   0.65230
 En-DIIS/RFO-DIIS/Sim-DIIS IScMMF=       -3 using points:     5    4
 RFO step:  Lambda=-1.92680130D-04.
 DidBck=F Rises=F RFO-DIIS coefs:    2.69691   -1.69691
 Iteration  1 RMS(Cart)=  0.06793495 RMS(Int)=  0.00248892
 Iteration  2 RMS(Cart)=  0.00357027 RMS(Int)=  0.00098800
 Iteration  3 RMS(Cart)=  0.00000439 RMS(Int)=  0.00098799
 Iteration  4 RMS(Cart)=  0.00000001 RMS(Int)=  0.00098799
 Variable       Old X    -DE/DX   Delta X   Delta X   Delta X     New X
                                 (Linear)    (Quad)   (Total)
    R1        2.55276  -0.00136  -0.00480   0.00067  -0.00413   2.54863
    R2        2.07348  -0.00053  -0.00510   0.00181  -0.00329   2.07019
    R3        2.58698   0.00041  -0.00140   0.00177   0.00036   2.58735
    R4        2.05978  -0.00024  -0.00125   0.00007  -0.00118   2.05861
    R5        2.06305  -0.00020  -0.00330   0.00158  -0.00172   2.06133
    R6        1.84039   0.00046  -0.00538   0.00256  -0.00284   1.83755
    R7        3.44273   0.00085   0.10358  -0.00842   0.09516   3.53789
    R8        1.82317   0.00078  -0.00000   0.00150   0.00150   1.82467
[...]
 975,-0.00001184,0.00009569,0.00018197,0.00013910,0.00006949,-0.0000148
 9,-0.00000038,-0.00003499,-0.00011187,-0.00009470,-0.00002721,-0.00004
 125,0.00001886,-0.00017146,-0.00007064,-0.00008374,0.00001329,0.000092
 48,0.00023166,0.00011690,0.00015162,-0.00000501,-0.00002641,0.00009266
 ,0.00013911,0.00019719,0.00007238,-0.00000062,-0.00000676,-0.00003699,
 -0.00009356,-0.00012489,-0.00002734,-0.00000079,-0.00001800,-0.0001780
 7,-0.00007637,-0.00008532,0.00001629,0.00023337,0.00012035,0.00011650,
 -0.00007772,0.00016171,0.00004573,0.00003797,0.00010164,0.00006340,0.0
 0006355,0.00010515,-0.00003639,-0.00003852,-0.00003016,-0.00004234,-0.
 00004482,-0.00004717,-0.00001231,0.00000148,-0.00015958,-0.00004383,-0
 .00004785,-0.00000775,0.00010345,0.00010228,-0.00000676,-0.00001820,-0
 .00000754,0.00014309,-0.00001337,0.00001050,-0.00001843,0.00000052,0.0
 0000664,0.00007809,-0.00000632,-0.00000525,0.00000283,-0.00002461,-0.0
 0004241,-0.00000873,0.00002863,0.00000788,-0.00006807,0.00000116,-0.00
 000196,0.00000414,0.00004714,0.00001560,0.00001683,-0.00008865,-0.0000
 1011,-0.00003818,0.00004340,0.00000336,0.00001615,0.00000624,-0.000020
 20,-0.00003656,-0.00002148,0.00000084,-0.00000305,0.00000412,0.0000072
 6,-0.00000426,0.00000173,0.00000249,-0.00000312,0.00001915,0.00001541,
 0.00002241,0.00000049,-0.00001276,-0.00001497,0.00000373,-0.00011131,-
 0.00011102,-0.00001706,0.00003712,0.00011014,-0.00001011,0.00000670,-0
 .00000079,-0.00002127,-0.00000507,-0.00002830,0.00001363,-0.00000249,0
 .00001429,-0.00001064,-0.00001846,0.00001123,0.00000710,-0.00000526,0.
 00001457,0.00001629,0.00001505,-0.00000209,0.00002158,-0.00000150,0.00
 000465,-0.00003919,-0.00001320,-0.00004456,0.00002986,0.00002061,0.000
 00901,0.00001609,0.00000471,0.00000773,-0.00003839,-0.00002318,-0.0000
 3165,-0.00000249,0.00000224,0.00000590,-0.00000140,0.00000823,0.000005
 35,-0.00000115,-0.00000350,0.00002787,0.00002180,0.00001948,-0.0000006
 7,-0.00001496,-0.00001789,0.00000161,-0.00008902,-0.00010830,-0.000021
 32,0.00001211,0.00007779,-0.00000726,0.00009742,0.00001067,-0.00000866
 ,-0.00001793,0.00001241,-0.00000673,0.00007538,-0.00000417,-0.00000799
 ,0.00000129,-0.00003843,-0.00002599,-0.00000805,-0.00000277,0.00003551
 ,-0.00006380,-0.00000073,0.00000029,0.00000486,0.00001054,0.00004216,0
 .00001982,-0.00000993,-0.00010685,-0.00004948,-0.00001802,0.00002427,0
 .00000362,0.00004042,0.00005399,0.00000686,-0.00001078,-0.00000467,-0.
 00000025,-0.00001636,-0.00001804,-0.00000261,0.00001030,0.00001564,-0.
 00001990,-0.00001752,0.00000993,-0.00000423,0.00000918,0.00000511,0.00
 001024,0.00001577,-0.00000132,0.00000011,0.00002735,0.00000932,-0.0000
 0432,-0.00003469,-0.00005387,0.00000166,-0.00001755,0.00002199,0.00001
 243,0.00003430,0.00001592,0.00360027,-0.00617967,0.00039643,0.00436936
 ,0.01037208,-0.03597808,0.00063160,0.00052965,-0.00230638,-0.00205871,
 0.00001213,0.00087076,-0.00324450,0.00222569,-0.00163149,0.00184469,0.
 00140760,0.00578543,0.00022197,0.00020728,-0.00371403,0.00019807,-0.00
 075137,0.00204383,0.00031595,-0.00008580,-0.00036674,-0.00078165,-0.00
 041390,-0.00005709,0.00193200,-0.00012853,0.00032130,-0.00024736,-0.00
 045571,-0.00133362,-0.00064736,-0.00107815,0.00356058,-0.00008240,0.00
 006214,-0.00086964,0.00162414,0.00217579,-0.00348181,-0.01171831,0.004
 55999,-0.00869084,-0.00125477,-0.00243695,0.00166296,0.00190311,0.0001
 3217,0.00134882,2.03941458,0.00792525,-0.00406501,-0.01544211,-0.00256
 248,-0.00234797,0.00173737,0.00016221,0.00154046,0.00231963,3.59195611
 ,2.48821043,-0.03606414,-0.04612700,0.03174333,0.00264840,0.00285752,0
 .00173010,0.00110516,0.00204874,-0.00497249,1.53391145,1.63202551,-0.6
 3242137,0.00019771,-0.00025704,0.00012909,0.00037056,-0.00030209,-0.00
 067834,0.00005956,-0.00003089,-0.00002643,-0.00059359,0.00001466,-0.00
 014532,-0.00035954,-0.00020135,0.00015903,0.00023087,-0.00030679,0.000
 46986,-0.00081559,-0.00003730,0.00005017,-0.00000905,-0.00006706,-0.00
 063777,-0.00020722,0.00046215,-0.00028679,-0.00033847,-0.00029282,-0.0
 0031514,-0.00060745,-0.00073713,0.00120314,0.00002433,0.00004537,-0.00
 006187,0.00050986,0.00052960,-0.00024023,0.00013061,0.00012351,-0.0006
 0189,-0.00011497,0.00032860,0.00056379,0.00089076,-0.00021229,-0.00022
 127,-0.00020024,0.00007775,-0.00008736,-0.00033178,0.00018418,-0.00000
 388,-0.00012493,0.00000417,0.00010030,-0.00029907,0.00037022,-0.000122
 58,0.00056288,-0.00020227,0.00088652,-0.00009385,0.00007909,-0.0001556
 8,-0.00012357,0.00013457,-0.00033328,-0.00009859,0.00000371,-0.0001499
 5,0.00009616,0.00015574,-0.00019788,0.00019865,0.00015545,0.00010715,-
 0.00028332,-0.00016327,-0.00021155,-0.00009152,-0.00012882,-0.00004969
 ,0.00039747,0.00035046,0.00028786,0.00012143,0.00011905,-0.00002187,-0
 .00022300,-0.00032381,0.00023803,0.00598376,-0.00056495,0.01596452,0.0
 0308000,0.00329093,-0.00597073,-0.00182911,0.00077945,-0.00457453,-2.0
 2093349,-3.58784540,-1.50385177,0.00106744,0.00066848,-0.00016135,-0.0
 0012768,-0.00071024,-0.00006977,2.00748182,-0.00240005,-0.00023144,0.0
 1856261,0.00241940,0.00423533,-0.00594213,0.00074946,-0.00044519,-0.00
 601502,-3.58505875,-2.47370660,-1.59310837,0.00056078,0.00113264,-0.00
 010995,-0.00070068,-0.00027450,0.00001926,3.55682047,2.45980594,0.0308
 7116,0.03519417,-0.00024000,0.00123019,0.00214187,-0.00545923,-0.00437
 325,-0.00577813,0.00515356,-1.52640597,-1.61833813,0.60097382,0.000728
 20,0.00088890,-0.00009820,-0.00014195,-0.00006187,-0.00028347,1.488672
 02,1.57667990,-0.59041772,0.00108424,0.00188096,-0.00998541,-0.0016931
 4,-0.00212053,0.00288390,0.00021743,-0.00000771,0.00194884,-0.00538886
 ,-0.00915589,0.00171657,-0.00054163,-0.00042985,0.00031804,0.00024299,
 0.00011587,-0.00003713,0.00102209,0.02765738,0.00364741,0.02841445,0.0
 0072596,0.00263567,-0.01077723,-0.00171408,-0.00241237,0.00308622,0.00
 023581,0.00001439,0.00211788,-0.00889783,-0.00764936,0.00191391,-0.000
 36904,-0.00064616,0.00031932,0.00011091,0.00026958,-0.00001879,0.02741
 657,0.00654386,0.00248442,-0.02630431,0.02158422,-0.00056203,-0.000176
 94,-0.00318259,-0.00050457,-0.00072307,0.00117536,-0.00002845,-0.00010
 325,0.00059118,-0.00030832,-0.00038510,0.00278069,-0.00018958,-0.00025
 037,0.00011703,0.00000738,0.00003091,-0.00004395,0.00510376,0.00422248
 ,-0.01160238,-0.00004881,0.00550057,0.00666494,0.00024833,0.00064069,-
 0.00180761,-0.00031712,-0.00040009,0.00043752,0.00007581,-0.00002343,0
 .00034276,-0.00182016,-0.00150562,0.00049307,-0.00004956,-0.00011299,0
 .00004827,0.00001558,0.00005287,-0.00000698,0.00897478,0.00217733,0.00
 506586,-0.00831547,0.00711026,-0.00888905,0.00023290,-0.00018659,-0.00
 006486,-0.00040381,0.00002629,-0.00000369,0.00021523,0.00008686,0.0000
 2830,0.00018274,0.00070713,0.00075224,0.00024691,0.00001601,-0.0000274
 4,-0.00002441,-0.00000223,0.00005321,0.00000076,-0.00112695,-0.0047748
 5,0.00094026,0.00424899,-0.01525954,0.00195164,-0.00652904,0.01815714,
 0.00005924,0.00030403,-0.00064516,-0.00011843,-0.00019385,0.00016289,0
 .00005588,0.00000925,0.00005096,-0.00121575,-0.00114478,0.00005824,-0.
 00001190,-0.00005172,0.00000312,-0.00001589,0.00002131,-0.00000877,0.0
 0498846,-0.00032572,0.00040564,-0.00940936,0.00525797,0.00344473,0.005
 00688,-0.00345894,-0.00394871,-0.00011070,-0.00018686,-0.00028035,0.00
 003489,0.00002900,0.00018604,0.00004108,0.00007081,0.00015351,0.000723
 27,0.00082698,0.00019048,-0.00002602,0.00002053,-0.00002415,0.00004933
 ,0.00000046,-0.00000583,-0.00471960,-0.00222534,0.00070632,-0.01504210
 ,0.00168576,0.00541967,0.00095491,0.00275953,0.00066088,0.01809495,0.0
 0034799,0.00047908,-0.00179280,-0.00028688,-0.00038826,0.00044525,0.00
 001675,0.00003697,0.00036760,-0.00102937,-0.00176314,0.00044860,-0.000
 09824,-0.00006360,0.00005035,0.00005384,0.00002455,-0.00001029,0.00127
 166,0.00771481,0.00584861,0.00411511,-0.00508029,-0.01006688,-0.001409
 97,0.00113948,-0.00041753,-0.00298087,-0.00209959,0.00026890,0.0002415
 9,-0.00083550,-0.00019802,-0.00020699,0.00019754,0.00000661,0.00004640
 ,0.00007922,-0.00120967,-0.00165245,0.00006006,-0.00005775,-0.00002838
 ,0.00001592,0.00002189,-0.00000956,-0.00001375,-0.00010061,0.00601694,
 0.00156798,0.00896595,-0.00988428,0.00005500,-0.00069071,0.00034963,0.
 00047706,-0.00700658,0.00512709,-0.00160352,0.00006740,0.00023843,0.00
 010885,-0.00012674,-0.00018960,0.00030096,-0.00012336,0.00018322,-0.00
 000354,0.00015284,0.00018176,-0.00003956,-0.00004283,-0.00042203,0.000
 01444,-0.00002540,-0.00006917,0.00004846,0.00002392,0.00008768,0.00003
 918,0.00000384,-0.00007573,0.00005195,-0.00000415,-0.00000775,-0.00006
 804,-0.00005719,-0.00006191,-0.00001127,0.00005677,-0.00002276,-0.0000
 0368,-0.00006963,-0.00000725,-0.00005047,0.00001113,0.00001458,0.00005
 160,-0.00000057,-0.00000239,-0.00000766,-0.00006378,-0.00006548,-0.000
 07884,0.00017916,-0.00026677,0.00051619,0.00007365,0.00011303,-0.00010
 282,-0.00003521,0.00000053,-0.00007281,0.01149972,-0.00019803,0.000060
 10,0.00069320,0.00010588,0.00012028,-0.00014119,-0.00001532,-0.0000343
 5,-0.00009013,0.02097252,0.01413453,-0.00002473,0.00007252,-0.00053781
 ,-0.00005903,-0.00008056,0.00015816,0.00006793,0.00006553,0.00005482,0
 .00886172,0.00925254,-0.00274651,-0.00004770,-0.00004661,-0.00003831,-
 0.00002529,0.00007948,0.00006518,0.00000068,-0.00000483,0.00000380,0.0
 0000525,0.00003116,-0.00001114,0.00002492,-0.00005470,-0.00005669,-0.0
 0004665,0.00009021,-0.00001033,0.00007479,-0.00000462,-0.00000071,0.00
 000561,0.00003224,0.00001736,-0.00001190,-0.00002736,0.00001805,0.0000
 1881,0.00002068,-0.00001123,0.00000547,0.00000655,-0.00008351,0.000002
 18,0.00000105,0.00000937,-0.00002554,-0.00002888,-0.00001409,-0.000018
 33,-0.00001496,0.00000358,-0.00002395,-0.00007639,0.00002371,-0.000059
 69,0.00010256,-0.00002142,-0.00000403,-0.00000022,-0.00000321,-0.00001
 494,-0.00002888,-0.00000571,0.00004270,-0.00001003,0.00000979,0.000043
 45,-0.00007456,-0.00004228,0.00003267,0.00009775,-0.00003836,-0.000042
 11,-0.00000115,-0.00000379,-0.00000322,-0.00002947,-0.00002079,-0.0000
 0294,-0.00000584,0.00004077,0.00000444,-0.00002231,0.00003819,-0.00002
 819,-0.00002292,0.00000483,0.00004051,0.00002652,-0.00005565,0.0000083
 3,0.00000943,-0.00001023,-0.00000872,-0.00000684,-0.00001132,-0.000007
 15,-0.00001522,0.00009162,0.00000064,0.00001611,-0.00001311,0.00006172
 ,0.00026858,-0.00074487,-0.00006885,-0.00013309,0.00017723,0.00006269,
 0.00004300,0.00013142,-0.01208671,-0.02184403,-0.00913960,-0.00001007,
 -0.00003704,0.00001278,0.00000493,0.00004439,-0.00000114,0.01234858,0.
 00013880,0.00015675,-0.00080922,-0.00010576,-0.00011243,0.00019923,0.0
 0005023,0.00004926,0.00013872,-0.02177239,-0.01477704,-0.00960936,-0.0
 0003461,-0.00001880,0.00001618,0.00004393,0.00001584,-0.00000455,0.023
 43080,0.01519662,0.00029613,0.00036318,-0.00033566,-0.00005963,-0.0000
 6862,0.00003456,0.00007795,0.00007868,0.00006581,-0.00968085,-0.010218
 59,0.00332490,-0.00000963,-0.00000984,0.00001003,0.00000228,-0.0000002
 9,-0.00000734,0.01030512,0.01078676,-0.00349135,-0.00035491,0.00014830
 ,-0.00019055,0.00012895,-0.00014843,0.00009465,-0.00011525,0.00002624,
 0.00008098,0.00042237,0.00052313,0.00051042,-0.00001564,-0.00000822,-0
 .00000740,0.00002789,-0.00000615,-0.00000858,-0.00030881,0.00042110,-0
 .00053022,2.47858904,0.00015304,-0.00025742,-0.00030157,-0.00013511,0.
 00008162,0.00015017,0.00001958,-0.00013200,0.00008556,0.00052194,0.000
 42370,0.00050369,-0.00001133,-0.00001935,-0.00001143,-0.00000952,0.000
 02383,-0.00000671,0.00035846,-0.00017301,-0.00056183,-1.24691853,2.355
 25586,-0.00021162,-0.00031906,0.00020980,-0.00001535,0.00002211,-0.000
 08253,0.00009919,0.00010505,-0.00009380,0.00052663,0.00052633,0.000428
 17,0.00001817,0.00001800,0.00001732,0.00002078,0.00002581,0.00001126,0
 .00001578,0.00005036,-0.00085255,-1.00356463,-0.60508773,-0.82087026,-
 0.00032968,-0.00036792,0.00041360,0.00011533,0.00018159,-0.00004448,-0
 .00005423,-0.00017629,0.00005559,0.00023120,0.00057069,-0.00026737,0.0
 0003009,0.00001726,-0.00000475,-0.00002049,-0.00000848,0.00001761,-0.0
 0030478,-0.00193248,-0.00055536,0.41243715,0.86252444,-0.15233325,-0.3
 9043300,-0.00010916,0.00050976,0.00020426,0.00007503,-0.00015583,-0.00
 013113,0.00017094,0.00022766,-0.00013344,-0.00004859,-0.00022896,0.000
 05782,0.00000630,-0.00000220,0.00000697,0.00000394,0.00000596,-0.00001
 071,-0.00027955,0.00012767,0.00006608,0.94179498,-2.95574710,0.6936309
 5,-0.95007561,2.96464534,0.00013219,0.00004929,0.00011422,0.00000447,0
 .00003141,-0.00002701,-0.00008523,-0.00006092,-0.00000497,-0.00005520,
 -0.00000830,-0.00030976,0.00000374,-0.00000670,-0.00001163,-0.00002103
 ,-0.00000664,-0.00000561,-0.00014371,-0.00048258,0.00064257,-0.1762999
 9,0.72361660,0.53340930,0.15804643,-0.70409183,-0.56666128,0.00056749,
 -0.00000511,0.00009856,-0.00018941,0.00005287,-0.00009880,0.00020284,0
 .00020350,-0.00014257,-0.00027448,-0.00011714,0.00006750,-0.00000494,0
 .00000227,0.00000699,0.00000413,0.00000582,-0.00001330,0.00030129,-0.0
 0023962,0.00015421,-2.89081078,0.38349701,1.15544430,-0.02167158,0.008
 46172,0.01841833,2.91187544,-0.00021368,-0.00042826,0.00040297,0.00013
 357,0.00014384,-0.00005863,-0.00012894,-0.00004063,0.00005016,0.000476
 96,0.00030518,-0.00024734,0.00001364,0.00003191,-0.00000059,-0.0000030
 7,-0.00001937,0.00001490,-0.00185152,-0.00046487,-0.00043552,0.3041675
 5,0.60054388,-0.08897182,0.08926680,-0.00938230,-0.01904032,-0.3918613
 2,-0.59068938,-0.00004157,0.00008051,0.00015484,0.00006374,0.00002013,
 -0.00002401,-0.00009049,-0.00012049,0.00001388,0.00004140,0.00002187,-
 0.00034656,-0.00000634,0.00000688,-0.00001148,-0.00000582,-0.00002383,
 -0.00000446,-0.00061300,-0.00028553,0.00060902,1.17991532,-0.11838675,
 0.28782329,-0.00532803,0.01040103,0.03285417,-1.17393521,0.10828618,-0
 .32106869,0.00054817,-0.00060923,0.00033102,0.00006741,0.00020316,0.00
 006305,-0.00019771,0.00019239,-0.00006192,-0.00000891,0.00017341,-0.00
 012244,-0.00013157,-0.00007222,-0.00003841,0.00007216,0.00001661,0.000
 15762,-0.00004961,0.00000231,-0.00039877,-0.00014715,0.00009850,0.0000
 1809,0.00003858,0.00001638,0.00002859,0.00001822,0.00010130,-0.0001200
 6,0.00001155,0.00001248,0.00003241,0.00003224,-0.00014014,-0.00002683,
 0.00005302,0.00005302,-0.00016830,0.00001200,0.00000584,0.00005224,0.0
 0001439,0.00002386,0.00008030,-0.00014301,0.00018352,-0.00012072,-0.00
 004345,-0.00003035,-0.00003533,0.00003802,-0.00001335,0.00000294,0.000
 50269,0.00018747,-0.00005499,-0.00018287,-0.00004864,-0.00006124,-0.00
 004601,-0.00000570,0.00004128,0.00000919,0.00006230,0.00041963,-0.0001
 2220,-0.00019563,0.00013272,0.00009336,0.00010869,0.00000522,-0.000049
 34,-0.00005275,0.00001716,0.00023478,0.00032352,-0.00013043,-0.0000502
 9,0.00001404,-0.00002624,0.00007489,-0.00002376,0.00001681,0.00000591,
 -0.00002177,-0.00000657,-0.00000332,0.00000351,0.00000716,-0.00001836,
 0.00000933,-0.00004358,-0.00003218,-0.00001381,0.00007410,0.00002624,-
 0.00002268,0.00000202,-0.00000402,0.00000225,-0.00000514,0.00000839,0.
 00001221,-0.00002000,0.00000126,0.00000133,-0.00007776,-0.00003244,-0.
 00003002,0.00008397,-0.00000247,-0.00000190,0.00001227,0.00001248,0.00
 001361,0.00000158,0.00000569,0.00000756,-0.00005454,-0.00001352,-0.000
 03682,-0.00005572,0.00006475,0.00004459,0.00004128,0.00000185,-0.00000
 003,0.00000808,0.00000645,-0.00001843,0.00000328,-0.00001607,0.0000066
 3,0.00001115,-0.00002504,-0.00004273,-0.00001209,-0.00005247,0.0000453
 3,0.00006124,0.00003002,0.00000244,0.00000317,0.00000895,-0.00001974,0
 .00000020,0.00000481,0.00000982,-0.00001548,0.00000436,-0.00001443,-0.
 00002285,-0.00004573,-0.00003745,-0.00004718,0.00006298,0.00005245,0.0
 0008728,-0.00000838,-0.00000977,-0.00000235,0.00000495,0.00000578,0.00
 002260,0.00000160,-0.00000697,0.00003080,-0.00001579,-0.00000221,-0.00
 007463,-0.00009187,0.00007644,0.00024071,0.00010270,-0.00004931,-0.000
 05190,0.00002812,-0.00003394,-0.00004613,-0.00028177,0.00006227,-0.000
 10255,0.00001574,-0.00000096,-0.00000345,-0.00002516,0.00002632,0.0000
 0414,0.00028655,0.00010807,-0.00009285,0.00020563,-0.00005538,0.000093
 10,-0.00002829,-0.00004969,0.00001182,-0.00003653,0.00004646,-0.000240
 29,-0.00012211,-0.00000248,0.00001515,-0.00000180,0.00002822,-0.000016
 97,0.00000061,-0.00033552,0.00028657,-0.00003775,-0.00010196,0.0003007
 3,-0.00000755,0.00001973,-0.00008154,0.00008453,0.00011025,-0.00007346
 ,0.00009590,0.00009589,-0.00019875,0.00000518,0.00000687,0.00000389,-0
 .00001062,-0.00001571,-0.00001512,-0.00054061,-0.00053652,-0.00000772,
 -0.00029245,0.00048375,-0.00026338,0.00018434,-0.00028093,0.00003662,-
 0.00006473,0.00001180,0.00002562,0.00061224,-0.00024034,0.00015533,-0.
 00002710,0.00001092,0.00000023,0.00000291,-0.00000113,0.00000108,-0.00
 129814,0.00081695,0.00030220,2.51863149,0.00043173,-0.00017520,-0.0002
 0502,-0.00025066,0.00013887,0.00005530,0.00001640,-0.00005503,-0.00000
 113,-0.00018688,0.00057725,0.00010262,0.00001405,-0.00002084,-0.000007
 05,-0.00000922,-0.00000659,0.00000234,0.00067592,-0.00133792,0.0002331
 8,-1.13191928,2.41846789,0.00012014,0.00022072,-0.00141406,-0.00018565
 ,-0.00019499,0.00032365,-0.00003627,-0.00007238,0.00016532,-0.00017567
 ,-0.00026611,0.00135446,-0.00002249,-0.00003187,0.00002235,0.00006858,
 0.00007774,-0.00000702,0.00147270,0.00155198,-0.00112360,-1.10596993,-
 0.70792770,-0.91432953,-0.00008124,-0.00018718,0.00012103,-0.00001280,
 0.00005808,-0.00001428,0.00001183,0.00004002,-0.00000525,-0.00031852,-
 0.00008347,-0.00017988,0.00001491,-0.00000329,0.00000886,-0.00001851,0
 .00000297,0.00000687,0.00075318,-0.00015858,-0.00008675,0.52523938,0.8
 6358619,-0.16468468,-0.53113904,-0.00026450,0.00042905,0.00010731,0.00
 017211,-0.00018628,-0.00007514,0.00003013,0.00008964,-0.00004853,0.000
 10208,-0.00039544,-0.00004048,-0.00000220,0.00000295,0.00000172,-0.000
 01181,0.00002577,-0.00000732,-0.00033403,0.00056244,0.00021676,0.86362
 207,-3.11889702,0.78731733,-0.86091202,3.11303927,0.00002690,-0.000129
 70,0.00052085,0.00004118,0.00011988,-0.00011317,0.00001088,-0.00004901
 ,-0.00004833,-0.00024022,0.00024292,-0.00057270,0.00001933,0.00000410,
 -0.00001289,-0.00002483,-0.00002654,0.00000202,-0.00008275,-0.00090374
 ,0.00056988,-0.16500407,0.78858901,0.58753695,0.16763313,-0.78594621,-
 0.58577505,0.00046907,-0.00021542,0.00008075,-0.00020239,0.00016411,-0
 .00004432,0.00006934,0.00004362,-0.00005810,-0.00036931,0.00008102,-0.
 00003994,0.00000370,-0.00000058,-0.00000132,0.00002233,-0.00000885,-0.
 00001173,0.00051065,-0.00039805,0.00019548,-3.04298793,0.26764176,1.26
 941326,0.00555082,-0.00240184,-0.00237955,3.03693372,-0.00009485,-0.00
 013886,0.00007646,0.00001840,0.00000865,-0.00001325,0.00005434,0.00002
 159,-0.00001066,-0.00014630,-0.00028124,-0.00013706,-0.00000341,0.0000
 1082,0.00001219,0.00001129,-0.00001642,0.00000253,-0.00008718,0.000718
 96,-0.00002849,0.26749619,0.70130860,-0.08067474,-0.00234273,0.0053296
 3,-0.00190073,-0.26490576,-0.70696174,-0.00013520,-0.00003011,0.000532
 33,0.00012764,0.00004766,-0.00011652,-0.00006003,0.00000788,-0.0000348
 3,0.00022088,-0.00019591,-0.00063183,-0.00000046,0.00002189,-0.0000096
 6,-0.00002541,-0.00002895,0.00000361,-0.00089017,-0.00012922,0.0006256
 8,1.27071631,-0.08084155,0.32747150,-0.00279904,-0.00152544,-0.0021075
 7,-1.26715452,0.08267376,-0.32573272\\@
 The archive entry for this job was punched.


      THE ONE-EYED VIEW OF OUR UNIVERSE SAYS YOU MUST NOT LOOK
      FAR AFIELD FOR PROBLEMS.  SUCH PROBLEMS MAY NEVER ARRIVE. 
      INSTEAD, TEND TO THE WOLF WITHIN YOUR FENCES.
      THE PACKS RANGING OUTSIDE MAY NOT EVEN EXIST.

                              -- THE AZHAR BOOK SHAMRA I:4
                                 CHILDREN OF DUNE, BY FRANK HERBERT
 Job cpu time:       1 days 18 hours  0 minutes  1.0 seconds.
 Elapsed time:       0 days  1 hours  4 minutes 16.9 seconds.
 File lengths (MBytes):  RWF=   2186 Int=      0 D2E=      0 Chk=     44 Scr=      1
 Normal termination of Gaussian 16 at Fri Mar 21 16:01:29 2025.
