 Entering Gaussian System, Link 0=g16
 Input=enolt_nh3_mp2_avdz_opt_anharm.gjf
 Output=enolt_nh3_mp2_avdz_opt_anharm.log
 Initial command:
 /sw/contrib/chem-src/g16/c01/g16/l1.exe "/scr/Gau-23502.inp" -scrdir="/scr/"
 Entering Link 1 = /sw/contrib/chem-src/g16/c01/g16/l1.exe PID=     23730.
  
 Copyright (c) 1988-2019, Gaussian, Inc.  All Rights Reserved.
  
 This is part of the Gaussian(R) 16 program.  It is based on
 the Gaussian(R) 09 system (copyright 2009, Gaussian, Inc.),
 the Gaussian(R) 03 system (copyright 2003, Gaussian, Inc.),
 the Gaussian(R) 98 system (copyright 1998, Gaussian, Inc.),
 the Gaussian(R) 94 system (copyright 1995, Gaussian, Inc.),
 the Gaussian 92(TM) system (copyright 1992, Gaussian, Inc.),
 the Gaussian 90(TM) system (copyright 1990, Gaussian, Inc.),
 the Gaussian 88(TM) system (copyright 1988, Gaussian, Inc.),
 the Gaussian 86(TM) system (copyright 1986, Carnegie Mellon
 University), and the Gaussian 82(TM) system (copyright 1983,
 Carnegie Mellon University). Gaussian is a federally registered
 trademark of Gaussian, Inc.
  
 This software contains proprietary and confidential information,
 including trade secrets, belonging to Gaussian, Inc.
  
 This software is provided under written license and may be
 used, copied, transmitted, or stored only in accord with that
 written license.
  
 The following legend is applicable only to US Government
 contracts under FAR:
  
                    RESTRICTED RIGHTS LEGEND
  
 Use, reproduction and disclosure by the US Government is
 subject to restrictions as set forth in subparagraphs (a)
 and (c) of the Commercial Computer Software - Restricted
 Rights clause in FAR 52.227-19.
  
 Gaussian, Inc.
 340 Quinnipiac St., Bldg. 40, Wallingford CT 06492
  
  
 ---------------------------------------------------------------
 Warning -- This program may not be used in any manner that
 competes with the business of Gaussian, Inc. or will provide
 assistance to any competitor of Gaussian, Inc.  The licensee
 of this program is prohibited from giving any competitor of
 Gaussian, Inc. access to this program.  By using this program,
 the user acknowledges that Gaussian, Inc. is engaged in the
 business of creating and licensing software in the field of
 computational chemistry and represents and warrants to the
 licensee that it is not a competitor of Gaussian, Inc. and that
 it will not use this program in any manner prohibited above.
 ---------------------------------------------------------------
  

 Cite this work as:
 Gaussian 16, Revision C.01,
 M. J. Frisch, G. W. Trucks, H. B. Schlegel, G. E. Scuseria, 
 M. A. Robb, J. R. Cheeseman, G. Scalmani, V. Barone, 
 G. A. Petersson, H. Nakatsuji, X. Li, M. Caricato, A. V. Marenich, 
 J. Bloino, B. G. Janesko, R. Gomperts, B. Mennucci, H. P. Hratchian, 
 J. V. Ortiz, A. F. Izmaylov, J. L. Sonnenberg, D. Williams-Young, 
 F. Ding, F. Lipparini, F. Egidi, J. Goings, B. Peng, A. Petrone, 
 T. Henderson, D. Ranasinghe, V. G. Zakrzewski, J. Gao, N. Rega, 
 G. Zheng, W. Liang, M. Hada, M. Ehara, K. Toyota, R. Fukuda, 
 J. Hasegawa, M. Ishida, T. Nakajima, Y. Honda, O. Kitao, H. Nakai, 
 T. Vreven, K. Throssell, J. A. Montgomery, Jr., J. E. Peralta, 
 F. Ogliaro, M. J. Bearpark, J. J. Heyd, E. N. Brothers, K. N. Kudin, 
 V. N. Staroverov, T. A. Keith, R. Kobayashi, J. Normand, 
 K. Raghavachari, A. P. Rendell, J. C. Burant, S. S. Iyengar, 
 J. Tomasi, M. Cossi, J. M. Millam, M. Klene, C. Adamo, R. Cammi, 
 J. W. Ochterski, R. L. Martin, K. Morokuma, O. Farkas, 
 J. B. Foresman, and D. J. Fox, Gaussian, Inc., Wallingford CT, 2019.
 
 ******************************************
 Gaussian 16:  EM64L-G16RevC.01  3-Jul-2019
                21-Mar-2025 
 ******************************************
 %nprocshared=40
 Will use up to   40 processors via shared memory.
 %mem=50gb
 ----------------------------------------------
 # MP2/aug-cc-pVDZ opt freq=(vibrot,anharmonic)
 ----------------------------------------------
 1/18=20,19=15,38=1,80=1/1,3;
 2/9=110,12=2,17=6,18=5,40=1/2;
 3/5=16,7=10,11=9,25=1,30=1,71=1/1,2,3;
 4//1;
 5/5=2,38=5/2;
 8/6=4,10=1/1;
 9/15=2,16=-3/6;
 10/5=1/2;
 6/7=2,8=2,9=2,10=2/1;
 7/12=2/1,2,3,16;
 1/18=20,19=15,80=1/3(2);
 2/9=110/2;
 99//99;
 2/9=110/2;
 3/5=16,7=10,11=9,25=1,30=1,71=1/1,2,3;
 4/5=5,16=3,69=1/1;
 5/5=2,38=5/2;
 8/6=4,10=1/1;
 9/15=2,16=-3/6;
 10/5=1/2;
 7/12=2/1,2,3,16;
 1/18=20,19=15,80=1/3(-8);
 2/9=110/2;
 6/7=2,8=2,9=2,10=2/1;
 99/9=10/99;
 ----
 blah
 ----
 Symbolic Z-matrix:
 Charge =  0 Multiplicity = 1
 C                    -0.37969   0.83155   0.62156 
 C                    -1.26827  -0.15413   0.51435 
 H                     0.17069   1.05744   1.52537 
 O                    -0.08637   1.65506  -0.42752 
 H                    -1.49167  -0.80038   1.35486 
 H                    -1.78769  -0.32913  -0.42176 
 H                     0.59372   2.30888  -0.12674 
 N                     1.77444   3.51662   0.23404 
 H                     2.72518   3.20323   0.45097 
 H                     1.881     4.0758   -0.61874 
 H                     1.55825   4.20439   0.9616 
 
 Add virtual bond connecting atoms N8         and H7         Dist= 3.26D+00.

 GradGradGradGradGradGradGradGradGradGradGradGradGradGradGradGradGradGrad
 Berny optimization.
 Initialization pass.
                           ----------------------------
                           !    Initial Parameters    !
                           ! (Angstroms and Degrees)  !
 --------------------------                            --------------------------
 ! Name  Definition              Value          Derivative Info.                !
 --------------------------------------------------------------------------------
 ! R1    R(1,2)                  1.3314         estimate D2E/DX2                !
 ! R2    R(1,3)                  1.082          estimate D2E/DX2                !
 ! R3    R(1,4)                  1.3656         estimate D2E/DX2                !
 ! R4    R(2,5)                  1.0835         estimate D2E/DX2                !
 ! R5    R(2,6)                  1.0848         estimate D2E/DX2                !
 ! R6    R(4,7)                  0.9902         estimate D2E/DX2                !
 ! R7    R(7,8)                  1.7271         estimate D2E/DX2                !
 ! R8    R(8,9)                  1.0243         estimate D2E/DX2                !
 ! R9    R(8,10)                 1.0253         estimate D2E/DX2                !
 ! R10   R(8,11)                 1.0243         estimate D2E/DX2                !
 ! A1    A(2,1,3)              124.1445         estimate D2E/DX2                !
 ! A2    A(2,1,4)              121.8671         estimate D2E/DX2                !
 ! A3    A(3,1,4)              113.9884         estimate D2E/DX2                !
 ! A4    A(1,2,5)              121.1118         estimate D2E/DX2                !
 ! A5    A(1,2,6)              120.5635         estimate D2E/DX2                !
 ! A6    A(5,2,6)              118.3247         estimate D2E/DX2                !
 ! A7    A(1,4,7)              108.2015         estimate D2E/DX2                !
 ! A8    A(7,8,9)              117.6992         estimate D2E/DX2                !
 ! A9    A(7,8,10)             106.1817         estimate D2E/DX2                !
 ! A10   A(7,8,11)             118.2713         estimate D2E/DX2                !
 ! A11   A(9,8,10)             104.2729         estimate D2E/DX2                !
 ! A12   A(9,8,11)             104.5318         estimate D2E/DX2                !
 ! A13   A(10,8,11)            104.2723         estimate D2E/DX2                !
 ! A14   L(4,7,8,3,-1)         185.8822         estimate D2E/DX2                !
 ! A15   L(4,7,8,3,-2)         179.9659         estimate D2E/DX2                !
 ! D1    D(3,1,2,5)              0.0006         estimate D2E/DX2                !
 ! D2    D(3,1,2,6)           -179.9998         estimate D2E/DX2                !
 ! D3    D(4,1,2,5)           -179.9993         estimate D2E/DX2                !
 ! D4    D(4,1,2,6)              0.0004         estimate D2E/DX2                !
 ! D5    D(2,1,4,7)           -179.9955         estimate D2E/DX2                !
 ! D6    D(3,1,4,7)              0.0046         estimate D2E/DX2                !
 ! D7    D(1,4,8,9)             66.3725         estimate D2E/DX2                !
 ! D8    D(1,4,8,10)          -178.4451         estimate D2E/DX2                !
 ! D9    D(1,4,8,11)           -62.8806         estimate D2E/DX2                !
 --------------------------------------------------------------------------------
 Trust Radius=3.00D-01 FncErr=1.00D-07 GrdErr=1.00D-07 EigMax=2.50D+02 EigMin=1.00D-04
 Number of steps in this run=     44 maximum allowed number of steps=    100.
 GradGradGradGradGradGradGradGradGradGradGradGradGradGradGradGradGradGrad

                          Input orientation:                          
 ---------------------------------------------------------------------
 Center     Atomic      Atomic             Coordinates (Angstroms)
 Number     Number       Type             X           Y           Z
 ---------------------------------------------------------------------
      1          6           0       -0.379690    0.831554    0.621565
      2          6           0       -1.268266   -0.154127    0.514354
      3          1           0        0.170688    1.057436    1.525374
      4          8           0       -0.086371    1.655060   -0.427519
      5          1           0       -1.491671   -0.800379    1.354860
      6          1           0       -1.787689   -0.329125   -0.421759
      7          1           0        0.593718    2.308884   -0.126735
      8          7           0        1.774435    3.516625    0.234041
      9          1           0        2.725178    3.203226    0.450973
     10          1           0        1.881001    4.075805   -0.618743
     11          1           0        1.558252    4.204395    0.961604
 ---------------------------------------------------------------------
                    Distance matrix (angstroms):
                    1          2          3          4          5
     1  C    0.000000
     2  C    1.331401   0.000000
     3  H    1.082039   2.135564   0.000000
     4  O    1.365568   2.357362   2.058404   0.000000
     5  H    2.106521   1.083514   2.498798   3.343790   0.000000
     6  H    2.101943   1.084773   3.090165   2.613716   1.861742
     7  H    1.920932   3.153474   2.115311   0.990190   4.026350
     8  N    3.464106   4.776088   3.207360   2.713979   5.528129
     9  H    3.910772   5.217607   3.504879   3.327668   5.884530
    10  H    4.144183   5.393896   4.078353   3.125240   6.248776
    11  H    3.904779   5.214014   3.485186   3.336697   5.874048
                    6          7          8          9         10
     6  H    0.000000
     7  H    3.566123   0.000000
     8  N    5.282859   1.727105   0.000000
     9  H    5.796994   2.382586   1.024300   0.000000
    10  H    5.735983   2.240799   1.025320   1.618123   0.000000
    11  H    5.801880   2.389093   1.024261   1.620123   1.618085
                   11
    11  H    0.000000
 Stoichiometry    C2H7NO
 Framework group  C1[X(C2H7NO)]
 Deg. of freedom    27
 Full point group                 C1      NOp   1
 Largest Abelian subgroup         C1      NOp   1
 Largest concise Abelian subgroup C1      NOp   1
                         Standard orientation:                         
 ---------------------------------------------------------------------
 Center     Atomic      Atomic             Coordinates (Angstroms)
 Number     Number       Type             X           Y           Z
 ---------------------------------------------------------------------
      1          6           0       -0.988469    0.330788   -0.000216
      2          6           0       -2.304279    0.127638    0.000209
      3          1           0       -0.524894    1.308493   -0.000593
      4          8           0       -0.099000   -0.705369   -0.000210
      5          1           0       -2.999132    0.959012    0.000187
      6          1           0       -2.706899   -0.879651    0.000580
      7          1           0        0.816197   -0.327361   -0.000490
      8          7           0        2.471664    0.164901   -0.000005
      9          1           0        2.819911    0.663430    0.824242
     10          1           0        3.026114   -0.697152   -0.027003
     11          1           0        2.815548    0.711317   -0.795167
 ---------------------------------------------------------------------
 Rotational constants (GHZ):          31.3812515           2.4661021           2.3141184
 Standard basis: Aug-CC-pVDZ (5D, 7F)
 There are   163 symmetry adapted cartesian basis functions of A   symmetry.
 There are   155 symmetry adapted basis functions of A   symmetry.
   155 basis functions,   249 primitive gaussians,   163 cartesian basis functions
    17 alpha electrons       17 beta electrons
       nuclear repulsion energy       118.2852935976 Hartrees.
 NAtoms=   11 NActive=   11 NUniq=   11 SFac= 1.00D+00 NAtFMM=   60 NAOKFM=F Big=F
 Integral buffers will be    131072 words long.
 Raffenetti 1 integral format.
 Two-electron integral symmetry is turned on.
 One-electron integrals computed using PRISM.
 NBasis=   155 RedAO= T EigKep=  3.82D-05  NBF=   155
 NBsUse=   155 1.00D-06 EigRej= -1.00D+00 NBFU=   155
 ExpMin= 2.97D-02 ExpMax= 1.17D+04 ExpMxC= 4.01D+02 IAcc=3 IRadAn=         5 AccDes= 0.00D+00
 Harris functional with IExCor=  205 and IRadAn=       5 diagonalized for initial guess.
 HarFok:  IExCor=  205 AccDes= 0.00D+00 IRadAn=         5 IDoV= 1 UseB2=F ITyADJ=14
 ICtDFT=  3500011 ScaDFX=  1.000000  1.000000  1.000000  1.000000
 FoFCou: FMM=F IPFlag=           0 FMFlag=      100000 FMFlg1=           0
         NFxFlg=           0 DoJE=T BraDBF=F KetDBF=T FulRan=T
         wScrn=  0.000000 ICntrl=       500 IOpCl=  0 I1Cent=   200000004 NGrid=           0
         NMat0=    1 NMatS0=      1 NMatT0=    0 NMatD0=    1 NMtDS0=    0 NMtDT0=    0
 Petite list used in FoFCou.
 Keep R1 ints in memory in canonical form, NReq=81804852.
 Requested convergence on RMS density matrix=1.00D-08 within 128 cycles.
 Requested convergence on MAX density matrix=1.00D-06.
 Requested convergence on             energy=1.00D-06.
 No special actions if energy rises.
 SCF Done:  E(RHF) =  -209.128819498     A.U. after   13 cycles
            NFock= 13  Conv=0.30D-08     -V/T= 2.0017
 ExpMin= 2.97D-02 ExpMax= 1.17D+04 ExpMxC= 4.01D+02 IAcc=3 IRadAn=         5 AccDes= 0.00D+00
 HarFok:  IExCor=  205 AccDes= 0.00D+00 IRadAn=         5 IDoV=-2 UseB2=F ITyADJ=14
 ICtDFT= 12500011 ScaDFX=  1.000000  1.000000  1.000000  1.000000
 Range of M.O.s used for correlation:     5   155
 NBasis=   155 NAE=    17 NBE=    17 NFC=     4 NFV=     0
 NROrb=    151 NOA=    13 NOB=    13 NVA=   138 NVB=   138

 **** Warning!!: The largest alpha MO coefficient is  0.51175608D+02

 Fully direct method using O(ONN) memory.
 JobTyp=1 Pass  1:  I=   5 to  17 NPSUse= 40 ParTrn=T ParDer=T DoDerP=T.
 Spin components of T(2) and E(2):
     alpha-alpha T2 =       0.2785267648D-01 E2=     -0.8483674450D-01
     alpha-beta  T2 =       0.1659758846D+00 E2=     -0.5191510198D+00
     beta-beta   T2 =       0.2785267648D-01 E2=     -0.8483674450D-01
 ANorm=    0.1105296900D+01
 E2 =    -0.6888245088D+00 EUMP2 =    -0.20981764400640D+03
          IDoAtm=11111111111
          Differentiating once with respect to electric field.
                with respect to dipole field.
          Differentiating once with respect to nuclear coordinates.
 Keep R1 ints in memory in canonical form, NReq=81813664.
          There are     1 degrees of freedom in the 1st order CPHF.  IDoFFX=0 NUNeed=     1.
 LinEq1:  Iter=  0 NonCon=     1 RMS=4.22D-03 Max=6.10D-02 NDo=     1
 AX will form     1 AO Fock derivatives at one time.
 LinEq1:  Iter=  1 NonCon=     1 RMS=1.02D-03 Max=7.30D-03 NDo=     1
 LinEq1:  Iter=  2 NonCon=     1 RMS=3.94D-04 Max=5.38D-03 NDo=     1
 LinEq1:  Iter=  3 NonCon=     1 RMS=9.46D-05 Max=8.73D-04 NDo=     1
 LinEq1:  Iter=  4 NonCon=     1 RMS=3.50D-05 Max=5.05D-04 NDo=     1
 LinEq1:  Iter=  5 NonCon=     1 RMS=7.98D-06 Max=8.74D-05 NDo=     1
 LinEq1:  Iter=  6 NonCon=     1 RMS=2.73D-06 Max=4.51D-05 NDo=     1
 LinEq1:  Iter=  7 NonCon=     1 RMS=7.15D-07 Max=6.01D-06 NDo=     1
 LinEq1:  Iter=  8 NonCon=     1 RMS=1.81D-07 Max=3.30D-06 NDo=     1
 LinEq1:  Iter=  9 NonCon=     1 RMS=4.53D-08 Max=3.32D-07 NDo=     1
 LinEq1:  Iter= 10 NonCon=     1 RMS=1.60D-08 Max=1.73D-07 NDo=     1
 LinEq1:  Iter= 11 NonCon=     1 RMS=4.73D-09 Max=4.17D-08 NDo=     1
 LinEq1:  Iter= 12 NonCon=     1 RMS=8.04D-10 Max=6.52D-09 NDo=     1
 LinEq1:  Iter= 13 NonCon=     1 RMS=1.22D-10 Max=7.39D-10 NDo=     1
 LinEq1:  Iter= 14 NonCon=     0 RMS=2.17D-11 Max=1.55D-10 NDo=     1
 Linear equations converged to 1.000D-10 1.000D-09 after    14 iterations.
 End of Minotr F.D. properties file   721 does not exist.
 End of Minotr F.D. properties file   722 does not exist.
 End of Minotr F.D. properties file   788 does not exist.

 **********************************************************************

            Population analysis using the SCF Density.

 **********************************************************************

 Orbital symmetries:
       Occupied  (A) (A) (A) (A) (A) (A) (A) (A) (A) (A) (A) (A)
                 (A) (A) (A) (A) (A)
       Virtual   (A) (A) (A) (A) (A) (A) (A) (A) (A) (A) (A) (A)
                 (A) (A) (A) (A) (A) (A) (A) (A) (A) (A) (A) (A)
                 (A) (A) (A) (A) (A) (A) (A) (A) (A) (A) (A) (A)
                 (A) (A) (A) (A) (A) (A) (A) (A) (A) (A) (A) (A)
                 (A) (A) (A) (A) (A) (A) (A) (A) (A) (A) (A) (A)
                 (A) (A) (A) (A) (A) (A) (A) (A) (A) (A) (A) (A)
                 (A) (A) (A) (A) (A) (A) (A) (A) (A) (A) (A) (A)
                 (A) (A) (A) (A) (A) (A) (A) (A) (A) (A) (A) (A)
                 (A) (A) (A) (A) (A) (A) (A) (A) (A) (A) (A) (A)
                 (A) (A) (A) (A) (A) (A) (A) (A) (A) (A) (A) (A)
                 (A) (A) (A) (A) (A) (A) (A) (A) (A) (A) (A) (A)
                 (A) (A) (A) (A) (A) (A)
 The electronic state is 1-A.
 Alpha  occ. eigenvalues --  -20.54973 -15.59696 -11.27953 -11.19502  -1.35956
 Alpha  occ. eigenvalues --   -1.18706  -0.99792  -0.76850  -0.71340  -0.66252
 Alpha  occ. eigenvalues --   -0.66134  -0.59301  -0.55570  -0.53454  -0.49801
 Alpha  occ. eigenvalues --   -0.46627  -0.31775
 Alpha virt. eigenvalues --    0.02213   0.04765   0.05047   0.05528   0.06784
 Alpha virt. eigenvalues --    0.07201   0.09064   0.13000   0.13814   0.14133
 Alpha virt. eigenvalues --    0.14830   0.17480   0.18769   0.18876   0.18936
 Alpha virt. eigenvalues --    0.19430   0.21600   0.23012   0.23391   0.24140
 Alpha virt. eigenvalues --    0.25662   0.26707   0.27490   0.29176   0.31809
 Alpha virt. eigenvalues --    0.33180   0.33373   0.34525   0.38693   0.39489
 Alpha virt. eigenvalues --    0.39795   0.42612   0.43764   0.45593   0.46101
 Alpha virt. eigenvalues --    0.47713   0.50502   0.50845   0.52076   0.53131
 Alpha virt. eigenvalues --    0.53935   0.54097   0.54441   0.56414   0.56778
 Alpha virt. eigenvalues --    0.57261   0.60549   0.62648   0.62923   0.64092
 Alpha virt. eigenvalues --    0.66308   0.66583   0.66892   0.67950   0.69189
 Alpha virt. eigenvalues --    0.69813   0.73830   0.74297   0.75155   0.75417
 Alpha virt. eigenvalues --    0.78790   0.84891   0.86777   0.89695   0.89953
 Alpha virt. eigenvalues --    0.90817   0.92393   0.96502   0.98917   1.01337
 Alpha virt. eigenvalues --    1.07925   1.10104   1.12041   1.21176   1.21853
 Alpha virt. eigenvalues --    1.23643   1.25005   1.28842   1.29656   1.29748
 Alpha virt. eigenvalues --    1.36680   1.38615   1.56003   1.56551   1.58860
 Alpha virt. eigenvalues --    1.61674   1.62799   1.63570   1.71666   1.77841
 Alpha virt. eigenvalues --    1.80935   1.82647   1.84221   1.85831   1.88701
 Alpha virt. eigenvalues --    1.91716   1.93664   1.97358   1.97828   2.02691
 Alpha virt. eigenvalues --    2.03456   2.06696   2.12031   2.12998   2.13232
 Alpha virt. eigenvalues --    2.20110   2.21735   2.24907   2.30582   2.33492
 Alpha virt. eigenvalues --    2.35630   2.39258   2.40478   2.43314   2.43666
 Alpha virt. eigenvalues --    2.49414   2.49656   2.56828   2.71754   2.74462
 Alpha virt. eigenvalues --    2.80802   2.82970   2.86111   2.86894   2.88845
 Alpha virt. eigenvalues --    2.93928   3.05943   3.13438   3.25167   3.34629
 Alpha virt. eigenvalues --    3.52354   3.53201   3.57469   3.75053   3.84843
 Alpha virt. eigenvalues --    3.85690   4.03096   4.50849
          Condensed to atoms (all electrons):
               1          2          3          4          5          6
     1  C    4.458548   0.385502   0.021418   0.001551   0.048608   0.038323
     2  C    0.385502   5.089872  -0.190871  -0.051447   0.162572   0.235752
     3  H    0.021418  -0.190871   1.753436   0.008171  -0.124432   0.082781
     4  O    0.001551  -0.051447   0.008171   8.598497   0.031943  -0.054293
     5  H    0.048608   0.162572  -0.124432   0.031943   1.418978  -0.290524
     6  H    0.038323   0.235752   0.082781  -0.054293  -0.290524   1.283160
     7  H   -0.006327   0.009239  -0.123860   0.316549   0.013292  -0.021009
     8  N    0.021210  -0.030150   0.007505  -0.054595  -0.001314   0.002015
     9  H    0.000314  -0.000059  -0.000850  -0.004279  -0.000037  -0.000066
    10  H    0.000954  -0.002787   0.003460  -0.001395  -0.000562   0.000882
    11  H   -0.000116  -0.000092  -0.000473  -0.003784  -0.000033  -0.000100
               7          8          9         10         11
     1  C   -0.006327   0.021210   0.000314   0.000954  -0.000116
     2  C    0.009239  -0.030150  -0.000059  -0.002787  -0.000092
     3  H   -0.123860   0.007505  -0.000850   0.003460  -0.000473
     4  O    0.316549  -0.054595  -0.004279  -0.001395  -0.003784
     5  H    0.013292  -0.001314  -0.000037  -0.000562  -0.000033
     6  H   -0.021009   0.002015  -0.000066   0.000882  -0.000100
     7  H    0.545731  -0.141065  -0.009510  -0.015603  -0.008934
     8  N   -0.141065   6.273900   0.405169   0.412075   0.404150
     9  H   -0.009510   0.405169   0.689819  -0.060922  -0.090236
    10  H   -0.015603   0.412075  -0.060922   0.675220  -0.064299
    11  H   -0.008934   0.404150  -0.090236  -0.064299   0.694018
 Mulliken charges:
               1
     1  C    1.030015
     2  C    0.392469
     3  H   -0.436286
     4  O   -0.786917
     5  H   -0.258492
     6  H   -0.276920
     7  H    0.441497
     8  N   -0.298900
     9  H    0.070658
    10  H    0.052977
    11  H    0.069901
 Sum of Mulliken charges =  -0.00000
 Mulliken charges with hydrogens summed into heavy atoms:
               1
     1  C    0.593729
     2  C   -0.142944
     4  O   -0.345421
     8  N   -0.105365
 Electronic spatial extent (au):  <R**2>=            529.8702
 Charge=             -0.0000 electrons
 Dipole moment (field-independent basis, Debye):
    X=              4.5690    Y=              1.8210    Z=              0.0021  Tot=              4.9185
 Quadrupole moment (field-independent basis, Debye-Ang):
   XX=            -15.4286   YY=            -25.6872   ZZ=            -27.7294
   XY=              0.7237   XZ=              0.0018   YZ=             -0.0009
 Traceless Quadrupole moment (field-independent basis, Debye-Ang):
   XX=              7.5198   YY=             -2.7388   ZZ=             -4.7810
   XY=              0.7237   XZ=              0.0018   YZ=             -0.0009
 Octapole moment (field-independent basis, Debye-Ang**2):
  XXX=             44.8726  YYY=              0.4109  ZZZ=              0.0934  XYY=              6.8984
  XXY=             -1.2452  XXZ=             -0.0038  XZZ=             12.8173  YZZ=              0.1682
  YYZ=             -0.0862  XYZ=              0.0128
 Hexadecapole moment (field-independent basis, Debye-Ang**3):
 XXXX=           -499.7678 YYYY=            -67.0491 ZZZZ=            -35.6663 XXXY=              2.7050
 XXXZ=             -0.0767 YYYX=              2.2205 YYYZ=             -0.0648 ZZZX=              0.2776
 ZZZY=              0.0242 XXYY=            -92.0133 XXZZ=           -104.5412 YYZZ=            -17.6000
 XXYZ=              0.0600 YYXZ=             -0.2540 ZZXY=              6.2052
 N-N= 1.182852935976D+02 E-N=-7.277284185381D+02  KE= 2.087738334237D+02
 Calling FoFJK, ICntrl=  10002127 FMM=F ISym2X=0 I1Cent= 0 IOpClX= 0 NMat=1 NMatS=1 NMatT=0.
 ***** Axes restored to original set *****
 -------------------------------------------------------------------
 Center     Atomic                   Forces (Hartrees/Bohr)
 Number     Number              X              Y              Z
 -------------------------------------------------------------------
      1        6           0.009526083    0.016018440   -0.010715639
      2        6          -0.012542520   -0.015154804    0.001183950
      3        1           0.003397737   -0.001379369    0.011612756
      4        8          -0.000438855    0.000236085   -0.001619021
      5        1           0.000403597   -0.001713867    0.004757230
      6        1          -0.002089425   -0.000303544   -0.004636117
      7        1          -0.001801635   -0.001163213   -0.002010177
      8        7           0.009545010    0.010280098    0.001688087
      9        1          -0.002206257   -0.002055465   -0.000312842
     10        1          -0.001886577   -0.002445953    0.000489957
     11        1          -0.001907160   -0.002318409   -0.000438184
 -------------------------------------------------------------------
 Cartesian Forces:  Max     0.016018440 RMS     0.006251922

 GradGradGradGradGradGradGradGradGradGradGradGradGradGradGradGradGradGrad
 Berny optimization.
 FormGI is forming the generalized inverse of G from B-inverse, IUseBI=4.
 Internal  Forces:  Max     0.022104068 RMS     0.004947059
 Search for a local minimum.
 Step number   1 out of a maximum of   44
 All quantities printed in internal units (Hartrees-Bohrs-Radians)
 Mixed Optimization -- RFO/linear search
 Second derivative matrix not updated -- first step.
 ITU=  0
     Eigenvalues ---    0.00230   0.00230   0.00230   0.02147   0.02749
     Eigenvalues ---    0.02996   0.02996   0.07023   0.08106   0.09937
     Eigenvalues ---    0.16000   0.16000   0.16000   0.16000   0.16000
     Eigenvalues ---    0.16000   0.16000   0.22000   0.35424   0.35573
     Eigenvalues ---    0.35749   0.43500   0.43659   0.43665   0.49454
     Eigenvalues ---    0.51838   0.59176
 RFO step:  Lambda=-2.83107726D-03 EMin= 2.30000000D-03
 Linear search not attempted -- first point.
 Maximum step size (   0.300) exceeded in Quadratic search.
    -- Step size scaled by   0.994
 Iteration  1 RMS(Cart)=  0.12339698 RMS(Int)=  0.01689314
 Iteration  2 RMS(Cart)=  0.06799294 RMS(Int)=  0.00161415
 Iteration  3 RMS(Cart)=  0.00233815 RMS(Int)=  0.00093691
 Iteration  4 RMS(Cart)=  0.00000092 RMS(Int)=  0.00093691
 Variable       Old X    -DE/DX   Delta X   Delta X   Delta X     New X
                                 (Linear)    (Quad)   (Total)
    R1        2.51598   0.02210   0.00000   0.03696   0.03696   2.55294
    R2        2.04476   0.01114   0.00000   0.03074   0.03074   2.07549
    R3        2.58055   0.00350   0.00000   0.00668   0.00668   2.58722
    R4        2.04754   0.00463   0.00000   0.01283   0.01283   2.06038
    R5        2.04992   0.00505   0.00000   0.01406   0.01406   2.06399
    R6        1.87119   0.00254   0.00000   0.00508   0.00513   1.87632
    R7        3.26375   0.00514   0.00000   0.06992   0.06989   3.33365
    R8        1.93565  -0.00149   0.00000  -0.00336  -0.00336   1.93229
    R9        1.93757  -0.00194   0.00000  -0.00440  -0.00440   1.93317
   R10        1.93557  -0.00147   0.00000  -0.00331  -0.00331   1.93226
    A1        2.16673  -0.00702   0.00000  -0.03960  -0.03960   2.12713
    A2        2.12698   0.00399   0.00000   0.01778   0.01778   2.14476
    A3        1.98947   0.00304   0.00000   0.02181   0.02181   2.01129
    A4        2.11380  -0.00237   0.00000  -0.01450  -0.01450   2.09930
    A5        2.10423   0.00050   0.00000   0.00307   0.00307   2.10730
    A6        2.06515   0.00187   0.00000   0.01143   0.01143   2.07658
    A7        1.88847   0.00124   0.00000   0.00758   0.00758   1.89606
    A8        2.05424  -0.00212   0.00000  -0.01338  -0.01425   2.03999
    A9        1.85322  -0.00209   0.00000  -0.01182  -0.01024   1.84298
   A10        2.06422  -0.00215   0.00000  -0.01360  -0.01438   2.04984
   A11        1.81991   0.00231   0.00000   0.01494   0.01626   1.83617
   A12        1.82442   0.00273   0.00000   0.01550   0.01304   1.83746
   A13        1.81989   0.00231   0.00000   0.01485   0.01632   1.83621
   A14        3.24426  -0.00136   0.00000  -0.27984  -0.28067   2.96358
   A15        3.14100   0.00001   0.00000   0.00112   0.00107   3.14207
    D1        0.00001   0.00000   0.00000   0.00003   0.00003   0.00005
    D2       -3.14159   0.00000   0.00000   0.00001   0.00001  -3.14158
    D3       -3.14158   0.00000   0.00000   0.00000   0.00000  -3.14158
    D4        0.00001  -0.00000   0.00000  -0.00003  -0.00003  -0.00002
    D5       -3.14151  -0.00000   0.00000  -0.00003  -0.00004  -3.14155
    D6        0.00008  -0.00000   0.00000  -0.00006  -0.00007   0.00002
    D7        1.15842  -0.00051   0.00000  -0.05471  -0.05200   1.10642
    D8       -3.11445   0.00002   0.00000   0.00043   0.00053  -3.11392
    D9       -1.09747   0.00049   0.00000   0.05331   0.05048  -1.04699
         Item               Value     Threshold  Converged?
 Maximum Force            0.022104     0.000450     NO 
 RMS     Force            0.004947     0.000300     NO 
 Maximum Displacement     0.487254     0.001800     NO 
 RMS     Displacement     0.185869     0.001200     NO 
 Predicted change in Energy=-1.547299D-03
 GradGradGradGradGradGradGradGradGradGradGradGradGradGradGradGradGradGrad

                          Input orientation:                          
 ---------------------------------------------------------------------
 Center     Atomic      Atomic             Coordinates (Angstroms)
 Number     Number       Type             X           Y           Z
 ---------------------------------------------------------------------
      1          6           0       -0.353758    0.904272    0.527760
      2          6           0       -1.225753   -0.126948    0.563768
      3          1           0        0.240517    1.192224    1.405367
      4          8           0       -0.144993    1.662475   -0.592945
      5          1           0       -1.358646   -0.702827    1.479994
      6          1           0       -1.807430   -0.397311   -0.320249
      7          1           0        0.533824    2.356485   -0.384579
      8          7           0        1.741965    3.461635    0.271968
      9          1           0        2.639170    3.055484    0.546951
     10          1           0        1.962688    4.110504   -0.487481
     11          1           0        1.462002    4.053363    1.057460
 ---------------------------------------------------------------------
                    Distance matrix (angstroms):
                    1          2          3          4          5
     1  C    0.000000
     2  C    1.350958   0.000000
     3  H    1.098304   2.144399   0.000000
     4  O    1.369100   2.389155   2.088781   0.000000
     5  H    2.121159   1.090306   2.480747   3.371155   0.000000
     6  H    2.127534   1.092214   3.114235   2.660973   1.880325
     7  H    1.931085   3.187932   2.155329   0.992904   4.051847
     8  N    3.316261   4.665878   2.947739   2.746936   5.330652
     9  H    3.685878   5.006574   3.156288   3.315328   5.565788
    10  H    4.083694   5.406226   3.881380   3.232072   6.170119
    11  H    3.673464   4.994272   3.130365   3.320032   5.545803
                    6          7          8          9         10
     6  H    0.000000
     7  H    3.615107   0.000000
     8  N    5.276399   1.764090   0.000000
     9  H    5.696146   2.405998   1.022522   0.000000
    10  H    5.878958   2.264691   1.022992   1.625036   0.000000
    11  H    5.691727   2.412547   1.022506   1.625455   1.625052
                   11
    11  H    0.000000
 Stoichiometry    C2H7NO
 Framework group  C1[X(C2H7NO)]
 Deg. of freedom    27
 Full point group                 C1      NOp   1
 Largest Abelian subgroup         C1      NOp   1
 Largest concise Abelian subgroup C1      NOp   1
                         Standard orientation:                         
 ---------------------------------------------------------------------
 Center     Atomic      Atomic             Coordinates (Angstroms)
 Number     Number       Type             X           Y           Z
 ---------------------------------------------------------------------
      1          6           0       -0.909762    0.281393    0.000094
      2          6           0       -2.259999    0.237301   -0.000094
      3          1           0       -0.360519    1.232500    0.000359
      4          8           0       -0.129257   -0.843439    0.000007
      5          1           0       -2.840218    1.160400   -0.000028
      6          1           0       -2.787327   -0.719181   -0.000346
      7          1           0        0.824608   -0.567754    0.000223
      8          7           0        2.405823    0.214404   -0.000186
      9          1           0        2.649635    0.764742    0.826393
     10          1           0        3.089035   -0.546527   -0.026979
     11          1           0        2.636646    0.810341   -0.798371
 ---------------------------------------------------------------------
 Rotational constants (GHZ):          25.0286118           2.6026116           2.3871199
 Standard basis: Aug-CC-pVDZ (5D, 7F)
 There are   163 symmetry adapted cartesian basis functions of A   symmetry.
 There are   155 symmetry adapted basis functions of A   symmetry.
   155 basis functions,   249 primitive gaussians,   163 cartesian basis functions
    17 alpha electrons       17 beta electrons
       nuclear repulsion energy       118.2002711794 Hartrees.
 NAtoms=   11 NActive=   11 NUniq=   11 SFac= 1.00D+00 NAtFMM=   60 NAOKFM=F Big=F
 Integral buffers will be    131072 words long.
 Raffenetti 1 integral format.
 Two-electron integral symmetry is turned on.
 One-electron integrals computed using PRISM.
 NBasis=   155 RedAO= T EigKep=  3.45D-05  NBF=   155
 NBsUse=   155 1.00D-06 EigRej= -1.00D+00 NBFU=   155
 Initial guess from the checkpoint file:  "/scr/Gau-23730.chk"
 B after Tr=    -0.000000    0.000000    0.000000
         Rot=    0.999994    0.000071   -0.000003    0.003331 Ang=   0.38 deg.
 ExpMin= 2.97D-02 ExpMax= 1.17D+04 ExpMxC= 4.01D+02 IAcc=3 IRadAn=         5 AccDes= 0.00D+00
 Harris functional with IExCor=  205 and IRadAn=       5 diagonalized for initial guess.
 HarFok:  IExCor=  205 AccDes= 0.00D+00 IRadAn=         5 IDoV= 1 UseB2=F ITyADJ=14
 ICtDFT=  3500011 ScaDFX=  1.000000  1.000000  1.000000  1.000000
 FoFCou: FMM=F IPFlag=           0 FMFlag=      100000 FMFlg1=           0
         NFxFlg=           0 DoJE=T BraDBF=F KetDBF=T FulRan=T
         wScrn=  0.000000 ICntrl=       500 IOpCl=  0 I1Cent=   200000004 NGrid=           0
         NMat0=    1 NMatS0=      1 NMatT0=    0 NMatD0=    1 NMtDS0=    0 NMtDT0=    0
 Petite list used in FoFCou.
 Keep R1 ints in memory in canonical form, NReq=81806064.
 Requested convergence on RMS density matrix=1.00D-08 within 128 cycles.
 Requested convergence on MAX density matrix=1.00D-06.
 Requested convergence on             energy=1.00D-06.
 No special actions if energy rises.
 SCF Done:  E(RHF) =  -209.128094422     A.U. after   12 cycles
            NFock= 12  Conv=0.48D-08     -V/T= 2.0024
 ExpMin= 2.97D-02 ExpMax= 1.17D+04 ExpMxC= 4.01D+02 IAcc=3 IRadAn=         5 AccDes= 0.00D+00
 HarFok:  IExCor=  205 AccDes= 0.00D+00 IRadAn=         5 IDoV=-2 UseB2=F ITyADJ=14
 ICtDFT= 12500011 ScaDFX=  1.000000  1.000000  1.000000  1.000000
 Range of M.O.s used for correlation:     5   155
 NBasis=   155 NAE=    17 NBE=    17 NFC=     4 NFV=     0
 NROrb=    151 NOA=    13 NOB=    13 NVA=   138 NVB=   138

 **** Warning!!: The largest alpha MO coefficient is  0.55355148D+02

 Fully direct method using O(ONN) memory.
 JobTyp=1 Pass  1:  I=   5 to  17 NPSUse= 40 ParTrn=T ParDer=T DoDerP=T.
 Spin components of T(2) and E(2):
     alpha-alpha T2 =       0.2807602220D-01 E2=     -0.8497436969D-01
     alpha-beta  T2 =       0.1675883590D+00 E2=     -0.5204969386D+00
     beta-beta   T2 =       0.2807602220D-01 E2=     -0.8497436969D-01
 ANorm=    0.1106228007D+01
 E2 =    -0.6904456780D+00 EUMP2 =    -0.20981854009950D+03
          IDoAtm=11111111111
          Differentiating once with respect to electric field.
                with respect to dipole field.
          Differentiating once with respect to nuclear coordinates.
 Keep R1 ints in memory in canonical form, NReq=81815755.
          There are     1 degrees of freedom in the 1st order CPHF.  IDoFFX=0 NUNeed=     1.
 LinEq1:  Iter=  0 NonCon=     1 RMS=4.26D-03 Max=5.80D-02 NDo=     1
 AX will form     1 AO Fock derivatives at one time.
 LinEq1:  Iter=  1 NonCon=     1 RMS=1.03D-03 Max=6.43D-03 NDo=     1
 LinEq1:  Iter=  2 NonCon=     1 RMS=4.00D-04 Max=5.42D-03 NDo=     1
 LinEq1:  Iter=  3 NonCon=     1 RMS=9.87D-05 Max=9.89D-04 NDo=     1
 LinEq1:  Iter=  4 NonCon=     1 RMS=3.58D-05 Max=4.82D-04 NDo=     1
 LinEq1:  Iter=  5 NonCon=     1 RMS=8.45D-06 Max=1.12D-04 NDo=     1
 LinEq1:  Iter=  6 NonCon=     1 RMS=2.84D-06 Max=3.97D-05 NDo=     1
 LinEq1:  Iter=  7 NonCon=     1 RMS=7.44D-07 Max=6.05D-06 NDo=     1
 LinEq1:  Iter=  8 NonCon=     1 RMS=1.79D-07 Max=2.78D-06 NDo=     1
 LinEq1:  Iter=  9 NonCon=     1 RMS=5.19D-08 Max=4.03D-07 NDo=     1
 LinEq1:  Iter= 10 NonCon=     1 RMS=1.96D-08 Max=2.26D-07 NDo=     1
 LinEq1:  Iter= 11 NonCon=     1 RMS=5.24D-09 Max=5.78D-08 NDo=     1
 LinEq1:  Iter= 12 NonCon=     1 RMS=8.67D-10 Max=6.48D-09 NDo=     1
 LinEq1:  Iter= 13 NonCon=     1 RMS=1.30D-10 Max=7.74D-10 NDo=     1
 LinEq1:  Iter= 14 NonCon=     0 RMS=2.29D-11 Max=1.55D-10 NDo=     1
 Linear equations converged to 1.000D-10 1.000D-09 after    14 iterations.
 End of Minotr F.D. properties file   721 does not exist.
 End of Minotr F.D. properties file   722 does not exist.
 End of Minotr F.D. properties file   788 does not exist.
 Calling FoFJK, ICntrl=  10002127 FMM=F ISym2X=0 I1Cent= 0 IOpClX= 0 NMat=1 NMatS=1 NMatT=0.
 ***** Axes restored to original set *****
 -------------------------------------------------------------------
 Center     Atomic                   Forces (Hartrees/Bohr)
 Number     Number              X              Y              Z
 -------------------------------------------------------------------
      1        6           0.002178035    0.004029648   -0.003259626
      2        6          -0.000889498   -0.000623905   -0.000894803
      3        1          -0.000626173   -0.000919559    0.000403503
      4        8          -0.001247846   -0.001121047   -0.000762133
      5        1           0.001087950    0.001121439    0.000315920
      6        1           0.000240905    0.000220751    0.000127591
      7        1          -0.003543707   -0.006238170    0.004712928
      8        7           0.005995857    0.006650963    0.000534352
      9        1          -0.001334972   -0.001370053   -0.000860084
     10        1          -0.000263767   -0.000537172    0.000467928
     11        1          -0.001596784   -0.001212896   -0.000785576
 -------------------------------------------------------------------
 Cartesian Forces:  Max     0.006650963 RMS     0.002491300

 GradGradGradGradGradGradGradGradGradGradGradGradGradGradGradGradGradGrad
 Berny optimization.
 Using GEDIIS/GDIIS optimizer.
 FormGI is forming the generalized inverse of G from B-inverse, IUseBI=4.
 Internal  Forces:  Max     0.005131123 RMS     0.001803189
 Search for a local minimum.
 Step number   2 out of a maximum of   44
 All quantities printed in internal units (Hartrees-Bohrs-Radians)
 Mixed Optimization -- RFO/linear search
 Update second derivatives using D2CorX and points    1    2
 DE= -8.96D-04 DEPred=-1.55D-03 R= 5.79D-01
 TightC=F SS=  1.41D+00  RLast= 3.09D-01 DXNew= 5.0454D-01 9.2799D-01
 Trust test= 5.79D-01 RLast= 3.09D-01 DXMaxT set to 5.05D-01
 ITU=  1  0
 Use linear search instead of GDIIS.
     Eigenvalues ---    0.00230   0.00230   0.00628   0.02147   0.02736
     Eigenvalues ---    0.02996   0.02996   0.04988   0.08658   0.09735
     Eigenvalues ---    0.12948   0.16000   0.16000   0.16000   0.16000
     Eigenvalues ---    0.16000   0.16783   0.21842   0.34313   0.35469
     Eigenvalues ---    0.35607   0.43311   0.43592   0.43662   0.49562
     Eigenvalues ---    0.52199   0.57075
 RFO step:  Lambda=-3.55429078D-03 EMin= 2.29998270D-03
 Quartic linear search produced a step of -0.26550.
 Maximum step size (   0.505) exceeded in Quadratic search.
    -- Step size scaled by   0.968
 Iteration  1 RMS(Cart)=  0.15286937 RMS(Int)=  0.05822119
 Iteration  2 RMS(Cart)=  0.13214249 RMS(Int)=  0.02372154
 Iteration  3 RMS(Cart)=  0.08156549 RMS(Int)=  0.00264504
 Iteration  4 RMS(Cart)=  0.00538299 RMS(Int)=  0.00022423
 Iteration  5 RMS(Cart)=  0.00000118 RMS(Int)=  0.00022423
 Iteration  6 RMS(Cart)=  0.00000000 RMS(Int)=  0.00022423
 Variable       Old X    -DE/DX   Delta X   Delta X   Delta X     New X
                                 (Linear)    (Quad)   (Total)
    R1        2.55294  -0.00084  -0.00981   0.06276   0.05294   2.60588
    R2        2.07549  -0.00026  -0.00816   0.05237   0.04421   2.11971
    R3        2.58722  -0.00513  -0.00177   0.00356   0.00179   2.58901
    R4        2.06038  -0.00046  -0.00341   0.02107   0.01767   2.07805
    R5        2.06399  -0.00029  -0.00373   0.02357   0.01984   2.08383
    R6        1.87632  -0.00155  -0.00136   0.00636   0.00498   1.88130
    R7        3.33365   0.00389  -0.01856   0.15867   0.14012   3.47377
    R8        1.93229  -0.00086   0.00089  -0.00738  -0.00649   1.92580
    R9        1.93317  -0.00075   0.00117  -0.00897  -0.00780   1.92537
   R10        1.93226  -0.00087   0.00088  -0.00732  -0.00644   1.92582
    A1        2.12713  -0.00133   0.01051  -0.07393  -0.06342   2.06371
    A2        2.14476   0.00026  -0.00472   0.03139   0.02667   2.17143
    A3        2.01129   0.00107  -0.00579   0.04255   0.03676   2.04805
    A4        2.09930  -0.00196   0.00385  -0.03439  -0.03054   2.06876
    A5        2.10730   0.00077  -0.00081   0.00904   0.00822   2.11552
    A6        2.07658   0.00119  -0.00303   0.02536   0.02232   2.09891
    A7        1.89606  -0.00384  -0.00201  -0.00611  -0.00812   1.88793
    A8        2.03999  -0.00207   0.00378  -0.03542  -0.03219   2.00781
    A9        1.84298   0.00100   0.00272  -0.01092  -0.00836   1.83462
   A10        2.04984  -0.00219   0.00382  -0.03629  -0.03276   2.01708
   A11        1.83617   0.00114  -0.00432   0.03482   0.02997   1.86614
   A12        1.83746   0.00164  -0.00346   0.02771   0.02374   1.86121
   A13        1.83621   0.00113  -0.00433   0.03469   0.03059   1.86680
   A14        2.96358   0.00497   0.07452   0.45310   0.52754   3.49113
   A15        3.14207  -0.00003  -0.00028  -0.00368  -0.00404   3.13803
    D1        0.00005   0.00000  -0.00001   0.00010   0.00008   0.00013
    D2       -3.14158   0.00000  -0.00000   0.00006   0.00005  -3.14153
    D3       -3.14158  -0.00000  -0.00000  -0.00002  -0.00002   3.14159
    D4       -0.00002  -0.00000   0.00001  -0.00006  -0.00005  -0.00007
    D5       -3.14155  -0.00000   0.00001  -0.00013  -0.00011   3.14153
    D6        0.00002  -0.00000   0.00002  -0.00024  -0.00021  -0.00020
    D7        1.10642   0.00000   0.01380   0.05575   0.06948   1.17591
    D8       -3.11392   0.00000  -0.00014  -0.00291  -0.00241  -3.11633
    D9       -1.04699  -0.00003  -0.01340  -0.05657  -0.07051  -1.11750
         Item               Value     Threshold  Converged?
 Maximum Force            0.005131     0.000450     NO 
 RMS     Force            0.001803     0.000300     NO 
 Maximum Displacement     0.860561     0.001800     NO 
 RMS     Displacement     0.348204     0.001200     NO 
 Predicted change in Energy=-2.357123D-03
 GradGradGradGradGradGradGradGradGradGradGradGradGradGradGradGradGradGrad

                          Input orientation:                          
 ---------------------------------------------------------------------
 Center     Atomic      Atomic             Coordinates (Angstroms)
 Number     Number       Type             X           Y           Z
 ---------------------------------------------------------------------
      1          6           0       -0.417664    0.776596    0.647607
      2          6           0       -1.347946   -0.224461    0.463136
      3          1           0        0.063143    0.875081    1.656240
      4          8           0       -0.035573    1.666680   -0.321302
      5          1           0       -1.582383   -0.886105    1.309603
      6          1           0       -1.850517   -0.365546   -0.508200
      7          1           0        0.643743    2.279771    0.070811
      8          7           0        1.869797    3.643341    0.199617
      9          1           0        2.828624    3.346079    0.375190
     10          1           0        1.861843    4.094947   -0.713658
     11          1           0        1.656519    4.362971    0.888970
 ---------------------------------------------------------------------
                    Distance matrix (angstroms):
                    1          2          3          4          5
     1  C    0.000000
     2  C    1.378974   0.000000
     3  H    1.121701   2.150270   0.000000
     4  O    1.370047   2.431888   2.132380   0.000000
     5  H    2.135272   1.099655   2.435095   3.401350   0.000000
     6  H    2.166437   1.102713   3.144209   2.731098   1.909787
     7  H    1.928423   3.223651   2.196323   0.995542   4.063621
     8  N    3.694779   5.038174   3.612341   2.794455   5.802197
     9  H    4.149077   5.495474   3.923622   3.392508   6.183971
    10  H    4.249782   5.508618   4.383979   3.106543   6.384916
    11  H    4.150009   5.500243   3.910617   3.405571   6.182250
                    6          7          8          9         10
     6  H    0.000000
     7  H    3.681616   0.000000
     8  N    5.514790   1.838238   0.000000
     9  H    6.037458   2.450176   1.019089   0.000000
    10  H    5.806878   2.322503   1.018863   1.637394   0.000000
    11  H    6.050641   2.456587   1.019098   1.634585   1.637807
                   11
    11  H    0.000000
 Stoichiometry    C2H7NO
 Framework group  C1[X(C2H7NO)]
 Deg. of freedom    27
 Full point group                 C1      NOp   1
 Largest Abelian subgroup         C1      NOp   1
 Largest concise Abelian subgroup C1      NOp   1
                         Standard orientation:                         
 ---------------------------------------------------------------------
 Center     Atomic      Atomic             Coordinates (Angstroms)
 Number     Number       Type             X           Y           Z
 ---------------------------------------------------------------------
      1          6           0       -1.067774    0.337383   -0.000800
      2          6           0       -2.416150    0.048510    0.000977
      3          1           0       -0.755772    1.414818   -0.002084
      4          8           0       -0.073881   -0.605595   -0.000961
      5          1           0       -3.132117    0.883155    0.000941
      6          1           0       -2.777306   -0.993382    0.002344
      7          1           0        0.802380   -0.133083   -0.002460
      8          7           0        2.621323    0.132543    0.000360
      9          1           0        2.988795    0.592191    0.832364
     10          1           0        3.026350   -0.801998   -0.025475
     11          1           0        2.993003    0.639893   -0.801520
 ---------------------------------------------------------------------
 Rotational constants (GHZ):          35.9917952           2.2226507           2.1169890
 Standard basis: Aug-CC-pVDZ (5D, 7F)
 There are   163 symmetry adapted cartesian basis functions of A   symmetry.
 There are   155 symmetry adapted basis functions of A   symmetry.
   155 basis functions,   249 primitive gaussians,   163 cartesian basis functions
    17 alpha electrons       17 beta electrons
       nuclear repulsion energy       115.3575277261 Hartrees.
 NAtoms=   11 NActive=   11 NUniq=   11 SFac= 1.00D+00 NAtFMM=   60 NAOKFM=F Big=F
 Integral buffers will be    131072 words long.
 Raffenetti 1 integral format.
 Two-electron integral symmetry is turned on.
 One-electron integrals computed using PRISM.
 NBasis=   155 RedAO= T EigKep=  5.13D-05  NBF=   155
 NBsUse=   155 1.00D-06 EigRej= -1.00D+00 NBFU=   155
 Initial guess from the checkpoint file:  "/scr/Gau-23730.chk"
 B after Tr=    -0.000000   -0.000000    0.000000
         Rot=    0.999983   -0.000238    0.000016   -0.005744 Ang=  -0.66 deg.
 ExpMin= 2.97D-02 ExpMax= 1.17D+04 ExpMxC= 4.01D+02 IAcc=3 IRadAn=         5 AccDes= 0.00D+00
 Harris functional with IExCor=  205 and IRadAn=       5 diagonalized for initial guess.
 HarFok:  IExCor=  205 AccDes= 0.00D+00 IRadAn=         5 IDoV= 1 UseB2=F ITyADJ=14
 ICtDFT=  3500011 ScaDFX=  1.000000  1.000000  1.000000  1.000000
 FoFCou: FMM=F IPFlag=           0 FMFlag=      100000 FMFlg1=           0
         NFxFlg=           0 DoJE=T BraDBF=F KetDBF=T FulRan=T
         wScrn=  0.000000 ICntrl=       500 IOpCl=  0 I1Cent=   200000004 NGrid=           0
         NMat0=    1 NMatS0=      1 NMatT0=    0 NMatD0=    1 NMtDS0=    0 NMtDT0=    0
 Petite list used in FoFCou.
 Keep R1 ints in memory in canonical form, NReq=81800900.
 Requested convergence on RMS density matrix=1.00D-08 within 128 cycles.
 Requested convergence on MAX density matrix=1.00D-06.
 Requested convergence on             energy=1.00D-06.
 No special actions if energy rises.
 SCF Done:  E(RHF) =  -209.124776047     A.U. after   13 cycles
            NFock= 13  Conv=0.37D-08     -V/T= 2.0031
 ExpMin= 2.97D-02 ExpMax= 1.17D+04 ExpMxC= 4.01D+02 IAcc=3 IRadAn=         5 AccDes= 0.00D+00
 HarFok:  IExCor=  205 AccDes= 0.00D+00 IRadAn=         5 IDoV=-2 UseB2=F ITyADJ=14
 ICtDFT= 12500011 ScaDFX=  1.000000  1.000000  1.000000  1.000000
 Range of M.O.s used for correlation:     5   155
 NBasis=   155 NAE=    17 NBE=    17 NFC=     4 NFV=     0
 NROrb=    151 NOA=    13 NOB=    13 NVA=   138 NVB=   138

 **** Warning!!: The largest alpha MO coefficient is  0.40015024D+02

 Fully direct method using O(ONN) memory.
 JobTyp=1 Pass  1:  I=   5 to  17 NPSUse= 40 ParTrn=T ParDer=T DoDerP=T.
 Spin components of T(2) and E(2):
     alpha-alpha T2 =       0.2830204082D-01 E2=     -0.8496978071D-01
     alpha-beta  T2 =       0.1698628974D+00 E2=     -0.5221677320D+00
     beta-beta   T2 =       0.2830204082D-01 E2=     -0.8496978071D-01
 ANorm=    0.1107459696D+01
 E2 =    -0.6921072934D+00 EUMP2 =    -0.20981688334080D+03
          IDoAtm=11111111111
          Differentiating once with respect to electric field.
                with respect to dipole field.
          Differentiating once with respect to nuclear coordinates.
 Keep R1 ints in memory in canonical form, NReq=81809843.
          There are     1 degrees of freedom in the 1st order CPHF.  IDoFFX=0 NUNeed=     1.
 LinEq1:  Iter=  0 NonCon=     1 RMS=4.30D-03 Max=6.54D-02 NDo=     1
 AX will form     1 AO Fock derivatives at one time.
 LinEq1:  Iter=  1 NonCon=     1 RMS=1.06D-03 Max=8.49D-03 NDo=     1
 LinEq1:  Iter=  2 NonCon=     1 RMS=4.09D-04 Max=5.78D-03 NDo=     1
 LinEq1:  Iter=  3 NonCon=     1 RMS=1.06D-04 Max=1.15D-03 NDo=     1
 LinEq1:  Iter=  4 NonCon=     1 RMS=3.70D-05 Max=4.45D-04 NDo=     1
 LinEq1:  Iter=  5 NonCon=     1 RMS=9.38D-06 Max=1.65D-04 NDo=     1
 LinEq1:  Iter=  6 NonCon=     1 RMS=3.07D-06 Max=3.70D-05 NDo=     1
 LinEq1:  Iter=  7 NonCon=     1 RMS=8.24D-07 Max=9.07D-06 NDo=     1
 LinEq1:  Iter=  8 NonCon=     1 RMS=1.70D-07 Max=1.91D-06 NDo=     1
 LinEq1:  Iter=  9 NonCon=     1 RMS=4.89D-08 Max=3.72D-07 NDo=     1
 LinEq1:  Iter= 10 NonCon=     1 RMS=1.73D-08 Max=2.12D-07 NDo=     1
 LinEq1:  Iter= 11 NonCon=     1 RMS=4.68D-09 Max=7.70D-08 NDo=     1
 LinEq1:  Iter= 12 NonCon=     1 RMS=8.64D-10 Max=7.02D-09 NDo=     1
 LinEq1:  Iter= 13 NonCon=     1 RMS=1.42D-10 Max=9.33D-10 NDo=     1
 LinEq1:  Iter= 14 NonCon=     0 RMS=2.55D-11 Max=1.91D-10 NDo=     1
 Linear equations converged to 1.000D-10 1.000D-09 after    14 iterations.
 End of Minotr F.D. properties file   721 does not exist.
 End of Minotr F.D. properties file   722 does not exist.
 End of Minotr F.D. properties file   788 does not exist.
 Calling FoFJK, ICntrl=  10002127 FMM=F ISym2X=0 I1Cent= 0 IOpClX= 0 NMat=1 NMatS=1 NMatT=0.
 ***** Axes restored to original set *****
 -------------------------------------------------------------------
 Center     Atomic                   Forces (Hartrees/Bohr)
 Number     Number              X              Y              Z
 -------------------------------------------------------------------
      1        6          -0.012570413   -0.019078855    0.009596282
      2        6           0.014478264    0.017440841   -0.001180447
      3        1          -0.004474857    0.001456920   -0.014549675
      4        8           0.002248496   -0.002607388    0.011505411
      5        1           0.001349947    0.004131727   -0.005582656
      6        1           0.003154951    0.000593012    0.006740896
      7        1          -0.004657731   -0.001558018   -0.008596331
      8        7          -0.000260949   -0.001895112    0.003338167
      9        1           0.000769462    0.000245230   -0.000425298
     10        1          -0.000066584    0.000335822   -0.000691350
     11        1           0.000029414    0.000935822   -0.000154999
 -------------------------------------------------------------------
 Cartesian Forces:  Max     0.019078855 RMS     0.007236957

 GradGradGradGradGradGradGradGradGradGradGradGradGradGradGradGradGradGrad
 Berny optimization.
 Using GEDIIS/GDIIS optimizer.
 FormGI is forming the generalized inverse of G from B-inverse, IUseBI=4.
 Internal  Forces:  Max     0.028894384 RMS     0.006315591
 Search for a local minimum.
 Step number   3 out of a maximum of   44
 All quantities printed in internal units (Hartrees-Bohrs-Radians)
 Mixed Optimization -- RFO/linear search
 Update second derivatives using D2CorX and points    1    3    2
 DE=  1.66D-03 DEPred=-2.36D-03 R=-7.03D-01
 Trust test=-7.03D-01 RLast= 5.71D-01 DXMaxT set to 2.52D-01
 ITU= -1  1  0
 Use linear search instead of GDIIS.
     Eigenvalues ---    0.00230   0.00230   0.01835   0.02147   0.02716
     Eigenvalues ---    0.02996   0.02996   0.05147   0.08492   0.10412
     Eigenvalues ---    0.13813   0.16000   0.16000   0.16000   0.16000
     Eigenvalues ---    0.16104   0.16702   0.22007   0.35464   0.35594
     Eigenvalues ---    0.36838   0.43322   0.43590   0.43662   0.49629
     Eigenvalues ---    0.51863   0.63351
 RFO step:  Lambda=-4.81572812D-04 EMin= 2.29998985D-03
 Quartic linear search produced a step of -0.68216.
 Iteration  1 RMS(Cart)=  0.13402690 RMS(Int)=  0.02258844
 Iteration  2 RMS(Cart)=  0.08512800 RMS(Int)=  0.00236021
 Iteration  3 RMS(Cart)=  0.00446651 RMS(Int)=  0.00016445
 Iteration  4 RMS(Cart)=  0.00000073 RMS(Int)=  0.00016445
 Variable       Old X    -DE/DX   Delta X   Delta X   Delta X     New X
                                 (Linear)    (Quad)   (Total)
    R1        2.60588  -0.02889  -0.03612  -0.01257  -0.04868   2.55720
    R2        2.11971  -0.01487  -0.03016  -0.01055  -0.04071   2.07900
    R3        2.58901  -0.00701  -0.00122  -0.01001  -0.01123   2.57778
    R4        2.07805  -0.00707  -0.01205  -0.00584  -0.01789   2.06016
    R5        2.08383  -0.00745  -0.01353  -0.00577  -0.01930   2.06452
    R6        1.88130  -0.00662  -0.00340  -0.00576  -0.00916   1.87215
    R7        3.47377   0.00018  -0.09558   0.04035  -0.05523   3.41853
    R8        1.92580   0.00058   0.00443  -0.00119   0.00323   1.92903
    R9        1.92537   0.00077   0.00532  -0.00100   0.00433   1.92970
   R10        1.92582   0.00055   0.00439  -0.00123   0.00317   1.92898
    A1        2.06371   0.00591   0.04326   0.00171   0.04498   2.10869
    A2        2.17143  -0.00429  -0.01819  -0.00372  -0.02191   2.14952
    A3        2.04805  -0.00162  -0.02507   0.00201  -0.02306   2.02498
    A4        2.06876   0.00001   0.02084  -0.00912   0.01172   2.08048
    A5        2.11552   0.00048  -0.00561   0.00431  -0.00130   2.11421
    A6        2.09891  -0.00049  -0.01523   0.00481  -0.01042   2.08849
    A7        1.88793   0.00275   0.00554  -0.00923  -0.00369   1.88424
    A8        2.00781   0.00082   0.02196  -0.00830   0.01373   2.02154
    A9        1.83462  -0.00090   0.00570   0.00135   0.00746   1.84208
   A10        2.01708   0.00088   0.02235  -0.00865   0.01369   2.03077
   A11        1.86614  -0.00071  -0.02044   0.00471  -0.01527   1.85087
   A12        1.86121   0.00040  -0.01620   0.00804  -0.00835   1.85286
   A13        1.86680  -0.00078  -0.02087   0.00452  -0.01608   1.85073
   A14        3.49113  -0.00571  -0.35987   0.03042  -0.32958   3.16154
   A15        3.13803   0.00004   0.00276   0.00130   0.00408   3.14211
    D1        0.00013  -0.00000  -0.00006   0.00000  -0.00005   0.00008
    D2       -3.14153  -0.00000  -0.00003   0.00001  -0.00002  -3.14155
    D3        3.14159  -0.00000   0.00001  -0.00002  -0.00001   3.14158
    D4       -0.00007  -0.00000   0.00003  -0.00002   0.00002  -0.00005
    D5        3.14153  -0.00000   0.00007  -0.00006   0.00001   3.14154
    D6       -0.00020   0.00000   0.00014  -0.00009   0.00006  -0.00014
    D7        1.17591   0.00007  -0.04740   0.00054  -0.04635   1.12955
    D8       -3.11633   0.00003   0.00165  -0.00052   0.00097  -3.11537
    D9       -1.11750  -0.00010   0.04810  -0.00237   0.04537  -1.07213
         Item               Value     Threshold  Converged?
 Maximum Force            0.028894     0.000450     NO 
 RMS     Force            0.006316     0.000300     NO 
 Maximum Displacement     0.557670     0.001800     NO 
 RMS     Displacement     0.219438     0.001200     NO 
 Predicted change in Energy=-5.503045D-04
 GradGradGradGradGradGradGradGradGradGradGradGradGradGradGradGradGradGrad

                          Input orientation:                          
 ---------------------------------------------------------------------
 Center     Atomic      Atomic             Coordinates (Angstroms)
 Number     Number       Type             X           Y           Z
 ---------------------------------------------------------------------
      1          6           0       -0.385667    0.848264    0.568790
      2          6           0       -1.276598   -0.169450    0.527732
      3          1           0        0.171407    1.072853    1.490516
      4          8           0       -0.119168    1.650222   -0.502012
      5          1           0       -1.439522   -0.770180    1.422767
      6          1           0       -1.832563   -0.397046   -0.384768
      7          1           0        0.561350    2.314488   -0.224296
      8          7           0        1.802457    3.542208    0.249911
      9          1           0        2.722793    3.173314    0.492664
     10          1           0        1.941054    4.124781   -0.577224
     11          1           0        1.544042    4.179899    1.003935
 ---------------------------------------------------------------------
                    Distance matrix (angstroms):
                    1          2          3          4          5
     1  C    0.000000
     2  C    1.353213   0.000000
     3  H    1.100159   2.137051   0.000000
     4  O    1.364103   2.389817   2.094746   0.000000
     5  H    2.111694   1.090188   2.448766   3.362508   0.000000
     6  H    2.133912   1.092498   3.113389   2.672223   1.887033
     7  H    1.917195   3.180180   2.152741   0.990697   4.028832
     8  N    3.485241   4.830546   3.208916   2.799579   5.521116
     9  H    3.882547   5.212526   3.452132   3.374304   5.808710
    10  H    4.178820   5.478561   4.089189   3.220809   6.276058
    11  H    3.874650   5.205729   3.431417   3.381332   5.794856
                    6          7          8          9         10
     6  H    0.000000
     7  H    3.620633   0.000000
     8  N    5.397584   1.809010   0.000000
     9  H    5.853941   2.433814   1.020798   0.000000
    10  H    5.892720   2.303324   1.021152   1.631277   0.000000
    11  H    5.854774   2.440080   1.020775   1.632196   1.631172
                   11
    11  H    0.000000
 Stoichiometry    C2H7NO
 Framework group  C1[X(C2H7NO)]
 Deg. of freedom    27
 Full point group                 C1      NOp   1
 Largest Abelian subgroup         C1      NOp   1
 Largest concise Abelian subgroup C1      NOp   1
                         Standard orientation:                         
 ---------------------------------------------------------------------
 Center     Atomic      Atomic             Coordinates (Angstroms)
 Number     Number       Type             X           Y           Z
 ---------------------------------------------------------------------
      1          6           0       -0.975463    0.302259    0.000129
      2          6           0       -2.322700    0.175212   -0.000165
      3          1           0       -0.503016    1.295810    0.000511
      4          8           0       -0.125445   -0.764626    0.000082
      5          1           0       -2.941596    1.072696   -0.000093
      6          1           0       -2.797303   -0.808812   -0.000509
      7          1           0        0.801989   -0.416280    0.000290
      8          7           0        2.507834    0.185890   -0.000222
      9          1           0        2.795919    0.706422    0.829286
     10          1           0        3.093232   -0.650407   -0.026101
     11          1           0        2.788475    0.751523   -0.802271
 ---------------------------------------------------------------------
 Rotational constants (GHZ):          28.4473601           2.4236437           2.2601839
 Standard basis: Aug-CC-pVDZ (5D, 7F)
 There are   163 symmetry adapted cartesian basis functions of A   symmetry.
 There are   155 symmetry adapted basis functions of A   symmetry.
   155 basis functions,   249 primitive gaussians,   163 cartesian basis functions
    17 alpha electrons       17 beta electrons
       nuclear repulsion energy       117.1261361967 Hartrees.
 NAtoms=   11 NActive=   11 NUniq=   11 SFac= 1.00D+00 NAtFMM=   60 NAOKFM=F Big=F
 Integral buffers will be    131072 words long.
 Raffenetti 1 integral format.
 Two-electron integral symmetry is turned on.
 One-electron integrals computed using PRISM.
 NBasis=   155 RedAO= T EigKep=  3.91D-05  NBF=   155
 NBsUse=   155 1.00D-06 EigRej= -1.00D+00 NBFU=   155
 Lowest energy guess from the checkpoint file:  "/scr/Gau-23730.chk"
 B after Tr=     0.000000   -0.000000   -0.000000
         Rot=    1.000000    0.000141    0.000006   -0.000949 Ang=   0.11 deg.
 B after Tr=     0.000000   -0.000000   -0.000000
         Rot=    0.999990    0.000283   -0.000016    0.004488 Ang=   0.52 deg.
 Keep R1 ints in memory in canonical form, NReq=81804072.
 Requested convergence on RMS density matrix=1.00D-08 within 128 cycles.
 Requested convergence on MAX density matrix=1.00D-06.
 Requested convergence on             energy=1.00D-06.
 No special actions if energy rises.
 SCF Done:  E(RHF) =  -209.129756336     A.U. after   11 cycles
            NFock= 11  Conv=0.28D-08     -V/T= 2.0024
 ExpMin= 2.97D-02 ExpMax= 1.17D+04 ExpMxC= 4.01D+02 IAcc=3 IRadAn=         5 AccDes= 0.00D+00
 HarFok:  IExCor=  205 AccDes= 0.00D+00 IRadAn=         5 IDoV=-2 UseB2=F ITyADJ=14
 ICtDFT= 12500011 ScaDFX=  1.000000  1.000000  1.000000  1.000000
 Range of M.O.s used for correlation:     5   155
 NBasis=   155 NAE=    17 NBE=    17 NFC=     4 NFV=     0
 NROrb=    151 NOA=    13 NOB=    13 NVA=   138 NVB=   138

 **** Warning!!: The largest alpha MO coefficient is  0.50202965D+02

 Fully direct method using O(ONN) memory.
 JobTyp=1 Pass  1:  I=   5 to  17 NPSUse= 40 ParTrn=T ParDer=T DoDerP=T.
 Spin components of T(2) and E(2):
     alpha-alpha T2 =       0.2799567948D-01 E2=     -0.8478647298D-01
     alpha-beta  T2 =       0.1674156398D+00 E2=     -0.5200348867D+00
     beta-beta   T2 =       0.2799567948D-01 E2=     -0.8478647298D-01
 ANorm=    0.1106077302D+01
 E2 =    -0.6896078327D+00 EUMP2 =    -0.20981936416841D+03
          IDoAtm=11111111111
          Differentiating once with respect to electric field.
                with respect to dipole field.
          Differentiating once with respect to nuclear coordinates.
 Keep R1 ints in memory in canonical form, NReq=81813192.
          There are     1 degrees of freedom in the 1st order CPHF.  IDoFFX=0 NUNeed=     1.
 LinEq1:  Iter=  0 NonCon=     1 RMS=4.24D-03 Max=5.64D-02 NDo=     1
 AX will form     1 AO Fock derivatives at one time.
 LinEq1:  Iter=  1 NonCon=     1 RMS=1.02D-03 Max=7.21D-03 NDo=     1
 LinEq1:  Iter=  2 NonCon=     1 RMS=3.96D-04 Max=5.43D-03 NDo=     1
 LinEq1:  Iter=  3 NonCon=     1 RMS=9.83D-05 Max=9.84D-04 NDo=     1
 LinEq1:  Iter=  4 NonCon=     1 RMS=3.53D-05 Max=4.75D-04 NDo=     1
 LinEq1:  Iter=  5 NonCon=     1 RMS=8.40D-06 Max=1.19D-04 NDo=     1
 LinEq1:  Iter=  6 NonCon=     1 RMS=2.83D-06 Max=4.24D-05 NDo=     1
 LinEq1:  Iter=  7 NonCon=     1 RMS=7.41D-07 Max=7.10D-06 NDo=     1
 LinEq1:  Iter=  8 NonCon=     1 RMS=1.77D-07 Max=2.96D-06 NDo=     1
 LinEq1:  Iter=  9 NonCon=     1 RMS=4.98D-08 Max=4.04D-07 NDo=     1
 LinEq1:  Iter= 10 NonCon=     1 RMS=1.89D-08 Max=2.28D-07 NDo=     1
 LinEq1:  Iter= 11 NonCon=     1 RMS=5.17D-09 Max=5.55D-08 NDo=     1
 LinEq1:  Iter= 12 NonCon=     1 RMS=8.54D-10 Max=6.70D-09 NDo=     1
 LinEq1:  Iter= 13 NonCon=     1 RMS=1.27D-10 Max=8.04D-10 NDo=     1
 LinEq1:  Iter= 14 NonCon=     0 RMS=2.22D-11 Max=1.56D-10 NDo=     1
 Linear equations converged to 1.000D-10 1.000D-09 after    14 iterations.
 End of Minotr F.D. properties file   721 does not exist.
 End of Minotr F.D. properties file   722 does not exist.
 End of Minotr F.D. properties file   788 does not exist.
 Calling FoFJK, ICntrl=  10002127 FMM=F ISym2X=0 I1Cent= 0 IOpClX= 0 NMat=1 NMatS=1 NMatT=0.
 ***** Axes restored to original set *****
 -------------------------------------------------------------------
 Center     Atomic                   Forces (Hartrees/Bohr)
 Number     Number              X              Y              Z
 -------------------------------------------------------------------
      1        6          -0.001372582   -0.002209887    0.001309985
      2        6           0.001280237    0.001656777   -0.000357819
      3        1          -0.000555153   -0.000014853   -0.001369115
      4        8           0.001858657    0.001695725    0.000977573
      5        1           0.000038387    0.000166282   -0.000263274
      6        1           0.000297253    0.000077057    0.000583491
      7        1          -0.002176185   -0.002077578   -0.000874281
      8        7           0.001631739    0.001699341    0.000313706
      9        1          -0.000385745   -0.000490412   -0.000267278
     10        1          -0.000042666   -0.000127985    0.000135246
     11        1          -0.000573940   -0.000374466   -0.000188235
 -------------------------------------------------------------------
 Cartesian Forces:  Max     0.002209887 RMS     0.001093575

 GradGradGradGradGradGradGradGradGradGradGradGradGradGradGradGradGradGrad
 Berny optimization.
 Using GEDIIS/GDIIS optimizer.
 FormGI is forming the generalized inverse of G from B-inverse, IUseBI=4.
 Internal  Forces:  Max     0.002491747 RMS     0.000705843
 Search for a local minimum.
 Step number   4 out of a maximum of   44
 All quantities printed in internal units (Hartrees-Bohrs-Radians)
 Mixed Optimization -- En-DIIS/RFO-DIIS
 Update second derivatives using D2CorX and points    1    3    2    4
 DE= -8.24D-04 DEPred=-5.50D-04 R= 1.50D+00
 TightC=F SS=  1.41D+00  RLast= 2.24D-01 DXNew= 4.2426D-01 6.7308D-01
 Trust test= 1.50D+00 RLast= 2.24D-01 DXMaxT set to 4.24D-01
 ITU=  1 -1  1  0
 Use linear search instead of GDIIS.
     Eigenvalues ---    0.00230   0.00230   0.02041   0.02147   0.02730
     Eigenvalues ---    0.02996   0.02996   0.04177   0.08732   0.10029
     Eigenvalues ---    0.13457   0.15945   0.16000   0.16000   0.16000
     Eigenvalues ---    0.16078   0.16933   0.22052   0.35461   0.35630
     Eigenvalues ---    0.36659   0.43200   0.43574   0.43662   0.48941
     Eigenvalues ---    0.52699   0.61855
 RFO step:  Lambda=-6.14719433D-05 EMin= 2.29990705D-03
 Quartic linear search produced a step of  0.07405.
 Iteration  1 RMS(Cart)=  0.00895784 RMS(Int)=  0.00003473
 Iteration  2 RMS(Cart)=  0.00004783 RMS(Int)=  0.00000841
 Iteration  3 RMS(Cart)=  0.00000000 RMS(Int)=  0.00000841
 Variable       Old X    -DE/DX   Delta X   Delta X   Delta X     New X
                                 (Linear)    (Quad)   (Total)
    R1        2.55720  -0.00249   0.00032  -0.00357  -0.00325   2.55395
    R2        2.07900  -0.00143   0.00026  -0.00355  -0.00329   2.07571
    R3        2.57778   0.00018  -0.00070   0.00041  -0.00029   2.57749
    R4        2.06016  -0.00031  -0.00002  -0.00057  -0.00059   2.05957
    R5        2.06452  -0.00065   0.00004  -0.00164  -0.00160   2.06292
    R6        1.87215  -0.00223  -0.00031  -0.00511  -0.00542   1.86673
    R7        3.41853   0.00091   0.00629   0.01832   0.02461   3.44314
    R8        1.92903  -0.00023  -0.00024  -0.00078  -0.00102   1.92801
    R9        1.92970  -0.00019  -0.00026  -0.00069  -0.00095   1.92875
   R10        1.92898  -0.00023  -0.00024  -0.00076  -0.00101   1.92798
    A1        2.10869   0.00031  -0.00137   0.00089  -0.00047   2.10822
    A2        2.14952   0.00014   0.00035   0.00141   0.00176   2.15127
    A3        2.02498  -0.00045   0.00101  -0.00230  -0.00129   2.02369
    A4        2.08048  -0.00004  -0.00139  -0.00100  -0.00239   2.07809
    A5        2.11421   0.00010   0.00051   0.00092   0.00143   2.11565
    A6        2.08849  -0.00006   0.00088   0.00007   0.00096   2.08945
    A7        1.88424   0.00050  -0.00087   0.00312   0.00225   1.88649
    A8        2.02154  -0.00063  -0.00137  -0.00562  -0.00701   2.01453
    A9        1.84208   0.00022  -0.00007   0.00206   0.00198   1.84406
   A10        2.03077  -0.00069  -0.00141  -0.00615  -0.00757   2.02320
   A11        1.85087   0.00025   0.00109   0.00296   0.00402   1.85489
   A12        1.85286   0.00072   0.00114   0.00515   0.00627   1.85913
   A13        1.85073   0.00026   0.00107   0.00302   0.00409   1.85482
   A14        3.16154   0.00000   0.01466  -0.01046   0.00420   3.16574
   A15        3.14211  -0.00003   0.00000  -0.01299  -0.01299   3.12912
    D1        0.00008  -0.00000   0.00000  -0.00003  -0.00003   0.00005
    D2       -3.14155  -0.00000   0.00000  -0.00003  -0.00003  -3.14158
    D3        3.14158   0.00000  -0.00000   0.00006   0.00006  -3.14155
    D4       -0.00005   0.00000  -0.00000   0.00006   0.00006   0.00001
    D5        3.14154  -0.00000  -0.00001  -0.00006  -0.00007   3.14148
    D6       -0.00014   0.00000  -0.00001   0.00003   0.00002  -0.00012
    D7        1.12955  -0.00011   0.00171  -0.00378  -0.00208   1.12747
    D8       -3.11537   0.00000  -0.00011  -0.00220  -0.00229  -3.11766
    D9       -1.07213   0.00011  -0.00186   0.00344   0.00157  -1.07056
         Item               Value     Threshold  Converged?
 Maximum Force            0.002492     0.000450     NO 
 RMS     Force            0.000706     0.000300     NO 
 Maximum Displacement     0.021485     0.001800     NO 
 RMS     Displacement     0.008955     0.001200     NO 
 Predicted change in Energy=-3.353549D-05
 GradGradGradGradGradGradGradGradGradGradGradGradGradGradGradGradGradGrad

                          Input orientation:                          
 ---------------------------------------------------------------------
 Center     Atomic      Atomic             Coordinates (Angstroms)
 Number     Number       Type             X           Y           Z
 ---------------------------------------------------------------------
      1          6           0       -0.391404    0.846950    0.570282
      2          6           0       -1.276216   -0.173678    0.526056
      3          1           0        0.160037    1.073503    1.492837
      4          8           0       -0.123245    1.651287   -0.498127
      5          1           0       -1.437832   -0.773493    1.421565
      6          1           0       -1.827995   -0.404968   -0.387040
      7          1           0        0.551081    2.317078   -0.219180
      8          7           0        1.809478    3.548890    0.248667
      9          1           0        2.725776    3.169635    0.488432
     10          1           0        1.947879    4.129408   -0.579327
     11          1           0        1.552026    4.184743    1.003851
 ---------------------------------------------------------------------
                    Distance matrix (angstroms):
                    1          2          3          4          5
     1  C    0.000000
     2  C    1.351492   0.000000
     3  H    1.098418   2.133765   0.000000
     4  O    1.363952   2.389308   2.092372   0.000000
     5  H    2.108443   1.089878   2.443289   3.360493   0.000000
     6  H    2.132500   1.091649   3.109998   2.673330   1.886555
     7  H    1.916457   3.177776   2.151836   0.987828   4.024854
     8  N    3.499685   4.843136   3.224307   2.809629   5.532062
     9  H    3.888235   5.214892   3.462024   3.375736   5.809873
    10  H    4.191465   5.489373   4.102292   3.230671   6.285304
    11  H    3.886613   5.217574   3.443335   3.388343   5.804984
                    6          7          8          9         10
     6  H    0.000000
     7  H    3.619076   0.000000
     8  N    5.410020   1.822033   0.000000
     9  H    5.855003   2.440669   1.020257   0.000000
    10  H    5.903793   2.316310   1.020652   1.632911   0.000000
    11  H    5.867244   2.446603   1.020242   1.635173   1.632855
                   11
    11  H    0.000000
 Stoichiometry    C2H7NO
 Framework group  C1[X(C2H7NO)]
 Deg. of freedom    27
 Full point group                 C1      NOp   1
 Largest Abelian subgroup         C1      NOp   1
 Largest concise Abelian subgroup C1      NOp   1
                         Standard orientation:                         
 ---------------------------------------------------------------------
 Center     Atomic      Atomic             Coordinates (Angstroms)
 Number     Number       Type             X           Y           Z
 ---------------------------------------------------------------------
      1          6           0       -0.980364    0.302102   -0.003500
      2          6           0       -2.325764    0.174111    0.003476
      3          1           0       -0.509977    1.294679   -0.010450
      4          8           0       -0.127674   -0.762455   -0.002466
      5          1           0       -2.943092    1.072297    0.002076
      6          1           0       -2.800570   -0.808849    0.010409
      7          1           0        0.796941   -0.414812   -0.008606
      8          7           0        2.517360    0.185067    0.001790
      9          1           0        2.795035    0.704658    0.834764
     10          1           0        3.101051   -0.651898   -0.021102
     11          1           0        2.797253    0.750821   -0.799755
 ---------------------------------------------------------------------
 Rotational constants (GHZ):          28.5498334           2.4110351           2.2499657
 Standard basis: Aug-CC-pVDZ (5D, 7F)
 There are   163 symmetry adapted cartesian basis functions of A   symmetry.
 There are   155 symmetry adapted basis functions of A   symmetry.
   155 basis functions,   249 primitive gaussians,   163 cartesian basis functions
    17 alpha electrons       17 beta electrons
       nuclear repulsion energy       117.0635469459 Hartrees.
 NAtoms=   11 NActive=   11 NUniq=   11 SFac= 1.00D+00 NAtFMM=   60 NAOKFM=F Big=F
 Integral buffers will be    131072 words long.
 Raffenetti 1 integral format.
 Two-electron integral symmetry is turned on.
 One-electron integrals computed using PRISM.
 NBasis=   155 RedAO= T EigKep=  3.91D-05  NBF=   155
 NBsUse=   155 1.00D-06 EigRej= -1.00D+00 NBFU=   155
 Initial guess from the checkpoint file:  "/scr/Gau-23730.chk"
 B after Tr=    -0.000000    0.000000    0.000000
         Rot=    1.000000   -0.000075    0.000062    0.000065 Ang=  -0.01 deg.
 ExpMin= 2.97D-02 ExpMax= 1.17D+04 ExpMxC= 4.01D+02 IAcc=3 IRadAn=         5 AccDes= 0.00D+00
 Harris functional with IExCor=  205 and IRadAn=       5 diagonalized for initial guess.
 HarFok:  IExCor=  205 AccDes= 0.00D+00 IRadAn=         5 IDoV= 1 UseB2=F ITyADJ=14
 ICtDFT=  3500011 ScaDFX=  1.000000  1.000000  1.000000  1.000000
 FoFCou: FMM=F IPFlag=           0 FMFlag=      100000 FMFlg1=           0
         NFxFlg=           0 DoJE=T BraDBF=F KetDBF=T FulRan=T
         wScrn=  0.000000 ICntrl=       500 IOpCl=  0 I1Cent=   200000004 NGrid=           0
         NMat0=    1 NMatS0=      1 NMatT0=    0 NMatD0=    1 NMtDS0=    0 NMtDT0=    0
 Petite list used in FoFCou.
 Keep R1 ints in memory in canonical form, NReq=81804013.
 Requested convergence on RMS density matrix=1.00D-08 within 128 cycles.
 Requested convergence on MAX density matrix=1.00D-06.
 Requested convergence on             energy=1.00D-06.
 No special actions if energy rises.
 SCF Done:  E(RHF) =  -209.130282254     A.U. after   10 cycles
            NFock= 10  Conv=0.33D-08     -V/T= 2.0023
 ExpMin= 2.97D-02 ExpMax= 1.17D+04 ExpMxC= 4.01D+02 IAcc=3 IRadAn=         5 AccDes= 0.00D+00
 HarFok:  IExCor=  205 AccDes= 0.00D+00 IRadAn=         5 IDoV=-2 UseB2=F ITyADJ=14
 ICtDFT= 12500011 ScaDFX=  1.000000  1.000000  1.000000  1.000000
 Range of M.O.s used for correlation:     5   155
 NBasis=   155 NAE=    17 NBE=    17 NFC=     4 NFV=     0
 NROrb=    151 NOA=    13 NOB=    13 NVA=   138 NVB=   138

 **** Warning!!: The largest alpha MO coefficient is  0.49967433D+02

 Fully direct method using O(ONN) memory.
 JobTyp=1 Pass  1:  I=   5 to  17 NPSUse= 40 ParTrn=T ParDer=T DoDerP=T.
 Spin components of T(2) and E(2):
     alpha-alpha T2 =       0.2794679297D-01 E2=     -0.8471241599D-01
     alpha-beta  T2 =       0.1671503286D+00 E2=     -0.5197026492D+00
     beta-beta   T2 =       0.2794679297D-01 E2=     -0.8471241599D-01
 ANorm=    0.1105913159D+01
 E2 =    -0.6891274812D+00 EUMP2 =    -0.20981940973551D+03
          IDoAtm=11111111111
          Differentiating once with respect to electric field.
                with respect to dipole field.
          Differentiating once with respect to nuclear coordinates.
 Keep R1 ints in memory in canonical form, NReq=81812956.
          There are     1 degrees of freedom in the 1st order CPHF.  IDoFFX=0 NUNeed=     1.
 LinEq1:  Iter=  0 NonCon=     1 RMS=4.23D-03 Max=5.61D-02 NDo=     1
 AX will form     1 AO Fock derivatives at one time.
 LinEq1:  Iter=  1 NonCon=     1 RMS=1.02D-03 Max=7.17D-03 NDo=     1
 LinEq1:  Iter=  2 NonCon=     1 RMS=3.94D-04 Max=5.38D-03 NDo=     1
 LinEq1:  Iter=  3 NonCon=     1 RMS=9.75D-05 Max=9.73D-04 NDo=     1
 LinEq1:  Iter=  4 NonCon=     1 RMS=3.50D-05 Max=4.74D-04 NDo=     1
 LinEq1:  Iter=  5 NonCon=     1 RMS=8.29D-06 Max=1.17D-04 NDo=     1
[...]
 0.00012523,-0.00000348,0.00001748,-0.00001121,-0.00002594,-0.00002935,
 0.00000943,-0.00014198,-0.00001829,-0.00001368,0.00001343,-0.00002410,
 -0.00005538,-0.00002182,-0.00001983,-0.00009123,-0.00001306,-0.0000258
 6,0.00000797,0.00001720,0.00003371,-0.00001774,0.00010466,-0.00060346,
 0.00072332,0.00005729,0.00017533,-0.00008866,-0.00006464,-0.00000678,-
 0.00010023,0.04130877,-0.00003042,-0.00021815,0.00111555,0.00014683,0.
 00018197,-0.00019783,-0.00013641,-0.00009783,-0.00013206,0.06219091,0.
 03919714,-0.00055877,-0.00042087,-0.00014765,0.00000497,-0.00007506,0.
 00011473,0.00015566,0.00017785,0.00005910,0.02501100,0.02382102,-0.010
 89498,-0.00000335,0.00002730,-0.00002805,-0.00003943,0.00001598,0.0000
 4527,0.00000520,-0.00001537,-0.00000022,-0.00000457,0.00002102,0.00000
 032,0.00002017,-0.00000778,-0.00000863,-0.00006788,0.00004519,-0.00003
 627,0.00007350,-0.00000485,0.00000352,0.00001597,0.00003585,0.00002662
 ,-0.00000571,-0.00002516,0.00001045,0.00001042,-0.00000614,0.00000954,
 0.00003229,0.00005172,-0.00005382,-0.00000408,-0.00000328,0.00000126,-
 0.00002893,-0.00003533,-0.00001280,-0.00001289,-0.00002114,0.00003216,
 -0.00000792,-0.00000094,0.00003723,-0.00005890,0.00002258,-0.00001060,
 0.00000107,0.00000165,0.00000300,-0.00001304,-0.00003050,-0.00001596,0
 .00003026,-0.00001532,-0.00000522,0.00003215,-0.00001011,-0.00001127,0
 .00003316,0.00001931,-0.00002281,-0.00005554,0.00000235,0.00000084,0.0
 0000301,-0.00003701,-0.00002143,-0.00000172,0.00000188,0.00002392,-0.0
 0000055,0.00000063,0.00000223,0.00000559,-0.00000722,0.00001977,0.0000
 1130,-0.00001436,-0.00000621,0.00001072,0.00000571,-0.00000262,-0.0000
 0956,0.00000003,-0.00000203,-0.00000505,-0.00000082,0.00001991,-0.0000
 0212,0.00002133,-0.00001609,0.00012748,0.00052321,-0.00092874,-0.00008
 205,-0.00013900,0.00017528,0.00011961,0.00007291,0.00013465,-0.0422892
 7,-0.06349832,-0.02492269,-0.00001886,-0.00003741,0.00001490,0.0000161
 8,0.00001979,-0.00000195,0.04265659,-0.00014959,0.00032174,-0.00098730
 ,-0.00004069,-0.00017468,0.00020451,0.00009927,0.00007447,0.00011435,-
 0.06298977,-0.03998719,-0.02380795,-0.00002787,-0.00003172,0.00001964,
 0.00002041,0.00002268,0.00000469,0.06387817,0.04015074,0.00057510,0.00
 081410,-0.00022927,-0.00005383,-0.00006051,-0.00003674,0.00007091,0.00
 001021,0.00010499,-0.02604497,-0.02513978,0.01112470,-0.00000571,-0.00
 000475,0.00000397,-0.00000171,0.00000469,-0.00001087,0.02586553,0.0249
 5662,-0.01148855,-0.00027048,-0.00018475,0.00016083,0.00007129,-0.0000
 0291,-0.00004250,0.00006533,0.00000877,0.00005077,0.00114280,0.0011138
 5,0.00037043,-0.00002295,0.00002382,0.00000010,0.00003906,0.00000440,-
 0.00002024,-0.00139868,0.00060476,0.00021102,0.75686496,-0.00011813,-0
 .00037945,0.00014728,0.00000556,0.00008708,0.00000771,0.00010374,0.000
 13036,0.00004974,0.00104314,0.00106831,0.00038827,0.00001880,-0.000009
 82,-0.00001863,-0.00000700,0.00003452,-0.00000199,0.00048179,-0.001413
 65,-0.00004141,-0.75582086,0.73465733,0.00001504,-0.00004477,-0.000079
 33,-0.00005494,-0.00000192,-0.00003963,-0.00014292,-0.00017532,0.00005
 119,0.00051834,0.00057792,0.00012132,0.00000929,-0.00000889,-0.0000008
 4,0.00000589,0.00002792,-0.00000399,0.00045685,0.00025991,-0.00138167,
 -0.22472833,-0.24264643,1.45573096,0.00026115,0.00038956,-0.00033571,-
 0.00008777,-0.00009851,0.00005072,0.00001233,0.00006393,-0.00006916,-0
 .00019797,-0.00029936,0.00019171,-0.00000720,-0.00002289,0.00000276,-0
 .00001173,0.00001983,0.00000176,0.00070414,0.00026433,0.00038368,-1.13
 739164,0.65323840,-0.41925656,1.12480584,-0.00020371,-0.00041091,0.000
 46110,0.00004377,0.00012766,-0.00004749,-0.00005596,-0.00009207,0.0000
 2176,0.00041674,0.00020426,-0.00019527,0.00000506,0.00002636,-0.000000
 53,0.00000002,-0.00002633,-0.00000528,-0.00174323,0.00051521,-0.000747
 53,0.61163936,0.01439887,0.18186246,-0.65367239,-0.01825047,0.00001711
 ,0.00013525,-0.00008280,0.00002170,-0.00004607,-0.00000711,-0.00004292
 ,-0.00003722,0.00000332,-0.00003986,-0.00013473,0.00002651,-0.00000378
 ,-0.00000163,0.00000250,-0.00000883,0.00001098,0.00000427,0.00019465,0
 .00009756,0.00018794,-0.41818067,0.19367457,0.14898167,0.41976812,-0.1
 9395756,-0.16439001,0.00009376,0.00002525,0.00014973,-0.00002093,0.000
 06136,-0.00002539,0.00002200,0.00004097,-0.00003101,-0.00007194,0.0000
 9555,-0.00020389,0.00001919,0.00000023,-0.00000246,-0.00000819,-0.0000
 1457,0.00000660,-0.00011330,-0.00063953,0.00034760,0.23129854,-0.19620
 323,0.28241780,0.01229868,0.02241694,-0.02884123,-0.25296984,0.0001860
 6,0.00030386,-0.00016745,-0.00001579,-0.00007614,-0.00000422,-0.000004
 24,-0.00000399,-0.00000031,-0.00012655,-0.00021048,-0.00001073,-0.0000
 0971,0.00000313,0.00001043,0.00000249,0.00000211,0.00000459,0.00012054
 ,0.00034082,0.00017739,-0.18296731,-0.36805753,0.88894798,-0.00451677,
 0.00197299,0.01576078,0.18065098,0.34654843,-0.00018306,-0.00053525,0.
 00070642,0.00013158,0.00017151,-0.00010710,0.00005708,0.00009759,-0.00
 006852,0.00025378,0.00051422,-0.00053453,0.00001822,0.00003496,-0.0000
 0889,-0.00002945,-0.00003635,0.00000754,-0.00119859,-0.00163502,0.0007
 4610,0.25541669,0.85745206,-0.86109391,0.00815422,0.00419568,0.0015783
 6,-0.26560321,-0.88199925,0.87158045,-0.00012652,-0.00038908,0.0003631
 6,0.00006780,0.00008558,-0.00005190,-0.00008265,-0.00009435,0.00002987
 ,0.00002795,0.00042686,-0.00003277,0.00002154,0.00000833,-0.00000689,-
 0.00001894,-0.00000649,0.00000294,0.00027817,-0.00101949,-0.00134762,0
 .14960174,0.29725779,0.36075954,-0.00038583,0.02115339,0.02711571,0.00
 945204,0.00668032,0.00298275,-0.15883529,0.00010632,0.00026513,-0.0001
 3584,-0.00001807,-0.00009279,0.00001692,0.00001661,0.00004434,-0.00006
 048,-0.00009839,-0.00014319,0.00013017,-0.00001193,-0.00000757,0.00000
 382,0.00000597,-0.00000447,-0.00000668,0.00032155,0.00018157,0.0000309
 7,0.32558087,-0.38051604,-0.82879887,0.00463387,0.00153442,-0.01550194
 ,-0.00643395,0.01917679,0.02173985,-0.32410286,0.35956182,0.00021722,0
 .00042779,-0.00038940,-0.00009929,-0.00007491,0.00005871,0.00001479,0.
 00001930,-0.00004769,-0.00019424,-0.00038900,0.00014567,-0.00001738,-0
 .00001361,0.00000701,0.00002777,-0.00000695,-0.00000967,0.00021011,0.0
 0077299,0.00097940,0.38676190,-0.80901116,-0.74228578,-0.00889155,0.00
 841266,0.01369535,0.01178546,-0.02271919,-0.01280592,-0.38981479,0.822
 58209,0.74065233,-0.00000928,-0.00033588,-0.00036464,-0.00003064,0.000
 22134,-0.00033783,-0.00000561,0.00003729,-0.00006851,-0.00003511,-0.00
 001514,0.00020010,-0.00006491,0.00014692,-0.00019491,0.00004419,0.0000
 5198,0.00012837,0.00000028,-0.00001741,-0.00034585,0.00006434,0.000041
 50,0.00008525,0.00001702,0.00004566,-0.00001342,-0.00012217,0.00010414
 ,0.00007265,0.00000682,0.00001420,0.00001099,0.00003706,-0.00013393,-0
 .00019522,0.00002335,-0.00006139,0.00009854,-0.00002510,-0.00001376,-0
 .00005189,0.00001495,0.00006041,-0.00008511,-0.00016314,0.00006224,-0.
 00003749,0.00000631,-0.00005020,-0.00000519,0.00003974,-0.00000818,-0.
 00002627,0.00041319,0.00006621,-0.00006108,-0.00012886,-0.00008436,-0.
 00005089,-0.00004008,0.00000186,0.00007659,0.00000237,0.00007645,0.000
 27217,-0.00009954,-0.00024515,0.00008967,0.00009955,0.00009633,0.00009
 370,-0.00006997,-0.00003613,0.00002887,0.00011598,0.00026078,-0.000109
 33,0.00002379,0.00002880,0.00002329,0.00000394,-0.00006222,-0.00001237
 ,0.00000040,-0.00001673,0.00000405,-0.00001220,0.00001474,-0.00000005,
 0.00000467,0.00003074,0.00000971,-0.00000069,-0.00005376,0.00001449,0.
 00000281,-0.00000986,-0.00000595,0.00001373,0.00001085,-0.00000132,-0.
 00001249,0.00002371,0.00000339,-0.00001650,-0.00003122,-0.00000095,0.0
 0001946,0.00003348,0.00008856,0.00000727,0.00000269,0.00001182,0.00001
 083,0.00000469,-0.00000129,-0.00000716,-0.00001181,-0.00003426,-0.0000
 1094,0.00004601,0.00003668,0.00002892,-0.00007090,-0.00001746,-0.00000
 479,0.00000866,-0.00000786,0.00001780,-0.00001072,-0.00000555,-0.00001
 403,0.00000223,-0.00000920,-0.00001042,0.00003200,-0.00000380,0.000030
 45,-0.00005807,0.00005078,-0.00004070,0.00000535,0.00000479,-0.0000145
 4,-0.00001400,0.00001047,0.00000800,0.00001225,-0.00002279,0.00000111,
 0.00001922,-0.00003691,0.00001489,0.00000185,-0.00001858,-0.00003025,-
 0.00003976,0.00011418,0.00000866,-0.00000174,0.00000016,-0.00000624,0.
 00000103,0.00001339,0.00000681,0.00001913,-0.00005142,0.00000717,0.000
 01891,-0.00004909,0.00006058,-0.00001621,0.00007564,-0.00001747,0.0000
 6146,-0.00002030,-0.00000054,0.00000260,-0.00000581,-0.00026749,0.0001
 5453,-0.00015862,-0.00000404,0.00000448,-0.00000042,-0.00000908,-0.000
 00078,0.00000257,0.00030685,0.00000592,0.00001563,0.00004007,0.0000449
 9,0.00001361,-0.00004873,-0.00002439,-0.00002441,0.00000627,0.00018676
 ,0.00001082,-0.00020426,0.00000915,0.00000522,0.00000145,0.00000787,-0
 .00000147,0.00000532,-0.00073970,-0.00041159,0.00008502,0.00009915,0.0
 0007036,-0.00000430,-0.00002806,-0.00001059,0.00005257,0.00004612,-0.0
 0002045,-0.00025532,-0.00033513,-0.00023488,-0.00001015,-0.00001077,-0
 .00000958,-0.00001465,-0.00001510,-0.00000963,0.00031772,0.00069350,0.
 00013593,-0.00006122,0.00036103,-0.00040095,-0.00006934,-0.00017265,0.
 00008446,0.00001170,0.00002453,0.00007816,0.00046382,-0.00044791,0.000
 39335,-0.00003381,-0.00001076,-0.00000192,0.00003229,0.00001416,-0.000
 01901,-0.00120923,0.00123425,0.00015806,0.02539643,0.00016918,-0.00001
 591,0.00001939,-0.00008206,-0.00004739,-0.00001152,0.00012044,0.000119
 21,-0.00005070,-0.00045321,0.00025405,-0.00017429,0.00000599,-0.000009
 45,-0.00000958,-0.00001982,0.00000151,0.00000189,0.00058333,-0.0018684
 8,0.00039694,-0.08090750,1.00514226,0.00000691,0.00045959,-0.00123331,
 -0.00010785,-0.00023018,0.00027063,-0.00012708,-0.00028153,0.00025480,
 0.00038577,-0.00016669,0.00198160,-0.00003955,-0.00005325,-0.00000598,
 0.00005481,0.00008604,-0.00002370,0.00154475,0.00203091,-0.00266798,-0
 .61695121,-1.55595208,2.01075914,0.00005528,-0.00004068,0.00024552,0.0
 0000822,0.00005250,-0.00008603,0.00003639,0.00007673,-0.00011892,0.000
 01338,0.00042114,-0.00013440,0.00001857,0.00000456,-0.00000536,-0.0000
 1078,0.00000336,0.00000281,0.00049584,-0.00045837,0.00023870,-0.676690
 88,0.36964192,-0.20563299,0.68396016,-0.00008057,-0.00018770,0.0001037
 4,0.00002621,0.00003370,0.00001142,-0.00006797,-0.00006436,0.00004265,
 0.00019955,-0.00003958,0.00002954,-0.00000351,0.00000934,-0.00000213,-
 0.00000429,-0.00001726,-0.00000175,-0.00066237,0.00035570,-0.00035241,
 0.34563453,0.02211925,0.08569107,-0.36899221,-0.02929325,-0.00005763,-
 0.00007041,0.00019673,0.00006519,0.00004969,-0.00003694,-0.00004424,-0
 .00004221,0.00003436,0.00023862,0.00013304,-0.00035556,0.00000685,0.00
 001006,0.00000028,-0.00000240,0.00001116,0.00000919,-0.00071303,-0.000
 40163,0.00032947,-0.20798991,0.09333238,0.12178504,0.20585230,-0.07860
 313,-0.13642255,0.00014826,0.00001114,-0.00009215,0.00002233,0.0000058
 9,0.00002157,0.00000573,0.00004095,0.00001788,-0.00045311,-0.00049584,
 -0.00016093,0.00000191,-0.00000448,0.00000938,-0.00001070,-0.00000633,
 0.00000879,0.00052762,0.00046381,0.00004033,0.56665165,-0.46600714,0.6
 1895832,-0.00779180,0.00908419,-0.00804527,-0.55846685,0.00000009,0.00
 036669,-0.00041625,-0.00000021,-0.00005057,0.00012344,0.00000948,-0.00
 007974,0.00011839,-0.00031206,-0.00051717,0.00039175,-0.00001163,-0.00
 001696,0.00001145,0.00002712,0.00002420,-0.00000168,0.00080442,0.00145
 869,-0.00079414,-0.45981096,-0.77849938,1.93688062,-0.00101493,0.00494
 206,-0.00830893,0.45458089,0.77251667,-0.00006053,-0.00034740,0.000807
 06,0.00003853,0.00013426,-0.00019096,0.00008178,0.00018214,-0.00023039
 ,-0.00053497,-0.00004588,-0.00114850,0.00002313,0.00002796,0.00000017,
 -0.00006045,-0.00008124,0.00001597,-0.00067824,-0.00167089,0.00182046,
 0.60628075,1.92207538,-1.77443389,0.00298791,-0.00674623,0.00779593,-0
 .60777645,-1.90989245,1.75981338,-0.00010207,-0.00019526,0.00016336,0.
 00004081,0.00005871,0.00000428,-0.00004783,-0.00011296,0.00004558,-0.0
 0005828,0.00030390,0.00002018,0.00001080,0.00000228,-0.00000638,-0.000
 00829,-0.00000717,0.00000379,0.00011698,-0.00073030,-0.00060798,0.0855
 0858,0.17694888,0.20190812,-0.00009438,0.01486642,0.01068952,-0.000635
 05,0.00572778,-0.00030146,-0.08473126,0.00002330,-0.00003164,0.0001888
 8,0.00000885,0.00002011,-0.00006827,0.00001184,0.00008542,-0.00010344,
 0.00030181,0.00004598,-0.00011409,-0.00000055,0.00001432,-0.00000013,-
 0.00000538,-0.00000950,-0.00000318,-0.00019176,0.00044628,0.00029990,0
 .19408128,-0.24719568,-0.46846451,0.00030599,0.00214210,-0.00611002,0.
 00232692,-0.00014450,-0.00363565,-0.19686229,0.24462712,0.00009046,-0.
 00007835,0.00019994,0.00001301,0.00008032,-0.00005920,0.00000424,0.000
 02638,-0.00004070,0.00011428,0.00031472,-0.00035765,0.00000515,0.00001
 532,0.00000267,0.00001891,-0.00000411,-0.00000048,-0.00036427,-0.00045
 201,0.00059689,0.21836824,-0.45962781,-0.35668636,-0.00334954,-0.00017
 277,0.00666406,-0.00298146,-0.01811219,0.00575078,-0.21191902,0.478010
 51,0.34393006,-0.00000161,-0.00031350,-0.00017124,0.00001783,-0.000195
 77,0.00063979,0.00005648,0.00000740,-0.00006594,-0.00001071,-0.0000040
 0,0.00020216,0.00010127,0.00012818,-0.00011626,-0.00002217,0.00013280,
 -0.00014473,0.00000123,-0.00009999,-0.00011463,-0.00012069,0.00009153,
 -0.00006531,-0.00000109,0.00001587,0.00004778,0.00007547,0.00007784,-0
 .00009067,-0.00004494,-0.00000714,-0.00003014,0.00003009,-0.00012838,0
 .00002056,0.00002888,0.00006617,-0.00032266,0.00002107,-0.00003849,0.0
 0009971,0.00000546,0.00002974,0.00014480,-0.00003070,0.00004818,0.0000
 7560,-0.00004250,0.00004009,-0.00003735,0.00000402,-0.00003163,-0.0000
 1475,0.00052538,0.00008890,-0.00006365,0.00014469,0.00002004,-0.000028
 52,-0.00007616,-0.00005339,-0.00000469,-0.00000791,0.00013428,0.000482
 33,-0.00006475,-0.00005867,-0.00011149,0.00003902,0.00002695,-0.000019
 75,0.00001182,0.00003360,0.00006013,0.00013344,0.00006086,0.00037745,0
 .00000267,0.00007533,0.00001459,-0.00000562,-0.00008258,-0.00001870,0.
 00001171,-0.00000986,-0.00000003,0.00000989,-0.00001054,0.00000298,0.0
 0001755,0.00006273,0.00000978,-0.00003417,-0.00007590,-0.00001399,0.00
 001923,-0.00000339,0.00000993,0.00001137,-0.00000540,0.00001157,0.0000
 0827,0.00001576,0.00001293,0.00000078,-0.00003312,-0.00001083,0.000020
 23,0.00005708,0.00005691,0.00000238,-0.00000099,0.00001348,-0.00000407
 ,0.00000533,0.00000326,0.00000356,-0.00001295,0.00000527,-0.00000278,0
 .00004523,-0.00007677,0.00000873,-0.00005751,0.00007009,0.00001224,-0.
 00001359,0.00002122,0.00001842,-0.00000554,-0.00000248,-0.00002615,0.0
 0000085,-0.00001642,0.00001455,-0.00001369,0.00005189,-0.00008622,-0.0
 0001604,-0.00000605,0.00003058,0.00000388,0.00000751,0.00002874,-0.000
 01051,0.00000865,0.00001013,0.00000836,-0.00003190,-0.00000596,0.00002
 053,-0.00001027,-0.00000365,-0.00000239,0.00000249,0.00000155,-0.00003
 584,0.00010249,-0.00000685,-0.00001002,0.00000391,-0.00000049,0.000006
 42,0.00001281,0.00000355,0.00001682,-0.00006252,0.00000243,0.00002941,
 -0.00004755,-0.00004969,0.00003179,0.00011709,0.00003363,-0.00003163,-
 0.00000659,0.00000436,0.00004627,-0.00002174,-0.00048982,-0.00011718,-
 0.00009510,-0.00000222,0.00000135,-0.00000540,-0.00001892,0.00000947,0
 .00000511,0.00054527,0.00009610,0.00000010,-0.00004919,-0.00003839,0.0
 0000515,0.00002995,-0.00000406,-0.00001969,-0.00000595,-0.00020056,-0.
 00052311,-0.00004344,-0.00000033,0.00000193,-0.00000290,0.00001419,-0.
 00001109,0.00000006,-0.00002152,0.00077146,0.00002690,-0.00010939,0.00
 019922,-0.00000811,0.00002993,-0.00001912,0.00007502,0.00007489,-0.000
 05185,0.00004685,0.00010132,-0.00040955,-0.00000150,0.00000178,-0.0000
 0708,-0.00000326,-0.00001056,-0.00001215,-0.00037780,-0.00023908,0.000
 28099,0.00009281,0.00024369,-0.00033441,-0.00006299,-0.00004781,0.0000
 3502,0.00002564,0.00007005,0.00002394,0.00086559,-0.00048508,-0.000144
 85,-0.00005464,0.00003820,0.00001717,0.00004052,-0.00003249,-0.0000163
 8,-0.00217943,0.00142872,0.00107665,1.57561582,0.00017745,0.00043916,-
 0.00044807,-0.00006700,-0.00012176,-0.00000070,0.00015325,0.00015715,-
 0.00006847,-0.00031456,0.00078195,0.00040504,0.00003630,-0.00004216,-0
 .00001342,-0.00002502,0.00003963,0.00000961,0.00180897,-0.00195700,0.0
 0051974,-1.53298507,0.49747501,-0.00020604,-0.00027856,0.00008727,0.00
 008445,0.00005000,0.00006270,-0.00014512,-0.00027280,0.00018052,-0.000
 52523,-0.00003066,0.00017841,0.00001876,-0.00001460,-0.00001912,-0.000
 02712,-0.00000095,0.00001222,0.00028819,-0.00041122,-0.00235767,0.1642
 9918,1.12385905,0.96956832,0.00008200,-0.00002010,0.00004233,-0.000002
 50,-0.00001411,-0.00004369,0.00002358,0.00003261,-0.00007997,-0.000288
 25,0.00029766,-0.00006756,0.00001554,-0.00001622,-0.00000961,-0.000021
 40,0.00002887,-0.00000221,0.00127359,-0.00056713,0.00053266,-1.8929169
 7,1.04596126,-0.76359860,1.87494088,-0.00002289,-0.00019302,0.00015575
 ,-0.00002204,0.00006841,0.00001641,-0.00003616,-0.00006773,0.00004061,
 -0.00010414,-0.00083596,-0.00018759,-0.00002024,0.00001871,0.00000852,
 0.00001411,-0.00003448,0.00000044,-0.00114166,0.00135696,-0.00059789,1
 .02427468,0.10110658,0.32055281,-1.02632256,-0.10208201,0.00004725,0.0
 0031612,-0.00023690,-0.00001435,-0.00008469,0.00001357,0.00006754,0.00
 000077,-0.00002764,-0.00029484,-0.00005108,0.00015323,0.00000145,-0.00
 001544,0.00000675,0.00000308,0.00001833,0.00000287,0.00088214,-0.00017
 170,0.00048746,-0.76109417,0.32620397,0.28954443,0.76172361,-0.3345443
 1,-0.28260535,-0.00000944,-0.00017968,0.00023887,-0.00000830,0.0000806
 1,-0.00002611,0.00000775,-0.00000569,-0.00003008,0.00018099,0.00046728
 ,0.00006137,0.00001602,-0.00000015,-0.00000640,-0.00000354,-0.00000598
 ,0.00000077,-0.00007125,-0.00048191,-0.00032083,-0.01697557,0.00244142
 ,-0.00061882,0.01304440,0.00466394,-0.00380278,-0.00090394,-0.00005704
 ,-0.00012938,0.00022695,0.00005772,0.00002029,-0.00003468,-0.00002391,
 -0.00000054,0.00000040,0.00042285,0.00024944,-0.00000454,-0.00000374,0
 .00001373,0.00000133,-0.00000208,-0.00000134,-0.00000097,-0.00050986,-
 0.00002778,-0.00019863,0.01043445,-0.00245518,-0.00967595,-0.00966870,
 -0.00084392,0.00707106,-0.00094724,-0.00254026,-0.00001351,-0.00006799
 ,0.00015389,0.00001750,0.00001415,-0.00005397,0.00000519,0.00004148,-0
 .00004993,0.00016073,0.00010533,-0.00008128,0.00000096,0.00001069,-0.0
 0000065,-0.00000762,-0.00001076,0.00000447,-0.00025357,-0.00010341,0.0
 0009708,-0.01693316,-0.02873805,0.00042733,0.00856178,0.00868851,-0.00
 454722,0.00435803,0.00007441,0.00688685,-0.00001906,-0.00002989,0.0000
 3610,0.00003487,-0.00002710,0.00000049,-0.00004299,-0.00003049,0.00004
 600,-0.00075301,-0.00033643,0.00012609,0.00001525,-0.00001783,-0.00000
 223,-0.00002167,0.00000759,0.00001616,0.00095449,-0.00022510,-0.001046
 59,0.33554921,0.48281299,0.60043035,0.00384911,-0.00128304,0.00248107,
 0.00472286,0.00029754,0.00410366,-0.34428905,-0.00009191,-0.00005513,0
 .00022967,0.00001320,0.00002071,-0.00004753,-0.00001524,0.00001830,-0.
 00005622,0.00002139,-0.00007798,-0.00025061,-0.00000846,0.00000948,-0.
 00000293,0.00000882,-0.00001255,-0.00001355,-0.00007601,0.00040308,0.0
 0042789,0.49706064,-0.59542339,-1.43377712,-0.00971158,0.00150646,0.00
 125698,-0.00603261,0.00571496,0.01998566,-0.48116824,0.58789606,0.0001
 8846,0.00023078,-0.00025605,-0.00009664,-0.00002036,0.00001683,0.00000
 208,0.00011816,-0.00005047,0.00046008,-0.00025814,-0.00016321,-0.00002
 560,0.00000901,0.00001454,0.00003686,-0.00000276,-0.00001904,-0.000532
 34,0.00099687,0.00179269,0.61307099,-1.42172869,-1.25768440,-0.0070587
 5,0.00586675,-0.00279119,0.00014596,0.00254062,-0.00283657,-0.60619111
 ,1.41224775,1.26197689\\@
 The archive entry for this job was punched.


 SILVERMAN'S PARADOX - IF MURPHY'S LAW CAN GO WRONG, IT WILL.
 Job cpu time:       2 days  8 hours 59 minutes  3.7 seconds.
 Elapsed time:       0 days  1 hours 27 minutes  6.2 seconds.
 File lengths (MBytes):  RWF=   2599 Int=      0 D2E=      0 Chk=     45 Scr=      1
 Normal termination of Gaussian 16 at Fri Mar 21 16:31:53 2025.
