 Entering Gaussian System, Link 0=g16
 Input=enolt_nh3_mp2_avtz_opt_anharm.gjf
 Output=enolt_nh3_mp2_avtz_opt_anharm.log
 Initial command:
 /sw/contrib/chem-src/g16/c01/g16/l1.exe "/scr/Gau-28494.inp" -scrdir="/scr/"
 Entering Link 1 = /sw/contrib/chem-src/g16/c01/g16/l1.exe PID=     28495.
  
 Copyright (c) 1988-2019, Gaussian, Inc.  All Rights Reserved.
  
 This is part of the Gaussian(R) 16 program.  It is based on
 the Gaussian(R) 09 system (copyright 2009, Gaussian, Inc.),
 the Gaussian(R) 03 system (copyright 2003, Gaussian, Inc.),
 the Gaussian(R) 98 system (copyright 1998, Gaussian, Inc.),
 the Gaussian(R) 94 system (copyright 1995, Gaussian, Inc.),
 the Gaussian 92(TM) system (copyright 1992, Gaussian, Inc.),
 the Gaussian 90(TM) system (copyright 1990, Gaussian, Inc.),
 the Gaussian 88(TM) system (copyright 1988, Gaussian, Inc.),
 the Gaussian 86(TM) system (copyright 1986, Carnegie Mellon
 University), and the Gaussian 82(TM) system (copyright 1983,
 Carnegie Mellon University). Gaussian is a federally registered
 trademark of Gaussian, Inc.
  
 This software contains proprietary and confidential information,
 including trade secrets, belonging to Gaussian, Inc.
  
 This software is provided under written license and may be
 used, copied, transmitted, or stored only in accord with that
 written license.
  
 The following legend is applicable only to US Government
 contracts under FAR:
  
                    RESTRICTED RIGHTS LEGEND
  
 Use, reproduction and disclosure by the US Government is
 subject to restrictions as set forth in subparagraphs (a)
 and (c) of the Commercial Computer Software - Restricted
 Rights clause in FAR 52.227-19.
  
 Gaussian, Inc.
 340 Quinnipiac St., Bldg. 40, Wallingford CT 06492
  
  
 ---------------------------------------------------------------
 Warning -- This program may not be used in any manner that
 competes with the business of Gaussian, Inc. or will provide
 assistance to any competitor of Gaussian, Inc.  The licensee
 of this program is prohibited from giving any competitor of
 Gaussian, Inc. access to this program.  By using this program,
 the user acknowledges that Gaussian, Inc. is engaged in the
 business of creating and licensing software in the field of
 computational chemistry and represents and warrants to the
 licensee that it is not a competitor of Gaussian, Inc. and that
 it will not use this program in any manner prohibited above.
 ---------------------------------------------------------------
  

 Cite this work as:
 Gaussian 16, Revision C.01,
 M. J. Frisch, G. W. Trucks, H. B. Schlegel, G. E. Scuseria, 
 M. A. Robb, J. R. Cheeseman, G. Scalmani, V. Barone, 
 G. A. Petersson, H. Nakatsuji, X. Li, M. Caricato, A. V. Marenich, 
 J. Bloino, B. G. Janesko, R. Gomperts, B. Mennucci, H. P. Hratchian, 
 J. V. Ortiz, A. F. Izmaylov, J. L. Sonnenberg, D. Williams-Young, 
 F. Ding, F. Lipparini, F. Egidi, J. Goings, B. Peng, A. Petrone, 
 T. Henderson, D. Ranasinghe, V. G. Zakrzewski, J. Gao, N. Rega, 
 G. Zheng, W. Liang, M. Hada, M. Ehara, K. Toyota, R. Fukuda, 
 J. Hasegawa, M. Ishida, T. Nakajima, Y. Honda, O. Kitao, H. Nakai, 
 T. Vreven, K. Throssell, J. A. Montgomery, Jr., J. E. Peralta, 
 F. Ogliaro, M. J. Bearpark, J. J. Heyd, E. N. Brothers, K. N. Kudin, 
 V. N. Staroverov, T. A. Keith, R. Kobayashi, J. Normand, 
 K. Raghavachari, A. P. Rendell, J. C. Burant, S. S. Iyengar, 
 J. Tomasi, M. Cossi, J. M. Millam, M. Klene, C. Adamo, R. Cammi, 
 J. W. Ochterski, R. L. Martin, K. Morokuma, O. Farkas, 
 J. B. Foresman, and D. J. Fox, Gaussian, Inc., Wallingford CT, 2019.
 
 ******************************************
 Gaussian 16:  EM64L-G16RevC.01  3-Jul-2019
                 3-Apr-2025 
 ******************************************
 %nprocshared=40
 Will use up to   40 processors via shared memory.
 %mem=50gb
 --------------------------------------------------------------------
 # MP2/aug-cc-pVTZ opt freq=(vibrot,anharmonic,SelectAnharmonicModes)
 --------------------------------------------------------------------
 1/18=20,19=15,38=1,80=1/1,3;
 2/9=110,12=2,17=6,18=5,40=1/2;
 3/5=16,6=1,7=10,11=9,25=1,30=1,71=1/1,2,3;
 4//1;
 5/5=2,38=5/2;
 8/6=4,10=1/1;
 9/15=2,16=-3/6;
 10/5=1/2;
 6/7=2,8=2,9=2,10=2/1;
 7/12=2/1,2,3,16;
 1/18=20,19=15,80=1/3(2);
 2/9=110/2;
 99//99;
 2/9=110/2;
 3/5=16,6=1,7=10,11=9,25=1,30=1,71=1/1,2,3;
 4/5=5,16=3,69=1/1;
 5/5=2,38=5/2;
 8/6=4,10=1/1;
 9/15=2,16=-3/6;
 10/5=1/2;
 7/12=2/1,2,3,16;
 1/18=20,19=15,80=1/3(-8);
 2/9=110/2;
 6/7=2,8=2,9=2,10=2/1;
 99/9=10/99;
 ----
 blah
 ----
 Symbolic Z-matrix:
 Charge =  0 Multiplicity = 1
 C                    -0.97959   0.29775  -0.00004 
 C                    -2.31016   0.17946   0.00008 
 H                    -0.50643   1.27577  -0.00027 
 O                    -0.13842  -0.76276  -0.00009 
 H                    -2.91737   1.06995  -0.00006 
 H                    -2.78503  -0.79023   0.00021 
 H                     0.78519  -0.4284   -0.00036 
 N                     2.51716   0.18275  -0.00003 
 H                     2.76573   0.7221    0.82041 
 H                     3.121    -0.63072  -0.0107 
 H                     2.76263   0.74111  -0.80859 
 
 Add virtual bond connecting atoms N8         and H7         Dist= 3.47D+00.

 GradGradGradGradGradGradGradGradGradGradGradGradGradGradGradGradGradGrad
 Berny optimization.
 Initialization pass.
                           ----------------------------
                           !    Initial Parameters    !
                           ! (Angstroms and Degrees)  !
 --------------------------                            --------------------------
 ! Name  Definition              Value          Derivative Info.                !
 --------------------------------------------------------------------------------
 ! R1    R(1,2)                  1.3358         estimate D2E/DX2                !
 ! R2    R(1,3)                  1.0865         estimate D2E/DX2                !
 ! R3    R(1,4)                  1.3536         estimate D2E/DX2                !
 ! R4    R(2,5)                  1.0778         estimate D2E/DX2                !
 ! R5    R(2,6)                  1.0797         estimate D2E/DX2                !
 ! R6    R(4,7)                  0.9823         estimate D2E/DX2                !
 ! R7    R(7,8)                  1.8366         estimate D2E/DX2                !
 ! R8    R(8,9)                  1.0128         estimate D2E/DX2                !
 ! R9    R(8,10)                 1.0131         estimate D2E/DX2                !
 ! R10   R(8,11)                 1.0128         estimate D2E/DX2                !
 ! A1    A(2,1,3)              120.8978         estimate D2E/DX2                !
 ! A2    A(2,1,4)              123.3399         estimate D2E/DX2                !
 ! A3    A(3,1,4)              115.7623         estimate D2E/DX2                !
 ! A4    A(1,2,5)              119.2092         estimate D2E/DX2                !
 ! A5    A(1,2,6)              121.1721         estimate D2E/DX2                !
 ! A6    A(5,2,6)              119.6187         estimate D2E/DX2                !
 ! A7    A(1,4,7)              108.5193         estimate D2E/DX2                !
 ! A8    A(7,8,9)              114.1288         estimate D2E/DX2                !
 ! A9    A(7,8,10)             107.15           estimate D2E/DX2                !
 ! A10   A(7,8,11)             114.3216         estimate D2E/DX2                !
 ! A11   A(9,8,10)             106.8471         estimate D2E/DX2                !
 ! A12   A(9,8,11)             107.0749         estimate D2E/DX2                !
 ! A13   A(10,8,11)            106.8449         estimate D2E/DX2                !
 ! A14   L(4,7,8,3,-1)         180.465          estimate D2E/DX2                !
 ! A15   L(4,7,8,3,-2)         179.9726         estimate D2E/DX2                !
 ! D1    D(3,1,2,5)             -0.0003         estimate D2E/DX2                !
 ! D2    D(3,1,2,6)            179.9939         estimate D2E/DX2                !
 ! D3    D(4,1,2,5)           -179.9893         estimate D2E/DX2                !
 ! D4    D(4,1,2,6)              0.0049         estimate D2E/DX2                !
 ! D5    D(2,1,4,7)            179.9885         estimate D2E/DX2                !
 ! D6    D(3,1,4,7)             -0.0011         estimate D2E/DX2                !
 ! D7    D(1,4,8,9)             62.627          estimate D2E/DX2                !
 ! D8    D(1,4,8,10)          -179.3715         estimate D2E/DX2                !
 ! D9    D(1,4,8,11)           -61.248          estimate D2E/DX2                !
 --------------------------------------------------------------------------------
 Trust Radius=3.00D-01 FncErr=1.00D-07 GrdErr=1.00D-07 EigMax=2.50D+02 EigMin=1.00D-04
 Number of steps in this run=     44 maximum allowed number of steps=    100.
 GradGradGradGradGradGradGradGradGradGradGradGradGradGradGradGradGradGrad

                          Input orientation:                          
 ---------------------------------------------------------------------
 Center     Atomic      Atomic             Coordinates (Angstroms)
 Number     Number       Type             X           Y           Z
 ---------------------------------------------------------------------
      1          6           0       -0.979587    0.297754   -0.000036
      2          6           0       -2.310156    0.179464    0.000078
      3          1           0       -0.506429    1.275769   -0.000272
      4          8           0       -0.138420   -0.762763   -0.000088
      5          1           0       -2.917366    1.069950   -0.000062
      6          1           0       -2.785029   -0.790225    0.000214
      7          1           0        0.785193   -0.428401   -0.000359
      8          7           0        2.517155    0.182745   -0.000028
      9          1           0        2.765731    0.722097    0.820409
     10          1           0        3.121004   -0.630720   -0.010697
     11          1           0        2.762627    0.741110   -0.808587
 ---------------------------------------------------------------------
                    Distance matrix (angstroms):
                    1          2          3          4          5
     1  C    0.000000
     2  C    1.335817   0.000000
     3  H    1.086458   2.110762   0.000000
     4  O    1.353609   2.367325   2.071483   0.000000
     5  H    2.085971   1.077808   2.419706   3.328870   0.000000
     6  H    2.107918   1.079723   3.075768   2.646751   1.864876
     7  H    1.908337   3.154471   2.138336   0.982272   3.994246
     8  N    3.498633   4.827312   3.215083   2.818876   5.506464
     9  H    3.857539   5.170302   3.418640   3.363349   5.752544
    10  H    4.204405   5.491267   4.097936   3.262115   6.273301
    11  H    3.854152   5.167447   3.409686   3.366211   5.746666
                    6          7          8          9         10
     6  H    0.000000
     7  H    3.588510   0.000000
     8  N    5.390717   1.836625   0.000000
     9  H    5.811263   2.433071   1.012822   0.000000
    10  H    5.908197   2.344579   1.013150   1.626982   0.000000
    11  H    5.811681   2.435412   1.012816   1.629110   1.626954
                   11
    11  H    0.000000
 Stoichiometry    C2H7NO
 Framework group  C1[X(C2H7NO)]
 Deg. of freedom    27
 Full point group                 C1      NOp   1
 Largest Abelian subgroup         C1      NOp   1
 Largest concise Abelian subgroup C1      NOp   1
                         Standard orientation:                         
 ---------------------------------------------------------------------
 Center     Atomic      Atomic             Coordinates (Angstroms)
 Number     Number       Type             X           Y           Z
 ---------------------------------------------------------------------
      1          6           0        0.979587   -0.297754   -0.000036
      2          6           0        2.310156   -0.179464    0.000078
      3          1           0        0.506429   -1.275769   -0.000272
      4          8           0        0.138420    0.762763   -0.000088
      5          1           0        2.917366   -1.069950   -0.000062
      6          1           0        2.785029    0.790225    0.000214
      7          1           0       -0.785193    0.428401   -0.000359
      8          7           0       -2.517155   -0.182745   -0.000028
      9          1           0       -2.765731   -0.722097    0.820409
     10          1           0       -3.121004    0.630720   -0.010697
     11          1           0       -2.762627   -0.741110   -0.808587
 ---------------------------------------------------------------------
 Rotational constants (GHZ):          28.7348197           2.4267771           2.2646079
 Standard basis: Aug-CC-pVTZ (5D, 7F)
 There are   395 symmetry adapted cartesian basis functions of A   symmetry.
 There are   345 symmetry adapted basis functions of A   symmetry.
   345 basis functions,   477 primitive gaussians,   395 cartesian basis functions
    17 alpha electrons       17 beta electrons
       nuclear repulsion energy       117.8012975699 Hartrees.
 NAtoms=   11 NActive=   11 NUniq=   11 SFac= 1.00D+00 NAtFMM=   60 NAOKFM=F Big=F
 Integral buffers will be    131072 words long.
 Raffenetti 1 integral format.
 Two-electron integral symmetry is turned on.
 One-electron integrals computed using PRISM.
 NBasis=   345 RedAO= T EigKep=  5.62D-06  NBF=   345
 NBsUse=   345 1.00D-06 EigRej= -1.00D+00 NBFU=   345
 ExpMin= 2.53D-02 ExpMax= 1.53D+04 ExpMxC= 5.22D+02 IAcc=3 IRadAn=         5 AccDes= 0.00D+00
 Harris functional with IExCor=  205 and IRadAn=       5 diagonalized for initial guess.
 HarFok:  IExCor=  205 AccDes= 0.00D+00 IRadAn=         5 IDoV= 1 UseB2=F ITyADJ=14
 ICtDFT=  3500011 ScaDFX=  1.000000  1.000000  1.000000  1.000000
 FoFCou: FMM=F IPFlag=           0 FMFlag=      100000 FMFlg1=           0
         NFxFlg=           0 DoJE=T BraDBF=F KetDBF=T FulRan=T
         wScrn=  0.000000 ICntrl=       500 IOpCl=  0 I1Cent=   200000004 NGrid=           0
         NMat0=    1 NMatS0=      1 NMatT0=    0 NMatD0=    1 NMtDS0=    0 NMtDT0=    0
 Petite list used in FoFCou.
 Keep R1 ints in memory in canonical form, NReq=1812230791.
 Requested convergence on RMS density matrix=1.00D-08 within 128 cycles.
 Requested convergence on MAX density matrix=1.00D-06.
 Requested convergence on             energy=1.00D-06.
 No special actions if energy rises.
 SCF Done:  E(RHF) =  -209.185527640     A.U. after   12 cycles
            NFock= 12  Conv=0.44D-08     -V/T= 2.0016
 ExpMin= 2.53D-02 ExpMax= 1.53D+04 ExpMxC= 5.22D+02 IAcc=3 IRadAn=         5 AccDes= 0.00D+00
 HarFok:  IExCor=  205 AccDes= 0.00D+00 IRadAn=         5 IDoV=-2 UseB2=F ITyADJ=14
 ICtDFT= 12500011 ScaDFX=  1.000000  1.000000  1.000000  1.000000
 Range of M.O.s used for correlation:     5   345
 NBasis=   345 NAE=    17 NBE=    17 NFC=     4 NFV=     0
 NROrb=    341 NOA=    13 NOB=    13 NVA=   328 NVB=   328

 **** Warning!!: The largest alpha MO coefficient is  0.82735061D+02

 Disk-based method using ON**2 memory for 13 occupieds at a time.
 Estimated scratch disk usage=  1476408146 words.
 Actual    scratch disk usage=  1352333138 words.
 JobTyp=1 Pass  1:  I=   5 to  17 NPSUse= 40 ParTrn=T ParDer=T DoDerP=T.
 (rs|ai) integrals will be sorted in core.
 Spin components of T(2) and E(2):
     alpha-alpha T2 =       0.2918155079D-01 E2=     -0.9715384983D-01
     alpha-beta  T2 =       0.1779450647D+00 E2=     -0.6321250584D+00
     beta-beta   T2 =       0.2918155079D-01 E2=     -0.9715384983D-01
 ANorm=    0.1111893955D+01
 E2 =    -0.8264327580D+00 EUMP2 =    -0.21001196039799D+03
          IDoAtm=11111111111
          Differentiating once with respect to electric field.
                with respect to dipole field.
          Differentiating once with respect to nuclear coordinates.
 Keep R1 ints in memory in canonical form, NReq=1812232950.
          There are     1 degrees of freedom in the 1st order CPHF.  IDoFFX=0 NUNeed=     1.
 LinEq1:  Iter=  0 NonCon=     1 RMS=2.64D-03 Max=6.72D-02 NDo=     1
 AX will form     1 AO Fock derivatives at one time.
 LinEq1:  Iter=  1 NonCon=     1 RMS=7.00D-04 Max=6.97D-03 NDo=     1
 LinEq1:  Iter=  2 NonCon=     1 RMS=2.35D-04 Max=4.54D-03 NDo=     1
 LinEq1:  Iter=  3 NonCon=     1 RMS=7.12D-05 Max=9.87D-04 NDo=     1
 LinEq1:  Iter=  4 NonCon=     1 RMS=2.74D-05 Max=4.60D-04 NDo=     1
 LinEq1:  Iter=  5 NonCon=     1 RMS=6.07D-06 Max=9.34D-05 NDo=     1
 LinEq1:  Iter=  6 NonCon=     1 RMS=2.17D-06 Max=4.74D-05 NDo=     1
 LinEq1:  Iter=  7 NonCon=     1 RMS=6.22D-07 Max=6.01D-06 NDo=     1
 LinEq1:  Iter=  8 NonCon=     1 RMS=1.54D-07 Max=4.69D-06 NDo=     1
 LinEq1:  Iter=  9 NonCon=     1 RMS=3.47D-08 Max=4.10D-07 NDo=     1
 LinEq1:  Iter= 10 NonCon=     1 RMS=1.39D-08 Max=3.49D-07 NDo=     1
 LinEq1:  Iter= 11 NonCon=     1 RMS=4.11D-09 Max=3.91D-08 NDo=     1
 LinEq1:  Iter= 12 NonCon=     1 RMS=7.55D-10 Max=8.75D-09 NDo=     1
 LinEq1:  Iter= 13 NonCon=     1 RMS=1.22D-10 Max=1.09D-09 NDo=     1
 LinEq1:  Iter= 14 NonCon=     0 RMS=2.08D-11 Max=3.12D-10 NDo=     1
 Linear equations converged to 1.000D-10 1.000D-09 after    14 iterations.
 End of Minotr F.D. properties file   721 does not exist.
 End of Minotr F.D. properties file   722 does not exist.
 End of Minotr F.D. properties file   788 does not exist.

 **********************************************************************

            Population analysis using the SCF Density.

 **********************************************************************

 Orbital symmetries:
       Occupied  (A) (A) (A) (A) (A) (A) (A) (A) (A) (A) (A) (A)
                 (A) (A) (A) (A) (A)
       Virtual   (A) (A) (A) (A) (A) (A) (A) (A) (A) (A) (A) (A)
                 (A) (A) (A) (A) (A) (A) (A) (A) (A) (A) (A) (A)
                 (A) (A) (A) (A) (A) (A) (A) (A) (A) (A) (A) (A)
                 (A) (A) (A) (A) (A) (A) (A) (A) (A) (A) (A) (A)
                 (A) (A) (A) (A) (A) (A) (A) (A) (A) (A) (A) (A)
                 (A) (A) (A) (A) (A) (A) (A) (A) (A) (A) (A) (A)
                 (A) (A) (A) (A) (A) (A) (A) (A) (A) (A) (A) (A)
                 (A) (A) (A) (A) (A) (A) (A) (A) (A) (A) (A) (A)
                 (A) (A) (A) (A) (A) (A) (A) (A) (A) (A) (A) (A)
                 (A) (A) (A) (A) (A) (A) (A) (A) (A) (A) (A) (A)
                 (A) (A) (A) (A) (A) (A) (A) (A) (A) (A) (A) (A)
                 (A) (A) (A) (A) (A) (A) (A) (A) (A) (A) (A) (A)
                 (A) (A) (A) (A) (A) (A) (A) (A) (A) (A) (A) (A)
                 (A) (A) (A) (A) (A) (A) (A) (A) (A) (A) (A) (A)
                 (A) (A) (A) (A) (A) (A) (A) (A) (A) (A) (A) (A)
                 (A) (A) (A) (A) (A) (A) (A) (A) (A) (A) (A) (A)
                 (A) (A) (A) (A) (A) (A) (A) (A) (A) (A) (A) (A)
                 (A) (A) (A) (A) (A) (A) (A) (A) (A) (A) (A) (A)
                 (A) (A) (A) (A) (A) (A) (A) (A) (A) (A) (A) (A)
                 (A) (A) (A) (A) (A) (A) (A) (A) (A) (A) (A) (A)
                 (A) (A) (A) (A) (A) (A) (A) (A) (A) (A) (A) (A)
                 (A) (A) (A) (A) (A) (A) (A) (A) (A) (A) (A) (A)
                 (A) (A) (A) (A) (A) (A) (A) (A) (A) (A) (A) (A)
                 (A) (A) (A) (A) (A) (A) (A) (A) (A) (A) (A) (A)
                 (A) (A) (A) (A) (A) (A) (A) (A) (A) (A) (A) (A)
                 (A) (A) (A) (A) (A) (A) (A) (A) (A) (A) (A) (A)
                 (A) (A) (A) (A) (A) (A) (A) (A) (A) (A) (A) (A)
                 (A) (A) (A) (A)
 The electronic state is 1-A.
 Alpha  occ. eigenvalues --  -20.54966 -15.58026 -11.27517 -11.18806  -1.36773
 Alpha  occ. eigenvalues --   -1.18372  -0.99836  -0.77000  -0.71736  -0.66862
 Alpha  occ. eigenvalues --   -0.66787  -0.59682  -0.55569  -0.54423  -0.49852
 Alpha  occ. eigenvalues --   -0.46506  -0.31963
 Alpha virt. eigenvalues --    0.01839   0.03880   0.04127   0.04491   0.05677
 Alpha virt. eigenvalues --    0.06018   0.07633   0.10851   0.11680   0.12016
 Alpha virt. eigenvalues --    0.12085   0.14252   0.14802   0.14843   0.15549
 Alpha virt. eigenvalues --    0.16361   0.17905   0.18291   0.18336   0.18960
 Alpha virt. eigenvalues --    0.20889   0.20968   0.22093   0.22677   0.25602
 Alpha virt. eigenvalues --    0.25776   0.27586   0.28214   0.29690   0.31130
 Alpha virt. eigenvalues --    0.31570   0.32414   0.33818   0.34752   0.34911
 Alpha virt. eigenvalues --    0.35805   0.37994   0.38100   0.38331   0.38828
 Alpha virt. eigenvalues --    0.39202   0.40609   0.41044   0.41564   0.41781
 Alpha virt. eigenvalues --    0.43226   0.43346   0.44514   0.44985   0.45059
 Alpha virt. eigenvalues --    0.45895   0.46652   0.47482   0.50449   0.51969
 Alpha virt. eigenvalues --    0.52086   0.52499   0.53474   0.55378   0.55591
 Alpha virt. eigenvalues --    0.58251   0.59543   0.61127   0.61209   0.62037
 Alpha virt. eigenvalues --    0.64285   0.64406   0.68019   0.71237   0.74361
 Alpha virt. eigenvalues --    0.75346   0.76972   0.78706   0.80452   0.82333
 Alpha virt. eigenvalues --    0.82846   0.83601   0.86290   0.87182   0.87876
 Alpha virt. eigenvalues --    0.88039   0.88861   0.90173   0.90525   0.91373
 Alpha virt. eigenvalues --    0.91861   0.92151   0.92336   0.93170   0.95129
 Alpha virt. eigenvalues --    0.95612   0.96902   0.97068   0.98633   0.99488
 Alpha virt. eigenvalues --    1.00151   1.01618   1.02954   1.03122   1.03934
 Alpha virt. eigenvalues --    1.04429   1.05465   1.06352   1.07055   1.07188
 Alpha virt. eigenvalues --    1.07884   1.11314   1.11815   1.11906   1.14511
 Alpha virt. eigenvalues --    1.15387   1.16088   1.16209   1.17441   1.20503
 Alpha virt. eigenvalues --    1.22164   1.22382   1.25344   1.25548   1.26085
 Alpha virt. eigenvalues --    1.29369   1.29689   1.30198   1.32334   1.33310
 Alpha virt. eigenvalues --    1.37239   1.38082   1.41797   1.43556   1.43716
 Alpha virt. eigenvalues --    1.44440   1.47179   1.49449   1.49947   1.51007
 Alpha virt. eigenvalues --    1.53515   1.57120   1.60035   1.60755   1.62967
 Alpha virt. eigenvalues --    1.63524   1.65314   1.66109   1.68058   1.69412
 Alpha virt. eigenvalues --    1.71210   1.73634   1.74094   1.77864   1.80149
 Alpha virt. eigenvalues --    1.80403   1.82660   1.84011   1.84961   1.87410
 Alpha virt. eigenvalues --    1.88446   1.90502   1.91754   1.92086   1.97210
 Alpha virt. eigenvalues --    1.97424   1.99172   2.02067   2.05876   2.06089
 Alpha virt. eigenvalues --    2.08072   2.09277   2.10403   2.11992   2.13618
 Alpha virt. eigenvalues --    2.15209   2.19673   2.21375   2.24839   2.28185
 Alpha virt. eigenvalues --    2.28439   2.31709   2.34228   2.42177   2.42528
 Alpha virt. eigenvalues --    2.45582   2.46533   2.46934   2.47407   2.50208
 Alpha virt. eigenvalues --    2.52051   2.58204   2.61821   2.65057   2.66562
 Alpha virt. eigenvalues --    2.69358   2.74478   2.77597   2.85739   2.86022
 Alpha virt. eigenvalues --    3.02854   3.04632   3.05241   3.10555   3.16209
 Alpha virt. eigenvalues --    3.20799   3.23128   3.27920   3.29267   3.34587
 Alpha virt. eigenvalues --    3.37141   3.38768   3.41443   3.47582   3.48485
 Alpha virt. eigenvalues --    3.49295   3.54174   3.59838   3.61020   3.70705
 Alpha virt. eigenvalues --    3.71152   3.72472   3.73270   3.82417   3.82862
 Alpha virt. eigenvalues --    3.85504   3.88024   3.88857   3.96825   3.97734
 Alpha virt. eigenvalues --    3.99775   4.02178   4.05392   4.10718   4.13798
 Alpha virt. eigenvalues --    4.14151   4.15607   4.17323   4.17540   4.18042
 Alpha virt. eigenvalues --    4.19626   4.21474   4.22816   4.27474   4.28180
 Alpha virt. eigenvalues --    4.32867   4.33565   4.35051   4.36971   4.41878
 Alpha virt. eigenvalues --    4.44587   4.47314   4.47785   4.49104   4.51850
 Alpha virt. eigenvalues --    4.54666   4.56161   4.56369   4.59109   4.59777
 Alpha virt. eigenvalues --    4.60081   4.64737   4.68309   4.69394   4.74634
 Alpha virt. eigenvalues --    4.74709   4.78142   4.82111   4.84330   4.90799
 Alpha virt. eigenvalues --    4.92660   4.94411   4.94475   4.95825   4.97504
 Alpha virt. eigenvalues --    4.97707   5.02812   5.03692   5.06887   5.09744
 Alpha virt. eigenvalues --    5.13912   5.16248   5.16809   5.23876   5.30481
 Alpha virt. eigenvalues --    5.34297   5.39612   5.41714   5.42980   5.47656
 Alpha virt. eigenvalues --    5.50272   5.53562   5.54407   5.59311   5.68214
 Alpha virt. eigenvalues --    5.69465   5.78635   5.86841   5.89819   5.90468
 Alpha virt. eigenvalues --    5.92682   6.04733   6.28896   6.32160   6.32372
 Alpha virt. eigenvalues --    6.34469   6.39287   6.45557   6.57881   6.70480
 Alpha virt. eigenvalues --    6.73072   6.76424   6.83250   6.89782   6.93427
 Alpha virt. eigenvalues --    6.96187   7.00077   7.12513   7.35628   7.42039
 Alpha virt. eigenvalues --    7.47756   7.68033   7.74046   7.75258   7.78535
 Alpha virt. eigenvalues --    7.80702   8.07662   8.36496   8.63830  16.04788
 Alpha virt. eigenvalues --   17.34468  18.03935  18.39400
          Condensed to atoms (all electrons):
               1          2          3          4          5          6
     1  C    5.655273   0.083614   0.240473   0.271192  -0.007490  -0.086668
     2  C    0.083614   6.287932  -0.039104  -0.083519   0.362230   0.404181
     3  H    0.240473  -0.039104   0.415658   0.000521  -0.040356   0.014019
     4  O    0.271192  -0.083519   0.000521   8.351822  -0.009453   0.002537
     5  H   -0.007490   0.362230  -0.040356  -0.009453   0.371506  -0.043476
     6  H   -0.086668   0.404181   0.014019   0.002537  -0.043476   0.286403
     7  H    0.066953  -0.041599  -0.080302   0.078984   0.009177  -0.008455
     8  N    0.010569  -0.010257   0.009011  -0.041363  -0.001008   0.000045
     9  H   -0.000322  -0.000258   0.000770  -0.000218  -0.000107   0.000045
    10  H    0.000218  -0.000643  -0.000485  -0.007898   0.000006  -0.000037
    11  H   -0.000302  -0.000255   0.000845  -0.000135  -0.000106   0.000044
               7          8          9         10         11
     1  C    0.066953   0.010569  -0.000322   0.000218  -0.000302
     2  C   -0.041599  -0.010257  -0.000258  -0.000643  -0.000255
     3  H   -0.080302   0.009011   0.000770  -0.000485   0.000845
     4  O    0.078984  -0.041363  -0.000218  -0.007898  -0.000135
     5  H    0.009177  -0.001008  -0.000107   0.000006  -0.000106
     6  H   -0.008455   0.000045   0.000045  -0.000037   0.000044
     7  H    0.534008   0.024249   0.001563   0.002502   0.001373
     8  N    0.024249   6.103500   0.404778   0.412400   0.404625
     9  H    0.001563   0.404778   0.475790  -0.013087  -0.006025
    10  H    0.002502   0.412400  -0.013087   0.500993  -0.013202
    11  H    0.001373   0.404625  -0.006025  -0.013202   0.475537
 Mulliken charges:
               1
     1  C   -0.233509
     2  C   -0.962321
     3  H    0.478951
     4  O   -0.562469
     5  H    0.359078
     6  H    0.431362
     7  H    0.411547
     8  N   -0.316550
     9  H    0.137072
    10  H    0.119235
    11  H    0.137602
 Sum of Mulliken charges =  -0.00000
 Mulliken charges with hydrogens summed into heavy atoms:
               1
     1  C    0.245443
     2  C   -0.171881
     4  O   -0.150921
     8  N    0.077359
 Electronic spatial extent (au):  <R**2>=            538.9893
 Charge=              0.0000 electrons
 Dipole moment (field-independent basis, Debye):
    X=             -4.3624    Y=             -1.8325    Z=              0.0010  Tot=              4.7317
 Quadrupole moment (field-independent basis, Debye-Ang):
   XX=            -16.4775   YY=            -25.6498   ZZ=            -27.5020
   XY=              0.6781   XZ=             -0.0013   YZ=              0.0009
 Traceless Quadrupole moment (field-independent basis, Debye-Ang):
   XX=              6.7322   YY=             -2.4400   ZZ=             -4.2922
   XY=              0.6781   XZ=             -0.0013   YZ=              0.0009
 Octapole moment (field-independent basis, Debye-Ang**2):
  XXX=            -41.6567  YYY=             -0.8349  ZZZ=              0.0388  XYY=             -6.8984
  XXY=              2.1180  XXZ=             -0.0072  XZZ=            -12.7598  YZZ=             -0.0786
  YYZ=             -0.0348  XYZ=              0.0075
 Hexadecapole moment (field-independent basis, Debye-Ang**3):
 XXXX=           -516.5002 YYYY=            -69.9742 ZZZZ=            -34.9522 XXXY=              0.2349
 XXXZ=              0.0532 YYYX=              2.2473 YYYZ=              0.0337 ZZZX=             -0.1160
 ZZZY=             -0.0121 XXYY=            -93.5656 XXZZ=           -105.6001 YYZZ=            -17.8330
 XXYZ=             -0.0357 YYXZ=              0.0977 ZZXY=              6.7317
 N-N= 1.178012975699D+02 E-N=-7.269360700605D+02  KE= 2.088559646173D+02
 Calling FoFJK, ICntrl=  10002127 FMM=F ISym2X=0 I1Cent= 0 IOpClX= 0 NMat=1 NMatS=1 NMatT=0.
 ***** Axes restored to original set *****
 -------------------------------------------------------------------
 Center     Atomic                   Forces (Hartrees/Bohr)
 Number     Number              X              Y              Z
 -------------------------------------------------------------------
      1        6          -0.000035183    0.000035746   -0.000018283
      2        6           0.000015010    0.000017929    0.000000593
      3        1           0.000006871   -0.000005820    0.000004967
      4        8           0.000012314   -0.000038373    0.000005867
      5        1          -0.000006413   -0.000015119    0.000005089
      6        1           0.000005109    0.000000752    0.000000203
      7        1           0.000010898    0.000004210   -0.000003426
      8        7           0.000045927    0.000012169    0.000008445
      9        1          -0.000010491   -0.000008250   -0.000014494
     10        1          -0.000025016    0.000007098    0.000000737
     11        1          -0.000019026   -0.000010343    0.000010302
 -------------------------------------------------------------------
 Cartesian Forces:  Max     0.000045927 RMS     0.000017057

 GradGradGradGradGradGradGradGradGradGradGradGradGradGradGradGradGradGrad
 Berny optimization.
 FormGI is forming the generalized inverse of G from B-inverse, IUseBI=4.
 Internal  Forces:  Max     0.000035316 RMS     0.000012423
 Search for a local minimum.
 Step number   1 out of a maximum of   44
 All quantities printed in internal units (Hartrees-Bohrs-Radians)
 Mixed Optimization -- En-DIIS/RFO-DIIS
 Second derivative matrix not updated -- first step.
 ITU=  0
     Eigenvalues ---    0.00230   0.00230   0.00230   0.02305   0.02740
     Eigenvalues ---    0.02938   0.02938   0.05716   0.09076   0.09969
     Eigenvalues ---    0.16000   0.16000   0.16000   0.16000   0.16000
     Eigenvalues ---    0.16000   0.16000   0.22000   0.35225   0.36028
     Eigenvalues ---    0.36261   0.45449   0.45503   0.45504   0.50946
     Eigenvalues ---    0.54261   0.58153
 RFO step:  Lambda=-3.46154797D-08 EMin= 2.30000000D-03
 Linear search not attempted -- first point.
 Iteration  1 RMS(Cart)=  0.00117474 RMS(Int)=  0.00000045
 Iteration  2 RMS(Cart)=  0.00000086 RMS(Int)=  0.00000003
 Variable       Old X    -DE/DX   Delta X   Delta X   Delta X     New X
                                 (Linear)    (Quad)   (Total)
    R1        2.52433  -0.00001   0.00000  -0.00002  -0.00002   2.52430
    R2        2.05311  -0.00000   0.00000  -0.00001  -0.00001   2.05310
    R3        2.55795   0.00004   0.00000   0.00007   0.00007   2.55802
    R4        2.03676  -0.00001   0.00000  -0.00002  -0.00002   2.03674
    R5        2.04038  -0.00000   0.00000  -0.00001  -0.00001   2.04037
    R6        1.85623   0.00000   0.00000   0.00001   0.00001   1.85623
    R7        3.47072  -0.00001   0.00000  -0.00014  -0.00014   3.47058
    R8        1.91396  -0.00002   0.00000  -0.00004  -0.00004   1.91391
    R9        1.91458  -0.00002   0.00000  -0.00005  -0.00005   1.91453
   R10        1.91394  -0.00002   0.00000  -0.00004  -0.00004   1.91390
    A1        2.11006   0.00002   0.00000   0.00009   0.00009   2.11015
    A2        2.15269  -0.00001   0.00000  -0.00007  -0.00007   2.15262
    A3        2.02043  -0.00000   0.00000  -0.00002  -0.00002   2.02041
    A4        2.08059   0.00002   0.00000   0.00014   0.00014   2.08073
    A5        2.11485  -0.00002   0.00000  -0.00009  -0.00009   2.11476
    A6        2.08774  -0.00001   0.00000  -0.00004  -0.00004   2.08770
    A7        1.89402  -0.00001   0.00000  -0.00007  -0.00007   1.89395
    A8        1.99192   0.00000   0.00000   0.00001   0.00001   1.99193
    A9        1.87012  -0.00002   0.00000  -0.00010  -0.00010   1.87002
   A10        1.99529  -0.00002   0.00000  -0.00011  -0.00011   1.99518
   A11        1.86483   0.00001   0.00000   0.00008   0.00008   1.86491
   A12        1.86881   0.00001   0.00000   0.00006   0.00006   1.86887
   A13        1.86480   0.00001   0.00000   0.00008   0.00008   1.86488
   A14        3.14971  -0.00000   0.00000  -0.00162  -0.00162   3.14809
   A15        3.14111  -0.00000   0.00000  -0.00019  -0.00019   3.14092
    D1       -0.00001   0.00000   0.00000   0.00003   0.00003   0.00002
    D2        3.14149   0.00001   0.00000   0.00019   0.00019  -3.14151
    D3       -3.14141  -0.00001   0.00000  -0.00034  -0.00034   3.14144
    D4        0.00009  -0.00000   0.00000  -0.00018  -0.00018  -0.00009
    D5        3.14139   0.00001   0.00000   0.00023   0.00023  -3.14156
    D6       -0.00002  -0.00000   0.00000  -0.00011  -0.00011  -0.00013
    D7        1.09305  -0.00000   0.00000  -0.00061  -0.00061   1.09244
    D8       -3.13062   0.00000   0.00000  -0.00038  -0.00038  -3.13100
    D9       -1.06898  -0.00000   0.00000  -0.00015  -0.00015  -1.06913
         Item               Value     Threshold  Converged?
 Maximum Force            0.000035     0.000450     YES
 RMS     Force            0.000012     0.000300     YES
 Maximum Displacement     0.002890     0.001800     NO 
 RMS     Displacement     0.001175     0.001200     YES
 Predicted change in Energy=-1.730730D-08
 GradGradGradGradGradGradGradGradGradGradGradGradGradGradGradGradGradGrad

                          Input orientation:                          
 ---------------------------------------------------------------------
 Center     Atomic      Atomic             Coordinates (Angstroms)
 Number     Number       Type             X           Y           Z
 ---------------------------------------------------------------------
      1          6           0       -0.979048    0.297352   -0.000263
      2          6           0       -2.309674    0.179853    0.000127
      3          1           0       -0.505224    1.275041   -0.000348
      4          8           0       -0.138560   -0.763747   -0.000382
      5          1           0       -2.916469    1.070606    0.000338
      6          1           0       -2.785029   -0.789595    0.000287
      7          1           0        0.785255   -0.429930   -0.000650
      8          7           0        2.516518    0.182973    0.000022
      9          1           0        2.764314    0.722754    0.820387
     10          1           0        3.121109   -0.629914   -0.010331
     11          1           0        2.761532    0.741388   -0.808614
 ---------------------------------------------------------------------
                    Distance matrix (angstroms):
                    1          2          3          4          5
     1  C    0.000000
     2  C    1.335804   0.000000
     3  H    1.086455   2.110800   0.000000
     4  O    1.353644   2.367302   2.071497   0.000000
     5  H    2.086030   1.077795   2.419896   3.328908   0.000000
     6  H    2.107848   1.079718   3.075749   2.646595   1.864840
     7  H    1.908325   3.154429   2.138284   0.982276   3.994292
     8  N    3.497437   4.826193   3.213026   2.818815   5.505019
     9  H    3.855800   5.168455   3.415919   3.363037   5.750198
    10  H    4.203714   5.490832   4.096247   3.262430   6.272498
    11  H    3.852602   5.165900   3.407312   3.365888   5.744779
                    6          7          8          9         10
     6  H    0.000000
     7  H    3.588354   0.000000
     8  N    5.390017   1.836552   0.000000
     9  H    5.809903   2.432993   1.012800   0.000000
    10  H    5.908305   2.344419   1.013126   1.626993   0.000000
    11  H    5.810557   2.435255   1.012794   1.629110   1.626967
                   11
    11  H    0.000000
 Stoichiometry    C2H7NO
 Framework group  C1[X(C2H7NO)]
 Deg. of freedom    27
 Full point group                 C1      NOp   1
 Largest Abelian subgroup         C1      NOp   1
 Largest concise Abelian subgroup C1      NOp   1
                         Standard orientation:                         
 ---------------------------------------------------------------------
 Center     Atomic      Atomic             Coordinates (Angstroms)
 Number     Number       Type             X           Y           Z
 ---------------------------------------------------------------------
      1          6           0        0.979044   -0.297557   -0.000239
      2          6           0        2.309676   -0.180114    0.000186
      3          1           0        0.505179   -1.275226   -0.000532
      4          8           0        0.138601    0.763577   -0.000144
      5          1           0        2.916433   -1.070893    0.000218
      6          1           0        2.785071    0.789314    0.000553
      7          1           0       -0.785228    0.429799   -0.000489
      8          7           0       -2.516517   -0.183032    0.000041
      9          1           0       -2.764342   -0.722973    0.820290
     10          1           0       -3.121074    0.629883   -0.010148
     11          1           0       -2.761548   -0.741268   -0.808714
 ---------------------------------------------------------------------
 Rotational constants (GHZ):          28.6965154           2.4279819           2.2654186
 Standard basis: Aug-CC-pVTZ (5D, 7F)
 There are   395 symmetry adapted cartesian basis functions of A   symmetry.
 There are   345 symmetry adapted basis functions of A   symmetry.
   345 basis functions,   477 primitive gaussians,   395 cartesian basis functions
    17 alpha electrons       17 beta electrons
       nuclear repulsion energy       117.8077882083 Hartrees.
 NAtoms=   11 NActive=   11 NUniq=   11 SFac= 1.00D+00 NAtFMM=   60 NAOKFM=F Big=F
 Integral buffers will be    131072 words long.
 Raffenetti 1 integral format.
 Two-electron integral symmetry is turned on.
 One-electron integrals computed using PRISM.
 NBasis=   345 RedAO= T EigKep=  5.63D-06  NBF=   345
 NBsUse=   345 1.00D-06 EigRej= -1.00D+00 NBFU=   345
 Initial guess from the checkpoint file:  "/scr/Gau-28495.chk"
 B after Tr=     0.000000   -0.000000   -0.000000
         Rot=    1.000000   -0.000049   -0.000002    0.000019 Ang=  -0.01 deg.
 Keep R1 ints in memory in canonical form, NReq=1812230791.
 Requested convergence on RMS density matrix=1.00D-08 within 128 cycles.
 Requested convergence on MAX density matrix=1.00D-06.
 Requested convergence on             energy=1.00D-06.
 No special actions if energy rises.
 SCF Done:  E(RHF) =  -209.185526508     A.U. after    6 cycles
            NFock=  6  Conv=0.93D-08     -V/T= 2.0016
 ExpMin= 2.53D-02 ExpMax= 1.53D+04 ExpMxC= 5.22D+02 IAcc=3 IRadAn=         5 AccDes= 0.00D+00
 HarFok:  IExCor=  205 AccDes= 0.00D+00 IRadAn=         5 IDoV=-2 UseB2=F ITyADJ=14
 ICtDFT= 12500011 ScaDFX=  1.000000  1.000000  1.000000  1.000000
 Range of M.O.s used for correlation:     5   345
 NBasis=   345 NAE=    17 NBE=    17 NFC=     4 NFV=     0
 NROrb=    341 NOA=    13 NOB=    13 NVA=   328 NVB=   328

 **** Warning!!: The largest alpha MO coefficient is  0.82721907D+02

 Disk-based method using ON**2 memory for 13 occupieds at a time.
 Estimated scratch disk usage=  1476408146 words.
 Actual    scratch disk usage=  1352333138 words.
 JobTyp=1 Pass  1:  I=   5 to  17 NPSUse= 40 ParTrn=T ParDer=T DoDerP=T.
 (rs|ai) integrals will be sorted in core.
 Spin components of T(2) and E(2):
     alpha-alpha T2 =       0.2918162793D-01 E2=     -0.9715437213D-01
     alpha-beta  T2 =       0.1779438886D+00 E2=     -0.6321251461D+00
     beta-beta   T2 =       0.2918162793D-01 E2=     -0.9715437213D-01
 ANorm=    0.1111893495D+01
 E2 =    -0.8264338904D+00 EUMP2 =    -0.21001196039846D+03
          IDoAtm=11111111111
          Differentiating once with respect to electric field.
                with respect to dipole field.
          Differentiating once with respect to nuclear coordinates.
 Keep R1 ints in memory in canonical form, NReq=1812232950.
          There are     1 degrees of freedom in the 1st order CPHF.  IDoFFX=0 NUNeed=     1.
 LinEq1:  Iter=  0 NonCon=     1 RMS=2.64D-03 Max=6.72D-02 NDo=     1
 AX will form     1 AO Fock derivatives at one time.
 LinEq1:  Iter=  1 NonCon=     1 RMS=7.00D-04 Max=6.97D-03 NDo=     1
 LinEq1:  Iter=  2 NonCon=     1 RMS=2.35D-04 Max=4.54D-03 NDo=     1
 LinEq1:  Iter=  3 NonCon=     1 RMS=7.12D-05 Max=9.87D-04 NDo=     1
 LinEq1:  Iter=  4 NonCon=     1 RMS=2.74D-05 Max=4.60D-04 NDo=     1
 LinEq1:  Iter=  5 NonCon=     1 RMS=6.07D-06 Max=9.34D-05 NDo=     1
 LinEq1:  Iter=  6 NonCon=     1 RMS=2.17D-06 Max=4.74D-05 NDo=     1
 LinEq1:  Iter=  7 NonCon=     1 RMS=6.23D-07 Max=6.01D-06 NDo=     1
 LinEq1:  Iter=  8 NonCon=     1 RMS=1.54D-07 Max=4.69D-06 NDo=     1
 LinEq1:  Iter=  9 NonCon=     1 RMS=3.47D-08 Max=4.10D-07 NDo=     1
 LinEq1:  Iter= 10 NonCon=     1 RMS=1.39D-08 Max=3.49D-07 NDo=     1
 LinEq1:  Iter= 11 NonCon=     1 RMS=4.12D-09 Max=3.91D-08 NDo=     1
 LinEq1:  Iter= 12 NonCon=     1 RMS=7.55D-10 Max=8.75D-09 NDo=     1
 LinEq1:  Iter= 13 NonCon=     1 RMS=1.22D-10 Max=1.09D-09 NDo=     1
 LinEq1:  Iter= 14 NonCon=     0 RMS=2.08D-11 Max=3.12D-10 NDo=     1
 Linear equations converged to 1.000D-10 1.000D-09 after    14 iterations.
 End of Minotr F.D. properties file   721 does not exist.
 End of Minotr F.D. properties file   722 does not exist.
 End of Minotr F.D. properties file   788 does not exist.
 Calling FoFJK, ICntrl=  10002127 FMM=F ISym2X=0 I1Cent= 0 IOpClX= 0 NMat=1 NMatS=1 NMatT=0.
 ***** Axes restored to original set *****
 -------------------------------------------------------------------
 Center     Atomic                   Forces (Hartrees/Bohr)
 Number     Number              X              Y              Z
 -------------------------------------------------------------------
      1        6          -0.000005908    0.000012983    0.000014549
      2        6           0.000005623    0.000006076   -0.000000214
      3        1           0.000005921   -0.000003825   -0.000003471
      4        8          -0.000000019   -0.000033878   -0.000008200
      5        1          -0.000003810   -0.000003630   -0.000003601
      6        1           0.000001127   -0.000002354   -0.000000230
      7        1          -0.000004125    0.000033400   -0.000001915
      8        7           0.000024983   -0.000001966    0.000006233
      9        1          -0.000005118   -0.000002219   -0.000002036
     10        1          -0.000006414   -0.000000781    0.000000591
     11        1          -0.000012260   -0.000003805   -0.000001706
 -------------------------------------------------------------------
 Cartesian Forces:  Max     0.000033878 RMS     0.000010810

 GradGradGradGradGradGradGradGradGradGradGradGradGradGradGradGradGradGrad
 Berny optimization.
 Using GEDIIS/GDIIS optimizer.
 FormGI is forming the generalized inverse of G from B-inverse, IUseBI=4.
 Internal  Forces:  Max     0.000025040 RMS     0.000007502
 Search for a local minimum.
 Step number   2 out of a maximum of   44
 All quantities printed in internal units (Hartrees-Bohrs-Radians)
 Mixed Optimization -- En-DIIS/RFO-DIIS
 Swapping is turned off.
 Update second derivatives using D2CorX and points    1    2
 DE= -4.75D-10 DEPred=-1.73D-08 R= 2.75D-02
 Trust test= 2.75D-02 RLast= 1.89D-03 DXMaxT set to 1.50D-01
 ITU= -1  0
     Eigenvalues ---    0.00209   0.00230   0.00869   0.02311   0.02867
     Eigenvalues ---    0.02938   0.03102   0.05381   0.09049   0.09389
     Eigenvalues ---    0.10477   0.16000   0.16000   0.16000   0.16000
     Eigenvalues ---    0.16000   0.16469   0.21606   0.35211   0.36033
     Eigenvalues ---    0.36134   0.43402   0.45471   0.45504   0.50885
     Eigenvalues ---    0.52726   0.57957
 En-DIIS/RFO-DIIS/Sim-DIIS IScMMF=       -3 using points:     2    1
 RFO step:  Lambda=-7.77022051D-08.
 DidBck=T Rises=F RFO-DIIS coefs:    0.27043    0.72957
 Iteration  1 RMS(Cart)=  0.00164502 RMS(Int)=  0.00000103
 Iteration  2 RMS(Cart)=  0.00000191 RMS(Int)=  0.00000002
 Iteration  3 RMS(Cart)=  0.00000000 RMS(Int)=  0.00000002
 Variable       Old X    -DE/DX   Delta X   Delta X   Delta X     New X
                                 (Linear)    (Quad)   (Total)
    R1        2.52430  -0.00000   0.00002  -0.00006  -0.00004   2.52426
    R2        2.05310  -0.00000   0.00000  -0.00002  -0.00001   2.05309
    R3        2.55802   0.00001  -0.00005   0.00016   0.00012   2.55813
    R4        2.03674  -0.00000   0.00002  -0.00006  -0.00004   2.03669
    R5        2.04037   0.00000   0.00001  -0.00002  -0.00001   2.04036
    R6        1.85623   0.00001  -0.00001   0.00002   0.00002   1.85625
    R7        3.47058  -0.00000   0.00010  -0.00035  -0.00025   3.47033
    R8        1.91391  -0.00000   0.00003  -0.00010  -0.00007   1.91384
    R9        1.91453  -0.00000   0.00003  -0.00011  -0.00008   1.91445
   R10        1.91390  -0.00000   0.00003  -0.00010  -0.00007   1.91383
    A1        2.11015   0.00001  -0.00007   0.00025   0.00018   2.11033
    A2        2.15262  -0.00001   0.00005  -0.00017  -0.00013   2.15250
    A3        2.02041  -0.00000   0.00002  -0.00007  -0.00005   2.02036
    A4        2.08073   0.00001  -0.00010   0.00036   0.00026   2.08099
    A5        2.11476  -0.00001   0.00007  -0.00025  -0.00018   2.11458
    A6        2.08770  -0.00000   0.00003  -0.00011  -0.00008   2.08762
    A7        1.89395  -0.00002   0.00005  -0.00023  -0.00018   1.89377
    A8        1.99193  -0.00000  -0.00001   0.00001   0.00001   1.99194
    A9        1.87002  -0.00000   0.00007  -0.00025  -0.00018   1.86984
   A10        1.99518  -0.00002   0.00008  -0.00031  -0.00023   1.99495
   A11        1.86491   0.00001  -0.00006   0.00022   0.00016   1.86508
   A12        1.86887   0.00001  -0.00004   0.00015   0.00011   1.86898
   A13        1.86488   0.00001  -0.00006   0.00023   0.00017   1.86504
   A14        3.14809   0.00003   0.00118   0.00123   0.00241   3.15050
   A15        3.14092   0.00000   0.00014   0.00027   0.00041   3.14134
    D1        0.00002  -0.00000  -0.00002   0.00006   0.00004   0.00006
    D2       -3.14151  -0.00000  -0.00014   0.00039   0.00026  -3.14126
    D3        3.14144   0.00001   0.00024  -0.00070  -0.00046   3.14098
    D4       -0.00009   0.00000   0.00013  -0.00037  -0.00024  -0.00033
    D5       -3.14156  -0.00000  -0.00017   0.00049   0.00032  -3.14124
    D6       -0.00013   0.00000   0.00008  -0.00023  -0.00015  -0.00028
    D7        1.09244  -0.00000   0.00044  -0.00102  -0.00058   1.09186
    D8       -3.13100   0.00000   0.00028  -0.00104  -0.00076  -3.13176
    D9       -1.06913  -0.00000   0.00011  -0.00133  -0.00122  -1.07035
         Item               Value     Threshold  Converged?
 Maximum Force            0.000025     0.000450     YES
 RMS     Force            0.000008     0.000300     YES
 Maximum Displacement     0.004263     0.001800     NO 
 RMS     Displacement     0.001644     0.001200     NO 
 Predicted change in Energy=-3.885111D-08
 GradGradGradGradGradGradGradGradGradGradGradGradGradGradGradGradGradGrad

                          Input orientation:                          
 ---------------------------------------------------------------------
 Center     Atomic      Atomic             Coordinates (Angstroms)
 Number     Number       Type             X           Y           Z
 ---------------------------------------------------------------------
      1          6           0       -0.979631    0.298124   -0.000353
      2          6           0       -2.310128    0.179430    0.000024
      3          1           0       -0.506512    1.276148    0.000201
      4          8           0       -0.138284   -0.762372   -0.000671
      5          1           0       -2.917940    1.069462    0.000834
      6          1           0       -2.784431   -0.790526   -0.000212
      7          1           0        0.785222   -0.427674   -0.000583
      8          7           0        2.517255    0.182651    0.000023
      9          1           0        2.765677    0.722595    0.820040
     10          1           0        3.120486   -0.631201   -0.009753
     11          1           0        2.763008    0.740143   -0.808977
 ---------------------------------------------------------------------
                    Distance matrix (angstroms):
                    1          2          3          4          5
     1  C    0.000000
     2  C    1.335781   0.000000
     3  H    1.086449   2.110881   0.000000
     4  O    1.353705   2.367256   2.071511   0.000000
     5  H    2.086146   1.077772   2.420269   3.328980   0.000000
     6  H    2.107715   1.079712   3.075720   2.646297   1.864773
     7  H    1.908269   3.154325   2.138127   0.982286   3.994349
     8  N    3.498792   4.827384   3.215416   2.818679   5.507066
     9  H    3.857532   5.170228   3.418447   3.363285   5.752818
    10  H    4.204127   5.490790   4.097949   3.261421   6.273352
    11  H    3.854425   5.167745   3.410547   3.365769   5.747818
                    6          7          8          9         10
     6  H    0.000000
     7  H    3.588048   0.000000
     8  N    5.390264   1.836419   0.000000
     9  H    5.810857   2.432847   1.012760   0.000000
    10  H    5.907073   2.344134   1.013083   1.627025   0.000000
    11  H    5.811293   2.434940   1.012755   1.629114   1.627002
                   11
    11  H    0.000000
 Stoichiometry    C2H7NO
 Framework group  C1[X(C2H7NO)]
 Deg. of freedom    27
 Full point group                 C1      NOp   1
 Largest Abelian subgroup         C1      NOp   1
 Largest concise Abelian subgroup C1      NOp   1
                         Standard orientation:                         
 ---------------------------------------------------------------------
 Center     Atomic      Atomic             Coordinates (Angstroms)
 Number     Number       Type             X           Y           Z
 ---------------------------------------------------------------------
      1          6           0        0.979688   -0.297965   -0.000326
      2          6           0        2.310179   -0.179209    0.000146
      3          1           0        0.506615   -1.276010   -0.000310
      4          8           0        0.138291    0.762492   -0.000091
      5          1           0        2.918033   -1.069212    0.000489
      6          1           0        2.784437    0.790770    0.000444
      7          1           0       -0.785199    0.427751   -0.000204
      8          7           0       -2.517203   -0.182656    0.000032
      9          1           0       -2.765619   -0.723054    0.819753
     10          1           0       -3.120472    0.631173   -0.009318
     11          1           0       -2.762911   -0.739723   -0.809274
 ---------------------------------------------------------------------
 Rotational constants (GHZ):          28.7467994           2.4267192           2.2646320
 Standard basis: Aug-CC-pVTZ (5D, 7F)
 There are   395 symmetry adapted cartesian basis functions of A   symmetry.
 There are   345 symmetry adapted basis functions of A   symmetry.
   345 basis functions,   477 primitive gaussians,   395 cartesian basis functions
    17 alpha electrons       17 beta electrons
       nuclear repulsion energy       117.8027041051 Hartrees.
 NAtoms=   11 NActive=   11 NUniq=   11 SFac= 1.00D+00 NAtFMM=   60 NAOKFM=F Big=F
 Integral buffers will be    131072 words long.
 Raffenetti 1 integral format.
 Two-electron integral symmetry is turned on.
 One-electron integrals computed using PRISM.
 NBasis=   345 RedAO= T EigKep=  5.62D-06  NBF=   345
 NBsUse=   345 1.00D-06 EigRej= -1.00D+00 NBFU=   345
 Initial guess from the checkpoint file:  "/scr/Gau-28495.chk"
 B after Tr=    -0.000000    0.000000    0.000000
         Rot=    1.000000   -0.000110   -0.000000   -0.000033 Ang=  -0.01 deg.
 Keep R1 ints in memory in canonical form, NReq=1812230791.
 Requested convergence on RMS density matrix=1.00D-08 within 128 cycles.
 Requested convergence on MAX density matrix=1.00D-06.
 Requested convergence on             energy=1.00D-06.
 No special actions if energy rises.
 SCF Done:  E(RHF) =  -209.185527757     A.U. after    7 cycles
            NFock=  7  Conv=0.49D-08     -V/T= 2.0016
 ExpMin= 2.53D-02 ExpMax= 1.53D+04 ExpMxC= 5.22D+02 IAcc=3 IRadAn=         5 AccDes= 0.00D+00
 HarFok:  IExCor=  205 AccDes= 0.00D+00 IRadAn=         5 IDoV=-2 UseB2=F ITyADJ=14
 ICtDFT= 12500011 ScaDFX=  1.000000  1.000000  1.000000  1.000000
 Range of M.O.s used for correlation:     5   345
 NBasis=   345 NAE=    17 NBE=    17 NFC=     4 NFV=     0
 NROrb=    341 NOA=    13 NOB=    13 NVA=   328 NVB=   328

 **** Warning!!: The largest alpha MO coefficient is  0.82812733D+02

 Disk-based method using ON**2 memory for 13 occupieds at a time.
 Estimated scratch disk usage=  1476408146 words.
 Actual    scratch disk usage=  1352333138 words.
 JobTyp=1 Pass  1:  I=   5 to  17 NPSUse= 40 ParTrn=T ParDer=T DoDerP=T.
 (rs|ai) integrals will be sorted in core.
 Spin components of T(2) and E(2):
     alpha-alpha T2 =       0.2918130829D-01 E2=     -0.9715412180D-01
     alpha-beta  T2 =       0.1779419523D+00 E2=     -0.6321243945D+00
     beta-beta   T2 =       0.2918130829D-01 E2=     -0.9715412180D-01
 ANorm=    0.1111892337D+01
 E2 =    -0.8264326381D+00 EUMP2 =    -0.21001196039520D+03
          IDoAtm=11111111111
          Differentiating once with respect to electric field.
                with respect to dipole field.
          Differentiating once with respect to nuclear coordinates.
 Keep R1 ints in memory in canonical form, NReq=1812232950.
          There are     1 degrees of freedom in the 1st order CPHF.  IDoFFX=0 NUNeed=     1.
 LinEq1:  Iter=  0 NonCon=     1 RMS=2.64D-03 Max=6.73D-02 NDo=     1
 AX will form     1 AO Fock derivatives at one time.
 LinEq1:  Iter=  1 NonCon=     1 RMS=7.00D-04 Max=6.97D-03 NDo=     1
 LinEq1:  Iter=  2 NonCon=     1 RMS=2.35D-04 Max=4.54D-03 NDo=     1
 LinEq1:  Iter=  3 NonCon=     1 RMS=7.12D-05 Max=9.88D-04 NDo=     1
 LinEq1:  Iter=  4 NonCon=     1 RMS=2.74D-05 Max=4.61D-04 NDo=     1
 LinEq1:  Iter=  5 NonCon=     1 RMS=6.07D-06 Max=9.33D-05 NDo=     1
 LinEq1:  Iter=  6 NonCon=     1 RMS=2.17D-06 Max=4.75D-05 NDo=     1
 LinEq1:  Iter=  7 NonCon=     1 RMS=6.23D-07 Max=6.01D-06 NDo=     1
 LinEq1:  Iter=  8 NonCon=     1 RMS=1.54D-07 Max=4.70D-06 NDo=     1
 LinEq1:  Iter=  9 NonCon=     1 RMS=3.47D-08 Max=4.11D-07 NDo=     1
 LinEq1:  Iter= 10 NonCon=     1 RMS=1.40D-08 Max=3.49D-07 NDo=     1
 LinEq1:  Iter= 11 NonCon=     1 RMS=4.12D-09 Max=3.90D-08 NDo=     1
 LinEq1:  Iter= 12 NonCon=     1 RMS=7.55D-10 Max=8.76D-09 NDo=     1
 LinEq1:  Iter= 13 NonCon=     1 RMS=1.22D-10 Max=1.10D-09 NDo=     1
 LinEq1:  Iter= 14 NonCon=     0 RMS=2.08D-11 Max=3.13D-10 NDo=     1
 Linear equations converged to 1.000D-10 1.000D-09 after    14 iterations.
 End of Minotr F.D. properties file   721 does not exist.
 End of Minotr F.D. properties file   722 does not exist.
 End of Minotr F.D. properties file   788 does not exist.
 Calling FoFJK, ICntrl=  10002127 FMM=F ISym2X=0 I1Cent= 0 IOpClX= 0 NMat=1 NMatS=1 NMatT=0.
 ***** Axes restored to original set *****
 -------------------------------------------------------------------
 Center     Atomic                   Forces (Hartrees/Bohr)
 Number     Number              X              Y              Z
 -------------------------------------------------------------------
      1        6           0.000012757   -0.000020263    0.000060329
      2        6          -0.000010122   -0.000011036   -0.000001762
      3        1          -0.000003710    0.000002191   -0.000015361
      4        8          -0.000011496    0.000042158   -0.000019938
      5        1           0.000000726    0.000017009   -0.000015670
      6        1          -0.000005473   -0.000008160   -0.000000401
      7        1           0.000020410   -0.000030479   -0.000013762
      8        7          -0.000030997    0.000010309    0.000010005
      9        1           0.000012677    0.000010499    0.000017297
     10        1           0.000011666   -0.000021051    0.000000120
     11        1           0.000003562    0.000008822   -0.000020857
 -------------------------------------------------------------------
 Cartesian Forces:  Max     0.000060329 RMS     0.000019078

 GradGradGradGradGradGradGradGradGradGradGradGradGradGradGradGradGradGrad
 Berny optimization.
 Using GEDIIS/GDIIS optimizer.
 FormGI is forming the generalized inverse of G from B-inverse, IUseBI=4.
 Internal  Forces:  Max     0.000031317 RMS     0.000013609
 Search for a local minimum.
 Step number   3 out of a maximum of   44
 All quantities printed in internal units (Hartrees-Bohrs-Radians)
 Mixed Optimization -- En-DIIS/RFO-DIIS
 Swapping is turned off.
 Update second derivatives using D2CorX and points    1    2    3
 DE=  3.26D-09 DEPred=-3.89D-08 R=-8.40D-02
 Trust test=-8.40D-02 RLast= 3.05D-03 DXMaxT set to 7.50D-02
 ITU= -1 -1  0
     Eigenvalues ---    0.00196   0.00232   0.01532   0.02312   0.02890
     Eigenvalues ---    0.02938   0.04560   0.04953   0.08323   0.09225
     Eigenvalues ---    0.10440   0.16000   0.16000   0.16000   0.16000
     Eigenvalues ---    0.16291   0.17482   0.21782   0.35210   0.36063
     Eigenvalues ---    0.36412   0.44943   0.45473   0.45504   0.50905
     Eigenvalues ---    0.52473   0.58136
 En-DIIS/RFO-DIIS/Sim-DIIS IScMMF=       -3 using points:     3    2    1
 RFO step:  Lambda=-6.63852831D-08.
 DidBck=T Rises=F RFO-DIIS coefs:    0.62751    0.45548   -0.08300
 Iteration  1 RMS(Cart)=  0.00064879 RMS(Int)=  0.00000017
 Iteration  2 RMS(Cart)=  0.00000033 RMS(Int)=  0.00000002
 Variable       Old X    -DE/DX   Delta X   Delta X   Delta X     New X
                                 (Linear)    (Quad)   (Total)
    R1        2.52426   0.00001   0.00001   0.00001   0.00002   2.52428
    R2        2.05309   0.00000   0.00000   0.00000   0.00000   2.05309
    R3        2.55813  -0.00001  -0.00004  -0.00001  -0.00005   2.55808
    R4        2.03669   0.00001   0.00001   0.00001   0.00003   2.03672
    R5        2.04036   0.00001   0.00000   0.00001   0.00001   2.04037
    R6        1.85625   0.00001  -0.00001   0.00001   0.00000   1.85625
    R7        3.47033  -0.00000   0.00008   0.00001   0.00009   3.47042
    R8        1.91384   0.00002   0.00002   0.00002   0.00004   1.91388
    R9        1.91445   0.00002   0.00003   0.00002   0.00005   1.91450
   R10        1.91383   0.00002   0.00002   0.00002   0.00004   1.91387
    A1        2.11033  -0.00001  -0.00006  -0.00001  -0.00007   2.11026
    A2        2.15250   0.00001   0.00004   0.00002   0.00006   2.15255
    A3        2.02036  -0.00000   0.00002  -0.00000   0.00001   2.02037
    A4        2.08099  -0.00001  -0.00008  -0.00003  -0.00012   2.08087
    A5        2.11458   0.00001   0.00006   0.00002   0.00008   2.11465
    A6        2.08762   0.00001   0.00002   0.00001   0.00004   2.08766
    A7        1.89377   0.00003   0.00006   0.00004   0.00010   1.89388
    A8        1.99194   0.00001  -0.00000   0.00003   0.00003   1.99196
    A9        1.86984  -0.00001   0.00006  -0.00001   0.00004   1.86988
   A10        1.99495  -0.00000   0.00008  -0.00002   0.00006   1.99500
   A11        1.86508  -0.00000  -0.00005  -0.00000  -0.00006   1.86502
   A12        1.86898   0.00000  -0.00004   0.00001  -0.00002   1.86896
   A13        1.86504  -0.00000  -0.00006  -0.00000  -0.00006   1.86498
   A14        3.15050  -0.00002  -0.00103   0.00008  -0.00095   3.14955
   A15        3.14134  -0.00001  -0.00017  -0.00036  -0.00053   3.14081
    D1        0.00006  -0.00000  -0.00001  -0.00003  -0.00005   0.00002
    D2       -3.14126  -0.00002  -0.00008  -0.00023  -0.00031  -3.14157
    D3        3.14098   0.00003   0.00014   0.00042   0.00057   3.14155
    D4       -0.00033   0.00001   0.00008   0.00022   0.00030  -0.00003
    D5       -3.14124  -0.00002  -0.00010  -0.00029  -0.00039   3.14156
    D6       -0.00028   0.00001   0.00005   0.00015   0.00019  -0.00009
    D7        1.09186   0.00000   0.00016  -0.00011   0.00005   1.09191
    D8       -3.13176   0.00000   0.00025  -0.00018   0.00007  -3.13169
    D9       -1.07035  -0.00000   0.00044  -0.00016   0.00028  -1.07007
         Item               Value     Threshold  Converged?
 Maximum Force            0.000031     0.000450     YES
 RMS     Force            0.000014     0.000300     YES
 Maximum Displacement     0.001638     0.001800     YES
 RMS     Displacement     0.000649     0.001200     YES
 Predicted change in Energy=-3.318315D-08
 Optimization completed.
    -- Stationary point found.
                           ----------------------------
                           !   Optimized Parameters   !
                           ! (Angstroms and Degrees)  !
 --------------------------                            --------------------------
 ! Name  Definition              Value          Derivative Info.                !
 --------------------------------------------------------------------------------
 ! R1    R(1,2)                  1.3358         -DE/DX =    0.0                 !
 ! R2    R(1,3)                  1.0864         -DE/DX =    0.0                 !
 ! R3    R(1,4)                  1.3537         -DE/DX =    0.0                 !
 ! R4    R(2,5)                  1.0778         -DE/DX =    0.0                 !
 ! R5    R(2,6)                  1.0797         -DE/DX =    0.0                 !
 ! R6    R(4,7)                  0.9823         -DE/DX =    0.0                 !
 ! R7    R(7,8)                  1.8364         -DE/DX =    0.0                 !
 ! R8    R(8,9)                  1.0128         -DE/DX =    0.0                 !
 ! R9    R(8,10)                 1.0131         -DE/DX =    0.0                 !
 ! R10   R(8,11)                 1.0128         -DE/DX =    0.0                 !
 ! A1    A(2,1,3)              120.9132         -DE/DX =    0.0                 !
 ! A2    A(2,1,4)              123.3289         -DE/DX =    0.0                 !
 ! A3    A(3,1,4)              115.7578         -DE/DX =    0.0                 !
 ! A4    A(1,2,5)              119.2317         -DE/DX =    0.0                 !
 ! A5    A(1,2,6)              121.1563         -DE/DX =    0.0                 !
 ! A6    A(5,2,6)              119.612          -DE/DX =    0.0                 !
 ! A7    A(1,4,7)              108.5052         -DE/DX =    0.0                 !
 ! A8    A(7,8,9)              114.1297         -DE/DX =    0.0                 !
 ! A9    A(7,8,10)             107.1338         -DE/DX =    0.0                 !
 ! A10   A(7,8,11)             114.3021         -DE/DX =    0.0                 !
 ! A11   A(9,8,10)             106.861          -DE/DX =    0.0                 !
 ! A12   A(9,8,11)             107.0847         -DE/DX =    0.0                 !
 ! A13   A(10,8,11)            106.8592         -DE/DX =    0.0                 !
 ! A14   L(4,7,8,3,-1)         180.5104         -DE/DX =    0.0                 !
 ! A15   L(4,7,8,3,-2)         179.9853         -DE/DX =    0.0                 !
 ! D1    D(3,1,2,5)              0.0035         -DE/DX =    0.0                 !
 ! D2    D(3,1,2,6)           -179.9807         -DE/DX =    0.0                 !
 ! D3    D(4,1,2,5)            179.9652         -DE/DX =    0.0                 !
 ! D4    D(4,1,2,6)             -0.019          -DE/DX =    0.0                 !
 ! D5    D(2,1,4,7)            180.0204         -DE/DX =    0.0                 !
 ! D6    D(3,1,4,7)             -0.0161         -DE/DX =    0.0                 !
 ! D7    D(1,4,8,9)             62.5589         -DE/DX =    0.0                 !
 ! D8    D(1,4,8,10)          -179.4367         -DE/DX =    0.0                 !
 ! D9    D(1,4,8,11)           -61.3266         -DE/DX =    0.0                 !
 --------------------------------------------------------------------------------
 GradGradGradGradGradGradGradGradGradGradGradGradGradGradGradGradGradGrad

                          Input orientation:                          
 ---------------------------------------------------------------------
 Center     Atomic      Atomic             Coordinates (Angstroms)
 Number     Number       Type             X           Y           Z
 ---------------------------------------------------------------------
      1          6           0       -0.979631    0.298124   -0.000353
      2          6           0       -2.310128    0.179430    0.000024
      3          1           0       -0.506512    1.276148    0.000201
      4          8           0       -0.138284   -0.762372   -0.000671
      5          1           0       -2.917940    1.069462    0.000834
      6          1           0       -2.784431   -0.790526   -0.000212
      7          1           0        0.785222   -0.427674   -0.000583
      8          7           0        2.517255    0.182651    0.000023
      9          1           0        2.765677    0.722595    0.820040
     10          1           0        3.120486   -0.631201   -0.009753
     11          1           0        2.763008    0.740143   -0.808977
 ---------------------------------------------------------------------
                    Distance matrix (angstroms):
                    1          2          3          4          5
     1  C    0.000000
     2  C    1.335781   0.000000
     3  H    1.086449   2.110881   0.000000
     4  O    1.353705   2.367256   2.071511   0.000000
     5  H    2.086146   1.077772   2.420269   3.328980   0.000000
     6  H    2.107715   1.079712   3.075720   2.646297   1.864773
     7  H    1.908269   3.154325   2.138127   0.982286   3.994349
     8  N    3.498792   4.827384   3.215416   2.818679   5.507066
     9  H    3.857532   5.170228   3.418447   3.363285   5.752818
    10  H    4.204127   5.490790   4.097949   3.261421   6.273352
    11  H    3.854425   5.167745   3.410547   3.365769   5.747818
                    6          7          8          9         10
     6  H    0.000000
     7  H    3.588048   0.000000
     8  N    5.390264   1.836419   0.000000
     9  H    5.810857   2.432847   1.012760   0.000000
    10  H    5.907073   2.344134   1.013083   1.627025   0.000000
    11  H    5.811293   2.434940   1.012755   1.629114   1.627002
                   11
    11  H    0.000000
 Stoichiometry    C2H7NO
 Framework group  C1[X(C2H7NO)]
 Deg. of freedom    27
 Full point group                 C1      NOp   1
 Largest Abelian subgroup         C1      NOp   1
 Largest concise Abelian subgroup C1      NOp   1
                         Standard orientation:                         
 ---------------------------------------------------------------------
 Center     Atomic      Atomic             Coordinates (Angstroms)
 Number     Number       Type             X           Y           Z
 ---------------------------------------------------------------------
      1          6           0        0.979688   -0.297965   -0.000326
      2          6           0        2.310179   -0.179209    0.000146
      3          1           0        0.506615   -1.276010   -0.000310
      4          8           0        0.138291    0.762492   -0.000091
      5          1           0        2.918033   -1.069212    0.000489
      6          1           0        2.784437    0.790770    0.000444
      7          1           0       -0.785199    0.427751   -0.000204
      8          7           0       -2.517203   -0.182656    0.000032
      9          1           0       -2.765619   -0.723054    0.819753
     10          1           0       -3.120472    0.631173   -0.009318
     11          1           0       -2.762911   -0.739723   -0.809274
 ---------------------------------------------------------------------
 Rotational constants (GHZ):          28.7467994           2.4267192           2.2646320

 **********************************************************************

            Population analysis using the SCF Density.

 **********************************************************************

 Orbital symmetries:
       Occupied  (A) (A) (A) (A) (A) (A) (A) (A) (A) (A) (A) (A)
                 (A) (A) (A) (A) (A)
       Virtual   (A) (A) (A) (A) (A) (A) (A) (A) (A) (A) (A) (A)
                 (A) (A) (A) (A) (A) (A) (A) (A) (A) (A) (A) (A)
                 (A) (A) (A) (A) (A) (A) (A) (A) (A) (A) (A) (A)
                 (A) (A) (A) (A) (A) (A) (A) (A) (A) (A) (A) (A)
                 (A) (A) (A) (A) (A) (A) (A) (A) (A) (A) (A) (A)
                 (A) (A) (A) (A) (A) (A) (A) (A) (A) (A) (A) (A)
                 (A) (A) (A) (A) (A) (A) (A) (A) (A) (A) (A) (A)
                 (A) (A) (A) (A) (A) (A) (A) (A) (A) (A) (A) (A)
                 (A) (A) (A) (A) (A) (A) (A) (A) (A) (A) (A) (A)
                 (A) (A) (A) (A) (A) (A) (A) (A) (A) (A) (A) (A)
                 (A) (A) (A) (A) (A) (A) (A) (A) (A) (A) (A) (A)
                 (A) (A) (A) (A) (A) (A) (A) (A) (A) (A) (A) (A)
                 (A) (A) (A) (A) (A) (A) (A) (A) (A) (A) (A) (A)
                 (A) (A) (A) (A) (A) (A) (A) (A) (A) (A) (A) (A)
                 (A) (A) (A) (A) (A) (A) (A) (A) (A) (A) (A) (A)
                 (A) (A) (A) (A) (A) (A) (A) (A) (A) (A) (A) (A)
                 (A) (A) (A) (A) (A) (A) (A) (A) (A) (A) (A) (A)
                 (A) (A) (A) (A) (A) (A) (A) (A) (A) (A) (A) (A)
                 (A) (A) (A) (A) (A) (A) (A) (A) (A) (A) (A) (A)
                 (A) (A) (A) (A) (A) (A) (A) (A) (A) (A) (A) (A)
                 (A) (A) (A) (A) (A) (A) (A) (A) (A) (A) (A) (A)
                 (A) (A) (A) (A) (A) (A) (A) (A) (A) (A) (A) (A)
                 (A) (A) (A) (A) (A) (A) (A) (A) (A) (A) (A) (A)
                 (A) (A) (A) (A) (A) (A) (A) (A) (A) (A) (A) (A)
                 (A) (A) (A) (A) (A) (A) (A) (A) (A) (A) (A) (A)
                 (A) (A) (A) (A) (A) (A) (A) (A) (A) (A) (A) (A)
                 (A) (A) (A) (A) (A) (A) (A) (A) (A) (A) (A) (A)
                 (A) (A) (A) (A)
 The electronic state is 1-A.
 Alpha  occ. eigenvalues --  -20.54965 -15.58023 -11.27517 -11.18805  -1.36769
 Alpha  occ. eigenvalues --   -1.18373  -0.99836  -0.76999  -0.71733  -0.66866
 Alpha  occ. eigenvalues --   -0.66793  -0.59681  -0.55571  -0.54420  -0.49852
 Alpha  occ. eigenvalues --   -0.46503  -0.31964
 Alpha virt. eigenvalues --    0.01840   0.03880   0.04127   0.04491   0.05677
 Alpha virt. eigenvalues --    0.06018   0.07633   0.10850   0.11681   0.12016
 Alpha virt. eigenvalues --    0.12085   0.14252   0.14803   0.14843   0.15549
 Alpha virt. eigenvalues --    0.16362   0.17906   0.18291   0.18336   0.18959
 Alpha virt. eigenvalues --    0.20888   0.20968   0.22094   0.22677   0.25605
 Alpha virt. eigenvalues --    0.25777   0.27586   0.28214   0.29692   0.31132
 Alpha virt. eigenvalues --    0.31570   0.32416   0.33816   0.34751   0.34910
 Alpha virt. eigenvalues --    0.35804   0.37995   0.38100   0.38332   0.38828
 Alpha virt. eigenvalues --    0.39202   0.40608   0.41044   0.41566   0.41778
 Alpha virt. eigenvalues --    0.43226   0.43347   0.44515   0.44987   0.45059
 Alpha virt. eigenvalues --    0.45897   0.46653   0.47480   0.50454   0.51968
 Alpha virt. eigenvalues --    0.52092   0.52497   0.53472   0.55377   0.55591
 Alpha virt. eigenvalues --    0.58253   0.59544   0.61134   0.61207   0.62032
 Alpha virt. eigenvalues --    0.64289   0.64409   0.68021   0.71243   0.74361
 Alpha virt. eigenvalues --    0.75347   0.76972   0.78705   0.80453   0.82333
 Alpha virt. eigenvalues --    0.82846   0.83602   0.86292   0.87181   0.87872
 Alpha virt. eigenvalues --    0.88044   0.88860   0.90169   0.90523   0.91371
 Alpha virt. eigenvalues --    0.91862   0.92148   0.92336   0.93171   0.95131
 Alpha virt. eigenvalues --    0.95611   0.96903   0.97072   0.98633   0.99489
 Alpha virt. eigenvalues --    1.00152   1.01624   1.02954   1.03117   1.03932
 Alpha virt. eigenvalues --    1.04429   1.05468   1.06350   1.07059   1.07187
 Alpha virt. eigenvalues --    1.07890   1.11317   1.11818   1.11907   1.14510
 Alpha virt. eigenvalues --    1.15387   1.16088   1.16206   1.17439   1.20505
 Alpha virt. eigenvalues --    1.22167   1.22386   1.25352   1.25553   1.26086
 Alpha virt. eigenvalues --    1.29369   1.29692   1.30204   1.32334   1.33313
 Alpha virt. eigenvalues --    1.37239   1.38089   1.41803   1.43565   1.43718
 Alpha virt. eigenvalues --    1.44438   1.47176   1.49451   1.49951   1.50998
 Alpha virt. eigenvalues --    1.53516   1.57123   1.60044   1.60753   1.62971
 Alpha virt. eigenvalues --    1.63524   1.65316   1.66111   1.68069   1.69409
 Alpha virt. eigenvalues --    1.71207   1.73631   1.74095   1.77865   1.80160
 Alpha virt. eigenvalues --    1.80404   1.82668   1.84011   1.84958   1.87417
 Alpha virt. eigenvalues --    1.88448   1.90502   1.91761   1.92078   1.97213
 Alpha virt. eigenvalues --    1.97433   1.99166   2.02072   2.05881   2.06091
 Alpha virt. eigenvalues --    2.08076   2.09288   2.10406   2.11986   2.13620
 Alpha virt. eigenvalues --    2.15209   2.19674   2.21390   2.24844   2.28182
 Alpha virt. eigenvalues --    2.28445   2.31724   2.34246   2.42184   2.42529
 Alpha virt. eigenvalues --    2.45582   2.46538   2.46939   2.47392   2.50211
 Alpha virt. eigenvalues --    2.52052   2.58200   2.61821   2.65057   2.66546
 Alpha virt. eigenvalues --    2.69361   2.74494   2.77593   2.85749   2.86016
 Alpha virt. eigenvalues --    3.02854   3.04631   3.05247   3.10567   3.16205
 Alpha virt. eigenvalues --    3.20815   3.23115   3.27922   3.29261   3.34569
 Alpha virt. eigenvalues --    3.37145   3.38759   3.41447   3.47588   3.48486
 Alpha virt. eigenvalues --    3.49309   3.54170   3.59842   3.61030   3.70726
 Alpha virt. eigenvalues --    3.71160   3.72486   3.73268   3.82409   3.82860
 Alpha virt. eigenvalues --    3.85500   3.88039   3.88864   3.96827   3.97738
 Alpha virt. eigenvalues --    3.99776   4.02176   4.05393   4.10711   4.13794
 Alpha virt. eigenvalues --    4.14166   4.15603   4.17326   4.17550   4.18035
 Alpha virt. eigenvalues --    4.19631   4.21486   4.22838   4.27465   4.28189
 Alpha virt. eigenvalues --    4.32877   4.33572   4.35052   4.36970   4.41886
 Alpha virt. eigenvalues --    4.44592   4.47321   4.47784   4.49113   4.51856
 Alpha virt. eigenvalues --    4.54685   4.56159   4.56380   4.59118   4.59774
 Alpha virt. eigenvalues --    4.60082   4.64746   4.68312   4.69396   4.74613
 Alpha virt. eigenvalues --    4.74726   4.78159   4.82102   4.84335   4.90796
 Alpha virt. eigenvalues --    4.92665   4.94408   4.94481   4.95825   4.97506
 Alpha virt. eigenvalues --    4.97710   5.02821   5.03682   5.06894   5.09752
 Alpha virt. eigenvalues --    5.13910   5.16255   5.16814   5.23864   5.30500
 Alpha virt. eigenvalues --    5.34291   5.39601   5.41704   5.42982   5.47672
 Alpha virt. eigenvalues --    5.50239   5.53569   5.54427   5.59310   5.68208
 Alpha virt. eigenvalues --    5.69460   5.78644   5.86840   5.89835   5.90485
 Alpha virt. eigenvalues --    5.92709   6.04735   6.28899   6.32156   6.32364
 Alpha virt. eigenvalues --    6.34478   6.39354   6.45601   6.57883   6.70476
 Alpha virt. eigenvalues --    6.73130   6.76446   6.83256   6.89793   6.93434
 Alpha virt. eigenvalues --    6.96204   7.00068   7.12534   7.35634   7.42049
 Alpha virt. eigenvalues --    7.47754   7.68015   7.74047   7.75240   7.78549
 Alpha virt. eigenvalues --    7.80718   8.07668   8.36487   8.63826  16.04763
 Alpha virt. eigenvalues --   17.34480  18.04110  18.39497
          Condensed to atoms (all electrons):
               1          2          3          4          5          6
     1  C    5.655257   0.083770   0.240414   0.271215  -0.007440  -0.086751
     2  C    0.083770   6.287661  -0.038902  -0.083436   0.361890   0.404446
     3  H    0.240414  -0.038902   0.415751   0.000639  -0.040375   0.014055
     4  O    0.271215  -0.083436   0.000639   8.352007  -0.009457   0.002567
     5  H   -0.007440   0.361890  -0.040375  -0.009457   0.371445  -0.043576
     6  H   -0.086751   0.404446   0.014055   0.002567  -0.043576   0.286652
     7  H    0.066936  -0.041698  -0.080468   0.078737   0.009197  -0.008491
     8  N    0.010549  -0.010255   0.009012  -0.041403  -0.001007   0.000045
     9  H   -0.000315  -0.000261   0.000771  -0.000227  -0.000107   0.000045
    10  H    0.000213  -0.000644  -0.000488  -0.007907   0.000006  -0.000037
    11  H   -0.000301  -0.000257   0.000847  -0.000146  -0.000106   0.000044
               7          8          9         10         11
     1  C    0.066936   0.010549  -0.000315   0.000213  -0.000301
     2  C   -0.041698  -0.010255  -0.000261  -0.000644  -0.000257
     3  H   -0.080468   0.009012   0.000771  -0.000488   0.000847
     4  O    0.078737  -0.041403  -0.000227  -0.007907  -0.000146
     5  H    0.009197  -0.001007  -0.000107   0.000006  -0.000106
     6  H   -0.008491   0.000045   0.000045  -0.000037   0.000044
     7  H    0.534292   0.024272   0.001563   0.002528   0.001388
     8  N    0.024272   6.102846   0.404899   0.412499   0.404750
     9  H    0.001563   0.404899   0.475837  -0.013120  -0.006078
    10  H    0.002528   0.412499  -0.013120   0.501007  -0.013224
    11  H    0.001388   0.404750  -0.006078  -0.013224   0.475611
 Mulliken charges:
               1
     1  C   -0.233547
     2  C   -0.962313
     3  H    0.478743
     4  O   -0.562587
     5  H    0.359531
     6  H    0.431000
     7  H    0.411746
     8  N   -0.316206
     9  H    0.136993
    10  H    0.119167
    11  H    0.137472
 Sum of Mulliken charges =  -0.00000
 Mulliken charges with hydrogens summed into heavy atoms:
               1
     1  C    0.245196
     2  C   -0.171781
     4  O   -0.150841
     8  N    0.077427
 Electronic spatial extent (au):  <R**2>=            538.9803
 Charge=             -0.0000 electrons
 Dipole moment (field-independent basis, Debye):
    X=             -4.3612    Y=             -1.8325    Z=              0.0016  Tot=              4.7305
 Quadrupole moment (field-independent basis, Debye-Ang):
   XX=            -16.4789   YY=            -25.6485   ZZ=            -27.5014
   XY=              0.6767   XZ=              0.0008   YZ=              0.0002
 Traceless Quadrupole moment (field-independent basis, Debye-Ang):
   XX=              6.7307   YY=             -2.4389   ZZ=             -4.2917
   XY=              0.6767   XZ=              0.0008   YZ=              0.0002
 Octapole moment (field-independent basis, Debye-Ang**2):
  XXX=            -41.6337  YYY=             -0.8322  ZZZ=              0.0363  XYY=             -6.8992
  XXY=              2.1165  XXZ=              0.0024  XZZ=            -12.7603  YZZ=             -0.0795
  YYZ=             -0.0286  XYZ=              0.0046
 Hexadecapole moment (field-independent basis, Debye-Ang**3):
 XXXX=           -516.5659 YYYY=            -69.9537 ZZZZ=            -34.9501 XXXY=              0.2133
 XXXZ=              0.0712 YYYX=              2.2464 YYYZ=              0.0278 ZZZX=             -0.0986
 ZZZY=             -0.0120 XXYY=            -93.5585 XXZZ=           -105.5960 YYZZ=            -17.8297
 XXYZ=             -0.0364 YYXZ=              0.0889 ZZXY=              6.7298
 N-N= 1.178027041051D+02 E-N=-7.269393549924D+02  KE= 2.088562909229D+02
 Unable to Open any file for archive entry.
[...]
 04298,-0.00000692,0.00018111,-0.00013869,-0.00079382,0.00137435,0.0000
 2970,0.00053337,-0.00024560,0.00003608,-0.00014444,-0.00018411,-0.0000
 3276,0.09415455,-0.00058507,-0.00032274,-0.00005616,-0.00013089,0.0001
 7006,0.00001657,0.00030437,0.00002094,-0.00006311,0.04197394,-0.004853
 92,0.00006425,-0.00012522,0.00033141,-0.00000396,0.00001627,-0.0001284
 4,0.00002087,-0.00001986,-0.00006015,-0.00005324,0.00014998,-0.0216451
 8,-0.00001197,-0.00009090,0.00002849,0.00013511,0.00007203,0.00002529,
 -0.00004365,-0.00001542,-0.00000624,0.00004774,0.00002574,-0.00000688,
 -0.00017044,-0.00001263,0.00000065,0.00000498,0.00001673,-0.00017087,-
 0.00007190,-0.00000508,-0.00003780,0.00000981,-0.00004815,-0.00001801,
 -0.00000133,0.00002069,0.00014256,0.00000505,0.00001376,-0.00004566,-0
 .00004128,-0.00007288,-0.00004542,0.00003484,-0.00002381,-0.00004820,-
 0.00002492,0.00000936,0.00001112,-0.00003467,0.00007044,0.00011241,-0.
 00005694,0.00001472,-0.00002292,-0.00021035,0.00002887,-0.00000342,0.0
 0003721,0.00002267,-0.00004436,0.00000480,-0.00005518,0.00001290,0.000
 05452,0.00000720,0.00005665,0.00013995,-0.00000259,-0.00004530,0.00002
 578,0.00005847,-0.00009284,-0.00014160,-0.00000896,-0.00000776,0.00000
 962,0.00000398,-0.00001765,0.00000216,-0.00001667,0.00007984,0.0000108
 8,-0.00003092,0.00007121,0.00005876,-0.00002325,0.00003624,-0.00001123
 ,-0.00007356,-0.00034601,-0.00004879,0.00002908,0.00002114,0.00002957,
 -0.00002146,-0.00001613,-0.00000614,-0.00001444,-0.00001344,-0.0000077
 2,0.00009299,0.00032959,0.00042604,-0.00127966,0.00000822,-0.00028308,
 0.00026599,-0.00000168,0.00013425,0.00028446,-0.00000493,-0.09614450,-
 0.04223742,-0.00002610,-0.00003416,0.00002846,0.00000532,0.00003895,-0
 .00000027,-0.00001217,0.09717234,0.00117023,-0.00051034,-0.00000526,-0
 .00017456,0.00001563,-0.00001030,-0.00006635,0.00019658,0.00002097,-0.
 04385566,0.00519373,-0.00001720,-0.00000926,0.00000365,-0.00000922,0.0
 0004819,0.00000917,0.00001283,0.04384248,-0.00529756,-0.00008213,0.000
 02069,-0.00010756,-0.00001661,0.00002662,0.00009589,0.00003533,-0.0000
 2625,0.00004409,0.00002130,-0.00003640,0.02188744,-0.00000040,0.000002
 80,0.00002070,0.00001227,0.00000191,-0.00002015,0.00003745,0.00000768,
 -0.02246812,-0.00045813,0.00026623,0.00000093,0.00007057,-0.00002387,0
 .00000624,0.00013087,0.00008616,0.00000331,0.00219756,0.00077605,-0.00
 000434,0.00000889,-0.00000468,-0.00000203,-0.00000309,0.00000927,-0.00
 000099,-0.00061663,-0.00050762,-0.00000239,-0.01352057,-0.00017448,0.0
 0011378,-0.00000377,0.00006078,-0.00004104,0.00000259,-0.00005370,-0.0
 0000471,-0.00000089,0.00098101,0.00001386,-0.00000529,-0.00000547,-0.0
 0000378,0.00000108,-0.00002115,-0.00000629,-0.00000177,-0.00001779,-0.
 00044560,0.00000845,-0.42842456,1.40701815,0.00000651,-0.00000533,0.00
 002697,-0.00000067,0.00000071,-0.00004373,0.00000357,0.00000633,0.0000
 2166,0.00000009,0.00000455,-0.00036469,0.00000037,0.00000003,0.0000008
 1,-0.00000183,-0.00000155,0.00002156,-0.00001658,-0.00000625,-0.000372
 97,-0.00189577,0.00074323,1.47409378,-0.00001930,0.00013901,0.00006575
 ,0.00002575,-0.00003194,-0.00002680,-0.00005615,-0.00002372,-0.0000121
 7,0.00013366,0.00005361,0.00013968,0.00000271,-0.00000052,-0.00000685,
 -0.00000636,-0.00000656,0.00000993,-0.00020210,-0.00054761,-0.00088019
 ,0.18541670,-0.24546444,-0.38303354,-0.21101566,0.00028514,-0.00027593
 ,0.00003226,-0.00010314,0.00002783,0.00000953,-0.00000018,-0.00003040,
 -0.00001066,-0.00042264,0.00013489,0.00001471,-0.00001217,0.00000322,-
 0.00000941,-0.00000304,-0.00000076,0.00000223,0.00055492,0.00028788,-0
 .00002022,-0.22331417,-0.23464978,-0.77781498,0.23029130,0.21859568,0.
 00051671,-0.00056117,0.00000191,-0.00020703,0.00005073,0.00001841,0.00
 002451,-0.00000391,-0.00002195,-0.00076572,0.00025865,-0.00001967,-0.0
 0002698,0.00000738,0.00000145,-0.00000220,-0.00000078,-0.00000716,0.00
 090934,0.00065674,0.00046448,-0.34526879,-0.76879988,-0.89562927,0.359
 91913,0.78006776,0.88967169,0.00030568,-0.00011007,0.00000345,-0.00006
 292,0.00000224,-0.00000187,0.00002202,-0.00002834,-0.00000177,-0.00012
 554,-0.00017923,-0.00000299,0.00000808,-0.00000176,-0.00000090,0.00000
 904,0.00000103,0.00000073,-0.00031187,0.00066397,0.00000556,-0.3607954
 3,0.92398791,0.01105252,0.01365276,-0.00978031,-0.00743067,0.33367672,
 -0.00040295,0.00078494,0.00000074,0.00022778,-0.00015881,-0.00000022,0
 .00001922,-0.00002288,0.00000203,0.00086319,-0.00046405,-0.00000012,0.
 00004518,-0.00000380,-0.00000015,-0.00001034,0.00001076,-0.00000041,-0
 .00202431,0.00025203,0.00000804,0.87901924,-0.90394562,-0.01431170,0.0
 1332786,0.00088532,0.01083127,-0.90469545,0.90207682,-0.00000395,0.000
 00696,-0.00000146,0.00000213,-0.00000005,-0.00001953,0.00000101,0.0000
 0052,0.00002598,0.00000713,-0.00000417,0.00002171,0.00000027,-0.000000
 06,0.00000419,-0.00000030,-0.00000020,0.00000247,-0.00001838,-0.000000
 18,0.00001104,0.01055005,-0.01437168,0.28582428,0.01616102,-0.02517353
 ,0.00914501,-0.01082764,0.01452565,-0.30448420,-0.00003044,0.00014439,
 -0.00006497,0.00002729,-0.00003200,0.00002757,-0.00006112,-0.00002598,
 0.00001158,0.00013640,0.00005414,-0.00014020,0.00000254,-0.00000024,0.
 00000879,-0.00000769,-0.00000689,-0.00001192,-0.00017947,-0.00056360,0
 .00086982,0.18756934,-0.25086821,0.37388530,0.01206798,0.00250429,-0.0
 0766831,0.01362145,0.01363062,-0.01587135,-0.21314627,0.00029269,-0.00
 028442,-0.00002995,-0.00011245,0.00003291,-0.00000979,0.00000672,-0.00
 003456,0.00001041,-0.00044064,0.00014292,-0.00001410,-0.00001347,0.000
 00390,0.00000995,-0.00000082,-0.00000061,-0.00000224,0.00058348,0.0002
 9515,0.00000668,-0.22788200,-0.26804894,0.79138494,0.00226301,0.015022
 03,-0.02250680,-0.00985997,0.00058526,0.02501674,0.23516345,0.25228635
 ,-0.00051435,0.00055185,-0.00000116,0.00021003,-0.00005121,0.00001770,
 -0.00003085,0.00000464,-0.00001530,0.00075278,-0.00025779,-0.00001740,
 0.00002689,-0.00000770,0.00000211,0.00000092,0.00000079,-0.00000821,-0
 .00088049,-0.00064983,0.00044514,0.33661377,0.78242792,-0.86357831,0.0
 0766405,0.02290231,-0.00362492,0.00720357,-0.01105514,0.00947047,-0.35
 104630,-0.79386583,0.85730986,-0.00020832,0.00042863,-0.00080310,0.000
 13009,0.00029666,0.00010684,0.00013226,-0.00003653,-0.00014133,-0.0000
 4615,0.00021733,-0.00003160,-0.00010175,-0.00005970,0.00012347,-0.0001
 9325,-0.00011101,-0.00007187,0.00012602,0.00030136,-0.00003770,-0.0000
 2482,0.00010460,-0.00003833,0.00013754,-0.00005940,0.00000554,-0.00024
 488,-0.00000795,0.00028058,-0.00016253,-0.00004217,-0.00005247,0.00001
 406,0.00004740,-0.00008756,0.00001107,-0.00006333,0.00012740,0.0000829
 7,-0.00009565,0.00008650,-0.00000610,0.00018126,-0.00027350,0.00014985
 ,-0.00044648,0.00003102,-0.00028316,0.00003738,0.00003658,0.00004188,0
 .00014422,-0.00003378,-0.00017580,-0.00063775,0.00054676,-0.00005517,0
 .00032287,0.00003014,0.00001637,-0.00010268,-0.00014441,-0.00006278,0.
 00016424,-0.00054540,0.00006598,-0.00012548,-0.00006357,-0.00000474,0.
 00001622,0.00005297,0.00002179,-0.00001977,0.00009577,-0.00006637,0.00
 014567,-0.00018560,-0.00003378,0.00008105,0.00002986,0.00023600,-0.000
 14725,0.00002408,-0.00002230,-0.00003133,-0.00000534,0.00001779,-0.000
 03347,-0.00000694,-0.00018193,-0.00008605,-0.00006247,0.00000454,-0.00
 008846,-0.00006505,-0.00007140,0.00000833,-0.00001194,0.00000904,-0.00
 000123,0.00000825,-0.00000120,0.00012366,0.00009489,0.00000517,0.00001
 340,-0.00010956,-0.00004080,-0.00007298,0.00007027,0.00003433,-0.00002
 422,0.00005719,-0.00002514,0.00000976,-0.00004058,-0.00003564,0.000071
 28,0.00002616,0.00004276,-0.00007981,-0.00002252,-0.00022517,0.0000566
 3,-0.00000308,0.00000992,-0.00002540,-0.00004510,-0.00005775,0.0000397
 7,0.00001289,-0.00000042,0.00001515,0.00005708,0.00019875,0.00002230,-
 0.00005085,0.00002658,-0.00003139,0.00001457,-0.00014166,0.00001952,0.
 00001497,0.00000919,0.00003838,0.00001614,0.00000217,0.00001386,0.0000
 3638,0.00001131,-0.00002929,-0.00004644,0.00005884,-0.00002301,0.00003
 944,-0.00001129,-0.00007323,-0.00013091,-0.00004843,0.00003004,-0.0000
 5566,0.00002983,-0.00002207,0.00004185,-0.00000572,-0.00001509,-0.0000
 1781,-0.00000822,0.00009241,0.00016007,-0.00025879,0.00012197,0.000007
 89,0.00015241,-0.00006302,-0.00000158,0.00003217,-0.00009689,-0.000003
 88,0.00061328,0.00005894,-0.00001532,-0.00001529,0.00002358,0.00000575
 ,0.00002334,-0.00001822,-0.00001247,-0.00076963,0.00015890,-0.00001304
 ,-0.00000791,-0.00010090,0.00004198,-0.00000916,0.00001735,0.00004712,
 0.00002082,-0.00016435,-0.00009682,-0.00001374,-0.00001110,-0.00000389
 ,-0.00000990,0.00003225,0.00002014,0.00001277,0.00043389,0.00001438,-0
 .00008184,0.00001997,0.00000621,-0.00001510,0.00002530,0.00004567,0.00
 003296,-0.00002628,-0.00004790,0.00003207,-0.00003403,0.00005913,-0.00
 000081,0.00000323,0.00001105,0.00001238,0.00000179,-0.00003978,0.00002
 657,0.00000720,-0.00015279,0.00020428,-0.00015393,0.00000014,-0.000189
 70,0.00001527,0.00000595,0.00005582,0.00004169,0.00000098,-0.00002383,
 0.00026149,-0.00000758,-0.00001037,0.00000732,-0.00000142,0.00000017,-
 0.00001346,-0.00000101,-0.00040594,-0.00007102,0.00000373,0.59335647,0
 .00022612,-0.00137627,-0.00000148,-0.00027072,0.00038538,0.00000211,-0
 .00013072,0.00018893,-0.00000060,-0.00034187,0.00206276,0.00000388,-0.
 00007627,-0.00000565,0.00000072,0.00004927,-0.00001283,-0.00000152,0.0
 0251514,-0.00172002,-0.00001143,-1.70360430,2.01236320,0.00000087,-0.0
 0001605,-0.00004715,0.00000297,0.00000349,-0.00004006,-0.00000085,0.00
 000879,0.00002831,-0.00000035,0.00002030,0.00042248,0.00000017,-0.0000
 0022,-0.00000375,-0.00000279,-0.00000150,0.00001664,0.00000139,-0.0000
 2491,-0.00093746,-0.01193799,0.03360889,0.33686527,-0.00013904,0.00027
 618,-0.00000886,0.00007135,-0.00007434,0.00001506,0.00000861,-0.000050
 61,0.00000962,0.00027341,-0.00003850,0.00001332,0.00001125,-0.00000202
 ,0.00000099,-0.00001202,-0.00000047,-0.00000757,-0.00017350,-0.0001891
 0,-0.00003006,0.10118656,-0.14160420,-0.24260011,-0.11337141,-0.000080
 44,0.00023016,0.00000365,0.00007621,-0.00005302,0.00001441,-0.00001663
 ,-0.00001578,-0.00001924,0.00030802,-0.00030034,0.00005854,0.00001484,
 0.00000065,-0.00000547,-0.00000313,-0.00000044,-0.00000109,-0.00075201
 ,0.00022916,-0.00017064,-0.13347770,-0.07835071,-0.43421422,0.14644253
 ,0.06506883,0.00018992,-0.00001148,-0.00000268,-0.00005405,-0.00005551
 ,-0.00000212,0.00001043,-0.00005050,0.00002614,-0.00008343,-0.00003225
 ,-0.00026094,-0.00000322,0.00000121,0.00000540,-0.00001170,0.00000491,
 0.00000022,0.00045297,0.00038155,0.00055852,-0.22490821,-0.42108216,-0
 .53869870,0.23607170,0.42932523,0.54772410,0.00028603,-0.00058121,0.00
 000474,-0.00006077,0.00015331,-0.00000150,-0.00000518,0.00007499,-0.00
 000336,-0.00084539,0.00000163,0.00000109,-0.00001259,0.00000106,-0.000
 00085,0.00003397,-0.00000048,0.00000025,0.00098475,0.00009097,-0.00000
 451,-0.79348052,1.98431174,0.02357369,0.00380929,-0.01192536,-0.004627
 83,0.78536465,-0.00015878,0.00104704,-0.00000104,0.00015853,-0.0003412
 4,-0.00000124,0.00011976,-0.00019912,0.00000373,-0.00004586,-0.0012768
 7,-0.00000730,0.00005146,0.00000709,0.00000021,-0.00005298,0.00000826,
 -0.00000001,-0.00148630,0.00124785,0.00001654,1.96946461,-1.83999677,-
 0.03037150,-0.00400374,0.00520621,-0.00043068,-1.96003172,1.82916250,0
 .00000102,0.00001188,0.00002295,0.00000005,-0.00000241,0.00002876,0.00
 000336,-0.00000266,-0.00007348,-0.00000121,-0.00001269,0.00013188,0.00
 000026,0.,-0.00000421,-0.00000073,-0.00000007,-0.00001329,-0.00000997,
 0.00001290,-0.00005002,0.02344797,-0.03046644,0.70982316,-0.00054642,-
 0.00344299,-0.00701677,-0.02332133,0.03000565,-0.69589129,-0.00014894,
 0.00028460,0.00000730,0.00007426,-0.00007524,-0.00001383,0.00001049,-0
 .00005394,-0.00000707,0.00028940,-0.00003642,-0.00001411,0.00001142,-0
 .00000173,0.00000052,-0.00001306,-0.00000045,0.00000579,-0.00018234,-0
 .00019690,0.00002459,0.09930710,-0.14107428,0.23096299,0.00833549,-0.0
 0058632,-0.00703658,0.00392573,-0.00401495,0.00042700,-0.11160953,-0.0
 0008249,0.00023330,-0.00000154,0.00007272,-0.00005130,-0.00001383,-0.0
 0000809,-0.00002123,0.00001756,0.00030733,-0.00030028,-0.00005900,0.00
 001453,0.00000096,0.00000590,-0.00000208,0.00000015,0.00000080,-0.0007
 3698,0.00023359,0.00016836,-0.13246988,-0.09353808,0.43098695,-0.00075
 574,0.00798527,-0.00805031,-0.01209492,0.00513508,0.00389683,0.1457556
 1,0.08032256,-0.00018787,0.00000846,-0.00000820,0.00005529,0.00005516,
 -0.00000097,-0.00001469,0.00005183,0.00002888,0.00008078,0.00002690,-0
 .00025341,0.00000330,-0.00000139,0.00000603,0.00001178,-0.00000513,-0.
 00000095,-0.00045136,-0.00036963,0.00054740,0.21339743,0.41794802,-0.5
 0742870,0.00708233,0.00845180,-0.00233320,0.00437961,0.00078567,-0.006
 95772,-0.22435659,-0.42695170,0.51640084,-0.00010798,0.00060182,-0.000
 40941,0.00013168,0.00029605,-0.00007256,-0.00004060,-0.00006691,-0.000
 14048,0.00009768,0.00013829,-0.00026667,-0.00010404,-0.00002445,0.0004
 2159,-0.00019553,-0.00011190,-0.00005287,0.00012688,0.00030259,0.00000
 060,-0.00001507,-0.00027789,-0.00003971,0.00014565,0.00004473,0.000006
 44,-0.00014538,0.00004501,0.00012312,-0.00016078,-0.00008271,0.0000971
 2,0.00001434,0.00020262,-0.00014372,0.00001341,-0.00006258,0.00010296,
 0.00008148,-0.00009622,0.00013176,-0.00000730,0.00018106,-0.00022698,0
 .00037966,-0.00030740,0.00002883,-0.00026402,0.00005554,0.00003708,-0.
 00007308,0.00007923,-0.00003371,-0.00063495,-0.00075602,0.00054076,-0.
 00005465,0.00039277,-0.00004665,0.00001530,-0.00001268,-0.00006708,-0.
 00006339,0.00013405,-0.00042730,0.00006509,-0.00012526,0.00008755,-0.0
 0000473,0.00001648,-0.00000699,0.00002092,-0.00001930,0.00005479,-0.00
 006529,0.00014761,-0.00020009,-0.00001090,-0.00000189,0.00002841,0.000
 20675,-0.00011285,0.00002548,-0.00006454,-0.00002114,-0.00000604,-0.00
 000607,-0.00000303,-0.00000677,-0.00008845,-0.00013267,-0.00001901,0.0
 0000512,-0.00005959,-0.00025722,-0.00007194,0.00002190,0.00000570,0.00
 000974,0.00001685,-0.00000503,-0.00000141,0.00013657,0.00024335,0.0000
 0538,0.00001418,-0.00013225,-0.00004195,-0.00007205,-0.00004933,0.0000
 3491,-0.00002549,0.00002030,-0.00002503,0.00000927,0.00001377,-0.00003
 460,0.00007059,0.00018837,0.00005654,-0.00010555,-0.00002270,-0.000203
 90,0.00001152,-0.00000311,0.00003525,-0.00002260,-0.00004494,-0.000028
 07,0.00004507,0.00001291,-0.00000545,-0.00000355,0.00005697,0.00011226
 ,0.00005038,-0.00001422,0.00002628,-0.00011222,0.00006131,-0.00014135,
 -0.00001807,-0.00000908,0.00000927,0.00003149,0.00002078,0.00000219,-0
 .00000275,0.00002161,0.00001135,0.00007509,-0.00007212,0.00005881,-0.0
 0002346,0.00006140,-0.00001064,-0.00007318,-0.00006807,-0.00004916,0.0
 0002967,0.00001113,0.00002967,-0.00002150,0.00000417,-0.00000646,-0.00
 001472,-0.00003920,-0.00000792,0.00009260,0.00007915,-0.00039036,0.000
 01000,0.00000836,0.00010108,-0.00001127,-0.00000265,0.00006256,-0.0001
 0149,-0.00000375,0.00041091,0.00012738,-0.00001291,-0.00003549,0.00001
 586,0.00000556,0.00003908,-0.00001872,-0.00001214,0.00006513,-0.000072
 66,0.00020617,-0.00000811,-0.00001849,-0.00002173,-0.00000852,0.000050
 82,0.00003198,0.00002051,0.00013158,-0.00012344,-0.00001548,0.00001820
 ,0.00000326,-0.00000937,-0.00001248,-0.00001119,0.00001267,-0.00004828
 ,-0.00016366,-0.00008406,0.00002127,-0.00007415,-0.00001453,0.00002612
 ,0.00010238,0.00003695,-0.00002749,-0.00004386,0.00003579,-0.00003309,
 0.00001291,-0.00000060,0.00000286,-0.00000850,0.00001204,0.00000103,-0
 .00005801,0.00001747,0.00000903,-0.00002021,0.00065554,-0.00048119,0.0
 0000290,-0.00020794,0.00000349,0.00000607,0.00009608,0.00000639,0.0000
 0032,0.00043181,0.00025897,-0.00000622,-0.00001224,0.00000710,-0.00000
 238,0.00000196,-0.00000140,-0.00000072,-0.00026257,0.00080149,-0.00000
 432,-0.68977813,-0.00049927,0.00029383,0.00000155,0.00016273,-0.000008
 02,0.00000067,-0.00005565,0.00006432,0.00000141,0.00011804,-0.00010785
 ,-0.00001606,0.00000823,0.00000303,0.00000141,0.00001064,0.00000515,-0
 .00000111,-0.00090864,-0.00117935,0.00002165,0.90952243,0.83232406,0.0
 0000692,0.00000279,0.00004931,0.00000292,-0.00000429,-0.00002448,-0.00
 000833,0.00000412,-0.00013106,0.00000594,-0.00001077,0.00105816,0.0000
 0113,0.00000010,-0.00002710,-0.00000388,-0.00000073,0.00001775,-0.0000
 1145,0.00001606,-0.00237630,0.00824141,-0.03632437,2.80696882,-0.00014
 170,0.00016580,0.00005601,0.00003731,-0.00003331,-0.00001996,-0.000010
 31,-0.00003534,-0.00000234,-0.00041264,-0.00012239,0.00013326,0.000000
 92,0.00000114,-0.00000558,-0.00000434,0.00000027,0.00000997,0.00025866
 ,-0.00025210,-0.00043238,0.33952530,-0.44170424,-0.64425921,-0.3375099
 3,0.00034768,-0.00033262,0.00001623,-0.00011611,0.00003954,-0.00004473
 ,0.00002223,-0.00001945,0.00006954,-0.00026233,0.00015735,-0.00039231,
 -0.00001587,0.00000308,0.00001064,0.00000300,-0.00000167,0.00001342,0.
 00062359,0.00062051,0.00066136,-0.43087753,-0.38677026,-1.33706877,0.4
 2593153,0.39252337,0.00010041,-0.00001715,0.00000804,-0.00003952,-0.00
 002568,-0.00000748,0.00004990,-0.00004562,0.00002154,0.00021072,0.0000
 5483,-0.00041441,-0.00000136,-0.00000231,0.00001488,-0.00000732,-0.000
 00373,-0.00000477,-0.00003986,0.00031506,0.00098533,-0.62907334,-1.341
 13931,-1.41345075,0.63358777,1.33667091,1.39642693,-0.00023259,0.00028
 789,0.00000383,0.00008901,-0.00003754,-0.00000165,-0.00001995,-0.00003
 003,-0.00000176,0.00061840,0.00006161,-0.00000184,0.00001435,-0.000005
 11,-0.00000080,0.00000303,-0.00000368,0.00000065,-0.00053058,-0.000338
 95,0.00000162,0.00232757,-0.01107320,0.00015431,0.00146333,0.00253619,
 -0.00223002,-0.00508293,-0.00007225,0.00020318,-0.00000057,0.00004453,
 -0.00005899,-0.00000008,0.00000067,-0.00005606,0.00000162,0.00025711,-
 0.00009007,0.00000187,0.00001092,-0.00000336,-0.00000040,-0.00000416,0
 .00000099,-0.00000026,-0.00032035,-0.00000342,-0.00000445,-0.03476387,
 0.00408522,-0.00007659,0.01431719,-0.00201391,0.00577973,0.00603843,-0
 .00013469,0.00000203,-0.00000002,0.00002104,0.00000050,0.00000107,-0.0
 0002074,-0.00000204,0.00000110,0.00003671,-0.00000146,-0.00000296,-0.0
 0020617,-0.00000020,0.00000005,0.00000359,-0.00000032,-0.00000006,0.00
 000316,-0.00000474,-0.00000288,0.00050989,-0.00013612,-0.00006444,-0.0
 1770517,0.00841802,-0.00109744,0.01058619,-0.00019498,0.00048355,-0.00
 374517,-0.00015221,0.00017385,-0.00005713,0.00003872,-0.00003329,0.000
 02096,-0.00001163,-0.00003962,0.00000463,-0.00042216,-0.00012566,-0.00
 013441,0.00000077,0.00000133,0.00000751,-0.00000603,-0.00000013,-0.000
 01207,0.00028180,-0.00025897,0.00043201,0.34722268,-0.45558110,0.63587
 021,-0.00320660,0.00180762,-0.00255739,0.00135033,0.01449178,-0.008080
 69,-0.34509566,0.00034963,-0.00032493,-0.00001706,-0.00011878,0.000039
 27,0.00004562,0.00002087,-0.00002573,-0.00007098,-0.00025448,0.0001485
 3,0.00040169,-0.00001621,0.00000330,-0.00001014,0.00000283,-0.00000161
 ,-0.00001413,0.00063196,0.00064098,-0.00067829,-0.44447585,-0.44871013
 ,1.37346244,0.00173144,-0.00420595,-0.00158673,0.00256441,-0.00192891,
 0.00068203,0.43956418,0.45436515,-0.00010415,0.00000607,0.00000103,0.0
 0004006,0.00002921,-0.00000445,-0.00004257,0.00004839,0.00002257,-0.00
 022254,-0.00004065,-0.00040370,0.00000099,0.00000191,0.00001552,0.0000
 0828,0.00000315,-0.00000690,0.00005609,-0.00032898,0.00097050,0.620972
 41,1.37751863,-1.37437915,0.00251442,0.00116113,0.00583447,0.00227064,
 -0.00618441,0.01051664,-0.62549362,-1.37221444,1.35743349\\@
 The archive entry for this job was punched.


 I FIND THAT THE THREE TRULY GREAT TIMES FOR THINKING THOUGHTS
 ARE WHEN I AM STANDING IN THE SHOWER, SITTING ON THE JOHN, OR WALKING.

                                    -- COLIN FLETCHER
 Job cpu time:      32 days  2 hours 40 minutes 33.3 seconds.
 Elapsed time:       0 days 20 hours 14 minutes  7.4 seconds.
 File lengths (MBytes):  RWF=  30947 Int=      0 D2E=      0 Chk=     59 Scr=      1
 Normal termination of Gaussian 16 at Fri Apr  4 16:34:18 2025.
