 Entering Gaussian System, Link 0=g16
 Input=enolc_nh3_mp2_avtz_opt_anharm.gjf
 Output=enolc_nh3_mp2_avtz_opt_anharm.log
 Initial command:
 /sw/contrib/chem-src/g16/c01/g16/l1.exe "/scr/Gau-43752.inp" -scrdir="/scr/"
 Entering Link 1 = /sw/contrib/chem-src/g16/c01/g16/l1.exe PID=     43753.
  
 Copyright (c) 1988-2019, Gaussian, Inc.  All Rights Reserved.
  
 This is part of the Gaussian(R) 16 program.  It is based on
 the Gaussian(R) 09 system (copyright 2009, Gaussian, Inc.),
 the Gaussian(R) 03 system (copyright 2003, Gaussian, Inc.),
 the Gaussian(R) 98 system (copyright 1998, Gaussian, Inc.),
 the Gaussian(R) 94 system (copyright 1995, Gaussian, Inc.),
 the Gaussian 92(TM) system (copyright 1992, Gaussian, Inc.),
 the Gaussian 90(TM) system (copyright 1990, Gaussian, Inc.),
 the Gaussian 88(TM) system (copyright 1988, Gaussian, Inc.),
 the Gaussian 86(TM) system (copyright 1986, Carnegie Mellon
 University), and the Gaussian 82(TM) system (copyright 1983,
 Carnegie Mellon University). Gaussian is a federally registered
 trademark of Gaussian, Inc.
  
 This software contains proprietary and confidential information,
 including trade secrets, belonging to Gaussian, Inc.
  
 This software is provided under written license and may be
 used, copied, transmitted, or stored only in accord with that
 written license.
  
 The following legend is applicable only to US Government
 contracts under FAR:
  
                    RESTRICTED RIGHTS LEGEND
  
 Use, reproduction and disclosure by the US Government is
 subject to restrictions as set forth in subparagraphs (a)
 and (c) of the Commercial Computer Software - Restricted
 Rights clause in FAR 52.227-19.
  
 Gaussian, Inc.
 340 Quinnipiac St., Bldg. 40, Wallingford CT 06492
  
  
 ---------------------------------------------------------------
 Warning -- This program may not be used in any manner that
 competes with the business of Gaussian, Inc. or will provide
 assistance to any competitor of Gaussian, Inc.  The licensee
 of this program is prohibited from giving any competitor of
 Gaussian, Inc. access to this program.  By using this program,
 the user acknowledges that Gaussian, Inc. is engaged in the
 business of creating and licensing software in the field of
 computational chemistry and represents and warrants to the
 licensee that it is not a competitor of Gaussian, Inc. and that
 it will not use this program in any manner prohibited above.
 ---------------------------------------------------------------
  

 Cite this work as:
 Gaussian 16, Revision C.01,
 M. J. Frisch, G. W. Trucks, H. B. Schlegel, G. E. Scuseria, 
 M. A. Robb, J. R. Cheeseman, G. Scalmani, V. Barone, 
 G. A. Petersson, H. Nakatsuji, X. Li, M. Caricato, A. V. Marenich, 
 J. Bloino, B. G. Janesko, R. Gomperts, B. Mennucci, H. P. Hratchian, 
 J. V. Ortiz, A. F. Izmaylov, J. L. Sonnenberg, D. Williams-Young, 
 F. Ding, F. Lipparini, F. Egidi, J. Goings, B. Peng, A. Petrone, 
 T. Henderson, D. Ranasinghe, V. G. Zakrzewski, J. Gao, N. Rega, 
 G. Zheng, W. Liang, M. Hada, M. Ehara, K. Toyota, R. Fukuda, 
 J. Hasegawa, M. Ishida, T. Nakajima, Y. Honda, O. Kitao, H. Nakai, 
 T. Vreven, K. Throssell, J. A. Montgomery, Jr., J. E. Peralta, 
 F. Ogliaro, M. J. Bearpark, J. J. Heyd, E. N. Brothers, K. N. Kudin, 
 V. N. Staroverov, T. A. Keith, R. Kobayashi, J. Normand, 
 K. Raghavachari, A. P. Rendell, J. C. Burant, S. S. Iyengar, 
 J. Tomasi, M. Cossi, J. M. Millam, M. Klene, C. Adamo, R. Cammi, 
 J. W. Ochterski, R. L. Martin, K. Morokuma, O. Farkas, 
 J. B. Foresman, and D. J. Fox, Gaussian, Inc., Wallingford CT, 2019.
 
 ******************************************
 Gaussian 16:  EM64L-G16RevC.01  3-Jul-2019
                 3-Apr-2025 
 ******************************************
 %nprocshared=40
 Will use up to   40 processors via shared memory.
 %mem=50gb
 --------------------------------------------------------------------
 # MP2/aug-cc-pVTZ opt freq=(vibrot,anharmonic,SelectAnharmonicModes)
 --------------------------------------------------------------------
 1/18=20,19=15,38=1,80=1/1,3;
 2/9=110,12=2,17=6,18=5,40=1/2;
 3/5=16,6=1,7=10,11=9,25=1,30=1,71=1/1,2,3;
 4//1;
 5/5=2,38=5/2;
 8/6=4,10=1/1;
 9/15=2,16=-3/6;
 10/5=1/2;
 6/7=2,8=2,9=2,10=2/1;
 7/12=2/1,2,3,16;
 1/18=20,19=15,80=1/3(2);
 2/9=110/2;
 99//99;
 2/9=110/2;
 3/5=16,6=1,7=10,11=9,25=1,30=1,71=1/1,2,3;
 4/5=5,16=3,69=1/1;
 5/5=2,38=5/2;
 8/6=4,10=1/1;
 9/15=2,16=-3/6;
 10/5=1/2;
 7/12=2/1,2,3,16;
 1/18=20,19=15,80=1/3(-8);
 2/9=110/2;
 6/7=2,8=2,9=2,10=2/1;
 99/9=10/99;
 ----
 blah
 ----
 Symbolic Z-matrix:
 Charge =  0 Multiplicity = 1
 C                    -1.35318  -0.29079   0.00033 
 C                    -1.32483   1.04845  -0.00012 
 H                    -2.29262  -0.82906   0.00095 
 O                    -0.29879  -1.13336  -0.00032 
 H                    -2.25598   1.59175   0.00022 
 H                    -0.39805   1.60323  -0.00104 
 H                     0.54124  -0.61767  -0.00065 
 N                     2.18528   0.22644   0.0001 
 H                     2.31176   0.81473  -0.8149 
 H                     2.3097    0.81613   0.8144 
 H                     2.94535  -0.44328   0.00165 
 
 Add virtual bond connecting atoms N8         and H7         Dist= 3.49D+00.

 GradGradGradGradGradGradGradGradGradGradGradGradGradGradGradGradGradGrad
 Berny optimization.
 Initialization pass.
                           ----------------------------
                           !    Initial Parameters    !
                           ! (Angstroms and Degrees)  !
 --------------------------                            --------------------------
 ! Name  Definition              Value          Derivative Info.                !
 --------------------------------------------------------------------------------
 ! R1    R(1,2)                  1.3395         estimate D2E/DX2                !
 ! R2    R(1,3)                  1.0827         estimate D2E/DX2                !
 ! R3    R(1,4)                  1.3497         estimate D2E/DX2                !
 ! R4    R(2,5)                  1.0781         estimate D2E/DX2                !
 ! R5    R(2,6)                  1.0801         estimate D2E/DX2                !
 ! R6    R(4,7)                  0.9857         estimate D2E/DX2                !
 ! R7    R(7,8)                  1.8481         estimate D2E/DX2                !
 ! R8    R(8,9)                  1.0131         estimate D2E/DX2                !
 ! R9    R(8,10)                 1.0131         estimate D2E/DX2                !
 ! R10   R(8,11)                 1.013          estimate D2E/DX2                !
 ! A1    A(2,1,3)              121.0246         estimate D2E/DX2                !
 ! A2    A(2,1,4)              127.4158         estimate D2E/DX2                !
 ! A3    A(3,1,4)              111.5596         estimate D2E/DX2                !
 ! A4    A(1,2,5)              119.0497         estimate D2E/DX2                !
 ! A5    A(1,2,6)              122.118          estimate D2E/DX2                !
 ! A6    A(5,2,6)              118.8323         estimate D2E/DX2                !
 ! A7    A(1,4,7)              109.8256         estimate D2E/DX2                !
 ! A8    A(7,8,9)              112.0848         estimate D2E/DX2                !
 ! A9    A(7,8,10)             112.0514         estimate D2E/DX2                !
 ! A10   A(7,8,11)             111.4381         estimate D2E/DX2                !
 ! A11   A(9,8,10)             107.0556         estimate D2E/DX2                !
 ! A12   A(9,8,11)             106.9456         estimate D2E/DX2                !
 ! A13   A(10,8,11)            106.9444         estimate D2E/DX2                !
 ! A14   L(4,7,8,2,-1)         184.3682         estimate D2E/DX2                !
 ! A15   L(4,7,8,2,-2)         179.9544         estimate D2E/DX2                !
 ! D1    D(3,1,2,5)              0.004          estimate D2E/DX2                !
 ! D2    D(3,1,2,6)           -179.9817         estimate D2E/DX2                !
 ! D3    D(4,1,2,5)            179.9821         estimate D2E/DX2                !
 ! D4    D(4,1,2,6)             -0.0036         estimate D2E/DX2                !
 ! D5    D(2,1,4,7)              0.0344         estimate D2E/DX2                !
 ! D6    D(3,1,4,7)           -179.9858         estimate D2E/DX2                !
 ! D7    D(1,4,8,9)            -60.8449         estimate D2E/DX2                !
 ! D8    D(1,4,8,10)            60.6356         estimate D2E/DX2                !
 ! D9    D(1,4,8,11)           179.8765         estimate D2E/DX2                !
 --------------------------------------------------------------------------------
 Trust Radius=3.00D-01 FncErr=1.00D-07 GrdErr=1.00D-07 EigMax=2.50D+02 EigMin=1.00D-04
 Number of steps in this run=     44 maximum allowed number of steps=    100.
 GradGradGradGradGradGradGradGradGradGradGradGradGradGradGradGradGradGrad

                          Input orientation:                          
 ---------------------------------------------------------------------
 Center     Atomic      Atomic             Coordinates (Angstroms)
 Number     Number       Type             X           Y           Z
 ---------------------------------------------------------------------
      1          6           0       -1.353182   -0.290786    0.000325
      2          6           0       -1.324831    1.048445   -0.000121
      3          1           0       -2.292618   -0.829064    0.000948
      4          8           0       -0.298788   -1.133360   -0.000317
      5          1           0       -2.255977    1.591745    0.000215
      6          1           0       -0.398047    1.603228   -0.001036
      7          1           0        0.541240   -0.617666   -0.000645
      8          7           0        2.185282    0.226443    0.000097
      9          1           0        2.311764    0.814729   -0.814899
     10          1           0        2.309695    0.816133    0.814402
     11          1           0        2.945352   -0.443279    0.001651
 ---------------------------------------------------------------------
                    Distance matrix (angstroms):
                    1          2          3          4          5
     1  C    0.000000
     2  C    1.339531   0.000000
     3  H    1.082720   2.112262   0.000000
     4  O    1.349696   2.411024   2.016917   0.000000
     5  H    2.087813   1.078057   2.421086   3.355113   0.000000
     6  H    2.121220   1.080145   3.083091   2.738388   1.857966
     7  H    1.922417   2.501629   2.841732   0.985691   3.564537
     8  N    3.576067   3.605077   4.600618   2.831902   4.646378
     9  H    3.913896   3.734074   4.956611   3.357615   4.704511
    10  H    3.912117   3.731916   4.954762   3.356855   4.702110
    11  H    4.301238   4.523241   5.252158   3.316724   5.585262
                    6          7          8          9         10
     6  H    0.000000
     7  H    2.411354   0.000000
     8  N    2.927307   1.848079   0.000000
     9  H    2.937206   2.418578   1.013063   0.000000
    10  H    2.935358   2.418163   1.013067   1.629303   0.000000
    11  H    3.920015   2.410430   1.013033   1.628119   1.628110
                   11
    11  H    0.000000
 Stoichiometry    C2H7NO
 Framework group  C1[X(C2H7NO)]
 Deg. of freedom    27
 Full point group                 C1      NOp   1
 Largest Abelian subgroup         C1      NOp   1
 Largest concise Abelian subgroup C1      NOp   1
                         Standard orientation:                         
 ---------------------------------------------------------------------
 Center     Atomic      Atomic             Coordinates (Angstroms)
 Number     Number       Type             X           Y           Z
 ---------------------------------------------------------------------
      1          6           0        1.353182   -0.290786   -0.000325
      2          6           0        1.324831    1.048445    0.000121
      3          1           0        2.292618   -0.829064   -0.000948
      4          8           0        0.298788   -1.133360    0.000317
      5          1           0        2.255977    1.591745   -0.000215
      6          1           0        0.398047    1.603228    0.001036
      7          1           0       -0.541240   -0.617666    0.000645
      8          7           0       -2.185282    0.226443   -0.000097
      9          1           0       -2.311764    0.814729    0.814899
     10          1           0       -2.309695    0.816133   -0.814402
     11          1           0       -2.945352   -0.443279   -0.001651
 ---------------------------------------------------------------------
 Rotational constants (GHZ):          11.3752703           3.5366249           2.7369397
 Standard basis: Aug-CC-pVTZ (5D, 7F)
 There are   395 symmetry adapted cartesian basis functions of A   symmetry.
 There are   345 symmetry adapted basis functions of A   symmetry.
   345 basis functions,   477 primitive gaussians,   395 cartesian basis functions
    17 alpha electrons       17 beta electrons
       nuclear repulsion energy       120.2756424554 Hartrees.
 NAtoms=   11 NActive=   11 NUniq=   11 SFac= 1.00D+00 NAtFMM=   60 NAOKFM=F Big=F
 Integral buffers will be    131072 words long.
 Raffenetti 1 integral format.
 Two-electron integral symmetry is turned on.
 One-electron integrals computed using PRISM.
 NBasis=   345 RedAO= T EigKep=  8.63D-06  NBF=   345
 NBsUse=   345 1.00D-06 EigRej= -1.00D+00 NBFU=   345
 ExpMin= 2.53D-02 ExpMax= 1.53D+04 ExpMxC= 5.22D+02 IAcc=3 IRadAn=         5 AccDes= 0.00D+00
 Harris functional with IExCor=  205 and IRadAn=       5 diagonalized for initial guess.
 HarFok:  IExCor=  205 AccDes= 0.00D+00 IRadAn=         5 IDoV= 1 UseB2=F ITyADJ=14
 ICtDFT=  3500011 ScaDFX=  1.000000  1.000000  1.000000  1.000000
 FoFCou: FMM=F IPFlag=           0 FMFlag=      100000 FMFlg1=           0
         NFxFlg=           0 DoJE=T BraDBF=F KetDBF=T FulRan=T
         wScrn=  0.000000 ICntrl=       500 IOpCl=  0 I1Cent=   200000004 NGrid=           0
         NMat0=    1 NMatS0=      1 NMatT0=    0 NMatD0=    1 NMtDS0=    0 NMtDT0=    0
 Petite list used in FoFCou.
 Keep R1 ints in memory in canonical form, NReq=1812230791.
 Requested convergence on RMS density matrix=1.00D-08 within 128 cycles.
 Requested convergence on MAX density matrix=1.00D-06.
 Requested convergence on             energy=1.00D-06.
 No special actions if energy rises.
 SCF Done:  E(RHF) =  -209.186480580     A.U. after   12 cycles
            NFock= 12  Conv=0.34D-08     -V/T= 2.0016
 ExpMin= 2.53D-02 ExpMax= 1.53D+04 ExpMxC= 5.22D+02 IAcc=3 IRadAn=         5 AccDes= 0.00D+00
 HarFok:  IExCor=  205 AccDes= 0.00D+00 IRadAn=         5 IDoV=-2 UseB2=F ITyADJ=14
 ICtDFT= 12500011 ScaDFX=  1.000000  1.000000  1.000000  1.000000
 Range of M.O.s used for correlation:     5   345
 NBasis=   345 NAE=    17 NBE=    17 NFC=     4 NFV=     0
 NROrb=    341 NOA=    13 NOB=    13 NVA=   328 NVB=   328

 **** Warning!!: The largest alpha MO coefficient is  0.53304928D+02

 Disk-based method using ON**2 memory for 13 occupieds at a time.
 Estimated scratch disk usage=  1498753925 words.
 Actual    scratch disk usage=  1373080965 words.
 JobTyp=1 Pass  1:  I=   5 to  17 NPSUse= 40 ParTrn=T ParDer=T DoDerP=T.
 (rs|ai) integrals will be sorted in core.
 Spin components of T(2) and E(2):
     alpha-alpha T2 =       0.2925691370D-01 E2=     -0.9728103669D-01
     alpha-beta  T2 =       0.1778135164D+00 E2=     -0.6321880217D+00
     beta-beta   T2 =       0.2925691370D-01 E2=     -0.9728103669D-01
 ANorm=    0.1111902578D+01
 E2 =    -0.8267500951D+00 EUMP2 =    -0.21001323067550D+03
          IDoAtm=11111111111
          Differentiating once with respect to electric field.
                with respect to dipole field.
          Differentiating once with respect to nuclear coordinates.
 Keep R1 ints in memory in canonical form, NReq=1812232950.
          There are     1 degrees of freedom in the 1st order CPHF.  IDoFFX=0 NUNeed=     1.
 LinEq1:  Iter=  0 NonCon=     1 RMS=2.67D-03 Max=7.79D-02 NDo=     1
 AX will form     1 AO Fock derivatives at one time.
 LinEq1:  Iter=  1 NonCon=     1 RMS=7.13D-04 Max=6.96D-03 NDo=     1
 LinEq1:  Iter=  2 NonCon=     1 RMS=2.36D-04 Max=3.77D-03 NDo=     1
 LinEq1:  Iter=  3 NonCon=     1 RMS=7.32D-05 Max=1.08D-03 NDo=     1
 LinEq1:  Iter=  4 NonCon=     1 RMS=2.75D-05 Max=5.05D-04 NDo=     1
 LinEq1:  Iter=  5 NonCon=     1 RMS=6.77D-06 Max=1.47D-04 NDo=     1
 LinEq1:  Iter=  6 NonCon=     1 RMS=2.22D-06 Max=2.55D-05 NDo=     1
 LinEq1:  Iter=  7 NonCon=     1 RMS=5.27D-07 Max=6.15D-06 NDo=     1
 LinEq1:  Iter=  8 NonCon=     1 RMS=1.11D-07 Max=1.12D-06 NDo=     1
 LinEq1:  Iter=  9 NonCon=     1 RMS=2.86D-08 Max=3.80D-07 NDo=     1
 LinEq1:  Iter= 10 NonCon=     1 RMS=8.52D-09 Max=8.20D-08 NDo=     1
 LinEq1:  Iter= 11 NonCon=     1 RMS=3.14D-09 Max=7.39D-08 NDo=     1
 LinEq1:  Iter= 12 NonCon=     1 RMS=6.32D-10 Max=9.49D-09 NDo=     1
 LinEq1:  Iter= 13 NonCon=     1 RMS=9.59D-11 Max=1.08D-09 NDo=     1
 LinEq1:  Iter= 14 NonCon=     0 RMS=1.68D-11 Max=2.00D-10 NDo=     1
 Linear equations converged to 1.000D-10 1.000D-09 after    14 iterations.
 End of Minotr F.D. properties file   721 does not exist.
 End of Minotr F.D. properties file   722 does not exist.
 End of Minotr F.D. properties file   788 does not exist.

 **********************************************************************

            Population analysis using the SCF Density.

 **********************************************************************

 Orbital symmetries:
       Occupied  (A) (A) (A) (A) (A) (A) (A) (A) (A) (A) (A) (A)
                 (A) (A) (A) (A) (A)
       Virtual   (A) (A) (A) (A) (A) (A) (A) (A) (A) (A) (A) (A)
                 (A) (A) (A) (A) (A) (A) (A) (A) (A) (A) (A) (A)
                 (A) (A) (A) (A) (A) (A) (A) (A) (A) (A) (A) (A)
                 (A) (A) (A) (A) (A) (A) (A) (A) (A) (A) (A) (A)
                 (A) (A) (A) (A) (A) (A) (A) (A) (A) (A) (A) (A)
                 (A) (A) (A) (A) (A) (A) (A) (A) (A) (A) (A) (A)
                 (A) (A) (A) (A) (A) (A) (A) (A) (A) (A) (A) (A)
                 (A) (A) (A) (A) (A) (A) (A) (A) (A) (A) (A) (A)
                 (A) (A) (A) (A) (A) (A) (A) (A) (A) (A) (A) (A)
                 (A) (A) (A) (A) (A) (A) (A) (A) (A) (A) (A) (A)
                 (A) (A) (A) (A) (A) (A) (A) (A) (A) (A) (A) (A)
                 (A) (A) (A) (A) (A) (A) (A) (A) (A) (A) (A) (A)
                 (A) (A) (A) (A) (A) (A) (A) (A) (A) (A) (A) (A)
                 (A) (A) (A) (A) (A) (A) (A) (A) (A) (A) (A) (A)
                 (A) (A) (A) (A) (A) (A) (A) (A) (A) (A) (A) (A)
                 (A) (A) (A) (A) (A) (A) (A) (A) (A) (A) (A) (A)
                 (A) (A) (A) (A) (A) (A) (A) (A) (A) (A) (A) (A)
                 (A) (A) (A) (A) (A) (A) (A) (A) (A) (A) (A) (A)
                 (A) (A) (A) (A) (A) (A) (A) (A) (A) (A) (A) (A)
                 (A) (A) (A) (A) (A) (A) (A) (A) (A) (A) (A) (A)
                 (A) (A) (A) (A) (A) (A) (A) (A) (A) (A) (A) (A)
                 (A) (A) (A) (A) (A) (A) (A) (A) (A) (A) (A) (A)
                 (A) (A) (A) (A) (A) (A) (A) (A) (A) (A) (A) (A)
                 (A) (A) (A) (A) (A) (A) (A) (A) (A) (A) (A) (A)
                 (A) (A) (A) (A) (A) (A) (A) (A) (A) (A) (A) (A)
                 (A) (A) (A) (A) (A) (A) (A) (A) (A) (A) (A) (A)
                 (A) (A) (A) (A) (A) (A) (A) (A) (A) (A) (A) (A)
                 (A) (A) (A) (A)
 The electronic state is 1-A.
 Alpha  occ. eigenvalues --  -20.55320 -15.57525 -11.28078 -11.19428  -1.37120
 Alpha  occ. eigenvalues --   -1.17888  -0.99935  -0.80708  -0.66534  -0.66372
 Alpha  occ. eigenvalues --   -0.65827  -0.64553  -0.54784  -0.52970  -0.52441
 Alpha  occ. eigenvalues --   -0.45831  -0.32554
 Alpha virt. eigenvalues --    0.02198   0.03967   0.04319   0.04454   0.05462
 Alpha virt. eigenvalues --    0.06313   0.07883   0.10787   0.11046   0.11459
 Alpha virt. eigenvalues --    0.12540   0.13265   0.14411   0.15074   0.15311
 Alpha virt. eigenvalues --    0.15823   0.16799   0.19098   0.19160   0.20277
 Alpha virt. eigenvalues --    0.20398   0.20408   0.22269   0.23558   0.26416
 Alpha virt. eigenvalues --    0.26496   0.27691   0.28680   0.30537   0.31163
 Alpha virt. eigenvalues --    0.31349   0.32478   0.32844   0.34460   0.35229
 Alpha virt. eigenvalues --    0.36634   0.37131   0.38037   0.39146   0.39175
 Alpha virt. eigenvalues --    0.39577   0.39755   0.40738   0.41107   0.42561
 Alpha virt. eigenvalues --    0.43993   0.44548   0.44977   0.46099   0.46617
 Alpha virt. eigenvalues --    0.46994   0.47541   0.47609   0.49935   0.50522
 Alpha virt. eigenvalues --    0.52227   0.52447   0.56451   0.56847   0.58040
 Alpha virt. eigenvalues --    0.59602   0.61223   0.63622   0.63902   0.64127
 Alpha virt. eigenvalues --    0.65438   0.66265   0.68386   0.70445   0.72908
 Alpha virt. eigenvalues --    0.74543   0.75877   0.78206   0.80121   0.81957
 Alpha virt. eigenvalues --    0.83116   0.83630   0.84439   0.86322   0.86977
 Alpha virt. eigenvalues --    0.88284   0.88801   0.89419   0.90437   0.91196
 Alpha virt. eigenvalues --    0.91323   0.92383   0.92782   0.95700   0.96200
 Alpha virt. eigenvalues --    0.96921   0.97576   0.98040   0.99555   1.00788
 Alpha virt. eigenvalues --    1.01768   1.02464   1.02764   1.03069   1.04613
 Alpha virt. eigenvalues --    1.04955   1.05190   1.05872   1.06319   1.08596
 Alpha virt. eigenvalues --    1.10221   1.12261   1.13682   1.14553   1.15213
 Alpha virt. eigenvalues --    1.17077   1.17677   1.17969   1.20007   1.20911
 Alpha virt. eigenvalues --    1.21769   1.24476   1.25791   1.27702   1.28116
 Alpha virt. eigenvalues --    1.28316   1.30242   1.31750   1.32332   1.34569
 Alpha virt. eigenvalues --    1.35838   1.38689   1.38998   1.41398   1.47063
 Alpha virt. eigenvalues --    1.47797   1.49160   1.50272   1.54049   1.54589
 Alpha virt. eigenvalues --    1.54837   1.58913   1.60083   1.60138   1.62930
 Alpha virt. eigenvalues --    1.65589   1.66300   1.68041   1.69188   1.71852
 Alpha virt. eigenvalues --    1.73190   1.74338   1.75245   1.78423   1.80748
 Alpha virt. eigenvalues --    1.82384   1.83740   1.85890   1.86855   1.89651
 Alpha virt. eigenvalues --    1.89974   1.92242   1.93595   1.95024   1.95647
 Alpha virt. eigenvalues --    1.98860   2.00046   2.03255   2.04510   2.07478
 Alpha virt. eigenvalues --    2.09128   2.10286   2.10807   2.14161   2.16509
 Alpha virt. eigenvalues --    2.20228   2.20809   2.24871   2.29320   2.29940
 Alpha virt. eigenvalues --    2.32536   2.33618   2.35487   2.39559   2.43846
 Alpha virt. eigenvalues --    2.44280   2.45931   2.47368   2.51754   2.54324
 Alpha virt. eigenvalues --    2.55304   2.57902   2.62405   2.64152   2.64811
 Alpha virt. eigenvalues --    2.71610   2.73307   2.74451   2.84332   2.92695
 Alpha virt. eigenvalues --    3.00268   3.02927   3.05573   3.11173   3.15575
 Alpha virt. eigenvalues --    3.16846   3.23719   3.28234   3.32938   3.33863
 Alpha virt. eigenvalues --    3.35610   3.44056   3.45128   3.47556   3.48047
 Alpha virt. eigenvalues --    3.54894   3.58951   3.59794   3.63382   3.68336
 Alpha virt. eigenvalues --    3.71930   3.72942   3.74379   3.81374   3.82425
 Alpha virt. eigenvalues --    3.86510   3.88836   3.90398   3.97689   3.98599
 Alpha virt. eigenvalues --    3.99137   4.00277   4.03581   4.06161   4.11964
 Alpha virt. eigenvalues --    4.12958   4.14636   4.18458   4.19893   4.22241
 Alpha virt. eigenvalues --    4.22524   4.23900   4.25463   4.27483   4.31140
 Alpha virt. eigenvalues --    4.32350   4.35137   4.35218   4.40236   4.42146
 Alpha virt. eigenvalues --    4.43892   4.49374   4.49670   4.52513   4.53321
 Alpha virt. eigenvalues --    4.55231   4.56480   4.57393   4.60413   4.61213
 Alpha virt. eigenvalues --    4.64691   4.67491   4.74350   4.75990   4.78316
 Alpha virt. eigenvalues --    4.78470   4.78957   4.81450   4.81958   4.91035
 Alpha virt. eigenvalues --    4.93551   4.95513   4.96633   4.96850   4.99477
 Alpha virt. eigenvalues --    4.99847   5.05227   5.06216   5.07948   5.09228
 Alpha virt. eigenvalues --    5.15294   5.16561   5.18676   5.19831   5.30770
 Alpha virt. eigenvalues --    5.34821   5.35891   5.38831   5.44540   5.48857
 Alpha virt. eigenvalues --    5.48926   5.51197   5.54560   5.61618   5.68872
 Alpha virt. eigenvalues --    5.70467   5.75113   5.89173   5.90535   5.92539
 Alpha virt. eigenvalues --    5.93098   6.08867   6.23402   6.31982   6.32358
 Alpha virt. eigenvalues --    6.35303   6.40492   6.48125   6.64747   6.66604
 Alpha virt. eigenvalues --    6.75255   6.75782   6.82628   6.90025   6.92649
 Alpha virt. eigenvalues --    6.95724   7.01321   7.08419   7.34051   7.44041
 Alpha virt. eigenvalues --    7.47663   7.69338   7.73507   7.77203   7.80980
 Alpha virt. eigenvalues --    7.83216   8.04330   8.28310   8.63514  16.06906
 Alpha virt. eigenvalues --   17.31111  17.78279  18.24901
          Condensed to atoms (all electrons):
               1          2          3          4          5          6
     1  C    5.609517   0.224173   0.169114   0.225877   0.039673  -0.099263
     2  C    0.224173   6.412844  -0.065706  -0.053160   0.381754   0.289977
     3  H    0.169114  -0.065706   0.319071  -0.145365  -0.035735   0.024551
     4  O    0.225877  -0.053160  -0.145365   8.616104   0.023025  -0.039192
     5  H    0.039673   0.381754  -0.035735   0.023025   0.365513  -0.076172
     6  H   -0.099263   0.289977   0.024551  -0.039192  -0.076172   0.320300
     7  H    0.110611  -0.048880   0.016861   0.039975  -0.005903   0.016150
     8  N    0.022131  -0.024327   0.002930  -0.060275  -0.002199  -0.002641
     9  H    0.000259   0.000734   0.000124  -0.000703  -0.000099  -0.001300
    10  H    0.000268   0.000736   0.000124  -0.000678  -0.000101  -0.001285
    11  H    0.002730  -0.002709   0.000214  -0.006289  -0.000068   0.000099
               7          8          9         10         11
     1  C    0.110611   0.022131   0.000259   0.000268   0.002730
     2  C   -0.048880  -0.024327   0.000734   0.000736  -0.002709
     3  H    0.016861   0.002930   0.000124   0.000124   0.000214
     4  O    0.039975  -0.060275  -0.000703  -0.000678  -0.006289
     5  H   -0.005903  -0.002199  -0.000099  -0.000101  -0.000068
     6  H    0.016150  -0.002641  -0.001300  -0.001285   0.000099
     7  H    0.481064   0.032450   0.002820   0.002824  -0.000827
     8  N    0.032450   6.084447   0.404668   0.404604   0.417097
     9  H    0.002820   0.404668   0.478472  -0.002103  -0.016809
    10  H    0.002824   0.404604  -0.002103   0.478476  -0.016828
    11  H   -0.000827   0.417097  -0.016809  -0.016828   0.538320
 Mulliken charges:
               1
     1  C   -0.305088
     2  C   -1.115435
     3  H    0.713817
     4  O   -0.599318
     5  H    0.310312
     6  H    0.568776
     7  H    0.352855
     8  N   -0.278886
     9  H    0.133936
    10  H    0.133963
    11  H    0.085069
 Sum of Mulliken charges =  -0.00000
 Mulliken charges with hydrogens summed into heavy atoms:
               1
     1  C    0.408729
     2  C   -0.236347
     4  O   -0.246463
     8  N    0.074082
 Electronic spatial extent (au):  <R**2>=            455.2715
 Charge=             -0.0000 electrons
 Dipole moment (field-independent basis, Debye):
    X=             -3.0967    Y=              1.5685    Z=             -0.0009  Tot=              3.4713
 Quadrupole moment (field-independent basis, Debye-Ang):
   XX=            -16.4223   YY=            -27.7026   ZZ=            -27.5089
   XY=             -1.7401   XZ=             -0.0016   YZ=              0.0027
 Traceless Quadrupole moment (field-independent basis, Debye-Ang):
   XX=              7.4556   YY=             -3.8247   ZZ=             -3.6310
   XY=             -1.7401   XZ=             -0.0016   YZ=              0.0027
 Octapole moment (field-independent basis, Debye-Ang**2):
  XXX=            -24.3061  YYY=              1.6459  ZZZ=              0.0034  XYY=             -5.7596
  XXY=             -4.3798  XXZ=             -0.0056  XZZ=             -9.7548  YZZ=             -1.4147
  YYZ=             -0.0012  XYZ=             -0.0023
 Hexadecapole moment (field-independent basis, Debye-Ang**3):
 XXXX=           -343.5779 YYYY=           -147.8213 ZZZZ=            -34.9719 XXXY=             -0.2834
 XXXZ=             -0.0170 YYYX=             -5.0072 YYYZ=              0.0030 ZZZX=             -0.0056
 ZZZY=              0.0017 XXYY=            -80.0440 XXZZ=            -73.4303 YYZZ=            -30.8412
 XXYZ=              0.0189 YYXZ=              0.0029 ZZXY=             -8.0251
 N-N= 1.202756424554D+02 E-N=-7.318221014913D+02  KE= 2.088552094883D+02
 Calling FoFJK, ICntrl=  10002127 FMM=F ISym2X=0 I1Cent= 0 IOpClX= 0 NMat=1 NMatS=1 NMatT=0.
 ***** Axes restored to original set *****
 -------------------------------------------------------------------
 Center     Atomic                   Forces (Hartrees/Bohr)
 Number     Number              X              Y              Z
 -------------------------------------------------------------------
      1        6          -0.000031324    0.000040343   -0.000033200
      2        6          -0.000017969   -0.000017397   -0.000000968
      3        1           0.000014447   -0.000010832    0.000010131
      4        8           0.000010790   -0.000031941    0.000010787
      5        1           0.000011229    0.000014031    0.000007473
      6        1           0.000000335   -0.000002370    0.000002269
      7        1           0.000013505    0.000007725    0.000006179
      8        7           0.000081243    0.000041753   -0.000000010
      9        1          -0.000024388   -0.000016197    0.000001697
     10        1          -0.000026252   -0.000017433   -0.000003203
     11        1          -0.000031617   -0.000007682   -0.000001154
 -------------------------------------------------------------------
 Cartesian Forces:  Max     0.000081243 RMS     0.000023327

 GradGradGradGradGradGradGradGradGradGradGradGradGradGradGradGradGradGrad
 Berny optimization.
 FormGI is forming the generalized inverse of G from B-inverse, IUseBI=4.
 Internal  Forces:  Max     0.000033020 RMS     0.000015255
 Search for a local minimum.
 Step number   1 out of a maximum of   44
 All quantities printed in internal units (Hartrees-Bohrs-Radians)
 Mixed Optimization -- En-DIIS/RFO-DIIS
 Second derivative matrix not updated -- first step.
 ITU=  0
     Eigenvalues ---    0.00230   0.00230   0.00230   0.02357   0.02730
     Eigenvalues ---    0.02889   0.02889   0.05599   0.09428   0.09696
     Eigenvalues ---    0.16000   0.16000   0.16000   0.16000   0.16000
     Eigenvalues ---    0.16000   0.16000   0.22000   0.35668   0.35977
     Eigenvalues ---    0.36230   0.45463   0.45463   0.45468   0.50295
     Eigenvalues ---    0.55086   0.57310
 RFO step:  Lambda=-7.41754480D-08 EMin= 2.30000000D-03
 Linear search not attempted -- first point.
 Iteration  1 RMS(Cart)=  0.00142414 RMS(Int)=  0.00000109
 Iteration  2 RMS(Cart)=  0.00000176 RMS(Int)=  0.00000007
 Iteration  3 RMS(Cart)=  0.00000000 RMS(Int)=  0.00000007
 Variable       Old X    -DE/DX   Delta X   Delta X   Delta X     New X
                                 (Linear)    (Quad)   (Total)
    R1        2.53135  -0.00001   0.00000  -0.00001  -0.00001   2.53134
    R2        2.04605  -0.00001   0.00000  -0.00002  -0.00002   2.04603
    R3        2.55055   0.00003   0.00000   0.00006   0.00006   2.55061
    R4        2.03723  -0.00000   0.00000  -0.00001  -0.00001   2.03723
    R5        2.04118  -0.00000   0.00000  -0.00000  -0.00000   2.04118
    R6        1.86269   0.00001   0.00000   0.00003   0.00003   1.86272
    R7        3.49236  -0.00000   0.00000  -0.00001  -0.00001   3.49235
    R8        1.91441  -0.00001   0.00000  -0.00003  -0.00003   1.91438
    R9        1.91442  -0.00002   0.00000  -0.00004  -0.00004   1.91438
   R10        1.91436  -0.00002   0.00000  -0.00004  -0.00004   1.91431
    A1        2.11228   0.00002   0.00000   0.00012   0.00012   2.11240
    A2        2.22383  -0.00001   0.00000  -0.00002  -0.00002   2.22380
    A3        1.94708  -0.00001   0.00000  -0.00009  -0.00009   1.94699
    A4        2.07781   0.00003   0.00000   0.00016   0.00016   2.07797
    A5        2.13136  -0.00002   0.00000  -0.00009  -0.00009   2.13127
    A6        2.07402  -0.00001   0.00000  -0.00007  -0.00007   2.07395
    A7        1.91682  -0.00000   0.00000  -0.00001  -0.00001   1.91681
    A8        1.95625  -0.00002   0.00000  -0.00013  -0.00013   1.95612
    A9        1.95567  -0.00002   0.00000  -0.00015  -0.00015   1.95552
   A10        1.94496  -0.00002   0.00000  -0.00016  -0.00016   1.94481
   A11        1.86847   0.00003   0.00000   0.00018   0.00018   1.86865
   A12        1.86655   0.00002   0.00000   0.00015   0.00015   1.86670
   A13        1.86653   0.00002   0.00000   0.00015   0.00015   1.86669
   A14        3.21783  -0.00000   0.00000  -0.00015  -0.00015   3.21768
   A15        3.14080   0.00001   0.00000   0.00294   0.00294   3.14374
    D1        0.00007  -0.00000   0.00000  -0.00006  -0.00006   0.00001
    D2       -3.14127  -0.00001   0.00000  -0.00036  -0.00036   3.14155
    D3        3.14128   0.00001   0.00000   0.00052   0.00052  -3.14138
    D4       -0.00006   0.00001   0.00000   0.00023   0.00023   0.00016
    D5        0.00060  -0.00001   0.00000  -0.00029  -0.00029   0.00032
    D6       -3.14134   0.00001   0.00000   0.00026   0.00026  -3.14109
    D7       -1.06194  -0.00000   0.00000  -0.00002  -0.00002  -1.06196
    D8        1.05829   0.00000   0.00000  -0.00004  -0.00004   1.05825
    D9        3.13944   0.00000   0.00000   0.00053   0.00053   3.13996
         Item               Value     Threshold  Converged?
 Maximum Force            0.000033     0.000450     YES
 RMS     Force            0.000015     0.000300     YES
 Maximum Displacement     0.004075     0.001800     NO 
 RMS     Displacement     0.001424     0.001200     NO 
 Predicted change in Energy=-3.708695D-08
 GradGradGradGradGradGradGradGradGradGradGradGradGradGradGradGradGradGrad

                          Input orientation:                          
 ---------------------------------------------------------------------
 Center     Atomic      Atomic             Coordinates (Angstroms)
 Number     Number       Type             X           Y           Z
 ---------------------------------------------------------------------
      1          6           0       -1.353160   -0.290797   -0.000310
      2          6           0       -1.324717    1.048426    0.000287
      3          1           0       -2.292560   -0.829116   -0.001107
      4          8           0       -0.298779   -1.133438    0.000175
      5          1           0       -2.255736    1.591937   -0.000029
      6          1           0       -0.397844    1.603058    0.001120
      7          1           0        0.541281   -0.617768    0.001364
      8          7           0        2.185219    0.226528   -0.000101
      9          1           0        2.310969    0.813702   -0.815992
     10          1           0        2.309972    0.817244    0.813385
     11          1           0        2.945246   -0.443208    0.001828
 ---------------------------------------------------------------------
                    Distance matrix (angstroms):
                    1          2          3          4          5
     1  C    0.000000
     2  C    1.339526   0.000000
     3  H    1.082710   2.112318   0.000000
     4  O    1.349727   2.411034   2.016873   0.000000
     5  H    2.087902   1.078054   2.421334   3.355198   0.000000
     6  H    2.121159   1.080144   3.083087   2.738289   1.857925
     7  H    1.922452   2.501631   2.841713   0.985707   3.564562
     8  N    3.575997   3.604881   4.600532   2.831917   4.646119
     9  H    3.912940   3.733580   4.955338   3.356824   4.703854
    10  H    3.912594   3.731694   4.955523   3.357388   4.701859
    11  H    4.301108   4.523004   5.252005   3.316643   5.584983
                    6          7          8          9         10
     6  H    0.000000
     7  H    2.411229   0.000000
     8  N    2.926952   1.848072   0.000000
     9  H    2.937418   2.418465   1.013047   0.000000
    10  H    2.934203   2.418038   1.013049   1.629381   0.000000
    11  H    3.919625   2.410295   1.013012   1.628177   1.628170
                   11
    11  H    0.000000
 Stoichiometry    C2H7NO
 Framework group  C1[X(C2H7NO)]
 Deg. of freedom    27
 Full point group                 C1      NOp   1
 Largest Abelian subgroup         C1      NOp   1
 Largest concise Abelian subgroup C1      NOp   1
                         Standard orientation:                         
 ---------------------------------------------------------------------
 Center     Atomic      Atomic             Coordinates (Angstroms)
 Number     Number       Type             X           Y           Z
 ---------------------------------------------------------------------
      1          6           0        1.353183   -0.290734    0.000343
      2          6           0        1.324683    1.048489   -0.000254
      3          1           0        2.292607   -0.829012    0.001140
      4          8           0        0.298838   -1.133420   -0.000142
      5          1           0        2.255678    1.592040    0.000062
      6          1           0        0.397786    1.603080   -0.001087
      7          1           0       -0.541244   -0.617786   -0.001331
      8          7           0       -2.185218    0.226440    0.000134
      9          1           0       -2.310993    0.813608    0.816025
     10          1           0       -2.309997    0.817150   -0.813352
     11          1           0       -2.945217   -0.443329   -0.001795
 ---------------------------------------------------------------------
 Rotational constants (GHZ):          11.3743891           3.5369361           2.7370789
 Standard basis: Aug-CC-pVTZ (5D, 7F)
 There are   395 symmetry adapted cartesian basis functions of A   symmetry.
 There are   345 symmetry adapted basis functions of A   symmetry.
   345 basis functions,   477 primitive gaussians,   395 cartesian basis functions
    17 alpha electrons       17 beta electrons
       nuclear repulsion energy       120.2765425093 Hartrees.
 NAtoms=   11 NActive=   11 NUniq=   11 SFac= 1.00D+00 NAtFMM=   60 NAOKFM=F Big=F
 Integral buffers will be    131072 words long.
 Raffenetti 1 integral format.
 Two-electron integral symmetry is turned on.
 One-electron integrals computed using PRISM.
 NBasis=   345 RedAO= T EigKep=  8.63D-06  NBF=   345
 NBsUse=   345 1.00D-06 EigRej= -1.00D+00 NBFU=   345
 Initial guess from the checkpoint file:  "/scr/Gau-43753.chk"
 B after Tr=     0.000000   -0.000000   -0.000000
         Rot=    1.000000   -0.000021   -0.000012   -0.000017 Ang=  -0.00 deg.
 Keep R1 ints in memory in canonical form, NReq=1812230791.
 Requested convergence on RMS density matrix=1.00D-08 within 128 cycles.
 Requested convergence on MAX density matrix=1.00D-06.
 Requested convergence on             energy=1.00D-06.
 No special actions if energy rises.
 SCF Done:  E(RHF) =  -209.186480282     A.U. after    7 cycles
            NFock=  7  Conv=0.59D-08     -V/T= 2.0016
 ExpMin= 2.53D-02 ExpMax= 1.53D+04 ExpMxC= 5.22D+02 IAcc=3 IRadAn=         5 AccDes= 0.00D+00
 HarFok:  IExCor=  205 AccDes= 0.00D+00 IRadAn=         5 IDoV=-2 UseB2=F ITyADJ=14
 ICtDFT= 12500011 ScaDFX=  1.000000  1.000000  1.000000  1.000000
 Range of M.O.s used for correlation:     5   345
 NBasis=   345 NAE=    17 NBE=    17 NFC=     4 NFV=     0
 NROrb=    341 NOA=    13 NOB=    13 NVA=   328 NVB=   328

 **** Warning!!: The largest alpha MO coefficient is  0.53309634D+02

 Disk-based method using ON**2 memory for 13 occupieds at a time.
 Estimated scratch disk usage=  1498753925 words.
 Actual    scratch disk usage=  1373080965 words.
 JobTyp=1 Pass  1:  I=   5 to  17 NPSUse= 40 ParTrn=T ParDer=T DoDerP=T.
 (rs|ai) integrals will be sorted in core.
 Spin components of T(2) and E(2):
     alpha-alpha T2 =       0.2925694655D-01 E2=     -0.9728115083D-01
     alpha-beta  T2 =       0.1778131379D+00 E2=     -0.6321880826D+00
     beta-beta   T2 =       0.2925694655D-01 E2=     -0.9728115083D-01
 ANorm=    0.1111902438D+01
 E2 =    -0.8267503843D+00 EUMP2 =    -0.21001323066586D+03
          IDoAtm=11111111111
          Differentiating once with respect to electric field.
                with respect to dipole field.
          Differentiating once with respect to nuclear coordinates.
 Keep R1 ints in memory in canonical form, NReq=1812232950.
          There are     1 degrees of freedom in the 1st order CPHF.  IDoFFX=0 NUNeed=     1.
 LinEq1:  Iter=  0 NonCon=     1 RMS=2.67D-03 Max=7.79D-02 NDo=     1
 AX will form     1 AO Fock derivatives at one time.
 LinEq1:  Iter=  1 NonCon=     1 RMS=7.13D-04 Max=6.96D-03 NDo=     1
 LinEq1:  Iter=  2 NonCon=     1 RMS=2.36D-04 Max=3.77D-03 NDo=     1
 LinEq1:  Iter=  3 NonCon=     1 RMS=7.32D-05 Max=1.08D-03 NDo=     1
 LinEq1:  Iter=  4 NonCon=     1 RMS=2.75D-05 Max=5.05D-04 NDo=     1
 LinEq1:  Iter=  5 NonCon=     1 RMS=6.77D-06 Max=1.47D-04 NDo=     1
 LinEq1:  Iter=  6 NonCon=     1 RMS=2.22D-06 Max=2.55D-05 NDo=     1
 LinEq1:  Iter=  7 NonCon=     1 RMS=5.27D-07 Max=6.15D-06 NDo=     1
 LinEq1:  Iter=  8 NonCon=     1 RMS=1.11D-07 Max=1.12D-06 NDo=     1
 LinEq1:  Iter=  9 NonCon=     1 RMS=2.86D-08 Max=3.80D-07 NDo=     1
 LinEq1:  Iter= 10 NonCon=     1 RMS=8.51D-09 Max=8.19D-08 NDo=     1
 LinEq1:  Iter= 11 NonCon=     1 RMS=3.13D-09 Max=7.38D-08 NDo=     1
 LinEq1:  Iter= 12 NonCon=     1 RMS=6.32D-10 Max=9.50D-09 NDo=     1
 LinEq1:  Iter= 13 NonCon=     1 RMS=9.59D-11 Max=1.09D-09 NDo=     1
 LinEq1:  Iter= 14 NonCon=     0 RMS=1.68D-11 Max=2.00D-10 NDo=     1
 Linear equations converged to 1.000D-10 1.000D-09 after    14 iterations.
 End of Minotr F.D. properties file   721 does not exist.
 End of Minotr F.D. properties file   722 does not exist.
 End of Minotr F.D. properties file   788 does not exist.
 Calling FoFJK, ICntrl=  10002127 FMM=F ISym2X=0 I1Cent= 0 IOpClX= 0 NMat=1 NMatS=1 NMatT=0.
 ***** Axes restored to original set *****
 -------------------------------------------------------------------
 Center     Atomic                   Forces (Hartrees/Bohr)
 Number     Number              X              Y              Z
 -------------------------------------------------------------------
      1        6          -0.000013304    0.000017977    0.000020269
      2        6          -0.000006111   -0.000011190   -0.000001376
      3        1           0.000002901   -0.000004442   -0.000008337
      4        8           0.000008266   -0.000011047    0.000024155
      5        1           0.000003998    0.000004630   -0.000004953
      6        1           0.000001659    0.000000089    0.000001967
      7        1           0.000002232    0.000005078   -0.000053672
      8        7           0.000048136    0.000024354    0.000024993
      9        1          -0.000024728   -0.000011974    0.000000566
     10        1          -0.000006379   -0.000006679   -0.000003310
     11        1          -0.000016669   -0.000006796   -0.000000303
 -------------------------------------------------------------------
 Cartesian Forces:  Max     0.000053672 RMS     0.000017089

 GradGradGradGradGradGradGradGradGradGradGradGradGradGradGradGradGradGrad
 Berny optimization.
 Using GEDIIS/GDIIS optimizer.
 FormGI is forming the generalized inverse of G from B-inverse, IUseBI=4.
 Internal  Forces:  Max     0.000043798 RMS     0.000011886
 Search for a local minimum.
 Step number   2 out of a maximum of   44
 All quantities printed in internal units (Hartrees-Bohrs-Radians)
 Mixed Optimization -- En-DIIS/RFO-DIIS
 Swapping is turned off.
 Update second derivatives using D2CorX and points    1    2
 DE=  9.64D-09 DEPred=-3.71D-08 R=-2.60D-01
 Trust test=-2.60D-01 RLast= 3.13D-03 DXMaxT set to 1.50D-01
 ITU= -1  0
     Eigenvalues ---    0.00227   0.00230   0.01024   0.02265   0.02780
     Eigenvalues ---    0.02859   0.03018   0.05598   0.09295   0.09586
     Eigenvalues ---    0.09893   0.16000   0.16000   0.16000   0.16000
     Eigenvalues ---    0.16000   0.16410   0.21975   0.35630   0.35979
     Eigenvalues ---    0.36223   0.44556   0.45465   0.45473   0.50087
     Eigenvalues ---    0.54143   0.57290
 En-DIIS/RFO-DIIS/Sim-DIIS IScMMF=       -3 using points:     2    1
 RFO step:  Lambda=-1.68604013D-07.
 DidBck=T Rises=F RFO-DIIS coefs:    0.08028    0.91972
 Iteration  1 RMS(Cart)=  0.00164546 RMS(Int)=  0.00000145
 Iteration  2 RMS(Cart)=  0.00000212 RMS(Int)=  0.00000010
 Iteration  3 RMS(Cart)=  0.00000000 RMS(Int)=  0.00000010
 Variable       Old X    -DE/DX   Delta X   Delta X   Delta X     New X
                                 (Linear)    (Quad)   (Total)
    R1        2.53134  -0.00001   0.00001  -0.00003  -0.00002   2.53132
    R2        2.04603  -0.00000   0.00002  -0.00004  -0.00003   2.04600
    R3        2.55061   0.00001  -0.00006   0.00014   0.00008   2.55070
    R4        2.03723  -0.00000   0.00001  -0.00002  -0.00001   2.03722
    R5        2.04118   0.00000   0.00000  -0.00000  -0.00000   2.04117
    R6        1.86272   0.00000  -0.00003   0.00007   0.00004   1.86276
    R7        3.49235  -0.00000   0.00001  -0.00003  -0.00002   3.49233
    R8        1.91438  -0.00001   0.00003  -0.00008  -0.00005   1.91433
    R9        1.91438  -0.00001   0.00003  -0.00008  -0.00005   1.91433
   R10        1.91431  -0.00001   0.00004  -0.00010  -0.00006   1.91426
    A1        2.11240   0.00001  -0.00011   0.00027   0.00017   2.11256
    A2        2.22380  -0.00001   0.00002  -0.00006  -0.00004   2.22376
    A3        1.94699  -0.00000   0.00009  -0.00021  -0.00013   1.94686
    A4        2.07797   0.00001  -0.00015   0.00037   0.00022   2.07819
    A5        2.13127  -0.00001   0.00009  -0.00022  -0.00013   2.13113
    A6        2.07395  -0.00000   0.00006  -0.00015  -0.00009   2.07386
    A7        1.91681   0.00000   0.00001  -0.00001  -0.00001   1.91680
    A8        1.95612  -0.00003   0.00012  -0.00037  -0.00025   1.95587
    A9        1.95552   0.00000   0.00014  -0.00031  -0.00017   1.95534
   A10        1.94481  -0.00001   0.00014  -0.00038  -0.00023   1.94457
   A11        1.86865   0.00002  -0.00016   0.00042   0.00026   1.86891
   A12        1.86670   0.00002  -0.00013   0.00035   0.00022   1.86691
   A13        1.86669   0.00001  -0.00014   0.00038   0.00024   1.86692
   A14        3.21768   0.00000   0.00014   0.00043   0.00057   3.21825
   A15        3.14374  -0.00004  -0.00270  -0.00063  -0.00333   3.14041
    D1        0.00001   0.00000   0.00006  -0.00012  -0.00006  -0.00005
    D2        3.14155   0.00000   0.00033  -0.00073  -0.00040   3.14115
    D3       -3.14138  -0.00001  -0.00048   0.00101   0.00053  -3.14085
    D4        0.00016  -0.00001  -0.00021   0.00039   0.00019   0.00035
    D5        0.00032  -0.00000   0.00026  -0.00064  -0.00038  -0.00006
    D6       -3.14109  -0.00001  -0.00023   0.00040   0.00016  -3.14093
    D7       -1.06196   0.00000   0.00002   0.00050   0.00052  -1.06144
    D8        1.05825   0.00000   0.00003   0.00065   0.00069   1.05894
    D9        3.13996   0.00000  -0.00048   0.00049   0.00001   3.13997
         Item               Value     Threshold  Converged?
 Maximum Force            0.000044     0.000450     YES
 RMS     Force            0.000012     0.000300     YES
 Maximum Displacement     0.004644     0.001800     NO 
 RMS     Displacement     0.001645     0.001200     NO 
 Predicted change in Energy=-8.430317D-08
 GradGradGradGradGradGradGradGradGradGradGradGradGradGradGradGradGradGrad

                          Input orientation:                          
 ---------------------------------------------------------------------
 Center     Atomic      Atomic             Coordinates (Angstroms)
 Number     Number       Type             X           Y           Z
 ---------------------------------------------------------------------
      1          6           0       -1.353239   -0.290755   -0.000000
      2          6           0       -1.325078    1.048465   -0.000436
      3          1           0       -2.292425   -0.829421    0.001317
      4          8           0       -0.298614   -1.133162   -0.000197
      5          1           0       -2.256083    1.591986    0.000497
      6          1           0       -0.398249    1.603169   -0.001337
      7          1           0        0.541334   -0.617266   -0.000786
      8          7           0        2.185529    0.226510    0.000159
      9          1           0        2.311793    0.814799   -0.814817
     10          1           0        2.309756    0.815868    0.814676
     11          1           0        2.945166   -0.443625    0.001544
 ---------------------------------------------------------------------
                    Distance matrix (angstroms):
                    1          2          3          4          5
     1  C    0.000000
     2  C    1.339517   0.000000
     3  H    1.082696   2.112396   0.000000
     4  O    1.349772   2.411043   2.016815   0.000000
     5  H    2.088024   1.078048   2.421680   3.355313   0.000000
     6  H    2.121074   1.080143   3.083083   2.738144   1.857869
     7  H    1.922503   2.501630   2.841690   0.985729   3.564595
     8  N    3.576373   3.605547   4.600767   2.831903   4.646768
     9  H    3.913904   3.734253   4.956648   3.357437   4.704706
    10  H    3.912269   3.732362   4.954654   3.356535   4.702354
    11  H    4.301123   4.523419   5.251780   3.316259   5.585401
                    6          7          8          9         10
     6  H    0.000000
     7  H    2.411046   0.000000
     8  N    2.927644   1.848063   0.000000
     9  H    2.937278   2.418260   1.013022   0.000000
    10  H    2.935815   2.417885   1.013022   1.629495   0.000000
    11  H    3.920178   2.410097   1.012981   1.628262   1.628266
                   11
    11  H    0.000000
 Stoichiometry    C2H7NO
 Framework group  C1[X(C2H7NO)]
 Deg. of freedom    27
 Full point group                 C1      NOp   1
 Largest Abelian subgroup         C1      NOp   1
 Largest concise Abelian subgroup C1      NOp   1
                         Standard orientation:                         
 ---------------------------------------------------------------------
 Center     Atomic      Atomic             Coordinates (Angstroms)
 Number     Number       Type             X           Y           Z
 ---------------------------------------------------------------------
      1          6           0        1.353255   -0.290905   -0.000058
      2          6           0        1.325182    1.048317    0.000378
      3          1           0        2.292404   -0.829633   -0.001375
      4          8           0        0.298573   -1.133242    0.000138
      5          1           0        2.256224    1.591776   -0.000556
      6          1           0        0.398390    1.603082    0.001279
      7          1           0       -0.541340   -0.617290    0.000728
      8          7           0       -2.185479    0.226595   -0.000217
      9          1           0       -2.311704    0.814893    0.814759
     10          1           0       -2.309667    0.815961   -0.814735
     11          1           0       -2.945160   -0.443489   -0.001602
 ---------------------------------------------------------------------
 Rotational constants (GHZ):          11.3765628           3.5360583           2.7366845
 Standard basis: Aug-CC-pVTZ (5D, 7F)
 There are   395 symmetry adapted cartesian basis functions of A   symmetry.
 There are   345 symmetry adapted basis functions of A   symmetry.
   345 basis functions,   477 primitive gaussians,   395 cartesian basis functions
    17 alpha electrons       17 beta electrons
       nuclear repulsion energy       120.2735894050 Hartrees.
 NAtoms=   11 NActive=   11 NUniq=   11 SFac= 1.00D+00 NAtFMM=   60 NAOKFM=F Big=F
 Integral buffers will be    131072 words long.
 Raffenetti 1 integral format.
 Two-electron integral symmetry is turned on.
 One-electron integrals computed using PRISM.
 NBasis=   345 RedAO= T EigKep=  8.63D-06  NBF=   345
 NBsUse=   345 1.00D-06 EigRej= -1.00D+00 NBFU=   345
 Initial guess from the checkpoint file:  "/scr/Gau-43753.chk"
 B after Tr=     0.000000    0.000000    0.000000
         Rot=    1.000000   -0.000018    0.000039    0.000061 Ang=  -0.01 deg.
 Keep R1 ints in memory in canonical form, NReq=1812230791.
 Requested convergence on RMS density matrix=1.00D-08 within 128 cycles.
 Requested convergence on MAX density matrix=1.00D-06.
 Requested convergence on             energy=1.00D-06.
 No special actions if energy rises.
 SCF Done:  E(RHF) =  -209.186481887     A.U. after    7 cycles
            NFock=  7  Conv=0.66D-08     -V/T= 2.0016
 ExpMin= 2.53D-02 ExpMax= 1.53D+04 ExpMxC= 5.22D+02 IAcc=3 IRadAn=         5 AccDes= 0.00D+00
 HarFok:  IExCor=  205 AccDes= 0.00D+00 IRadAn=         5 IDoV=-2 UseB2=F ITyADJ=14
 ICtDFT= 12500011 ScaDFX=  1.000000  1.000000  1.000000  1.000000
 Range of M.O.s used for correlation:     5   345
 NBasis=   345 NAE=    17 NBE=    17 NFC=     4 NFV=     0
 NROrb=    341 NOA=    13 NOB=    13 NVA=   328 NVB=   328

 **** Warning!!: The largest alpha MO coefficient is  0.53217813D+02

 Disk-based method using ON**2 memory for 13 occupieds at a time.
 Estimated scratch disk usage=  1498753925 words.
 Actual    scratch disk usage=  1373080965 words.
 JobTyp=1 Pass  1:  I=   5 to  17 NPSUse= 40 ParTrn=T ParDer=T DoDerP=T.
 (rs|ai) integrals will be sorted in core.
 Spin components of T(2) and E(2):
     alpha-alpha T2 =       0.2925681354D-01 E2=     -0.9728086293D-01
     alpha-beta  T2 =       0.1778122813D+00 E2=     -0.6321870897D+00
     beta-beta   T2 =       0.2925681354D-01 E2=     -0.9728086293D-01
 ANorm=    0.1111901933D+01
 E2 =    -0.8267488156D+00 EUMP2 =    -0.21001323070213D+03
          IDoAtm=11111111111
          Differentiating once with respect to electric field.
                with respect to dipole field.
          Differentiating once with respect to nuclear coordinates.
 Keep R1 ints in memory in canonical form, NReq=1812232950.
          There are     1 degrees of freedom in the 1st order CPHF.  IDoFFX=0 NUNeed=     1.
 LinEq1:  Iter=  0 NonCon=     1 RMS=2.67D-03 Max=7.79D-02 NDo=     1
 AX will form     1 AO Fock derivatives at one time.
 LinEq1:  Iter=  1 NonCon=     1 RMS=7.13D-04 Max=6.96D-03 NDo=     1
 LinEq1:  Iter=  2 NonCon=     1 RMS=2.36D-04 Max=3.77D-03 NDo=     1
 LinEq1:  Iter=  3 NonCon=     1 RMS=7.32D-05 Max=1.08D-03 NDo=     1
 LinEq1:  Iter=  4 NonCon=     1 RMS=2.75D-05 Max=5.05D-04 NDo=     1
 LinEq1:  Iter=  5 NonCon=     1 RMS=6.77D-06 Max=1.47D-04 NDo=     1
 LinEq1:  Iter=  6 NonCon=     1 RMS=2.22D-06 Max=2.55D-05 NDo=     1
 LinEq1:  Iter=  7 NonCon=     1 RMS=5.27D-07 Max=6.14D-06 NDo=     1
 LinEq1:  Iter=  8 NonCon=     1 RMS=1.11D-07 Max=1.13D-06 NDo=     1
 LinEq1:  Iter=  9 NonCon=     1 RMS=2.86D-08 Max=3.80D-07 NDo=     1
 LinEq1:  Iter= 10 NonCon=     1 RMS=8.51D-09 Max=8.18D-08 NDo=     1
 LinEq1:  Iter= 11 NonCon=     1 RMS=3.13D-09 Max=7.37D-08 NDo=     1
 LinEq1:  Iter= 12 NonCon=     1 RMS=6.31D-10 Max=9.50D-09 NDo=     1
 LinEq1:  Iter= 13 NonCon=     1 RMS=9.58D-11 Max=1.09D-09 NDo=     1
 LinEq1:  Iter= 14 NonCon=     0 RMS=1.68D-11 Max=2.00D-10 NDo=     1
 Linear equations converged to 1.000D-10 1.000D-09 after    14 iterations.
 End of Minotr F.D. properties file   721 does not exist.
 End of Minotr F.D. properties file   722 does not exist.
 End of Minotr F.D. properties file   788 does not exist.
 Calling FoFJK, ICntrl=  10002127 FMM=F ISym2X=0 I1Cent= 0 IOpClX= 0 NMat=1 NMatS=1 NMatT=0.
 ***** Axes restored to original set *****
 -------------------------------------------------------------------
 Center     Atomic                   Forces (Hartrees/Bohr)
 Number     Number              X              Y              Z
 -------------------------------------------------------------------
      1        6           0.000008117   -0.000014669    0.000069893
      2        6           0.000010136   -0.000003939    0.000003668
      3        1          -0.000012608    0.000004891   -0.000022004
      4        8           0.000000927    0.000026862   -0.000037709
      5        1          -0.000005818   -0.000007990   -0.000016956
      6        1           0.000006063    0.000003681   -0.000005436
      7        1          -0.000004837   -0.000012872    0.000014623
      8        7          -0.000004883    0.000006391   -0.000008267
      9        1           0.000001733    0.000002653    0.000002417
     10        1          -0.000000693    0.000001214   -0.000000793
     11        1           0.000001863   -0.000006222    0.000000564
 -------------------------------------------------------------------
 Cartesian Forces:  Max     0.000069893 RMS     0.000016671

 GradGradGradGradGradGradGradGradGradGradGradGradGradGradGradGradGradGrad
 Berny optimization.
 Using GEDIIS/GDIIS optimizer.
 FormGI is forming the generalized inverse of G from B-inverse, IUseBI=4.
 Internal  Forces:  Max     0.000032438 RMS     0.000010624
 Search for a local minimum.
 Step number   3 out of a maximum of   44
 All quantities printed in internal units (Hartrees-Bohrs-Radians)
 Mixed Optimization -- En-DIIS/RFO-DIIS
 Swapping is turned off.
 Update second derivatives using D2CorX and points    1    2    3
 DE= -3.63D-08 DEPred=-8.43D-08 R= 4.30D-01
 Trust test= 4.30D-01 RLast= 3.64D-03 DXMaxT set to 1.50D-01
 ITU=  0 -1  0
     Eigenvalues ---    0.00221   0.00238   0.01531   0.02413   0.02854
     Eigenvalues ---    0.02906   0.04641   0.05593   0.06974   0.09451
     Eigenvalues ---    0.09821   0.16000   0.16000   0.16000   0.16000
     Eigenvalues ---    0.16332   0.16463   0.22118   0.35695   0.36028
     Eigenvalues ---    0.36224   0.44331   0.45467   0.45486   0.50208
     Eigenvalues ---    0.54235   0.57337
 En-DIIS/RFO-DIIS/Sim-DIIS IScMMF=       -3 using points:     3    2    1
 RFO step:  Lambda=-6.96543368D-08.
 DidBck=T Rises=F RFO-DIIS coefs:    0.65055    0.28361    0.06584
 Iteration  1 RMS(Cart)=  0.00120603 RMS(Int)=  0.00000041
 Iteration  2 RMS(Cart)=  0.00000073 RMS(Int)=  0.00000004
 Variable       Old X    -DE/DX   Delta X   Delta X   Delta X     New X
                                 (Linear)    (Quad)   (Total)
    R1        2.53132  -0.00001   0.00001  -0.00001  -0.00001   2.53131
    R2        2.04600   0.00001   0.00001   0.00000   0.00001   2.04601
    R3        2.55070  -0.00002  -0.00003   0.00001  -0.00002   2.55068
    R4        2.03722   0.00000   0.00000  -0.00000   0.00000   2.03722
    R5        2.04117   0.00001   0.00000   0.00001   0.00001   2.04118
    R6        1.86276  -0.00001  -0.00002   0.00000  -0.00001   1.86274
    R7        3.49233   0.00000   0.00001  -0.00000   0.00000   3.49234
    R8        1.91433  -0.00000   0.00002  -0.00002   0.00000   1.91434
    R9        1.91433  -0.00000   0.00002  -0.00002   0.00000   1.91434
   R10        1.91426   0.00001   0.00002  -0.00001   0.00001   1.91427
    A1        2.11256  -0.00000  -0.00007   0.00003  -0.00003   2.11253
    A2        2.22376  -0.00001   0.00002  -0.00004  -0.00002   2.22374
    A3        1.94686   0.00002   0.00005   0.00000   0.00006   1.94692
    A4        2.07819  -0.00001  -0.00009   0.00003  -0.00006   2.07813
    A5        2.13113   0.00001   0.00005  -0.00002   0.00003   2.13117
    A6        2.07386   0.00001   0.00004  -0.00001   0.00003   2.07388
    A7        1.91680  -0.00000   0.00000  -0.00001  -0.00000   1.91680
    A8        1.95587   0.00001   0.00010  -0.00007   0.00002   1.95589
    A9        1.95534  -0.00000   0.00007  -0.00005   0.00002   1.95537
   A10        1.94457  -0.00001   0.00009  -0.00009   0.00000   1.94458
   A11        1.86891  -0.00000  -0.00010   0.00007  -0.00003   1.86888
   A12        1.86691   0.00000  -0.00008   0.00008  -0.00001   1.86690
   A13        1.86692   0.00000  -0.00009   0.00007  -0.00002   1.86690
   A14        3.21825  -0.00001  -0.00019  -0.00128  -0.00147   3.21677
   A15        3.14041   0.00001   0.00097  -0.00025   0.00072   3.14113
    D1       -0.00005   0.00000   0.00003   0.00004   0.00006   0.00001
    D2        3.14115   0.00002   0.00016   0.00026   0.00042   3.14157
    D3       -3.14085  -0.00003  -0.00022  -0.00041  -0.00063  -3.14148
    D4        0.00035  -0.00001  -0.00008  -0.00019  -0.00027   0.00008
    D5       -0.00006   0.00002   0.00015   0.00016   0.00031   0.00025
    D6       -3.14093  -0.00002  -0.00007  -0.00025  -0.00033  -3.14125
    D7       -1.06144   0.00000  -0.00018   0.00039   0.00021  -1.06124
    D8        1.05894  -0.00000  -0.00024   0.00006  -0.00017   1.05877
    D9        3.13997  -0.00000  -0.00004   0.00018   0.00014   3.14012
         Item               Value     Threshold  Converged?
 Maximum Force            0.000032     0.000450     YES
 RMS     Force            0.000011     0.000300     YES
 Maximum Displacement     0.002818     0.001800     NO 
 RMS     Displacement     0.001206     0.001200     NO 
 Predicted change in Energy=-3.481907D-08
 GradGradGradGradGradGradGradGradGradGradGradGradGradGradGradGradGradGrad

                          Input orientation:                          
 ---------------------------------------------------------------------
 Center     Atomic      Atomic             Coordinates (Angstroms)
 Number     Number       Type             X           Y           Z
 ---------------------------------------------------------------------
      1          6           0       -1.353031   -0.290874    0.000139
      2          6           0       -1.324068    1.048327   -0.000226
      3          1           0       -2.292564   -0.828948    0.000737
      4          8           0       -0.298901   -1.133883   -0.000042
      5          1           0       -2.254781    1.592351    0.000094
      6          1           0       -0.396920    1.602507   -0.000804
      7          1           0        0.541337   -0.618473   -0.000272
      8          7           0        2.184774    0.226781    0.000103
      9          1           0        2.310302    0.815086   -0.814978
     10          1           0        2.308720    0.816364    0.814502
     11          1           0        2.945021   -0.442670    0.001366
 ---------------------------------------------------------------------
                    Distance matrix (angstroms):
                    1          2          3          4          5
     1  C    0.000000
     2  C    1.339514   0.000000
     3  H    1.082704   2.112380   0.000000
     4  O    1.349761   2.411018   2.016849   0.000000
     5  H    2.087986   1.078049   2.421594   3.355267   0.000000
     6  H    2.121094   1.080148   3.083091   2.738145   1.857890
     7  H    1.922486   2.501591   2.841707   0.985722   3.564551
     8  N    3.575477   3.603736   4.600122   2.831969   4.644829
     9  H    3.912490   3.731872   4.955262   3.357163   4.701965
    10  H    3.911213   3.730246   4.953896   3.356581   4.700102
    11  H    4.300732   4.521968   5.251810   3.316747   5.583839
                    6          7          8          9         10
     6  H    0.000000
     7  H    2.411033   0.000000
     8  N    2.925367   1.848064   0.000000
     9  H    2.934615   2.418279   1.013024   0.000000
    10  H    2.933127   2.417904   1.013024   1.629482   0.000000
    11  H    3.918077   2.410105   1.012986   1.628262   1.628262
                   11
    11  H    0.000000
 Stoichiometry    C2H7NO
 Framework group  C1[X(C2H7NO)]
 Deg. of freedom    27
 Full point group                 C1      NOp   1
 Largest Abelian subgroup         C1      NOp   1
 Largest concise Abelian subgroup C1      NOp   1
                         Standard orientation:                         
 ---------------------------------------------------------------------
 Center     Atomic      Atomic             Coordinates (Angstroms)
 Number     Number       Type             X           Y           Z
 ---------------------------------------------------------------------
      1          6           0        1.353130   -0.290437   -0.000125
      2          6           0        1.323812    1.048755    0.000241
      3          1           0        2.292805   -0.828263   -0.000723
      4          8           0        0.299223   -1.133725    0.000057
      5          1           0        2.254381    1.593026   -0.000079
      6          1           0        0.396517    1.602691    0.000819
      7          1           0       -0.541152   -0.618538    0.000287
      8          7           0       -2.184813    0.226281   -0.000088
      9          1           0       -2.310496    0.814553    0.814993
     10          1           0       -2.308915    0.815832   -0.814487
     11          1           0       -2.944882   -0.443371   -0.001351
 ---------------------------------------------------------------------
 Rotational constants (GHZ):          11.3703298           3.5385670           2.7378249
 Standard basis: Aug-CC-pVTZ (5D, 7F)
 There are   395 symmetry adapted cartesian basis functions of A   symmetry.
 There are   345 symmetry adapted basis functions of A   symmetry.
   345 basis functions,   477 primitive gaussians,   395 cartesian basis functions
    17 alpha electrons       17 beta electrons
       nuclear repulsion energy       120.2820486196 Hartrees.
 NAtoms=   11 NActive=   11 NUniq=   11 SFac= 1.00D+00 NAtFMM=   60 NAOKFM=F Big=F
 Integral buffers will be    131072 words long.
 Raffenetti 1 integral format.
 Two-electron integral symmetry is turned on.
 One-electron integrals computed using PRISM.
 NBasis=   345 RedAO= T EigKep=  8.63D-06  NBF=   345
 NBsUse=   345 1.00D-06 EigRej= -1.00D+00 NBFU=   345
 Initial guess from the checkpoint file:  "/scr/Gau-43753.chk"
 B after Tr=    -0.000000   -0.000000    0.000000
         Rot=    1.000000   -0.000008   -0.000020   -0.000163 Ang=  -0.02 deg.
 Keep R1 ints in memory in canonical form, NReq=1812230791.
 Requested convergence on RMS density matrix=1.00D-08 within 128 cycles.
 Requested convergence on MAX density matrix=1.00D-06.
 Requested convergence on             energy=1.00D-06.
 No special actions if energy rises.
 SCF Done:  E(RHF) =  -209.186478949     A.U. after    7 cycles
            NFock=  7  Conv=0.37D-08     -V/T= 2.0016
 ExpMin= 2.53D-02 ExpMax= 1.53D+04 ExpMxC= 5.22D+02 IAcc=3 IRadAn=         5 AccDes= 0.00D+00
 HarFok:  IExCor=  205 AccDes= 0.00D+00 IRadAn=         5 IDoV=-2 UseB2=F ITyADJ=14
 ICtDFT= 12500011 ScaDFX=  1.000000  1.000000  1.000000  1.000000
 Range of M.O.s used for correlation:     5   345
 NBasis=   345 NAE=    17 NBE=    17 NFC=     4 NFV=     0
 NROrb=    341 NOA=    13 NOB=    13 NVA=   328 NVB=   328

 **** Warning!!: The largest alpha MO coefficient is  0.53415245D+02

 Disk-based method using ON**2 memory for 13 occupieds at a time.
 Estimated scratch disk usage=  1498753925 words.
 Actual    scratch disk usage=  1373080965 words.
 JobTyp=1 Pass  1:  I=   5 to  17 NPSUse= 40 ParTrn=T ParDer=T DoDerP=T.
 (rs|ai) integrals will be sorted in core.
 Spin components of T(2) and E(2):
     alpha-alpha T2 =       0.2925704824D-01 E2=     -0.9728165406D-01
     alpha-beta  T2 =       0.1778122740D+00 E2=     -0.6321884622D+00
     beta-beta   T2 =       0.2925704824D-01 E2=     -0.9728165406D-01
 ANorm=    0.1111902141D+01
 E2 =    -0.8267517703D+00 EUMP2 =    -0.21001323071894D+03
          IDoAtm=11111111111
          Differentiating once with respect to electric field.
                with respect to dipole field.
          Differentiating once with respect to nuclear coordinates.
 Keep R1 ints in memory in canonical form, NReq=1812232950.
          There are     1 degrees of freedom in the 1st order CPHF.  IDoFFX=0 NUNeed=     1.
 LinEq1:  Iter=  0 NonCon=     1 RMS=2.67D-03 Max=7.79D-02 NDo=     1
 AX will form     1 AO Fock derivatives at one time.
 LinEq1:  Iter=  1 NonCon=     1 RMS=7.13D-04 Max=6.96D-03 NDo=     1
 LinEq1:  Iter=  2 NonCon=     1 RMS=2.36D-04 Max=3.77D-03 NDo=     1
 LinEq1:  Iter=  3 NonCon=     1 RMS=7.32D-05 Max=1.08D-03 NDo=     1
 LinEq1:  Iter=  4 NonCon=     1 RMS=2.75D-05 Max=5.05D-04 NDo=     1
 LinEq1:  Iter=  5 NonCon=     1 RMS=6.77D-06 Max=1.47D-04 NDo=     1
 LinEq1:  Iter=  6 NonCon=     1 RMS=2.22D-06 Max=2.55D-05 NDo=     1
 LinEq1:  Iter=  7 NonCon=     1 RMS=5.27D-07 Max=6.14D-06 NDo=     1
 LinEq1:  Iter=  8 NonCon=     1 RMS=1.11D-07 Max=1.13D-06 NDo=     1
 LinEq1:  Iter=  9 NonCon=     1 RMS=2.86D-08 Max=3.79D-07 NDo=     1
 LinEq1:  Iter= 10 NonCon=     1 RMS=8.51D-09 Max=8.18D-08 NDo=     1
 LinEq1:  Iter= 11 NonCon=     1 RMS=3.13D-09 Max=7.36D-08 NDo=     1
 LinEq1:  Iter= 12 NonCon=     1 RMS=6.31D-10 Max=9.51D-09 NDo=     1
 LinEq1:  Iter= 13 NonCon=     1 RMS=9.58D-11 Max=1.09D-09 NDo=     1
 LinEq1:  Iter= 14 NonCon=     0 RMS=1.68D-11 Max=2.00D-10 NDo=     1
 Linear equations converged to 1.000D-10 1.000D-09 after    14 iterations.
 End of Minotr F.D. properties file   721 does not exist.
 End of Minotr F.D. properties file   722 does not exist.
 End of Minotr F.D. properties file   788 does not exist.
 Calling FoFJK, ICntrl=  10002127 FMM=F ISym2X=0 I1Cent= 0 IOpClX= 0 NMat=1 NMatS=1 NMatT=0.
 ***** Axes restored to original set *****
 -------------------------------------------------------------------
 Center     Atomic                   Forces (Hartrees/Bohr)
 Number     Number              X              Y              Z
 -------------------------------------------------------------------
      1        6           0.000013181   -0.000009191    0.000009319
      2        6           0.000005299    0.000007492    0.000001070
      3        1          -0.000004638    0.000002379   -0.000003475
      4        8           0.000003686   -0.000004304   -0.000004145
      5        1          -0.000003708   -0.000004281   -0.000002456
      6        1          -0.000003567    0.000000158   -0.000000985
      7        1          -0.000016317    0.000017652    0.000001009
      8        7           0.000008085   -0.000008556   -0.000000791
      9        1          -0.000003624   -0.000000298   -0.000000229
     10        1          -0.000002244   -0.000000250    0.000000563
     11        1           0.000003847   -0.000000800    0.000000120
 -------------------------------------------------------------------
 Cartesian Forces:  Max     0.000017652 RMS     0.000006332

 GradGradGradGradGradGradGradGradGradGradGradGradGradGradGradGradGradGrad
 Berny optimization.
 Using GEDIIS/GDIIS optimizer.
 FormGI is forming the generalized inverse of G from B-inverse, IUseBI=4.
 Internal  Forces:  Max     0.000030226 RMS     0.000006796
 Search for a local minimum.
 Step number   4 out of a maximum of   44
 All quantities printed in internal units (Hartrees-Bohrs-Radians)
 Mixed Optimization -- En-DIIS/RFO-DIIS
 Swapping is turned off.
 Update second derivatives using D2CorX and points    1    2    3    4
 DE= -1.68D-08 DEPred=-3.48D-08 R= 4.83D-01
 Trust test= 4.83D-01 RLast= 1.91D-03 DXMaxT set to 1.50D-01
 ITU=  0  0 -1  0
     Eigenvalues ---    0.00199   0.01053   0.01820   0.02398   0.02853
     Eigenvalues ---    0.02907   0.03363   0.05592   0.05718   0.09581
     Eigenvalues ---    0.09820   0.16000   0.16000   0.16000   0.16184
     Eigenvalues ---    0.16331   0.16617   0.22662   0.35701   0.36042
     Eigenvalues ---    0.36226   0.44160   0.45468   0.45489   0.50259
     Eigenvalues ---    0.54355   0.57297
 En-DIIS/RFO-DIIS/Sim-DIIS IScMMF=       -3 using points:     4    3    2    1
 RFO step:  Lambda=-5.22136242D-08.
 DidBck=T Rises=F RFO-DIIS coefs:    0.61566    0.57663    0.23859   -0.43088
 Iteration  1 RMS(Cart)=  0.00099516 RMS(Int)=  0.00000028
 Iteration  2 RMS(Cart)=  0.00000050 RMS(Int)=  0.00000004
 Variable       Old X    -DE/DX   Delta X   Delta X   Delta X     New X
                                 (Linear)    (Quad)   (Total)
    R1        2.53131   0.00000  -0.00001  -0.00000  -0.00001   2.53130
    R2        2.04601   0.00000  -0.00002   0.00002  -0.00000   2.04601
    R3        2.55068  -0.00001   0.00005  -0.00003   0.00002   2.55070
    R4        2.03722   0.00000  -0.00001   0.00000  -0.00000   2.03722
    R5        2.04118  -0.00000  -0.00001   0.00001   0.00000   2.04119
    R6        1.86274  -0.00000   0.00003  -0.00002   0.00001   1.86275
    R7        3.49234   0.00000  -0.00001   0.00001  -0.00000   3.49233
    R8        1.91434  -0.00000  -0.00002   0.00001  -0.00002   1.91432
    R9        1.91434   0.00000  -0.00003   0.00001  -0.00002   1.91432
   R10        1.91427   0.00000  -0.00003   0.00002  -0.00002   1.91425
    A1        2.11253  -0.00001   0.00010  -0.00006   0.00004   2.11256
    A2        2.22374   0.00001  -0.00001  -0.00001  -0.00002   2.22372
    A3        1.94692  -0.00000  -0.00009   0.00007  -0.00001   1.94690
    A4        2.07813  -0.00001   0.00013  -0.00009   0.00004   2.07818
    A5        2.13117   0.00001  -0.00008   0.00005  -0.00003   2.13114
    A6        2.07388   0.00000  -0.00006   0.00004  -0.00002   2.07387
    A7        1.91680   0.00001  -0.00000   0.00001   0.00000   1.91681
    A8        1.95589  -0.00001  -0.00011   0.00003  -0.00009   1.95580
    A9        1.95537  -0.00000  -0.00011   0.00004  -0.00007   1.95530
   A10        1.94458   0.00001  -0.00011   0.00003  -0.00008   1.94450
   A11        1.86888  -0.00000   0.00014  -0.00005   0.00008   1.86896
   A12        1.86690   0.00000   0.00011  -0.00002   0.00008   1.86699
   A13        1.86690   0.00000   0.00012  -0.00003   0.00009   1.86699
   A14        3.21677   0.00003   0.00061   0.00069   0.00130   3.21808
   A15        3.14113   0.00000   0.00035  -0.00006   0.00029   3.14142
    D1        0.00001   0.00000  -0.00006   0.00008   0.00002   0.00003
    D2        3.14157   0.00000  -0.00040   0.00052   0.00013  -3.14148
    D3       -3.14148  -0.00000   0.00057  -0.00078  -0.00021   3.14150
    D4        0.00008  -0.00000   0.00024  -0.00033  -0.00010  -0.00002
    D5        0.00025   0.00000  -0.00031   0.00038   0.00006   0.00031
    D6       -3.14125  -0.00000   0.00027  -0.00041  -0.00015  -3.14140
    D7       -1.06124  -0.00000   0.00001   0.00001   0.00002  -1.06121
    D8        1.05877   0.00000   0.00018   0.00017   0.00035   1.05912
    D9        3.14012   0.00000   0.00017   0.00007   0.00025   3.14036
         Item               Value     Threshold  Converged?
 Maximum Force            0.000030     0.000450     YES
 RMS     Force            0.000007     0.000300     YES
 Maximum Displacement     0.002289     0.001800     NO 
 RMS     Displacement     0.000995     0.001200     YES
 Predicted change in Energy=-2.368942D-08
 GradGradGradGradGradGradGradGradGradGradGradGradGradGradGradGradGradGrad

                          Input orientation:                          
 ---------------------------------------------------------------------
 Center     Atomic      Atomic             Coordinates (Angstroms)
 Number     Number       Type             X           Y           Z
 ---------------------------------------------------------------------
      1          6           0       -1.353209   -0.290779    0.000188
      2          6           0       -1.324917    1.048431   -0.000177
      3          1           0       -2.292453   -0.829358    0.000503
      4          8           0       -0.298631   -1.133243    0.000089
      5          1           0       -2.255879    1.592028   -0.000127
      6          1           0       -0.398030    1.603053   -0.000594
      7          1           0        0.541342   -0.617396   -0.000018
      8          7           0        2.185438    0.226573    0.000088
      9          1           0        2.311198    0.814781   -0.815016
     10          1           0        2.309932    0.816008    0.814500
     11          1           0        2.945100   -0.443530    0.001183
 ---------------------------------------------------------------------
                    Distance matrix (angstroms):
                    1          2          3          4          5
     1  C    0.000000
     2  C    1.339509   0.000000
     3  H    1.082703   2.112397   0.000000
     4  O    1.349771   2.411009   2.016847   0.000000
     5  H    2.088007   1.078048   2.421662   3.355282   0.000000
     6  H    2.121077   1.080150   3.083093   2.738102   1.857881
     7  H    1.922499   2.501580   2.841711   0.985725   3.564547
     8  N    3.576266   3.605280   4.600707   2.831908   4.646479
     9  H    3.913400   3.733615   4.955993   3.357142   4.703865
    10  H    3.912375   3.732270   4.954974   3.356702   4.702388
    11  H    4.301023   4.523162   5.251745   3.316248   5.585130
                    6          7          8          9         10
     6  H    0.000000
     7  H    2.410978   0.000000
     8  N    2.927287   1.848063   0.000000
     9  H    2.936763   2.418211   1.013015   0.000000
    10  H    2.935452   2.417849   1.013015   1.629517   0.000000
    11  H    3.919825   2.410038   1.012978   1.628299   1.628299
                   11
    11  H    0.000000
 Stoichiometry    C2H7NO
 Framework group  C1[X(C2H7NO)]
 Deg. of freedom    27
 Full point group                 C1      NOp   1
 Largest Abelian subgroup         C1      NOp   1
 Largest concise Abelian subgroup C1      NOp   1
                         Standard orientation:                         
 ---------------------------------------------------------------------
 Center     Atomic      Atomic             Coordinates (Angstroms)
 Number     Number       Type             X           Y           Z
 ---------------------------------------------------------------------
      1          6           0        1.353249   -0.290841   -0.000134
      2          6           0        1.324973    1.048369    0.000230
      3          1           0        2.292486   -0.829432   -0.000449
      4          8           0        0.298661   -1.133293   -0.000035
      5          1           0        2.255942    1.591954    0.000181
      6          1           0        0.398093    1.603003    0.000647
      7          1           0       -0.541306   -0.617435    0.000071
      8          7           0       -2.185392    0.226553   -0.000034
      9          1           0       -2.311145    0.814763    0.815069
     10          1           0       -2.309878    0.815990   -0.814447
     11          1           0       -2.945062   -0.443540   -0.001129
 ---------------------------------------------------------------------
 Rotational constants (GHZ):          11.3759208           3.5364219           2.7368661
 Standard basis: Aug-CC-pVTZ (5D, 7F)
 There are   395 symmetry adapted cartesian basis functions of A   symmetry.
 There are   345 symmetry adapted basis functions of A   symmetry.
   345 basis functions,   477 primitive gaussians,   395 cartesian basis functions
    17 alpha electrons       17 beta electrons
       nuclear repulsion energy       120.2752121371 Hartrees.
 NAtoms=   11 NActive=   11 NUniq=   11 SFac= 1.00D+00 NAtFMM=   60 NAOKFM=F Big=F
 Integral buffers will be    131072 words long.
 Raffenetti 1 integral format.
 Two-electron integral symmetry is turned on.
 One-electron integrals computed using PRISM.
 NBasis=   345 RedAO= T EigKep=  8.63D-06  NBF=   345
 NBsUse=   345 1.00D-06 EigRej= -1.00D+00 NBFU=   345
 Initial guess from the checkpoint file:  "/scr/Gau-43753.chk"
 B after Tr=    -0.000000    0.000000   -0.000000
         Rot=    1.000000   -0.000016   -0.000006    0.000139 Ang=  -0.02 deg.
 Keep R1 ints in memory in canonical form, NReq=1812230791.
 Requested convergence on RMS density matrix=1.00D-08 within 128 cycles.
[...]
 ,-0.00021707,-0.00001441,0.00011830,-0.00003547,-0.00002215,0.02899788
 ,-0.00053052,0.00012294,0.00002399,0.00023097,-0.00029769,0.00005029,0
 .00001466,-0.00007831,-0.00002863,0.02267776,0.00660357,-0.00010028,-0
 .00005739,0.00053262,0.00002611,0.00004041,-0.00003452,0.00001497,0.00
 008353,-0.00009435,0.00004234,-0.00003359,-0.00896493,0.00000059,0.000
 01185,0.00000787,-0.00014132,-0.00000806,-0.00014339,0.00007038,-0.000
 00970,0.00003702,-0.00004364,-0.00001886,-0.00000142,0.00004243,-0.000
 16144,0.00006927,0.00002054,0.00006238,-0.00012440,0.00006125,-0.00007
 209,0.00000184,-0.00000151,0.00007689,-0.00006673,-0.00001389,0.000078
 20,0.00008673,0.00004064,-0.00000047,-0.00001235,-0.00010995,-0.000080
 37,-0.00024806,-0.00003774,0.00004334,0.00010584,0.00001149,-0.0000363
 6,-0.00004224,0.00011615,-0.00005352,0.00006734,0.00000610,0.00016281,
 0.00005550,-0.00005686,0.00005958,-0.00022693,0.00000880,0.00001830,0.
 00002029,0.00010947,0.00006676,-0.00001343,0.00000547,-0.00003359,-0.0
 0001035,-0.00041492,0.00017985,-0.00004080,0.00003439,-0.00005453,0.00
 001991,-0.00007708,0.00002627,0.00002404,-0.00007356,-0.00018673,0.000
 08471,-0.00001600,0.00000016,0.00004874,0.00011457,-0.00005295,-0.0000
 6187,-0.00003610,0.00008884,0.00001728,-0.00013767,-0.00004648,0.00003
 521,0.00004903,-0.00005462,-0.00012494,-0.00005886,0.00004487,0.000044
 51,-0.00000963,-0.00001823,0.00016438,0.00017299,-0.00000136,-0.000149
 23,0.00019641,-0.00131012,-0.00000659,0.00010020,0.00016459,0.00000760
 ,-0.00017859,0.00011596,-0.00001771,-0.03093719,-0.02343174,0.00003033
 ,0.00006665,0.00004082,-0.00001481,-0.00002516,0.00012028,0.00002713,0
 .03222931,0.00038455,-0.00054991,0.00000105,0.00003412,0.00020112,-0.0
 0000451,-0.00012650,0.00008585,0.00001582,-0.02450764,-0.00645333,-0.0
 0000555,0.00000265,0.00003545,0.00001315,-0.00006843,0.00004209,-0.000
 00784,0.02562865,0.00642646,-0.00002053,0.00005281,-0.00021680,0.00002
 314,-0.00003007,0.00004011,-0.00000614,-0.00001230,0.00007788,0.000029
 93,-0.00002457,0.00895156,-0.00000697,0.00000516,-0.00004058,0.0000016
 1,0.00002093,0.00001234,-0.00003396,-0.00001876,-0.00968618,-0.0007849
 5,0.00055407,0.00000032,0.00014142,-0.00017564,-0.00000417,0.00006313,
 -0.00004768,-0.00000216,0.00225822,0.00092614,-0.00000107,-0.00000681,
 -0.00004161,0.00000213,-0.00010378,0.00003455,0.00000143,-0.00153946,-
 0.00102566,0.00001299,0.18503311,-0.00034330,0.00032661,0.00000524,0.0
 0004864,-0.00003769,-0.00000037,0.00004095,-0.00003571,-0.00000548,0.0
 0135156,0.00017481,-0.00000131,-0.00003180,-0.00004608,0.00000164,-0.0
 0024955,0.00003724,-0.00000556,-0.00086567,-0.00039615,0.00001027,-0.6
 5133526,1.17658000,0.00000326,-0.00000520,0.00011234,-0.00000498,-0.00
 000007,-0.00014141,-0.00000156,0.00000349,-0.00000624,0.00000562,0.000
 00150,-0.00034748,0.00000097,-0.00000112,0.00003122,-0.00000026,-0.000
 00231,-0.00000145,0.00000616,0.00000780,0.00010429,-0.00055493,-0.0000
 8615,1.53392025,0.00003172,0.00007842,0.00000520,-0.00007212,-0.000133
 24,-0.00000621,0.00001481,-0.00000948,0.00002378,0.00002856,0.00011836
 ,-0.00018307,0.00000493,0.00002118,0.00000435,0.00019366,0.00001568,-0
 .00008261,-0.00015203,-0.00047617,0.00061088,0.27335860,-0.14029737,0.
 21027959,-0.29707227,0.00033150,-0.00031912,-0.00003395,-0.00001788,0.
 00019230,-0.00005290,-0.00004077,0.00002302,0.00001132,-0.00050020,0.0
 0007592,-0.00005483,-0.00002125,-0.00000011,0.00000808,0.00001601,-0.0
 0011650,0.00006333,0.00056337,0.00029378,0.00014125,-0.11802148,-0.337
 58038,0.87153791,0.12307004,0.31892422,-0.00052114,0.00061006,-0.00002
 248,0.00001807,-0.00033357,0.00006682,0.00008299,-0.00004664,0.0000063
 4,0.00087619,-0.00005551,-0.00002366,0.00003914,0.00001057,-0.00001372
 ,0.00002025,0.00009434,-0.00002349,-0.00103097,-0.00075762,0.00035065,
 0.17543084,0.85387115,-0.90640715,-0.18713875,-0.86832976,0.90044310,0
 .00004154,0.00008204,-0.00000169,-0.00008429,-0.00013481,0.00000846,0.
 00001707,-0.00000929,-0.00002457,0.00003093,0.00011892,0.00018347,0.00
 000498,0.00001974,-0.00000239,0.00019148,0.00001449,0.00007464,-0.0001
 4663,-0.00047399,-0.00061062,0.27400804,-0.13929990,-0.20825131,0.0115
 6711,0.00158604,0.00274871,-0.29771027,0.00032608,-0.00032282,0.000035
 44,-0.00001768,0.00019339,0.00005620,-0.00003938,0.00002512,-0.0000124
 6,-0.00050077,0.00007407,0.00005736,-0.00002124,0.00000045,-0.00001103
 ,0.00001934,-0.00011634,-0.00006288,0.00056926,0.00029909,-0.00014309,
 -0.11693634,-0.34023713,-0.87272869,0.00154363,0.01636138,0.02429187,0
 .12201093,0.32159463,0.00052094,-0.00060712,-0.00002271,-0.00002070,0.
 00033523,0.00006505,-0.00007961,0.00004271,0.00000490,-0.00087730,0.00
 005745,-0.00002354,-0.00003911,-0.00001064,-0.00001316,-0.00002038,-0.
 00009422,-0.00002188,0.00103102,0.00075553,0.00034610,-0.17343531,-0.8
 5509658,-0.90454468,-0.00272862,-0.02431022,-0.00398338,0.18511083,0.8
 6953631,0.89854994,0.00039078,-0.00028018,-0.00000806,-0.00002652,0.00
 014874,0.00000332,-0.00002538,0.00002294,0.00000288,-0.00041427,-0.000
 17233,0.00000203,-0.00000412,0.00000912,0.00000048,0.00008598,-0.00009
 687,-0.00000034,0.00038656,0.00062838,-0.00000033,-0.73242748,0.930981
 66,-0.00148255,0.01209703,-0.00696540,0.00947465,0.01208004,-0.0069538
 3,-0.00946175,0.70785734,-0.00040792,0.00066538,-0.00000263,0.00004087
 ,-0.00029601,0.00000080,0.00009461,-0.00006074,0.00000003,0.00088633,-
 0.00024016,0.00000126,0.00001836,-0.00000442,0.00000097,0.00006176,0.0
 0007841,-0.00000007,-0.00159544,0.00001568,-0.00000162,0.88606894,-0.4
 9878553,0.00127281,0.01606895,0.00214548,-0.00935487,0.01608584,0.0021
 2816,0.00939155,-0.91732229,0.49435378,0.00000233,-0.00000048,-0.00004
 386,-0.00000267,-0.00000411,-0.00002095,0.00000064,0.00000175,0.000016
 08,-0.00000167,0.00000057,0.00000203,-0.00000063,0.00000139,0.00000136
 ,0.00000070,0.00000032,0.00004723,0.00000178,0.00000093,0.00006069,-0.
 00145006,0.00130719,0.27728032,-0.02078456,0.02101975,0.00960698,0.020
 76447,-0.02101908,0.00964332,0.00146966,-0.00130823,-0.29659319,-0.001
 38632,0.00081930,-0.00092971,0.00042249,0.00022040,-0.00022592,0.00025
 697,-0.00026506,-0.00012005,0.00023079,-0.00029834,0.00038486,-0.00025
 916,0.00016450,0.00000934,-0.00016193,-0.00022746,0.00013298,0.0004306
 9,0.00024338,-0.00015135,0.00037964,0.00008722,-0.00036888,-0.00019782
 ,0.00001776,0.00008453,-0.00010972,-0.00006273,0.00001715,-0.00005924,
 -0.00001275,0.00006338,-0.00003794,-0.00004361,-0.00013227,-0.00017516
 ,-0.00006053,0.00021036,-0.00010516,0.00011504,-0.00004466,0.00025768,
 0.00003651,-0.00025785,0.00060155,-0.00064004,0.00002215,-0.00007944,0
 .00046811,-0.00000285,-0.00024855,0.00009718,-0.00002139,-0.00091933,-
 0.00051673,0.00056675,0.00002940,0.00013981,-0.00039916,0.00004196,0.0
 0007396,0.00000516,-0.00002373,-0.00011380,-0.00018032,-0.00010871,-0.
 00000607,0.00065776,0.00002134,0.00002754,-0.00025809,0.00002531,0.000
 07422,-0.00009231,0.00011254,-0.00002550,-0.00029294,-0.00009353,0.000
 02735,0.00000661,0.00004713,-0.00022375,-0.00013244,0.00011222,0.00000
 890,0.00003680,-0.00002021,0.00000869,-0.00000267,-0.00001499,-0.00003
 088,0.00009323,0.00001526,-0.00018517,-0.00002914,0.00006235,-0.000095
 91,-0.00000599,-0.00000374,0.00004954,-0.00004737,-0.00001269,0.000182
 07,-0.00007732,0.00004991,-0.00000732,-0.00028883,-0.00010174,-0.00006
 897,0.00009643,-0.00003475,0.00004251,0.00010909,0.00000582,-0.0000322
 3,-0.00016465,0.00010467,-0.00005002,0.00007435,0.00033013,0.00006536,
 0.00005170,-0.00014431,-0.00017880,-0.00021708,0.00003413,0.00005763,0
 .00001991,-0.00014300,0.00003213,-0.00001503,0.00000771,0.00012144,-0.
 00001307,-0.00016407,0.00002878,0.00001591,0.00004393,0.00012588,-0.00
 004419,-0.00009239,0.00002334,0.00001177,-0.00006767,-0.00004310,0.000
 01922,-0.00002178,-0.00000195,0.00004391,0.00010722,-0.00005466,-0.000
 03768,-0.00003959,0.00006876,0.00007444,-0.00012559,-0.00004515,-0.000
 08631,0.00004512,-0.00004929,-0.00006916,-0.00006857,0.00004040,0.0000
 8193,-0.00000313,-0.00001610,0.00006711,0.00014080,0.00002111,0.000037
 38,-0.00009137,-0.00005717,-0.00001775,-0.00013219,-0.00009396,-0.0000
 1480,0.00005298,-0.00004034,-0.00000562,0.00058870,0.00027152,0.000000
 45,0.00002520,-0.00000173,-0.00001169,0.00000979,0.00002366,0.00004438
 ,-0.00010856,-0.00018171,0.00008397,0.00001573,0.00001403,-0.00011404,
 -0.00000453,-0.00005208,0.00003322,0.00000900,0.00037928,-0.00006183,-
 0.00003364,-0.00000458,0.00001515,0.00001026,0.00001745,0.00002440,-0.
 00000091,-0.00001365,-0.00008951,-0.00002600,0.00006463,-0.00058598,0.
 00001731,-0.00002593,0.00024539,-0.00000082,-0.00001236,0.00017428,0.0
 0003805,-0.00004195,0.00000624,-0.00000482,0.00000666,0.00009985,0.000
 01028,0.00001456,-0.00005243,-0.00008282,-0.00004755,0.00001889,0.0005
 0601,-0.00056329,-0.00000325,-0.00000026,0.00050613,-0.00000820,-0.000
 08355,0.00004119,0.00001044,0.00035974,0.00024155,-0.00021175,-0.00005
 354,-0.00004546,-0.00000050,-0.00026604,-0.00012929,0.00000886,-0.0001
 6550,0.00080069,0.00036951,-0.86664507,-0.00028003,-0.00007905,-0.0000
 2308,-0.00002655,-0.00019956,0.00001820,0.00002906,0.00002134,-0.00000
 784,0.00010445,0.00015733,0.00009452,0.00007790,0.00006634,0.00000611,
 -0.00012743,0.00026215,-0.00004006,-0.00074013,-0.00101177,-0.00014736
 ,0.37941240,1.14713190,-0.00016435,0.00009470,0.00013530,-0.00005953,-
 0.00015992,0.00000527,0.00001732,0.00000834,-0.00010390,-0.00007117,-0
 .00007240,0.00108016,0.00004136,0.00003711,0.00007826,0.00001610,0.000
 10080,-0.00022348,-0.00035583,-0.00044845,-0.00226060,0.21339695,0.742
 19816,2.66382318,-0.00017988,0.00017593,-0.00005090,0.00001115,-0.0000
 9736,0.00000351,0.00002216,-0.00001778,0.00003041,-0.00006115,-0.00004
 260,-0.00018549,0.00000102,0.00000510,0.00001697,0.00005812,0.00001831
 ,-0.00006450,-0.00016094,-0.00044306,0.00040141,0.34344448,-0.17469451
 ,0.22997689,-0.34122376,0.00034186,-0.00017693,-0.00002171,-0.00002033
 ,0.00018319,0.00006610,-0.00002647,-0.00000005,-0.00001928,-0.00028035
 ,-0.00002182,0.00031293,-0.00002845,-0.00001422,0.00000730,0.00005167,
 -0.00013802,-0.00008942,0.00051206,0.00063253,-0.00046447,-0.16262823,
 -0.41674412,1.02393663,0.15999829,0.41706246,0.00006576,-0.00001889,-0
 .00004047,-0.00004396,-0.00002122,0.00004358,0.00000402,0.00000036,0.0
 0001588,-0.00019741,-0.00009802,-0.00033253,0.00002195,0.00002622,-0.0
 0003030,-0.00004006,0.00003853,0.00005968,0.00007264,-0.00002639,0.000
 74144,0.21250703,1.02523739,-0.95959455,-0.22062975,-1.03026732,0.9446
 4955,-0.00017678,0.00016324,0.00006258,0.00000567,-0.00010223,-0.00000
 294,-0.00000060,-0.00001548,-0.00004367,-0.00048211,-0.00026391,0.0003
 1488,-0.00002059,-0.00000785,-0.00001867,0.00013724,0.00000586,0.00009
 239,0.00033371,-0.00021192,-0.00066088,0.60342089,-0.30753614,-0.42117
 880,-0.00326372,0.00201241,0.00393440,-0.59519993,0.00040490,-0.000256
 03,0.00002812,-0.00001423,0.00022904,-0.00007026,-0.00003998,0.0000118
 9,0.00002252,-0.00047922,0.00001285,-0.00037605,-0.00002519,-0.0000141
 4,-0.00001438,0.00002271,-0.00015252,0.00010377,0.00059803,0.00057179,
 0.00061418,-0.29836938,-0.66948025,-1.78308961,0.00128911,-0.00268304,
 0.00770747,0.29322460,0.67027148,0.00001553,0.00000104,-0.00004009,0.0
 0010517,0.00016016,0.00003592,-0.00001441,-0.00001358,0.00003180,0.000
 36440,0.00006300,-0.00048891,-0.00006649,-0.00007128,-0.00003117,0.000
 01706,-0.00013653,0.00005761,-0.00002619,0.00048573,0.00112986,-0.4076
 1063,-1.78160016,-1.72593489,-0.00074599,0.00319306,0.00525258,0.41072
 966,1.77054378,1.71023905,-0.00014654,0.00018761,-0.00000469,0.0000024
 6,-0.00016209,0.00002150,0.00003868,-0.00001261,-0.00000426,0.00040372
 ,0.00016936,0.00004911,0.00000905,0.00000859,0.00000304,0.00014040,0.0
 0000339,-0.00003017,-0.00035188,-0.00030438,-0.00006122,-0.08051728,0.
 10378095,-0.02161892,0.00135253,0.00006753,0.00430538,-0.00475378,0.00
 338866,-0.00276812,0.08382256,-0.00022414,0.00027996,0.00001035,0.0000
 7936,-0.00008407,0.00000060,0.00002627,-0.00002571,-0.00000029,0.00045
 789,-0.00005116,-0.00003347,-0.00002047,-0.00003006,-0.00000048,-0.000
 00748,-0.00000564,0.00000690,-0.00045810,-0.00008379,0.00003960,0.0807
 3372,-0.06012438,0.01739463,0.01380857,0.00190001,-0.00257811,0.012731
 45,0.00148892,0.00737477,-0.10712707,0.05673589,0.00012205,-0.00012925
 ,-0.00002989,-0.00001847,0.00003423,-0.00001927,-0.00001511,0.00001047
 ,0.00002624,-0.00018157,0.00011907,-0.00019674,-0.00000186,0.00000624,
 -0.00001021,0.00002938,-0.00000779,0.00005304,0.00039722,0.00004076,0.
 00048306,-0.01845846,0.01426416,0.02299516,-0.00875256,0.00334619,0.00
 923515,0.00677104,0.00453044,0.00974821,0.02010837,-0.02221451,-0.0422
 8478,-0.00134084,0.00070654,-0.00078020,0.00047805,0.00029287,0.000328
 58,0.00023467,-0.00001549,-0.00014949,-0.00018650,0.00014258,0.0003818
 1,-0.00029453,-0.00022564,-0.00028916,-0.00016462,-0.00031841,0.000014
 64,0.00047574,0.00030727,-0.00023778,0.00026528,0.00002064,-0.00037085
 ,-0.00014409,0.00009065,0.00007017,-0.00008414,-0.00001512,-0.00007435
 ,-0.00006757,0.00000526,0.00015243,-0.00003288,-0.00014948,-0.00018105
 ,-0.00017433,-0.00006913,0.00004873,-0.00012087,0.00011920,-0.00001513
 ,0.00029475,0.00004786,-0.00023398,0.00058349,-0.00078633,-0.00000523,
 -0.00005807,0.00026893,-0.00002599,-0.00021738,0.00015365,-0.00002451,
 -0.00052201,-0.00067357,0.00049065,0.00001230,-0.00000848,-0.00031939,
 0.00006025,0.00011897,0.00000325,-0.00003491,0.00016358,-0.00032033,-0
 .00009458,-0.00010751,0.00017186,0.00003836,0.00005255,-0.00009307,-0.
 00000850,0.00008400,0.00003325,-0.00001288,-0.00002673,-0.00015390,0.0
 0002529,0.00005304,-0.00000040,0.00013259,-0.00013982,-0.00014252,0.00
 011660,0.00003146,0.00003198,-0.00005346,0.00002321,0.00000381,-0.0001
 2141,-0.00012756,0.00003855,0.00003314,-0.00010113,0.00000884,0.000052
 90,-0.00009437,0.00002013,0.00000643,0.00007651,-0.00006864,-0.0000210
 3,0.00015817,-0.00007758,0.00002430,0.00000771,-0.00015655,-0.00012078
 ,-0.00008619,0.00005468,-0.00004544,0.00003479,0.00021784,0.00001699,-
 0.00003671,-0.00018633,0.00013194,-0.00006551,-0.00020279,0.00006576,0
 .00021313,0.00006107,0.00013030,-0.00006312,-0.00023594,0.00006622,0.0
 0002787,0.00001419,0.00001788,0.00005157,-0.00000788,-0.00013963,0.000
 06624,0.00000257,-0.00025149,0.00008326,0.00010221,0.00001596,0.000287
 57,0.00009636,-0.00005390,0.00006289,0.00001309,-0.00008010,-0.0000796
 8,0.00008737,0.00000012,-0.00014167,0.00005605,0.00012887,-0.00021940,
 -0.00039418,-0.00002645,0.00010301,0.00004995,-0.00014514,-0.00004717,
 0.00012972,0.00005782,-0.00005052,-0.00021744,-0.00004998,0.00004648,0
 .00012557,-0.00002216,-0.00001065,0.00024592,0.00019574,-0.00003764,-0
 .00032503,-0.00001608,0.00006791,-0.00000075,-0.00003402,-0.00010379,0
 .00003311,0.00004478,-0.00007319,-0.00002763,0.00054855,0.00011345,0.0
 0004059,0.00002496,-0.00000591,-0.00001812,-0.00007104,0.00001124,0.00
 001308,-0.00055984,-0.00012758,-0.00011963,-0.00000649,0.00002647,-0.0
 0004992,-0.00000800,-0.00005572,0.00007934,0.00001883,0.00016388,-0.00
 015018,0.00000833,0.00001857,0.00002937,0.00001669,-0.00004851,0.00005
 211,-0.00001304,0.00034160,0.00033362,-0.00001539,0.00004655,-0.000448
 65,0.00002519,-0.00003189,0.00013271,-0.00001050,-0.00001248,0.0001687
 6,0.00001030,-0.00001801,0.00006304,-0.00000884,0.00000279,0.00003268,
 -0.00000542,0.00002341,-0.00002216,0.00003014,0.00002156,-0.00000381,-
 0.00016273,-0.00002449,0.00000515,0.00003763,0.00012030,-0.00000017,-0
 .00004866,0.00000513,-0.00001508,0.00032163,0.00009314,0.00021287,-0.0
 0004084,-0.00002569,0.00000450,-0.00005002,0.00001835,-0.00000771,-0.0
 0094432,-0.00006769,-0.00034209,1.26262047,0.00062633,-0.00128880,0.00
 002996,-0.00018372,0.00008045,-0.00001797,-0.00013861,0.00012794,-0.00
 000245,-0.00082337,0.00185443,-0.00009727,0.00006062,0.00010187,-0.000
 00334,-0.00001512,0.00020174,0.00002936,0.00215909,-0.00142619,0.00017
 179,-1.76079432,1.25746043,0.00017088,-0.00010897,-0.00000055,0.000041
 27,0.00016302,-0.00004035,-0.00001907,-0.00000237,-0.00002807,0.000064
 00,0.00006799,0.00046313,-0.00003998,-0.00003909,0.00001435,-0.0000131
 3,-0.00010594,0.00002286,0.00040446,0.00048272,-0.00098121,-0.21455163
 ,-0.74269701,0.42308586,-0.00013276,0.00016698,-0.00001132,0.00001951,
 -0.00007568,0.00000380,0.00000531,-0.00001706,0.00000398,-0.00001759,-
 0.00009070,-0.00007016,-0.00002082,-0.00001541,0.00000935,0.00013159,-
 0.00002463,-0.00005926,0.00020363,-0.00008940,0.00014027,0.29088976,-0
 .16378558,0.24427787,-0.30273966,-0.00009404,0.00020583,-0.00003477,0.
 00003664,-0.00003144,-0.00000320,0.00002895,-0.00001962,0.00001072,0.0
 0023288,-0.00016002,-0.00001126,0.00000621,-0.00001046,0.00000285,0.00
 001295,-0.00005366,-0.00000619,-0.00059979,0.00007322,0.00006539,-0.15
 652979,-0.27566567,0.88806222,0.16724053,0.26708136,-0.00008800,0.0000
 1432,0.00001091,-0.00009003,-0.00019395,-0.00005114,0.00002721,0.00001
 250,0.00002777,-0.00012811,0.00009436,-0.00034204,0.00006276,0.0000689
 9,-0.00000556,0.00003866,0.00012179,0.00005489,-0.00037063,-0.00060362
 ,0.00074985,0.23182778,0.87217349,-0.93811953,-0.23803013,-0.87377848,
 0.94546483,-0.00011455,0.00017945,0.00000477,0.00000261,-0.00007257,0.
 00000088,0.00003099,-0.00001784,0.00000791,0.00039873,0.00012897,-0.00
 005640,0.00000186,-0.00000474,-0.00000334,0.00004451,-0.00001458,0.000
 01543,-0.00026590,-0.00030452,0.00011664,0.03236267,-0.02872291,-0.048
 57781,0.00778834,-0.00085112,0.00322017,-0.05023236,-0.00016753,0.0002
 8155,0.00003250,0.00003728,-0.00007597,0.00001416,0.00004458,-0.000028
 05,-0.00001660,0.00043842,-0.00019400,0.00008180,0.00000341,-0.0000098
 8,-0.00000176,0.00004469,-0.00003852,-0.00000681,-0.00068853,0.0001323
 9,-0.00022566,-0.01847866,-0.02867364,-0.13128135,-0.00014334,0.006823
 59,0.00323343,0.03174056,0.01961525,0.00000819,0.00001231,0.00001456,0
 .00003104,0.00005560,-0.00004600,-0.00001137,-0.00000582,0.00000786,-0
 .00002629,-0.00004907,-0.00017692,-0.00001784,-0.00002388,-0.00000333,
 -0.00002018,-0.00002295,0.00005804,0.00029395,0.00012291,0.00033532,-0
 .03226799,-0.11819545,-0.16740619,-0.00643022,-0.01409494,-0.00183748,
 0.04348659,0.13583164,0.17551276,0.00059214,-0.00058106,-0.00001097,-0
 .00013417,0.00005845,-0.00001446,-0.00003532,0.00004859,0.00000961,-0.
 00100172,0.00007981,-0.00004521,0.00007396,0.00007365,-0.00000197,0.00
 005643,0.00001692,0.00002863,0.00106916,0.00014299,0.00005970,-1.58498
 567,1.95161758,0.01824313,0.00387270,-0.00948345,0.00353029,0.00998311
 ,-0.01283086,-0.00504587,1.57050931,-0.00035294,0.00076239,-0.00001339
 ,0.00014083,0.00004557,-0.00000024,0.00007099,-0.00009346,0.00000015,0
 .00019152,-0.00122323,0.00003700,-0.00007302,-0.00008792,0.00000261,-0
 .00007022,-0.00012266,-0.00000682,-0.00122183,0.00104575,-0.00004346,1
 .93568377,-0.95277260,-0.01454125,-0.00316572,0.00175683,-0.00114280,-
 0.00206069,0.00216729,-0.00363035,-1.92914267,0.94852203,-0.00011803,0
 .00012725,-0.00003374,0.00001471,-0.00004391,0.00015162,0.00001578,-0.
 00000752,-0.00000978,0.00018169,-0.00011595,0.00009530,0.00000125,-0.0
 0000410,-0.00001105,-0.00002968,0.00001037,-0.00012242,-0.00039818,-0.
 00003990,-0.00002656,0.01513437,-0.01139105,0.68298965,0.00016582,-0.0
 0021234,-0.00595251,0.00178517,-0.00766140,-0.00645866,-0.01675289,0.0
 1933855,-0.67062190\\@
 The archive entry for this job was punched.


      TO SUSPECT YOUR OWN MORTALITY IS TO KNOW THE BEGINNING OF TERROR.
      TO LEARN IRREFUTABLY THAT YOU ARE MORTAL IS TO KNOW THE END
      OF TERROR.

                                                  -- JESSICA
                                                     CHILDREN OF DUNE
                                                     BY FRANK HERBERT
 Job cpu time:      34 days  9 hours 59 minutes 34.3 seconds.
 Elapsed time:       0 days 21 hours 39 minutes 49.2 seconds.
 File lengths (MBytes):  RWF=  30947 Int=      0 D2E=      0 Chk=     59 Scr=      1
 Normal termination of Gaussian 16 at Fri Apr  4 17:37:39 2025.
