 Entering Gaussian System, Link 0=g16
 Input=enolc_h2o_mp2_avtz_opt_anharm.gjf
 Output=enolc_h2o_mp2_avtz_opt_anharm.log
 Initial command:
 /sw/contrib/chem-src/g16/c01/g16/l1.exe "/scr/Gau-14653.inp" -scrdir="/scr/"
 Entering Link 1 = /sw/contrib/chem-src/g16/c01/g16/l1.exe PID=     14654.
  
 Copyright (c) 1988-2019, Gaussian, Inc.  All Rights Reserved.
  
 This is part of the Gaussian(R) 16 program.  It is based on
 the Gaussian(R) 09 system (copyright 2009, Gaussian, Inc.),
 the Gaussian(R) 03 system (copyright 2003, Gaussian, Inc.),
 the Gaussian(R) 98 system (copyright 1998, Gaussian, Inc.),
 the Gaussian(R) 94 system (copyright 1995, Gaussian, Inc.),
 the Gaussian 92(TM) system (copyright 1992, Gaussian, Inc.),
 the Gaussian 90(TM) system (copyright 1990, Gaussian, Inc.),
 the Gaussian 88(TM) system (copyright 1988, Gaussian, Inc.),
 the Gaussian 86(TM) system (copyright 1986, Carnegie Mellon
 University), and the Gaussian 82(TM) system (copyright 1983,
 Carnegie Mellon University). Gaussian is a federally registered
 trademark of Gaussian, Inc.
  
 This software contains proprietary and confidential information,
 including trade secrets, belonging to Gaussian, Inc.
  
 This software is provided under written license and may be
 used, copied, transmitted, or stored only in accord with that
 written license.
  
 The following legend is applicable only to US Government
 contracts under FAR:
  
                    RESTRICTED RIGHTS LEGEND
  
 Use, reproduction and disclosure by the US Government is
 subject to restrictions as set forth in subparagraphs (a)
 and (c) of the Commercial Computer Software - Restricted
 Rights clause in FAR 52.227-19.
  
 Gaussian, Inc.
 340 Quinnipiac St., Bldg. 40, Wallingford CT 06492
  
  
 ---------------------------------------------------------------
 Warning -- This program may not be used in any manner that
 competes with the business of Gaussian, Inc. or will provide
 assistance to any competitor of Gaussian, Inc.  The licensee
 of this program is prohibited from giving any competitor of
 Gaussian, Inc. access to this program.  By using this program,
 the user acknowledges that Gaussian, Inc. is engaged in the
 business of creating and licensing software in the field of
 computational chemistry and represents and warrants to the
 licensee that it is not a competitor of Gaussian, Inc. and that
 it will not use this program in any manner prohibited above.
 ---------------------------------------------------------------
  

 Cite this work as:
 Gaussian 16, Revision C.01,
 M. J. Frisch, G. W. Trucks, H. B. Schlegel, G. E. Scuseria, 
 M. A. Robb, J. R. Cheeseman, G. Scalmani, V. Barone, 
 G. A. Petersson, H. Nakatsuji, X. Li, M. Caricato, A. V. Marenich, 
 J. Bloino, B. G. Janesko, R. Gomperts, B. Mennucci, H. P. Hratchian, 
 J. V. Ortiz, A. F. Izmaylov, J. L. Sonnenberg, D. Williams-Young, 
 F. Ding, F. Lipparini, F. Egidi, J. Goings, B. Peng, A. Petrone, 
 T. Henderson, D. Ranasinghe, V. G. Zakrzewski, J. Gao, N. Rega, 
 G. Zheng, W. Liang, M. Hada, M. Ehara, K. Toyota, R. Fukuda, 
 J. Hasegawa, M. Ishida, T. Nakajima, Y. Honda, O. Kitao, H. Nakai, 
 T. Vreven, K. Throssell, J. A. Montgomery, Jr., J. E. Peralta, 
 F. Ogliaro, M. J. Bearpark, J. J. Heyd, E. N. Brothers, K. N. Kudin, 
 V. N. Staroverov, T. A. Keith, R. Kobayashi, J. Normand, 
 K. Raghavachari, A. P. Rendell, J. C. Burant, S. S. Iyengar, 
 J. Tomasi, M. Cossi, J. M. Millam, M. Klene, C. Adamo, R. Cammi, 
 J. W. Ochterski, R. L. Martin, K. Morokuma, O. Farkas, 
 J. B. Foresman, and D. J. Fox, Gaussian, Inc., Wallingford CT, 2019.
 
 ******************************************
 Gaussian 16:  EM64L-G16RevC.01  3-Jul-2019
                 3-Apr-2025 
 ******************************************
 %nprocshared=40
 Will use up to   40 processors via shared memory.
 %mem=50gb
 --------------------------------------------------------------------
 # MP2/aug-cc-pVTZ opt freq=(vibrot,anharmonic,selectAnharmonicModes)
 --------------------------------------------------------------------
 1/18=20,19=15,38=1,80=1/1,3;
 2/9=110,12=2,17=6,18=5,40=1/2;
 3/5=16,6=1,7=10,11=9,25=1,30=1,71=1/1,2,3;
 4//1;
 5/5=2,38=5/2;
 8/6=4,10=1/1;
 9/15=2,16=-3/6;
 10/5=1/2;
 6/7=2,8=2,9=2,10=2/1;
 7/12=2/1,2,3,16;
 1/18=20,19=15,80=1/3(2);
 2/9=110/2;
 99//99;
 2/9=110/2;
 3/5=16,6=1,7=10,11=9,25=1,30=1,71=1/1,2,3;
 4/5=5,16=3,69=1/1;
 5/5=2,38=5/2;
 8/6=4,10=1/1;
 9/15=2,16=-3/6;
 10/5=1/2;
 7/12=2/1,2,3,16;
 1/18=20,19=15,80=1/3(-8);
 2/9=110/2;
 6/7=2,8=2,9=2,10=2/1;
 99/9=10/99;
 ----
 blah
 ----
 Symbolic Z-matrix:
 Charge =  0 Multiplicity = 1
 C                    -0.29294   1.20221   0.45543 
 C                    -0.73207  -0.05479   0.38738 
 H                     0.15667   1.64086   1.3375 
 O                    -0.35192   2.09804  -0.57319 
 H                    -0.65243  -0.71155   1.24693 
 H                    -1.17684  -0.45632  -0.51616 
 H                    -0.76568   1.66679  -1.35863 
 O                    -1.43435   1.23762  -2.88467 
 H                    -0.93822   1.03759  -3.69743 
 H                    -2.3098    1.49266  -3.22419 
 
 Add virtual bond connecting atoms O8         and H7         Dist= 3.25D+00.

 GradGradGradGradGradGradGradGradGradGradGradGradGradGradGradGradGradGrad
 Berny optimization.
 Initialization pass.
                           ----------------------------
                           !    Initial Parameters    !
                           ! (Angstroms and Degrees)  !
 --------------------------                            --------------------------
 ! Name  Definition              Value          Derivative Info.                !
 --------------------------------------------------------------------------------
 ! R1    R(1,2)                  1.3332         estimate D2E/DX2                !
 ! R2    R(1,3)                  1.0829         estimate D2E/DX2                !
 ! R3    R(1,4)                  1.3653         estimate D2E/DX2                !
 ! R4    R(2,5)                  1.0847         estimate D2E/DX2                !
 ! R5    R(2,6)                  1.0842         estimate D2E/DX2                !
 ! R6    R(4,7)                  0.987          estimate D2E/DX2                !
 ! R7    R(7,8)                  1.7205         estimate D2E/DX2                !
 ! R8    R(8,9)                  0.973          estimate D2E/DX2                !
 ! R9    R(8,10)                 0.973          estimate D2E/DX2                !
 ! A1    A(2,1,3)              124.0729         estimate D2E/DX2                !
 ! A2    A(2,1,4)              124.4679         estimate D2E/DX2                !
 ! A3    A(3,1,4)              111.4592         estimate D2E/DX2                !
 ! A4    A(1,2,5)              120.4142         estimate D2E/DX2                !
 ! A5    A(1,2,6)              121.7918         estimate D2E/DX2                !
 ! A6    A(5,2,6)              117.7941         estimate D2E/DX2                !
 ! A7    A(1,4,7)              109.3277         estimate D2E/DX2                !
 ! A8    A(7,8,9)              126.4423         estimate D2E/DX2                !
 ! A9    A(7,8,10)             126.427          estimate D2E/DX2                !
 ! A10   A(9,8,10)             102.779          estimate D2E/DX2                !
 ! A11   L(4,7,8,6,-1)         192.0964         estimate D2E/DX2                !
 ! A12   L(4,7,8,6,-2)         180.0031         estimate D2E/DX2                !
 ! D1    D(3,1,2,5)             -0.0001         estimate D2E/DX2                !
 ! D2    D(3,1,2,6)            179.9995         estimate D2E/DX2                !
 ! D3    D(4,1,2,5)           -180.0            estimate D2E/DX2                !
 ! D4    D(4,1,2,6)             -0.0004         estimate D2E/DX2                !
 ! D5    D(2,1,4,7)             -0.0022         estimate D2E/DX2                !
 ! D6    D(3,1,4,7)            179.9979         estimate D2E/DX2                !
 ! D7    D(1,4,8,9)           -106.7849         estimate D2E/DX2                !
 ! D8    D(1,4,8,10)           106.9009         estimate D2E/DX2                !
 ! D9    D(7,8,9,10)          -157.5724         estimate D2E/DX2                !
 --------------------------------------------------------------------------------
 Trust Radius=3.00D-01 FncErr=1.00D-07 GrdErr=1.00D-07 EigMax=2.50D+02 EigMin=1.00D-04
 Number of steps in this run=     40 maximum allowed number of steps=    100.
 GradGradGradGradGradGradGradGradGradGradGradGradGradGradGradGradGradGrad

                          Input orientation:                          
 ---------------------------------------------------------------------
 Center     Atomic      Atomic             Coordinates (Angstroms)
 Number     Number       Type             X           Y           Z
 ---------------------------------------------------------------------
      1          6           0       -0.292944    1.202213    0.455430
      2          6           0       -0.732071   -0.054789    0.387384
      3          1           0        0.156673    1.640863    1.337501
      4          8           0       -0.351915    2.098045   -0.573192
      5          1           0       -0.652431   -0.711553    1.246933
      6          1           0       -1.176838   -0.456321   -0.516162
      7          1           0       -0.765682    1.666788   -1.358629
      8          8           0       -1.434347    1.237622   -2.884670
      9          1           0       -0.938216    1.037592   -3.697431
     10          1           0       -2.309803    1.492662   -3.224187
 ---------------------------------------------------------------------
                    Distance matrix (angstroms):
                    1          2          3          4          5
     1  C    0.000000
     2  C    1.333235   0.000000
     3  H    1.082875   2.137246   0.000000
     4  O    1.365305   2.387869   2.029391   0.000000
     5  H    2.101953   1.084668   2.489319   3.361101   0.000000
     6  H    2.115655   1.084178   3.100403   2.684872   1.857054
     7  H    1.931352   2.452247   2.849654   0.986963   3.529628
     8  O    3.529919   3.587458   4.529975   2.693495   4.634740
     9  H    4.205917   4.233380   5.187799   3.350996   5.252419
    10  H    4.206146   4.234063   5.187915   3.350759   5.253223
                    6          7          8          9         10
     6  H    0.000000
     7  H    2.320860   0.000000
     8  O    2.923283   1.720493   0.000000
     9  H    3.522668   2.428096   0.973005   0.000000
    10  H    3.523570   2.427949   0.973006   1.520624   0.000000
 Stoichiometry    C2H6O2
 Framework group  C1[X(C2H6O2)]
 Deg. of freedom    24
 Full point group                 C1      NOp   1
 Largest Abelian subgroup         C1      NOp   1
 Largest concise Abelian subgroup C1      NOp   1
                         Standard orientation:                         
 ---------------------------------------------------------------------
 Center     Atomic      Atomic             Coordinates (Angstroms)
 Number     Number       Type             X           Y           Z
 ---------------------------------------------------------------------
      1          6           0        1.350387   -0.326195    0.000037
      2          6           0        1.379930    1.006713   -0.000068
      3          1           0        2.233696   -0.952599    0.000136
      4          8           0        0.207924   -1.073748    0.000030
      5          1           0        2.327273    1.534960   -0.000055
      6          1           0        0.471296    1.598175   -0.000175
      7          1           0       -0.575357   -0.473276   -0.000029
      8          8           0       -2.129825    0.264102   -0.000017
      9          1           0       -2.731543    0.344178    0.760418
     10          1           0       -2.732060    0.342626   -0.760206
 ---------------------------------------------------------------------
 Rotational constants (GHZ):          12.5113542           3.4801311           2.7573906
 Standard basis: Aug-CC-pVTZ (5D, 7F)
 There are   370 symmetry adapted cartesian basis functions of A   symmetry.
 There are   322 symmetry adapted basis functions of A   symmetry.
   322 basis functions,   450 primitive gaussians,   370 cartesian basis functions
    17 alpha electrons       17 beta electrons
       nuclear repulsion energy       118.5318942233 Hartrees.
 NAtoms=   10 NActive=   10 NUniq=   10 SFac= 1.00D+00 NAtFMM=   60 NAOKFM=F Big=F
 Integral buffers will be    131072 words long.
 Raffenetti 1 integral format.
 Two-electron integral symmetry is turned on.
 One-electron integrals computed using PRISM.
 NBasis=   322 RedAO= T EigKep=  1.01D-05  NBF=   322
 NBsUse=   322 1.00D-06 EigRej= -1.00D+00 NBFU=   322
 ExpMin= 2.53D-02 ExpMax= 1.53D+04 ExpMxC= 5.22D+02 IAcc=3 IRadAn=         5 AccDes= 0.00D+00
 Harris functional with IExCor=  205 and IRadAn=       5 diagonalized for initial guess.
 HarFok:  IExCor=  205 AccDes= 0.00D+00 IRadAn=         5 IDoV= 1 UseB2=F ITyADJ=14
 ICtDFT=  3500011 ScaDFX=  1.000000  1.000000  1.000000  1.000000
 FoFCou: FMM=F IPFlag=           0 FMFlag=      100000 FMFlg1=           0
         NFxFlg=           0 DoJE=T BraDBF=F KetDBF=T FulRan=T
         wScrn=  0.000000 ICntrl=       500 IOpCl=  0 I1Cent=   200000004 NGrid=           0
         NMat0=    1 NMatS0=      1 NMatT0=    0 NMatD0=    1 NMtDS0=    0 NMtDT0=    0
 Petite list used in FoFCou.
 Keep R1 ints in memory in canonical form, NReq=1377716038.
 Requested convergence on RMS density matrix=1.00D-08 within 128 cycles.
 Requested convergence on MAX density matrix=1.00D-06.
 Requested convergence on             energy=1.00D-06.
 No special actions if energy rises.
 SCF Done:  E(RHF) =  -229.020662227     A.U. after   12 cycles
            NFock= 12  Conv=0.89D-08     -V/T= 2.0018
 ExpMin= 2.53D-02 ExpMax= 1.53D+04 ExpMxC= 5.22D+02 IAcc=3 IRadAn=         5 AccDes= 0.00D+00
 HarFok:  IExCor=  205 AccDes= 0.00D+00 IRadAn=         5 IDoV=-2 UseB2=F ITyADJ=14
 ICtDFT= 12500011 ScaDFX=  1.000000  1.000000  1.000000  1.000000
 Range of M.O.s used for correlation:     5   322
 NBasis=   322 NAE=    17 NBE=    17 NFC=     4 NFV=     0
 NROrb=    318 NOA=    13 NOB=    13 NVA=   305 NVB=   305

 **** Warning!!: The largest alpha MO coefficient is  0.54204015D+02

 Disk-based method using ON**2 memory for 13 occupieds at a time.
 Estimated scratch disk usage=  1235103808 words.
 Actual    scratch disk usage=  1131160640 words.
 JobTyp=1 Pass  1:  I=   5 to  17 NPSUse= 40 ParTrn=T ParDer=T DoDerP=T.
 (rs|ai) integrals will be sorted in core.
 Spin components of T(2) and E(2):
     alpha-alpha T2 =       0.2948404349D-01 E2=     -0.1031670205D+00
     alpha-beta  T2 =       0.1747783319D+00 E2=     -0.6489738903D+00
     beta-beta   T2 =       0.2948404349D-01 E2=     -0.1031670205D+00
 ANorm=    0.1110741383D+01
 E2 =    -0.8553079312D+00 EUMP2 =    -0.22987597015772D+03
          IDoAtm=1111111111
          Differentiating once with respect to electric field.
                with respect to dipole field.
          Differentiating once with respect to nuclear coordinates.
 Keep R1 ints in memory in canonical form, NReq=1377718044.
          There are     1 degrees of freedom in the 1st order CPHF.  IDoFFX=0 NUNeed=     1.
 LinEq1:  Iter=  0 NonCon=     1 RMS=2.86D-03 Max=8.33D-02 NDo=     1
 AX will form     1 AO Fock derivatives at one time.
 LinEq1:  Iter=  1 NonCon=     1 RMS=6.78D-04 Max=6.78D-03 NDo=     1
 LinEq1:  Iter=  2 NonCon=     1 RMS=2.40D-04 Max=4.84D-03 NDo=     1
 LinEq1:  Iter=  3 NonCon=     1 RMS=7.16D-05 Max=8.96D-04 NDo=     1
 LinEq1:  Iter=  4 NonCon=     1 RMS=2.80D-05 Max=4.62D-04 NDo=     1
 LinEq1:  Iter=  5 NonCon=     1 RMS=6.36D-06 Max=1.53D-04 NDo=     1
 LinEq1:  Iter=  6 NonCon=     1 RMS=2.08D-06 Max=2.83D-05 NDo=     1
 LinEq1:  Iter=  7 NonCon=     1 RMS=5.74D-07 Max=9.46D-06 NDo=     1
 LinEq1:  Iter=  8 NonCon=     1 RMS=1.23D-07 Max=1.33D-06 NDo=     1
 LinEq1:  Iter=  9 NonCon=     1 RMS=2.76D-08 Max=3.86D-07 NDo=     1
 LinEq1:  Iter= 10 NonCon=     1 RMS=8.68D-09 Max=1.72D-07 NDo=     1
 LinEq1:  Iter= 11 NonCon=     1 RMS=3.49D-09 Max=5.63D-08 NDo=     1
 LinEq1:  Iter= 12 NonCon=     1 RMS=7.98D-10 Max=1.23D-08 NDo=     1
 LinEq1:  Iter= 13 NonCon=     1 RMS=1.08D-10 Max=1.29D-09 NDo=     1
 LinEq1:  Iter= 14 NonCon=     0 RMS=1.47D-11 Max=1.68D-10 NDo=     1
 Linear equations converged to 1.000D-10 1.000D-09 after    14 iterations.
 End of Minotr F.D. properties file   721 does not exist.
 End of Minotr F.D. properties file   722 does not exist.
 End of Minotr F.D. properties file   788 does not exist.

 **********************************************************************

            Population analysis using the SCF Density.

 **********************************************************************

 Orbital symmetries:
       Occupied  (A) (A) (A) (A) (A) (A) (A) (A) (A) (A) (A) (A)
                 (A) (A) (A) (A) (A)
       Virtual   (A) (A) (A) (A) (A) (A) (A) (A) (A) (A) (A) (A)
                 (A) (A) (A) (A) (A) (A) (A) (A) (A) (A) (A) (A)
                 (A) (A) (A) (A) (A) (A) (A) (A) (A) (A) (A) (A)
                 (A) (A) (A) (A) (A) (A) (A) (A) (A) (A) (A) (A)
                 (A) (A) (A) (A) (A) (A) (A) (A) (A) (A) (A) (A)
                 (A) (A) (A) (A) (A) (A) (A) (A) (A) (A) (A) (A)
                 (A) (A) (A) (A) (A) (A) (A) (A) (A) (A) (A) (A)
                 (A) (A) (A) (A) (A) (A) (A) (A) (A) (A) (A) (A)
                 (A) (A) (A) (A) (A) (A) (A) (A) (A) (A) (A) (A)
                 (A) (A) (A) (A) (A) (A) (A) (A) (A) (A) (A) (A)
                 (A) (A) (A) (A) (A) (A) (A) (A) (A) (A) (A) (A)
                 (A) (A) (A) (A) (A) (A) (A) (A) (A) (A) (A) (A)
                 (A) (A) (A) (A) (A) (A) (A) (A) (A) (A) (A) (A)
                 (A) (A) (A) (A) (A) (A) (A) (A) (A) (A) (A) (A)
                 (A) (A) (A) (A) (A) (A) (A) (A) (A) (A) (A) (A)
                 (A) (A) (A) (A) (A) (A) (A) (A) (A) (A) (A) (A)
                 (A) (A) (A) (A) (A) (A) (A) (A) (A) (A) (A) (A)
                 (A) (A) (A) (A) (A) (A) (A) (A) (A) (A) (A) (A)
                 (A) (A) (A) (A) (A) (A) (A) (A) (A) (A) (A) (A)
                 (A) (A) (A) (A) (A) (A) (A) (A) (A) (A) (A) (A)
                 (A) (A) (A) (A) (A) (A) (A) (A) (A) (A) (A) (A)
                 (A) (A) (A) (A) (A) (A) (A) (A) (A) (A) (A) (A)
                 (A) (A) (A) (A) (A) (A) (A) (A) (A) (A) (A) (A)
                 (A) (A) (A) (A) (A) (A) (A) (A) (A) (A) (A) (A)
                 (A) (A) (A) (A) (A) (A) (A) (A) (A) (A) (A) (A)
                 (A) (A) (A) (A) (A)
 The electronic state is 1-A.
 Alpha  occ. eigenvalues --  -20.60669 -20.55320 -11.27984 -11.19509  -1.38995
 Alpha  occ. eigenvalues --   -1.36308  -0.99938  -0.80741  -0.74415  -0.67284
 Alpha  occ. eigenvalues --   -0.64479  -0.62024  -0.54957  -0.54509  -0.51982
 Alpha  occ. eigenvalues --   -0.51127  -0.32740
 Alpha virt. eigenvalues --    0.01855   0.04147   0.04274   0.04553   0.06179
 Alpha virt. eigenvalues --    0.06657   0.10787   0.10903   0.11451   0.12244
 Alpha virt. eigenvalues --    0.12747   0.14602   0.15497   0.16612   0.16805
 Alpha virt. eigenvalues --    0.17938   0.18608   0.19432   0.20844   0.21387
 Alpha virt. eigenvalues --    0.21686   0.23506   0.25468   0.27986   0.28301
 Alpha virt. eigenvalues --    0.28574   0.29471   0.30342   0.31478   0.32200
 Alpha virt. eigenvalues --    0.32651   0.34963   0.37059   0.37888   0.38424
 Alpha virt. eigenvalues --    0.38739   0.39539   0.40148   0.40616   0.40959
 Alpha virt. eigenvalues --    0.42779   0.44159   0.45715   0.46121   0.46583
 Alpha virt. eigenvalues --    0.46762   0.47018   0.48938   0.49595   0.49871
 Alpha virt. eigenvalues --    0.51207   0.51755   0.57014   0.58454   0.59148
 Alpha virt. eigenvalues --    0.60630   0.63779   0.64723   0.65222   0.66433
 Alpha virt. eigenvalues --    0.67760   0.70917   0.73683   0.74756   0.75446
 Alpha virt. eigenvalues --    0.76360   0.77624   0.80312   0.80652   0.82195
 Alpha virt. eigenvalues --    0.83268   0.84375   0.87295   0.87836   0.88076
 Alpha virt. eigenvalues --    0.89396   0.90135   0.91864   0.92465   0.94260
 Alpha virt. eigenvalues --    0.94624   0.95401   0.95496   0.96936   0.97924
 Alpha virt. eigenvalues --    1.00216   1.00331   1.01467   1.02188   1.02741
 Alpha virt. eigenvalues --    1.03523   1.03810   1.05280   1.07001   1.07159
 Alpha virt. eigenvalues --    1.09132   1.09273   1.10423   1.12272   1.12359
 Alpha virt. eigenvalues --    1.14244   1.14888   1.16470   1.19282   1.19712
 Alpha virt. eigenvalues --    1.21368   1.22105   1.24758   1.26097   1.28239
 Alpha virt. eigenvalues --    1.29609   1.29677   1.32291   1.35038   1.36391
 Alpha virt. eigenvalues --    1.38741   1.39685   1.40725   1.47016   1.49894
 Alpha virt. eigenvalues --    1.51303   1.53655   1.57212   1.58899   1.60545
 Alpha virt. eigenvalues --    1.60981   1.63834   1.64335   1.65977   1.67305
 Alpha virt. eigenvalues --    1.68630   1.68682   1.74302   1.75090   1.77858
 Alpha virt. eigenvalues --    1.79163   1.81798   1.82737   1.84802   1.85738
 Alpha virt. eigenvalues --    1.86158   1.90026   1.91772   1.94523   1.94914
 Alpha virt. eigenvalues --    1.97743   1.97996   2.00078   2.07116   2.08291
 Alpha virt. eigenvalues --    2.09021   2.14327   2.15546   2.18382   2.22652
 Alpha virt. eigenvalues --    2.28194   2.29363   2.31679   2.35621   2.37152
 Alpha virt. eigenvalues --    2.40278   2.44012   2.45137   2.47958   2.52943
 Alpha virt. eigenvalues --    2.54559   2.54766   2.58923   2.60859   2.63696
 Alpha virt. eigenvalues --    2.66366   2.70339   2.71691   2.74294   2.80871
 Alpha virt. eigenvalues --    2.81061   2.83476   2.85290   2.86667   2.89555
 Alpha virt. eigenvalues --    2.96768   3.05676   3.11060   3.11510   3.13801
 Alpha virt. eigenvalues --    3.15682   3.19033   3.23260   3.29399   3.33042
 Alpha virt. eigenvalues --    3.34480   3.40870   3.44251   3.45201   3.47032
 Alpha virt. eigenvalues --    3.52469   3.54431   3.59653   3.62431   3.69147
 Alpha virt. eigenvalues --    3.70963   3.75252   3.76858   3.79881   3.80869
 Alpha virt. eigenvalues --    3.84175   3.86505   3.89894   3.97537   3.98917
 Alpha virt. eigenvalues --    3.99520   4.04788   4.04984   4.12439   4.12691
 Alpha virt. eigenvalues --    4.16893   4.21009   4.22997   4.23306   4.25232
 Alpha virt. eigenvalues --    4.26168   4.32900   4.34044   4.34580   4.37152
 Alpha virt. eigenvalues --    4.40033   4.40367   4.44806   4.50013   4.52259
 Alpha virt. eigenvalues --    4.53059   4.55137   4.60946   4.62813   4.63198
 Alpha virt. eigenvalues --    4.66731   4.70898   4.72972   4.78664   4.81474
 Alpha virt. eigenvalues --    4.86412   4.87254   4.90248   4.93221   4.97337
 Alpha virt. eigenvalues --    5.00090   5.05109   5.09329   5.11837   5.13911
 Alpha virt. eigenvalues --    5.15123   5.15836   5.19374   5.20947   5.27020
 Alpha virt. eigenvalues --    5.31760   5.39151   5.40164   5.42881   5.46290
 Alpha virt. eigenvalues --    5.52260   5.54232   5.59124   5.63866   5.71765
 Alpha virt. eigenvalues --    5.76828   5.90751   5.98700   6.06723   6.23528
 Alpha virt. eigenvalues --    6.29996   6.38476   6.55735   6.62823   6.66420
 Alpha virt. eigenvalues --    6.73032   6.78741   6.87038   6.90363   7.00054
 Alpha virt. eigenvalues --    7.01075   7.11496   7.16628   7.22322   7.26552
 Alpha virt. eigenvalues --    7.33315   7.38838   7.43392   7.46599   7.47765
 Alpha virt. eigenvalues --    7.57138   7.59976   7.73388   7.76037   7.82685
 Alpha virt. eigenvalues --    7.88272   7.90628   8.08235   8.26781   8.68543
 Alpha virt. eigenvalues --    8.79512  15.79544  16.45347  17.27663  17.68594
          Condensed to atoms (all electrons):
               1          2          3          4          5          6
     1  C    5.641017   0.244732   0.164287   0.207300   0.041514  -0.110200
     2  C    0.244732   6.350273  -0.066587  -0.067857   0.390028   0.287962
     3  H    0.164287  -0.066587   0.299877  -0.125393  -0.032363   0.024891
     4  O    0.207300  -0.067857  -0.125393   8.575946   0.021852  -0.047668
     5  H    0.041514   0.390028  -0.032363   0.021852   0.363669  -0.083175
     6  H   -0.110200   0.287962   0.024891  -0.047668  -0.083175   0.342084
     7  H    0.115695  -0.051874   0.016328   0.050594  -0.005929   0.008464
     8  O    0.024382  -0.017660   0.002610  -0.057076  -0.002029   0.011711
     9  H   -0.002351   0.001020  -0.000072   0.000743   0.000103  -0.000647
    10  H   -0.002353   0.001020  -0.000072   0.000737   0.000103  -0.000642
               7          8          9         10
     1  C    0.115695   0.024382  -0.002351  -0.002353
     2  C   -0.051874  -0.017660   0.001020   0.001020
     3  H    0.016328   0.002610  -0.000072  -0.000072
     4  O    0.050594  -0.057076   0.000743   0.000737
     5  H   -0.005929  -0.002029   0.000103   0.000103
     6  H    0.008464   0.011711  -0.000647  -0.000642
     7  H    0.546057  -0.001300  -0.002046  -0.002052
     8  O   -0.001300   7.809142   0.316939   0.316952
     9  H   -0.002046   0.316939   0.474357  -0.008995
    10  H   -0.002052   0.316952  -0.008995   0.474323
 Mulliken charges:
               1
     1  C   -0.324025
     2  C   -1.071058
     3  H    0.716495
     4  O   -0.559179
     5  H    0.306227
     6  H    0.567220
     7  H    0.326064
     8  O   -0.403672
     9  H    0.220950
    10  H    0.220979
 Sum of Mulliken charges =  -0.00000
 Mulliken charges with hydrogens summed into heavy atoms:
               1
     1  C    0.392470
     2  C   -0.197611
     4  O   -0.233116
     8  O    0.038256
 Electronic spatial extent (au):  <R**2>=            437.3068
 Charge=             -0.0000 electrons
 Dipole moment (field-independent basis, Debye):
    X=             -3.4087    Y=              1.3449    Z=              0.0003  Tot=              3.6644
 Quadrupole moment (field-independent basis, Debye-Ang):
   XX=            -11.6526   YY=            -28.2441   ZZ=            -25.6099
   XY=             -2.6983   XZ=              0.0002   YZ=              0.0033
 Traceless Quadrupole moment (field-independent basis, Debye-Ang):
   XX=             10.1829   YY=             -6.4086   ZZ=             -3.7744
   XY=             -2.6983   XZ=              0.0002   YZ=              0.0033
 Octapole moment (field-independent basis, Debye-Ang**2):
  XXX=            -48.2782  YYY=              0.8041  ZZZ=              0.0013  XYY=             -2.1370
  XXY=              1.1169  XXZ=             -0.0015  XZZ=            -15.1109  YZZ=             -1.6136
  YYZ=              0.0019  XYZ=             -0.0094
 Hexadecapole moment (field-independent basis, Debye-Ang**3):
 XXXX=           -246.7882 YYYY=           -134.9964 ZZZZ=            -31.1142 XXXY=            -26.5116
 XXXZ=              0.0156 YYYX=             -5.1313 YYYZ=              0.0023 ZZZX=             -0.0011
 ZZZY=              0.0045 XXYY=            -81.1365 XXZZ=            -56.6625 YYZZ=            -29.1870
 XXYZ=              0.0230 YYXZ=             -0.0059 ZZXY=             -7.0780
 N-N= 1.185318942233D+02 E-N=-7.770483280271D+02  KE= 2.286028693227D+02
 Calling FoFJK, ICntrl=  10002127 FMM=F ISym2X=0 I1Cent= 0 IOpClX= 0 NMat=1 NMatS=1 NMatT=0.
 ***** Axes restored to original set *****
 -------------------------------------------------------------------
 Center     Atomic                   Forces (Hartrees/Bohr)
 Number     Number              X              Y              Z
 -------------------------------------------------------------------
      1        6          -0.001468328    0.007496305   -0.011428836
      2        6          -0.001393852   -0.010437183    0.005956517
      3        1          -0.000747970   -0.001853591   -0.000390979
      4        8          -0.001413466   -0.005611410    0.001281683
      5        1           0.000358801    0.003732775   -0.002535699
      6        1           0.001137188    0.002089900    0.001293748
      7        1           0.005703795    0.006952949    0.009853713
      8        8          -0.007915916   -0.002340978   -0.020691295
      9        1          -0.001791362    0.001532645    0.009938891
     10        1           0.007531111   -0.001561411    0.006722257
 -------------------------------------------------------------------
 Cartesian Forces:  Max     0.020691295 RMS     0.006545629

 GradGradGradGradGradGradGradGradGradGradGradGradGradGradGradGradGradGrad
 Berny optimization.
 FormGI is forming the generalized inverse of G from B-inverse, IUseBI=4.
 Internal  Forces:  Max     0.009530979 RMS     0.004060013
 Search for a local minimum.
 Step number   1 out of a maximum of   40
 All quantities printed in internal units (Hartrees-Bohrs-Radians)
 Mixed Optimization -- RFO/linear search
 Second derivative matrix not updated -- first step.
 ITU=  0
     Eigenvalues ---    0.00230   0.00230   0.00230   0.01417   0.02151
     Eigenvalues ---    0.02739   0.02972   0.02972   0.07114   0.15283
     Eigenvalues ---    0.16000   0.16000   0.16000   0.16000   0.16000
     Eigenvalues ---    0.22000   0.35436   0.35494   0.35649   0.50039
     Eigenvalues ---    0.51890   0.52768   0.52768   0.58748
 RFO step:  Lambda=-3.16320430D-03 EMin= 2.30000000D-03
 Linear search not attempted -- first point.
 Maximum step size (   0.300) exceeded in Quadratic search.
    -- Step size scaled by   0.592
 Iteration  1 RMS(Cart)=  0.13017640 RMS(Int)=  0.01876006
 Iteration  2 RMS(Cart)=  0.07419247 RMS(Int)=  0.00136194
 Iteration  3 RMS(Cart)=  0.00212258 RMS(Int)=  0.00015337
 Iteration  4 RMS(Cart)=  0.00000033 RMS(Int)=  0.00015337
 Variable       Old X    -DE/DX   Delta X   Delta X   Delta X     New X
                                 (Linear)    (Quad)   (Total)
    R1        2.51945   0.00408   0.00000   0.00408   0.00408   2.52353
    R2        2.04634  -0.00138   0.00000  -0.00227  -0.00227   2.04407
    R3        2.58005  -0.00612   0.00000  -0.00693  -0.00693   2.57312
    R4        2.04972  -0.00424   0.00000  -0.00702  -0.00702   2.04270
    R5        2.04880  -0.00232   0.00000  -0.00383  -0.00383   2.04497
    R6        1.86509  -0.00808   0.00000  -0.00950  -0.00951   1.85558
    R7        3.25126   0.00499   0.00000   0.03979   0.03979   3.29105
    R8        1.83871  -0.00953   0.00000  -0.01062  -0.01062   1.82809
    R9        1.83871  -0.00953   0.00000  -0.01062  -0.01062   1.82809
    A1        2.16548  -0.00550   0.00000  -0.01607  -0.01607   2.14941
    A2        2.17237   0.00794   0.00000   0.02104   0.02104   2.19341
    A3        1.94533  -0.00244   0.00000  -0.00496  -0.00496   1.94037
    A4        2.10162  -0.00120   0.00000  -0.00435  -0.00435   2.09728
    A5        2.12567  -0.00083   0.00000  -0.00302  -0.00302   2.12264
    A6        2.05589   0.00203   0.00000   0.00737   0.00737   2.06327
    A7        1.90813  -0.00075   0.00000  -0.00271  -0.00271   1.90542
    A8        2.20684  -0.00242   0.00000  -0.01000  -0.01013   2.19670
    A9        2.20657  -0.00210   0.00000  -0.00955  -0.00953   2.19704
   A10        1.79383   0.00418   0.00000   0.01423   0.01406   1.80789
   A11        3.35271  -0.00251   0.00000  -0.29439  -0.29417   3.05855
   A12        3.14165  -0.00000   0.00000  -0.00018  -0.00018   3.14146
    D1       -0.00000  -0.00000   0.00000  -0.00000  -0.00000  -0.00000
    D2        3.14158  -0.00000   0.00000  -0.00001  -0.00001   3.14158
    D3       -3.14159  -0.00000   0.00000  -0.00000  -0.00000   3.14159
    D4       -0.00001  -0.00000   0.00000  -0.00001  -0.00001  -0.00002
    D5       -0.00004  -0.00000   0.00000  -0.00001  -0.00001  -0.00005
    D6        3.14156  -0.00000   0.00000  -0.00001  -0.00001   3.14155
    D7       -1.86375   0.00105   0.00000   0.06784   0.06827  -1.79548
    D8        1.86577  -0.00105   0.00000  -0.06795  -0.06838   1.79739
    D9       -2.75016   0.00105   0.00000   0.01414   0.01463  -2.73553
         Item               Value     Threshold  Converged?
 Maximum Force            0.009531     0.000450     NO 
 RMS     Force            0.004060     0.000300     NO 
 Maximum Displacement     0.404449     0.001800     NO 
 RMS     Displacement     0.202725     0.001200     NO 
 Predicted change in Energy=-1.475403D-03
 GradGradGradGradGradGradGradGradGradGradGradGradGradGradGradGradGradGrad

                          Input orientation:                          
 ---------------------------------------------------------------------
 Center     Atomic      Atomic             Coordinates (Angstroms)
 Number     Number       Type             X           Y           Z
 ---------------------------------------------------------------------
      1          6           0       -0.295727    1.226187    0.424328
      2          6           0       -0.766966   -0.010158    0.243592
      3          1           0        0.137603    1.563715    1.356164
      4          8           0       -0.289841    2.217991   -0.508594
      5          1           0       -0.726866   -0.729883    1.049101
      6          1           0       -1.195717   -0.321590   -0.699931
      7          1           0       -0.688418    1.880813   -1.340239
      8          8           0       -1.414148    1.156269   -2.747844
      9          1           0       -0.942995    0.857516   -3.538157
     10          1           0       -2.314500    1.312260   -3.065442
 ---------------------------------------------------------------------
                    Distance matrix (angstroms):
                    1          2          3          4          5
     1  C    0.000000
     2  C    1.335396   0.000000
     3  H    1.081674   2.129117   0.000000
     4  O    1.361636   2.399600   2.021906   0.000000
     5  H    2.098198   1.080952   2.470261   3.362643   0.000000
     6  H    2.114132   1.082151   3.091867   2.703090   1.856243
     7  H    1.922612   2.467885   2.837860   0.981930   3.539231
     8  O    3.364288   3.275375   4.406453   2.721317   4.294964
     9  H    4.031893   3.884001   5.061698   3.384636   4.858959
    10  H    4.032536   3.885016   5.062275   3.384829   4.860081
                    6          7          8          9         10
     6  H    0.000000
     7  H    2.349026   0.000000
     8  O    2.534902   1.741551   0.000000
     9  H    3.083777   2.437784   0.967385   0.000000
    10  H    3.084928   2.437974   0.967385   1.520289   0.000000
 Stoichiometry    C2H6O2
 Framework group  C1[X(C2H6O2)]
 Deg. of freedom    24
 Full point group                 C1      NOp   1
 Largest Abelian subgroup         C1      NOp   1
 Largest concise Abelian subgroup C1      NOp   1
                         Standard orientation:                         
 ---------------------------------------------------------------------
 Center     Atomic      Atomic             Coordinates (Angstroms)
 Number     Number       Type             X           Y           Z
 ---------------------------------------------------------------------
      1          6           0        1.321003   -0.229492   -0.000007
      2          6           0        1.136238    1.093060   -0.000043
      3          1           0        2.299739   -0.690028   -0.000015
      4          8           0        0.335372   -1.168951    0.000044
      5          1           0        1.986667    1.760314   -0.000080
      6          1           0        0.145091    1.527433   -0.000048
      7          1           0       -0.537961   -0.720090    0.000092
      8          8           0       -2.015532    0.201749   -0.000049
      9          1           0       -2.597395    0.339886    0.760336
     10          1           0       -2.598307    0.338696   -0.759952
 ---------------------------------------------------------------------
 Rotational constants (GHZ):          11.1708447           3.9613774           2.9643063
 Standard basis: Aug-CC-pVTZ (5D, 7F)
 There are   370 symmetry adapted cartesian basis functions of A   symmetry.
 There are   322 symmetry adapted basis functions of A   symmetry.
   322 basis functions,   450 primitive gaussians,   370 cartesian basis functions
    17 alpha electrons       17 beta electrons
       nuclear repulsion energy       120.0313637857 Hartrees.
 NAtoms=   10 NActive=   10 NUniq=   10 SFac= 1.00D+00 NAtFMM=   60 NAOKFM=F Big=F
 Integral buffers will be    131072 words long.
 Raffenetti 1 integral format.
 Two-electron integral symmetry is turned on.
 One-electron integrals computed using PRISM.
 NBasis=   322 RedAO= T EigKep=  1.01D-05  NBF=   322
 NBsUse=   322 1.00D-06 EigRej= -1.00D+00 NBFU=   322
 Initial guess from the checkpoint file:  "/scr/Gau-14654.chk"
 B after Tr=     0.000000   -0.000000   -0.000000
         Rot=    0.999436   -0.000012   -0.000006   -0.033580 Ang=  -3.85 deg.
 ExpMin= 2.53D-02 ExpMax= 1.53D+04 ExpMxC= 5.22D+02 IAcc=3 IRadAn=         5 AccDes= 0.00D+00
 Harris functional with IExCor=  205 and IRadAn=       5 diagonalized for initial guess.
 HarFok:  IExCor=  205 AccDes= 0.00D+00 IRadAn=         5 IDoV= 1 UseB2=F ITyADJ=14
 ICtDFT=  3500011 ScaDFX=  1.000000  1.000000  1.000000  1.000000
 FoFCou: FMM=F IPFlag=           0 FMFlag=      100000 FMFlg1=           0
         NFxFlg=           0 DoJE=T BraDBF=F KetDBF=T FulRan=T
         wScrn=  0.000000 ICntrl=       500 IOpCl=  0 I1Cent=   200000004 NGrid=           0
         NMat0=    1 NMatS0=      1 NMatT0=    0 NMatD0=    1 NMtDS0=    0 NMtDT0=    0
 Petite list used in FoFCou.
 Keep R1 ints in memory in canonical form, NReq=1377716038.
 Requested convergence on RMS density matrix=1.00D-08 within 128 cycles.
 Requested convergence on MAX density matrix=1.00D-06.
 Requested convergence on             energy=1.00D-06.
 No special actions if energy rises.
 SCF Done:  E(RHF) =  -229.021627220     A.U. after   11 cycles
            NFock= 11  Conv=0.56D-08     -V/T= 2.0016
 ExpMin= 2.53D-02 ExpMax= 1.53D+04 ExpMxC= 5.22D+02 IAcc=3 IRadAn=         5 AccDes= 0.00D+00
 HarFok:  IExCor=  205 AccDes= 0.00D+00 IRadAn=         5 IDoV=-2 UseB2=F ITyADJ=14
 ICtDFT= 12500011 ScaDFX=  1.000000  1.000000  1.000000  1.000000
 Range of M.O.s used for correlation:     5   322
 NBasis=   322 NAE=    17 NBE=    17 NFC=     4 NFV=     0
 NROrb=    318 NOA=    13 NOB=    13 NVA=   305 NVB=   305

 **** Warning!!: The largest alpha MO coefficient is  0.54182310D+02

 Disk-based method using ON**2 memory for 13 occupieds at a time.
 Estimated scratch disk usage=  1236788050 words.
 Actual    scratch disk usage=  1132765010 words.
 JobTyp=1 Pass  1:  I=   5 to  17 NPSUse= 40 ParTrn=T ParDer=T DoDerP=T.
 (rs|ai) integrals will be sorted in core.
 Spin components of T(2) and E(2):
     alpha-alpha T2 =       0.2942951805D-01 E2=     -0.1031754983D+00
     alpha-beta  T2 =       0.1742294064D+00 E2=     -0.6485750986D+00
     beta-beta   T2 =       0.2942951805D-01 E2=     -0.1031754983D+00
 ANorm=    0.1110445155D+01
 E2 =    -0.8549260951D+00 EUMP2 =    -0.22987655331503D+03
          IDoAtm=1111111111
          Differentiating once with respect to electric field.
                with respect to dipole field.
          Differentiating once with respect to nuclear coordinates.
 Keep R1 ints in memory in canonical form, NReq=1377718044.
          There are     1 degrees of freedom in the 1st order CPHF.  IDoFFX=0 NUNeed=     1.
 LinEq1:  Iter=  0 NonCon=     1 RMS=2.85D-03 Max=8.32D-02 NDo=     1
 AX will form     1 AO Fock derivatives at one time.
 LinEq1:  Iter=  1 NonCon=     1 RMS=6.69D-04 Max=6.46D-03 NDo=     1
 LinEq1:  Iter=  2 NonCon=     1 RMS=2.36D-04 Max=4.87D-03 NDo=     1
 LinEq1:  Iter=  3 NonCon=     1 RMS=6.92D-05 Max=8.84D-04 NDo=     1
 LinEq1:  Iter=  4 NonCon=     1 RMS=2.72D-05 Max=4.42D-04 NDo=     1
 LinEq1:  Iter=  5 NonCon=     1 RMS=6.26D-06 Max=1.56D-04 NDo=     1
 LinEq1:  Iter=  6 NonCon=     1 RMS=2.04D-06 Max=2.88D-05 NDo=     1
 LinEq1:  Iter=  7 NonCon=     1 RMS=5.65D-07 Max=8.72D-06 NDo=     1
 LinEq1:  Iter=  8 NonCon=     1 RMS=1.22D-07 Max=1.44D-06 NDo=     1
 LinEq1:  Iter=  9 NonCon=     1 RMS=2.59D-08 Max=2.85D-07 NDo=     1
 LinEq1:  Iter= 10 NonCon=     1 RMS=6.33D-09 Max=1.30D-07 NDo=     1
 LinEq1:  Iter= 11 NonCon=     1 RMS=2.57D-09 Max=3.56D-08 NDo=     1
 LinEq1:  Iter= 12 NonCon=     1 RMS=7.42D-10 Max=1.29D-08 NDo=     1
 LinEq1:  Iter= 13 NonCon=     1 RMS=1.05D-10 Max=1.22D-09 NDo=     1
 LinEq1:  Iter= 14 NonCon=     0 RMS=1.48D-11 Max=1.73D-10 NDo=     1
 Linear equations converged to 1.000D-10 1.000D-09 after    14 iterations.
 End of Minotr F.D. properties file   721 does not exist.
 End of Minotr F.D. properties file   722 does not exist.
 End of Minotr F.D. properties file   788 does not exist.
 Calling FoFJK, ICntrl=  10002127 FMM=F ISym2X=0 I1Cent= 0 IOpClX= 0 NMat=1 NMatS=1 NMatT=0.
 ***** Axes restored to original set *****
 -------------------------------------------------------------------
 Center     Atomic                   Forces (Hartrees/Bohr)
 Number     Number              X              Y              Z
 -------------------------------------------------------------------
      1        6          -0.000678433    0.004606026   -0.006376589
      2        6          -0.001512591   -0.006448390    0.001791877
      3        1          -0.000237893   -0.000995734    0.000265764
      4        8          -0.000731738   -0.001718510   -0.000481934
      5        1           0.000745411    0.002472437   -0.000209336
      6        1           0.000932193    0.001204205    0.001550489
      7        1           0.003356554    0.001662588    0.008142141
      8        8          -0.005422881   -0.002793023   -0.013045820
      9        1           0.000184436    0.001532250    0.004728727
     10        1           0.003364942    0.000478151    0.003634682
 -------------------------------------------------------------------
 Cartesian Forces:  Max     0.013045820 RMS     0.003928208

 GradGradGradGradGradGradGradGradGradGradGradGradGradGradGradGradGradGrad
 Berny optimization.
 Using GEDIIS/GDIIS optimizer.
 FormGI is forming the generalized inverse of G from B-inverse, IUseBI=4.
 Internal  Forces:  Max     0.007056546 RMS     0.002894218
 Search for a local minimum.
 Step number   2 out of a maximum of   40
 All quantities printed in internal units (Hartrees-Bohrs-Radians)
 Mixed Optimization -- RFO/linear search
 Update second derivatives using D2CorX and points    1    2
 DE= -5.83D-04 DEPred=-1.48D-03 R= 3.95D-01
 Trust test= 3.95D-01 RLast= 3.15D-01 DXMaxT set to 3.00D-01
 ITU=  0  0
 Use linear search instead of GDIIS.
     Eigenvalues ---    0.00230   0.00230   0.01326   0.02151   0.02459
     Eigenvalues ---    0.02736   0.02972   0.02972   0.04278   0.12331
     Eigenvalues ---    0.15652   0.16000   0.16000   0.16000   0.17309
     Eigenvalues ---    0.18791   0.34586   0.35513   0.35667   0.45032
     Eigenvalues ---    0.50823   0.52080   0.52768   0.58532
 RFO step:  Lambda=-3.64594951D-03 EMin= 2.29999978D-03
 Quartic linear search produced a step of -0.28511.
 Iteration  1 RMS(Cart)=  0.21233621 RMS(Int)=  0.01008547
 Iteration  2 RMS(Cart)=  0.01833165 RMS(Int)=  0.00119030
 Iteration  3 RMS(Cart)=  0.00024471 RMS(Int)=  0.00118531
 Iteration  4 RMS(Cart)=  0.00000029 RMS(Int)=  0.00118531
 Variable       Old X    -DE/DX   Delta X   Delta X   Delta X     New X
                                 (Linear)    (Quad)   (Total)
    R1        2.52353   0.00208  -0.00116   0.01608   0.01491   2.53845
    R2        2.04407  -0.00018   0.00065  -0.00783  -0.00718   2.03688
    R3        2.57312  -0.00265   0.00198  -0.02661  -0.02464   2.54848
    R4        2.04270  -0.00177   0.00200  -0.02677  -0.02476   2.01794
    R5        2.04497  -0.00207   0.00109  -0.01687  -0.01578   2.02919
    R6        1.85558  -0.00382   0.00271  -0.03694  -0.03417   1.82141
    R7        3.29105   0.00489  -0.01135   0.17553   0.16415   3.45521
    R8        1.82809  -0.00425   0.00303  -0.04094  -0.03791   1.79018
    R9        1.82809  -0.00425   0.00303  -0.04094  -0.03791   1.79018
    A1        2.14941  -0.00459   0.00458  -0.06906  -0.06448   2.08493
    A2        2.19341   0.00706  -0.00600   0.09224   0.08624   2.27965
    A3        1.94037  -0.00246   0.00141  -0.02318  -0.02177   1.91860
    A4        2.09728  -0.00211   0.00124  -0.02374  -0.02250   2.07478
    A5        2.12264   0.00037   0.00086  -0.00817  -0.00731   2.11533
    A6        2.06327   0.00174  -0.00210   0.03191   0.02981   2.09308
    A7        1.90542   0.00497   0.00077   0.01363   0.01441   1.91983
    A8        2.19670  -0.00148   0.00289  -0.03476  -0.03246   2.16424
    A9        2.19704  -0.00165   0.00272  -0.03395  -0.03072   2.16632
   A10        1.80789   0.00344  -0.00401   0.06672   0.06137   1.86926
   A11        3.05855   0.00554   0.08387   0.10341   0.18880   3.24734
   A12        3.14146   0.00001   0.00005   0.00025   0.00031   3.14177
    D1       -0.00000  -0.00000   0.00000  -0.00001  -0.00001  -0.00001
    D2        3.14158  -0.00000   0.00000  -0.00005  -0.00005   3.14153
    D3        3.14159   0.00000   0.00000  -0.00001  -0.00000   3.14159
    D4       -0.00002  -0.00000   0.00000  -0.00005  -0.00004  -0.00006
    D5       -0.00005  -0.00000   0.00000  -0.00006  -0.00005  -0.00010
    D6        3.14155  -0.00000   0.00000  -0.00005  -0.00005   3.14150
    D7       -1.79548  -0.00067  -0.01946  -0.02373  -0.03976  -1.83524
    D8        1.79739   0.00066   0.01950   0.02338   0.03945   1.83683
    D9       -2.73553  -0.00053  -0.00417   0.00853   0.00809  -2.72744
         Item               Value     Threshold  Converged?
 Maximum Force            0.007057     0.000450     NO 
 RMS     Force            0.002894     0.000300     NO 
 Maximum Displacement     0.471196     0.001800     NO 
 RMS     Displacement     0.224889     0.001200     NO 
 Predicted change in Energy=-2.178915D-03
 GradGradGradGradGradGradGradGradGradGradGradGradGradGradGradGradGradGrad

                          Input orientation:                          
 ---------------------------------------------------------------------
 Center     Atomic      Atomic             Coordinates (Angstroms)
 Number     Number       Type             X           Y           Z
 ---------------------------------------------------------------------
      1          6           0       -0.311025    1.184294    0.419744
      2          6           0       -0.735188   -0.090248    0.412689
      3          1           0        0.132487    1.590408    1.314270
      4          8           0       -0.335022    2.122884   -0.548343
      5          1           0       -0.622893   -0.676016    1.298447
      6          1           0       -1.181126   -0.523252   -0.462926
      7          1           0       -0.731384    1.760739   -1.348810
      8          8           0       -1.453541    1.246816   -2.948024
      9          1           0       -0.942214    1.041276   -3.718557
     10          1           0       -2.317670    1.496218   -3.245514
 ---------------------------------------------------------------------
                    Distance matrix (angstroms):
                    1          2          3          4          5
     1  C    0.000000
     2  C    1.343288   0.000000
     3  H    1.077872   2.095308   0.000000
     4  O    1.348599   2.445746   1.992843   0.000000
     5  H    2.080897   1.067848   2.389043   3.365612   0.000000
     6  H    2.109951   1.073804   3.058032   2.779429   1.854021
     7  H    1.907033   2.555201   2.804868   0.963846   3.599655
     8  O    3.556840   3.687569   4.560777   2.788736   4.734952
     9  H    4.188602   4.288403   5.175507   3.404235   5.312380
    10  H    4.190231   4.289939   5.177236   3.405633   5.313986
                    6          7          8          9         10
     6  H    0.000000
     7  H    2.490718   0.000000
     8  O    3.063178   1.828418   0.000000
     9  H    3.619939   2.485513   0.947324   0.000000
    10  H    3.621159   2.486717   0.947323   1.524014   0.000000
 Stoichiometry    C2H6O2
 Framework group  C1[X(C2H6O2)]
 Deg. of freedom    24
 Full point group                 C1      NOp   1
 Largest Abelian subgroup         C1      NOp   1
 Largest concise Abelian subgroup C1      NOp   1
                         Standard orientation:                         
 ---------------------------------------------------------------------
 Center     Atomic      Atomic             Coordinates (Angstroms)
 Number     Number       Type             X           Y           Z
 ---------------------------------------------------------------------
      1          6           0        1.321798   -0.314958    0.000056
      2          6           0        1.427857    1.024137   -0.000041
      3          1           0        2.215542   -0.917478    0.000278
      4          8           0        0.231950   -1.109282   -0.000082
      5          1           0        2.400734    1.464377    0.000113
      6          1           0        0.556147    1.651174   -0.000318
      7          1           0       -0.567904   -0.571479   -0.000193
      8          8           0       -2.184440    0.282876   -0.000070
      9          1           0       -2.740339    0.364686    0.762627
     10          1           0       -2.742195    0.364899   -0.761386
 ---------------------------------------------------------------------
 Rotational constants (GHZ):          11.9839450           3.3620844           2.6578232
 Standard basis: Aug-CC-pVTZ (5D, 7F)
 There are   370 symmetry adapted cartesian basis functions of A   symmetry.
 There are   322 symmetry adapted basis functions of A   symmetry.
   322 basis functions,   450 primitive gaussians,   370 cartesian basis functions
    17 alpha electrons       17 beta electrons
       nuclear repulsion energy       117.8400173971 Hartrees.
 NAtoms=   10 NActive=   10 NUniq=   10 SFac= 1.00D+00 NAtFMM=   60 NAOKFM=F Big=F
 Integral buffers will be    131072 words long.
 Raffenetti 1 integral format.
 Two-electron integral symmetry is turned on.
 One-electron integrals computed using PRISM.
 NBasis=   322 RedAO= T EigKep=  8.50D-06  NBF=   322
 NBsUse=   322 1.00D-06 EigRej= -1.00D+00 NBFU=   322
 Initial guess from the checkpoint file:  "/scr/Gau-14654.chk"
 B after Tr=    -0.000000   -0.000000    0.000000
         Rot=    0.999356   -0.000045   -0.000007    0.035890 Ang=  -4.11 deg.
 ExpMin= 2.53D-02 ExpMax= 1.53D+04 ExpMxC= 5.22D+02 IAcc=3 IRadAn=         5 AccDes= 0.00D+00
 Harris functional with IExCor=  205 and IRadAn=       5 diagonalized for initial guess.
 HarFok:  IExCor=  205 AccDes= 0.00D+00 IRadAn=         5 IDoV= 1 UseB2=F ITyADJ=14
 ICtDFT=  3500011 ScaDFX=  1.000000  1.000000  1.000000  1.000000
 FoFCou: FMM=F IPFlag=           0 FMFlag=      100000 FMFlg1=           0
         NFxFlg=           0 DoJE=T BraDBF=F KetDBF=T FulRan=T
         wScrn=  0.000000 ICntrl=       500 IOpCl=  0 I1Cent=   200000004 NGrid=           0
         NMat0=    1 NMatS0=      1 NMatT0=    0 NMatD0=    1 NMtDS0=    0 NMtDT0=    0
 Petite list used in FoFCou.
 Keep R1 ints in memory in canonical form, NReq=1377716038.
 Requested convergence on RMS density matrix=1.00D-08 within 128 cycles.
 Requested convergence on MAX density matrix=1.00D-06.
 Requested convergence on             energy=1.00D-06.
 No special actions if energy rises.
 SCF Done:  E(RHF) =  -229.025522888     A.U. after   12 cycles
            NFock= 12  Conv=0.48D-08     -V/T= 2.0011
 ExpMin= 2.53D-02 ExpMax= 1.53D+04 ExpMxC= 5.22D+02 IAcc=3 IRadAn=         5 AccDes= 0.00D+00
 HarFok:  IExCor=  205 AccDes= 0.00D+00 IRadAn=         5 IDoV=-2 UseB2=F ITyADJ=14
 ICtDFT= 12500011 ScaDFX=  1.000000  1.000000  1.000000  1.000000
 Range of M.O.s used for correlation:     5   322
 NBasis=   322 NAE=    17 NBE=    17 NFC=     4 NFV=     0
 NROrb=    318 NOA=    13 NOB=    13 NVA=   305 NVB=   305

 **** Warning!!: The largest alpha MO coefficient is  0.56226799D+02

 Disk-based method using ON**2 memory for 13 occupieds at a time.
 Estimated scratch disk usage=  1234245180 words.
 Actual    scratch disk usage=  1130333244 words.
 JobTyp=1 Pass  1:  I=   5 to  17 NPSUse= 40 ParTrn=T ParDer=T DoDerP=T.
 (rs|ai) integrals will be sorted in core.
 Spin components of T(2) and E(2):
     alpha-alpha T2 =       0.2904026495D-01 E2=     -0.1024975545D+00
     alpha-beta  T2 =       0.1722645883D+00 E2=     -0.6457492220D+00
     beta-beta   T2 =       0.2904026495D-01 E2=     -0.1024975545D+00
 ANorm=    0.1109209231D+01
 E2 =    -0.8507443309D+00 EUMP2 =    -0.22987626721872D+03
          IDoAtm=1111111111
          Differentiating once with respect to electric field.
                with respect to dipole field.
          Differentiating once with respect to nuclear coordinates.
 Keep R1 ints in memory in canonical form, NReq=1377718044.
          There are     1 degrees of freedom in the 1st order CPHF.  IDoFFX=0 NUNeed=     1.
 LinEq1:  Iter=  0 NonCon=     1 RMS=2.81D-03 Max=8.26D-02 NDo=     1
 AX will form     1 AO Fock derivatives at one time.
 LinEq1:  Iter=  1 NonCon=     1 RMS=6.64D-04 Max=6.37D-03 NDo=     1
 LinEq1:  Iter=  2 NonCon=     1 RMS=2.31D-04 Max=4.68D-03 NDo=     1
 LinEq1:  Iter=  3 NonCon=     1 RMS=6.67D-05 Max=9.14D-04 NDo=     1
 LinEq1:  Iter=  4 NonCon=     1 RMS=2.59D-05 Max=3.80D-04 NDo=     1
 LinEq1:  Iter=  5 NonCon=     1 RMS=6.22D-06 Max=1.85D-04 NDo=     1
 LinEq1:  Iter=  6 NonCon=     1 RMS=1.98D-06 Max=2.05D-05 NDo=     1
 LinEq1:  Iter=  7 NonCon=     1 RMS=5.58D-07 Max=1.03D-05 NDo=     1
 LinEq1:  Iter=  8 NonCon=     1 RMS=1.17D-07 Max=1.50D-06 NDo=     1
 LinEq1:  Iter=  9 NonCon=     1 RMS=2.88D-08 Max=4.98D-07 NDo=     1
 LinEq1:  Iter= 10 NonCon=     1 RMS=6.30D-09 Max=9.59D-08 NDo=     1
 LinEq1:  Iter= 11 NonCon=     1 RMS=1.54D-09 Max=3.46D-08 NDo=     1
 LinEq1:  Iter= 12 NonCon=     1 RMS=6.89D-10 Max=1.16D-08 NDo=     1
 LinEq1:  Iter= 13 NonCon=     1 RMS=9.68D-11 Max=1.04D-09 NDo=     1
 LinEq1:  Iter= 14 NonCon=     0 RMS=1.44D-11 Max=1.46D-10 NDo=     1
 Linear equations converged to 1.000D-10 1.000D-09 after    14 iterations.
 End of Minotr F.D. properties file   721 does not exist.
 End of Minotr F.D. properties file   722 does not exist.
 End of Minotr F.D. properties file   788 does not exist.
 Calling FoFJK, ICntrl=  10002127 FMM=F ISym2X=0 I1Cent= 0 IOpClX= 0 NMat=1 NMatS=1 NMatT=0.
 ***** Axes restored to original set *****
 -------------------------------------------------------------------
 Center     Atomic                   Forces (Hartrees/Bohr)
 Number     Number              X              Y              Z
 -------------------------------------------------------------------
      1        6           0.002315726   -0.005331269    0.011804049
      2        6           0.000988419    0.014349053   -0.010874527
      3        1           0.001633112    0.001390876    0.003392937
      4        8           0.000940575    0.000310037    0.002415000
      5        1           0.000792746   -0.003542900    0.005686514
      6        1          -0.002399557   -0.003501825   -0.003593925
      7        1          -0.003766490   -0.002884963   -0.008105539
      8        8           0.005591171   -0.002002827    0.018158247
      9        1           0.006375673   -0.002511867   -0.012686270
     10        1          -0.012471375    0.003725685   -0.006196486
 -------------------------------------------------------------------
 Cartesian Forces:  Max     0.018158247 RMS     0.006991769

 GradGradGradGradGradGradGradGradGradGradGradGradGradGradGradGradGradGrad
 Berny optimization.
 Using GEDIIS/GDIIS optimizer.
 FormGI is forming the generalized inverse of G from B-inverse, IUseBI=4.
 Internal  Forces:  Max     0.014305064 RMS     0.005619782
 Search for a local minimum.
 Step number   3 out of a maximum of   40
 All quantities printed in internal units (Hartrees-Bohrs-Radians)
 Mixed Optimization -- RFO/linear search
 Update second derivatives using D2CorX and points    1    3    2
 DE=  2.86D-04 DEPred=-2.18D-03 R=-1.31D-01
 Trust test=-1.31D-01 RLast= 3.02D-01 DXMaxT set to 1.50D-01
 ITU= -1  0  0
 Use linear search instead of GDIIS.
     Eigenvalues ---    0.00230   0.00230   0.01395   0.02151   0.02505
     Eigenvalues ---    0.02725   0.02972   0.02972   0.05035   0.14172
     Eigenvalues ---    0.15640   0.16000   0.16000   0.16069   0.16912
     Eigenvalues ---    0.24249   0.35448   0.35589   0.36368   0.49517
     Eigenvalues ---    0.50971   0.52768   0.55353   0.59319
 RFO step:  Lambda=-3.49147697D-04 EMin= 2.29999878D-03
 Quartic linear search produced a step of -0.55578.
 Iteration  1 RMS(Cart)=  0.07718349 RMS(Int)=  0.00165806
 Iteration  2 RMS(Cart)=  0.00187257 RMS(Int)=  0.00052893
 Iteration  3 RMS(Cart)=  0.00000139 RMS(Int)=  0.00052893
 Iteration  4 RMS(Cart)=  0.00000000 RMS(Int)=  0.00052893
 Variable       Old X    -DE/DX   Delta X   Delta X   Delta X     New X
                                 (Linear)    (Quad)   (Total)
    R1        2.53845  -0.00669  -0.00829  -0.00249  -0.01078   2.52766
    R2        2.03688   0.00401   0.00399   0.00423   0.00823   2.04511
    R3        2.54848   0.00232   0.01369  -0.00193   0.01176   2.56024
    R4        2.01794   0.00674   0.01376   0.00465   0.01841   2.03635
    R5        2.02919   0.00534   0.00877   0.00330   0.01207   2.04126
    R6        1.82141   0.01046   0.01899   0.00365   0.02263   1.84403
    R7        3.45521   0.00106  -0.09123   0.03540  -0.05583   3.39938
    R8        1.79018   0.01431   0.02107   0.00591   0.02698   1.81716
    R9        1.79018   0.01430   0.02107   0.00591   0.02698   1.81716
    A1        2.08493   0.00657   0.03584   0.00049   0.03632   2.12125
    A2        2.27965  -0.01342  -0.04793  -0.00925  -0.05719   2.22247
    A3        1.91860   0.00685   0.01210   0.00877   0.02086   1.93947
    A4        2.07478  -0.00132   0.01250  -0.00986   0.00265   2.07743
    A5        2.11533   0.00224   0.00406   0.00659   0.01065   2.12598
    A6        2.09308  -0.00092  -0.01657   0.00327  -0.01330   2.07978
    A7        1.91983  -0.00083  -0.00801   0.00983   0.00183   1.92165
    A8        2.16424   0.00088   0.01804  -0.00340   0.01495   2.17918
    A9        2.16632   0.00099   0.01707  -0.00326   0.01360   2.17993
   A10        1.86926  -0.00210  -0.03411   0.00524  -0.02829   1.84097
   A11        3.24734  -0.00153  -0.10493   0.05507  -0.05056   3.19678
   A12        3.14177   0.00001  -0.00017   0.00118   0.00101   3.14278
    D1       -0.00001   0.00000   0.00000  -0.00000   0.00000  -0.00001
    D2        3.14153   0.00000   0.00003   0.00000   0.00003   3.14156
    D3        3.14159   0.00000   0.00000   0.00000   0.00001  -3.14159
    D4       -0.00006   0.00000   0.00002   0.00001   0.00003  -0.00003
    D5       -0.00010   0.00000   0.00003  -0.00001   0.00002  -0.00007
    D6        3.14150   0.00000   0.00003  -0.00000   0.00003   3.14152
    D7       -1.83524  -0.00037   0.02210  -0.01300   0.00759  -1.82765
    D8        1.83683   0.00037  -0.02192   0.01324  -0.00717   1.82966
    D9       -2.72744   0.00040  -0.00449   0.00382  -0.00236  -2.72980
         Item               Value     Threshold  Converged?
 Maximum Force            0.014305     0.000450     NO 
 RMS     Force            0.005620     0.000300     NO 
 Maximum Displacement     0.170373     0.001800     NO 
 RMS     Displacement     0.077663     0.001200     NO 
 Predicted change in Energy=-9.296812D-04
 GradGradGradGradGradGradGradGradGradGradGradGradGradGradGradGradGradGrad

                          Input orientation:                          
 ---------------------------------------------------------------------
 Center     Atomic      Atomic             Coordinates (Angstroms)
 Number     Number       Type             X           Y           Z
 ---------------------------------------------------------------------
      1          6           0       -0.298248    1.202662    0.438922
      2          6           0       -0.744238   -0.055474    0.353411
      3          1           0        0.143710    1.585941    1.349407
      4          8           0       -0.319978    2.149800   -0.529582
      5          1           0       -0.659914   -0.699696    1.213102
      6          1           0       -1.186107   -0.442549   -0.553083
      7          1           0       -0.720807    1.788834   -1.342765
      8          8           0       -1.443435    1.211085   -2.885480
      9          1           0       -0.943562    0.977872   -3.673146
     10          1           0       -2.324994    1.434646   -3.197808
 ---------------------------------------------------------------------
                    Distance matrix (angstroms):
                    1          2          3          4          5
     1  C    0.000000
     2  C    1.337582   0.000000
     3  H    1.082226   2.115350   0.000000
     4  O    1.354823   2.413070   2.015824   0.000000
     5  H    2.085455   1.077591   2.426629   3.357400   0.000000
     6  H    2.116386   1.080188   3.082638   2.733315   1.860756
     7  H    1.922645   2.505800   2.834845   0.975821   3.567765
     8  O    3.516131   3.547318   4.538041   2.773733   4.589484
     9  H    4.168461   4.161814   5.174741   3.412369   5.173984
    10  H    4.169811   4.162980   5.176346   3.413351   5.175329
                    6          7          8          9         10
     6  H    0.000000
     7  H    2.412296   0.000000
     8  O    2.870680   1.798876   0.000000
     9  H    3.436746   2.477490   0.961602   0.000000
    10  H    3.437368   2.477912   0.961600   1.530667   0.000000
 Stoichiometry    C2H6O2
 Framework group  C1[X(C2H6O2)]
 Deg. of freedom    24
 Full point group                 C1      NOp   1
 Largest Abelian subgroup         C1      NOp   1
 Largest concise Abelian subgroup C1      NOp   1
                         Standard orientation:                         
 ---------------------------------------------------------------------
 Center     Atomic      Atomic             Coordinates (Angstroms)
 Number     Number       Type             X           Y           Z
 ---------------------------------------------------------------------
      1          6           0        1.338827   -0.288870    0.000245
      2          6           0        1.320993    1.048594   -0.000146
      3          1           0        2.268660   -0.842604    0.001027
      4          8           0        0.272698   -1.124880   -0.000242
      5          1           0        2.256166    1.583992    0.000337
      6          1           0        0.395537    1.605673   -0.000959
      7          1           0       -0.556685   -0.610731   -0.000883
      8          8           0       -2.135564    0.251299    0.000067
      9          1           0       -2.709071    0.346930    0.765980
     10          1           0       -2.710596    0.347040   -0.764686
 ---------------------------------------------------------------------
 Rotational constants (GHZ):          11.7560823           3.5256805           2.7470774
 Standard basis: Aug-CC-pVTZ (5D, 7F)
 There are   370 symmetry adapted cartesian basis functions of A   symmetry.
 There are   322 symmetry adapted basis functions of A   symmetry.
   322 basis functions,   450 primitive gaussians,   370 cartesian basis functions
    17 alpha electrons       17 beta electrons
       nuclear repulsion energy       118.3574573443 Hartrees.
 NAtoms=   10 NActive=   10 NUniq=   10 SFac= 1.00D+00 NAtFMM=   60 NAOKFM=F Big=F
 Integral buffers will be    131072 words long.
 Raffenetti 1 integral format.
 Two-electron integral symmetry is turned on.
 One-electron integrals computed using PRISM.
 NBasis=   322 RedAO= T EigKep=  9.42D-06  NBF=   322
 NBsUse=   322 1.00D-06 EigRej= -1.00D+00 NBFU=   322
 Lowest energy guess from the checkpoint file:  "/scr/Gau-14654.chk"
 B after Tr=    -0.000000    0.000000    0.000000
         Rot=    0.999750   -0.000047   -0.000003    0.022366 Ang=  -2.56 deg.
 B after Tr=    -0.000000    0.000000   -0.000000
         Rot=    0.999910    0.000008    0.000001   -0.013404 Ang=   1.54 deg.
 Keep R1 ints in memory in canonical form, NReq=1377716038.
 Requested convergence on RMS density matrix=1.00D-08 within 128 cycles.
 Requested convergence on MAX density matrix=1.00D-06.
 Requested convergence on             energy=1.00D-06.
 No special actions if energy rises.
 SCF Done:  E(RHF) =  -229.024696524     A.U. after   10 cycles
            NFock= 10  Conv=0.42D-08     -V/T= 2.0016
 ExpMin= 2.53D-02 ExpMax= 1.53D+04 ExpMxC= 5.22D+02 IAcc=3 IRadAn=         5 AccDes= 0.00D+00
 HarFok:  IExCor=  205 AccDes= 0.00D+00 IRadAn=         5 IDoV=-2 UseB2=F ITyADJ=14
 ICtDFT= 12500011 ScaDFX=  1.000000  1.000000  1.000000  1.000000
 Range of M.O.s used for correlation:     5   322
 NBasis=   322 NAE=    17 NBE=    17 NFC=     4 NFV=     0
 NROrb=    318 NOA=    13 NOB=    13 NVA=   305 NVB=   305

 **** Warning!!: The largest alpha MO coefficient is  0.57815625D+02

 Disk-based method using ON**2 memory for 13 occupieds at a time.
 Estimated scratch disk usage=  1234979862 words.
 Actual    scratch disk usage=  1130945558 words.
 JobTyp=1 Pass  1:  I=   5 to  17 NPSUse= 40 ParTrn=T ParDer=T DoDerP=T.
 (rs|ai) integrals will be sorted in core.
 Spin components of T(2) and E(2):
     alpha-alpha T2 =       0.2925362092D-01 E2=     -0.1027984422D+00
     alpha-beta  T2 =       0.1735277412D+00 E2=     -0.6472829038D+00
     beta-beta   T2 =       0.2925362092D-01 E2=     -0.1027984422D+00
 ANorm=    0.1109970713D+01
 E2 =    -0.8528797883D+00 EUMP2 =    -0.22987757631236D+03
          IDoAtm=1111111111
          Differentiating once with respect to electric field.
                with respect to dipole field.
          Differentiating once with respect to nuclear coordinates.
 Keep R1 ints in memory in canonical form, NReq=1377718044.
          There are     1 degrees of freedom in the 1st order CPHF.  IDoFFX=0 NUNeed=     1.
 LinEq1:  Iter=  0 NonCon=     1 RMS=2.82D-03 Max=8.30D-02 NDo=     1
 AX will form     1 AO Fock derivatives at one time.
 LinEq1:  Iter=  1 NonCon=     1 RMS=6.67D-04 Max=6.29D-03 NDo=     1
 LinEq1:  Iter=  2 NonCon=     1 RMS=2.34D-04 Max=4.78D-03 NDo=     1
 LinEq1:  Iter=  3 NonCon=     1 RMS=6.77D-05 Max=9.04D-04 NDo=     1
 LinEq1:  Iter=  4 NonCon=     1 RMS=2.66D-05 Max=3.98D-04 NDo=     1
 LinEq1:  Iter=  5 NonCon=     1 RMS=6.19D-06 Max=1.69D-04 NDo=     1
 LinEq1:  Iter=  6 NonCon=     1 RMS=1.99D-06 Max=2.20D-05 NDo=     1
 LinEq1:  Iter=  7 NonCon=     1 RMS=5.58D-07 Max=9.70D-06 NDo=     1
 LinEq1:  Iter=  8 NonCon=     1 RMS=1.18D-07 Max=1.35D-06 NDo=     1
 LinEq1:  Iter=  9 NonCon=     1 RMS=2.73D-08 Max=4.57D-07 NDo=     1
 LinEq1:  Iter= 10 NonCon=     1 RMS=6.09D-09 Max=1.25D-07 NDo=     1
 LinEq1:  Iter= 11 NonCon=     1 RMS=1.38D-09 Max=2.24D-08 NDo=     1
 LinEq1:  Iter= 12 NonCon=     1 RMS=5.61D-10 Max=1.06D-08 NDo=     1
 LinEq1:  Iter= 13 NonCon=     0 RMS=9.89D-11 Max=9.49D-10 NDo=     1
 Linear equations converged to 1.000D-10 1.000D-09 after    13 iterations.
 End of Minotr F.D. properties file   721 does not exist.
 End of Minotr F.D. properties file   722 does not exist.
 End of Minotr F.D. properties file   788 does not exist.
 Calling FoFJK, ICntrl=  10002127 FMM=F ISym2X=0 I1Cent= 0 IOpClX= 0 NMat=1 NMatS=1 NMatT=0.
 ***** Axes restored to original set *****
 -------------------------------------------------------------------
 Center     Atomic                   Forces (Hartrees/Bohr)
 Number     Number              X              Y              Z
 -------------------------------------------------------------------
      1        6           0.000078968    0.000051010    0.000182625
      2        6          -0.000085237    0.000578006   -0.000796177
      3        1          -0.000041732   -0.000011162   -0.000112688
      4        8          -0.000120775    0.000259832   -0.000573329
      5        1           0.000059275   -0.000108110    0.000274742
      6        1          -0.000091117   -0.000028282   -0.000239260
      7        1           0.000965922    0.000058503    0.002699394
      8        8          -0.000841193   -0.001399392   -0.001078731
      9        1           0.000092487    0.000282324   -0.000195517
     10        1          -0.000016599    0.000317272   -0.000161057
 -------------------------------------------------------------------
 Cartesian Forces:  Max     0.002699394 RMS     0.000680831

 GradGradGradGradGradGradGradGradGradGradGradGradGradGradGradGradGradGrad
 Berny optimization.
 Using GEDIIS/GDIIS optimizer.
 FormGI is forming the generalized inverse of G from B-inverse, IUseBI=4.
 Internal  Forces:  Max     0.002373334 RMS     0.000673175
 Search for a local minimum.
 Step number   4 out of a maximum of   40
 All quantities printed in internal units (Hartrees-Bohrs-Radians)
 Mixed Optimization -- En-DIIS/RFO-DIIS
 Update second derivatives using D2CorX and points    1    3    2    4
 DE= -1.02D-03 DEPred=-9.30D-04 R= 1.10D+00
 TightC=F SS=  1.41D+00  RLast= 1.95D-01 DXNew= 2.5227D-01 5.8356D-01
 Trust test= 1.10D+00 RLast= 1.95D-01 DXMaxT set to 2.52D-01
 ITU=  1 -1  0  0
 Use linear search instead of GDIIS.
     Eigenvalues ---    0.00230   0.00230   0.01363   0.02151   0.02645
     Eigenvalues ---    0.02730   0.02972   0.02972   0.03973   0.14364
     Eigenvalues ---    0.15640   0.15990   0.16000   0.16048   0.18725
     Eigenvalues ---    0.25111   0.35449   0.35642   0.36339   0.49800
     Eigenvalues ---    0.50975   0.52768   0.56062   0.59532
 RFO step:  Lambda=-1.54017123D-04 EMin= 2.29999839D-03
 Quartic linear search produced a step of  0.06714.
 Iteration  1 RMS(Cart)=  0.01184043 RMS(Int)=  0.00011905
 Iteration  2 RMS(Cart)=  0.00008592 RMS(Int)=  0.00008810
 Iteration  3 RMS(Cart)=  0.00000002 RMS(Int)=  0.00008810
 Variable       Old X    -DE/DX   Delta X   Delta X   Delta X     New X
                                 (Linear)    (Quad)   (Total)
    R1        2.52766  -0.00033   0.00028  -0.00036  -0.00008   2.52759
    R2        2.04511  -0.00012   0.00007  -0.00005   0.00002   2.04513
    R3        2.56024  -0.00083  -0.00086  -0.00331  -0.00417   2.55607
    R4        2.03635   0.00029  -0.00043   0.00055   0.00013   2.03648
    R5        2.04126   0.00025  -0.00025   0.00061   0.00036   2.04162
    R6        1.84403  -0.00086  -0.00078  -0.00303  -0.00380   1.84023
    R7        3.39938   0.00180   0.00727   0.04284   0.05011   3.44949
    R8        1.81716   0.00014  -0.00073  -0.00051  -0.00124   1.81592
    R9        1.81716   0.00014  -0.00073  -0.00051  -0.00124   1.81592
    A1        2.12125   0.00071  -0.00189   0.00097  -0.00092   2.12033
    A2        2.22247  -0.00134   0.00195  -0.00468  -0.00273   2.21974
    A3        1.93947   0.00064  -0.00006   0.00371   0.00365   1.94312
    A4        2.07743  -0.00007  -0.00133  -0.00313  -0.00446   2.07296
    A5        2.12598  -0.00004   0.00022   0.00048   0.00070   2.12669
    A6        2.07978   0.00011   0.00111   0.00265   0.00376   2.08354
    A7        1.92165  -0.00237   0.00109  -0.01510  -0.01401   1.90764
    A8        2.17918  -0.00011  -0.00118  -0.00639  -0.00776   2.17143
    A9        2.17993   0.00001  -0.00115  -0.00559  -0.00689   2.17304
   A10        1.84097  -0.00006   0.00222  -0.00068   0.00129   1.84226
   A11        3.19678  -0.00024   0.00928   0.00009   0.00946   3.20624
   A12        3.14278  -0.00001   0.00009  -0.00616  -0.00607   3.13671
    D1       -0.00001   0.00000  -0.00000   0.00001   0.00001   0.00001
    D2        3.14156   0.00000  -0.00000   0.00005   0.00005  -3.14158
    D3       -3.14159  -0.00000   0.00000  -0.00001  -0.00001   3.14158
    D4       -0.00003   0.00000  -0.00000   0.00002   0.00002  -0.00001
    D5       -0.00007   0.00000  -0.00000   0.00003   0.00003  -0.00005
    D6        3.14152   0.00000  -0.00000   0.00001   0.00000   3.14153
    D7       -1.82765  -0.00017  -0.00216  -0.01728  -0.01924  -1.84689
    D8        1.82966   0.00017   0.00217   0.01755   0.01951   1.84917
    D9       -2.72980   0.00038   0.00038   0.03071   0.03124  -2.69856
         Item               Value     Threshold  Converged?
 Maximum Force            0.002373     0.000450     NO 
 RMS     Force            0.000673     0.000300     NO 
 Maximum Displacement     0.026955     0.001800     NO 
 RMS     Displacement     0.011808     0.001200     NO 
 Predicted change in Energy=-7.093235D-05
 GradGradGradGradGradGradGradGradGradGradGradGradGradGradGradGradGradGrad

                          Input orientation:                          
 ---------------------------------------------------------------------
 Center     Atomic      Atomic             Coordinates (Angstroms)
 Number     Number       Type             X           Y           Z
 ---------------------------------------------------------------------
      1          6           0       -0.296615    1.205694    0.443393
      2          6           0       -0.743310   -0.051559    0.349613
      3          1           0        0.141210    1.583228    1.358279
      4          8           0       -0.314415    2.153623   -0.521325
      5          1           0       -0.661633   -0.696515    1.209092
      6          1           0       -1.181352   -0.434547   -0.560693
      7          1           0       -0.713043    1.783415   -1.329005
      8          8           0       -1.451434    1.196821   -2.891933
      9          1           0       -0.948964    0.975806   -3.680660
     10          1           0       -2.328019    1.437155   -3.203783
 ---------------------------------------------------------------------
                    Distance matrix (angstroms):
                    1          2          3          4          5
     1  C    0.000000
     2  C    1.337541   0.000000
     3  H    1.082238   2.114784   0.000000
     4  O    1.352615   2.409421   2.016396   0.000000
     5  H    2.082770   1.077657   2.421578   3.352341   0.000000
     6  H    2.116917   1.080378   3.082700   2.729791   1.863028
     7  H    1.910122   2.487127   2.826891   0.973810   3.548892
     8  O    3.529601   3.545068   4.555230   2.797868   4.585511
     9  H    4.181653   4.164237   5.191180   3.430934   5.175799
    10  H    4.181157   4.165837   5.189493   3.429798   5.177148
                    6          7          8          9         10
     6  H    0.000000
     7  H    2.393527   0.000000
     8  O    2.858144   1.825392   0.000000
     9  H    3.431807   2.497634   0.960944   0.000000
    10  H    3.435701   2.498567   0.960944   1.530375   0.000000
 Stoichiometry    C2H6O2
 Framework group  C1[X(C2H6O2)]
 Deg. of freedom    24
 Full point group                 C1      NOp   1
 Largest Abelian subgroup         C1      NOp   1
 Largest concise Abelian subgroup C1      NOp   1
                         Standard orientation:                         
 ---------------------------------------------------------------------
 Center     Atomic      Atomic             Coordinates (Angstroms)
 Number     Number       Type             X           Y           Z
 ---------------------------------------------------------------------
      1          6           0        1.345039   -0.281677   -0.000876
      2          6           0        1.307191    1.055328    0.000325
      3          1           0        2.283561   -0.820571   -0.003611
      4          8           0        0.290944   -1.129290    0.001012
      5          1           0        2.236744    1.600554   -0.001496
      6          1           0        0.373722    1.599245    0.003062
      7          1           0       -0.535817   -0.614736    0.003512
      8          8           0       -2.144645    0.247653   -0.000598
      9          1           0       -2.720833    0.325934    0.764447
     10          1           0       -2.721144    0.320765   -0.765919
 ---------------------------------------------------------------------
 Rotational constants (GHZ):          11.6966353           3.5106437           2.7346912
 Standard basis: Aug-CC-pVTZ (5D, 7F)
 There are   370 symmetry adapted cartesian basis functions of A   symmetry.
 There are   322 symmetry adapted basis functions of A   symmetry.
   322 basis functions,   450 primitive gaussians,   370 cartesian basis functions
    17 alpha electrons       17 beta electrons
       nuclear repulsion energy       118.2667975080 Hartrees.
 NAtoms=   10 NActive=   10 NUniq=   10 SFac= 1.00D+00 NAtFMM=   60 NAOKFM=F Big=F
 Integral buffers will be    131072 words long.
 Raffenetti 1 integral format.
 Two-electron integral symmetry is turned on.
 One-electron integrals computed using PRISM.
 NBasis=   322 RedAO= T EigKep=  9.48D-06  NBF=   322
 NBsUse=   322 1.00D-06 EigRej= -1.00D+00 NBFU=   322
 Initial guess from the checkpoint file:  "/scr/Gau-14654.chk"
 B after Tr=    -0.000000   -0.000000    0.000000
         Rot=    0.999994    0.000157    0.000010   -0.003507 Ang=   0.40 deg.
 ExpMin= 2.53D-02 ExpMax= 1.53D+04 ExpMxC= 5.22D+02 IAcc=3 IRadAn=         5 AccDes= 0.00D+00
 Harris functional with IExCor=  205 and IRadAn=       5 diagonalized for initial guess.
 HarFok:  IExCor=  205 AccDes= 0.00D+00 IRadAn=         5 IDoV= 1 UseB2=F ITyADJ=14
 ICtDFT=  3500011 ScaDFX=  1.000000  1.000000  1.000000  1.000000
 FoFCou: FMM=F IPFlag=           0 FMFlag=      100000 FMFlg1=           0
         NFxFlg=           0 DoJE=T BraDBF=F KetDBF=T FulRan=T
         wScrn=  0.000000 ICntrl=       500 IOpCl=  0 I1Cent=   200000004 NGrid=           0
         NMat0=    1 NMatS0=      1 NMatT0=    0 NMatD0=    1 NMtDS0=    0 NMtDT0=    0
 Petite list used in FoFCou.
 Keep R1 ints in memory in canonical form, NReq=1377716038.
 Requested convergence on RMS density matrix=1.00D-08 within 128 cycles.
 Requested convergence on MAX density matrix=1.00D-06.
 Requested convergence on             energy=1.00D-06.
 No special actions if energy rises.
 SCF Done:  E(RHF) =  -229.025066357     A.U. after    9 cycles
            NFock=  9  Conv=0.49D-08     -V/T= 2.0015
 ExpMin= 2.53D-02 ExpMax= 1.53D+04 ExpMxC= 5.22D+02 IAcc=3 IRadAn=         5 AccDes= 0.00D+00
 HarFok:  IExCor=  205 AccDes= 0.00D+00 IRadAn=         5 IDoV=-2 UseB2=F ITyADJ=14
 ICtDFT= 12500011 ScaDFX=  1.000000  1.000000  1.000000  1.000000
 Range of M.O.s used for correlation:     5   322
 NBasis=   322 NAE=    17 NBE=    17 NFC=     4 NFV=     0
 NROrb=    318 NOA=    13 NOB=    13 NVA=   305 NVB=   305

 **** Warning!!: The largest alpha MO coefficient is  0.54469418D+02

 Disk-based method using ON**2 memory for 13 occupieds at a time.
 Estimated scratch disk usage=  1234979862 words.
 Actual    scratch disk usage=  1130945558 words.
 JobTyp=1 Pass  1:  I=   5 to  17 NPSUse= 40 ParTrn=T ParDer=T DoDerP=T.
 (rs|ai) integrals will be sorted in core.
 Spin components of T(2) and E(2):
     alpha-alpha T2 =       0.2922487704D-01 E2=     -0.1027499370D+00
     alpha-beta  T2 =       0.1734057381D+00 E2=     -0.6471129691D+00
     beta-beta   T2 =       0.2922487704D-01 E2=     -0.1027499370D+00
 ANorm=    0.1109889856D+01
 E2 =    -0.8526128432D+00 EUMP2 =    -0.22987767920009D+03
          IDoAtm=1111111111
          Differentiating once with respect to electric field.
                with respect to dipole field.
          Differentiating once with respect to nuclear coordinates.
 Keep R1 ints in memory in canonical form, NReq=1377718044.
          There are     1 degrees of freedom in the 1st order CPHF.  IDoFFX=0 NUNeed=     1.
 LinEq1:  Iter=  0 NonCon=     1 RMS=2.82D-03 Max=8.27D-02 NDo=     1
 AX will form     1 AO Fock derivatives at one time.
 LinEq1:  Iter=  1 NonCon=     1 RMS=6.65D-04 Max=6.27D-03 NDo=     1
 LinEq1:  Iter=  2 NonCon=     1 RMS=2.33D-04 Max=4.74D-03 NDo=     1
[...]
 ,0.00068779,-0.00038716,-0.00041332,-0.00081904,-0.00034866,-0.0005678
 2,-0.00043827,-0.00040912,-0.00022366,-0.00102870,-0.00001344,0.000090
 41,0.00000345,-0.00011535,-0.00029612,-0.00003980,0.00000964,0.0000161
 4,0.00001289,-0.00004713,-0.00002326,-0.00002309,0.00007996,0.00010573
 ,0.00007153,0.00006943,0.00010307,-0.00003621,-0.00000279,0.00005812,0
 .00012863,0.00013831,0.00007049,0.00007406,0.00008478,-0.00021022,-0.0
 0059256,-0.00004749,0.00000932,0.00005656,-0.00002310,-0.00001476,-0.0
 0007951,-0.00002970,0.00017616,0.00040129,0.00014136,-0.00001879,-0.00
 003841,0.00002761,0.00006883,0.00008384,0.00012516,0.00008850,-0.00001
 476,0.00001628,0.00013192,-0.00011216,-0.00011915,-0.00029166,-0.00007
 537,0.00002110,0.00000239,0.00005861,-0.00002541,-0.00005772,-0.000086
 31,0.00000700,-0.00005230,0.00008447,0.00007474,0.00036443,-0.00008282
 ,0.00013773,0.00011258,0.00026799,-0.00009927,0.00001306,0.00010068,0.
 00002629,0.00001502,0.00001862,-0.00001076,-0.00003126,-0.00001530,-0.
 00001135,-0.00000541,-0.00000527,-0.00000152,-0.00001844,-0.00004744,-
 0.00000230,-0.00002134,-0.00000820,0.00000793,-0.00001068,0.00009178,0
 .00001890,0.00000698,0.00005512,-0.00009100,-0.00000426,-0.00001376,0.
 00000512,-0.00000676,-0.00005282,0.00003531,0.00006168,0.00007307,-0.0
 0000949,-0.00000392,-0.00000294,0.00001205,-0.00001799,0.00002384,-0.0
 0005016,-0.00001299,-0.00000304,-0.00003463,-0.00002667,-0.00002215,0.
 00001211,0.00002707,-0.00000857,0.00000381,-0.00009305,0.00002792,-0.0
 0006909,0.00005582,-0.00002542,0.00000174,0.00000208,-0.00000817,0.000
 04120,0.00005963,0.00006190,-0.00000798,-0.00000748,-0.00000207,0.0000
 0987,-0.00000584,-0.00000728,-0.00002121,-0.00003361,-0.00004505,-0.00
 002975,0.00004713,-0.00004631,0.00002195,-0.00000484,-0.00001739,-0.00
 000695,-0.00017539,-0.00012113,-0.00002537,0.00010626,0.00014541,-0.00
 001393,-0.00003913,-0.00000480,0.00003272,0.00010229,0.00004860,0.0000
 0635,-0.00000136,0.00000714,-0.00000341,0.00001010,-0.00000097,-0.0000
 1421,-0.00000629,-0.00004110,-0.00001332,0.00000940,-0.00008461,-0.000
 00823,0.00001775,-0.00001316,-0.00002765,-0.00016527,0.00000077,0.0000
 5871,0.00001681,0.00001648,-0.00001703,-0.00000017,-0.00002842,0.00004
 354,-0.00002418,0.00004857,-0.00000429,0.00000689,-0.00001027,0.000002
 45,-0.00002026,0.00001541,-0.00006053,-0.00001305,-0.00000486,-0.00002
 173,0.00003197,-0.00004397,0.00005042,-0.00000094,-0.00000210,0.000031
 99,-0.00004952,0.00008159,-0.00015361,0.00001357,-0.00000988,0.0000120
 6,0.00005569,-0.00004606,-0.00000148,0.00003032,-0.00000045,0.00002225
 ,0.00001543,0.00003871,-0.00000052,-0.00001235,-0.00000930,-0.00002989
 ,-0.00000708,-0.00000430,-0.00002964,-0.00003398,-0.00002932,0.0000334
 6,0.00001839,-0.00000156,-0.00000448,0.00001206,0.00002234,-0.00001114
 ,-0.00011632,-0.00003392,-0.00005019,-0.00000617,0.00004010,0.00007164
 ,0.00009971,-0.00002232,0.00512373,-0.00667749,-0.02882162,-0.00174778
 ,0.01618385,-0.01259826,0.00220721,0.00115264,0.00058548,-0.00615817,-
 0.00032851,0.00209382,-0.00159122,0.00186734,-0.00269074,0.00201625,0.
 00272274,0.00485090,-0.00014800,0.00163052,-0.00878122,0.00044944,-0.0
 0070224,-0.00034457,0.00035697,-0.00019442,-0.00039945,-0.00152158,0.0
 0082645,0.00423127,-0.00090068,-0.00021205,-0.00005555,-0.00003042,0.0
 0044300,-0.00293059,-0.00183812,-0.00539198,0.00066589,-0.00037807,0.0
 0006729,-0.00059778,0.00180857,0.00191076,0.00109102,-0.02166137,0.004
 52813,-0.00935813,0.00128268,-0.00057186,0.00097374,0.00057505,0.00102
 564,-0.00058113,0.03447922,-0.00776829,0.02152083,-0.06196301,-0.00053
 828,-0.00462724,0.00391149,0.00104748,0.00175752,0.00177244,1.31147424
 ,0.00553298,0.00235416,-0.02661455,0.01230647,0.00098489,0.00389591,0.
 00024591,-0.00061150,0.00168009,-0.00292459,2.56317555,2.54658252,3.67
 164121,-0.00027760,-0.00004046,0.00002226,0.00171116,-0.00047561,-0.00
 036933,0.00012385,0.00000324,-0.00005033,0.00141952,-0.00061484,-0.000
 45687,-0.00114122,0.00003660,-0.00024817,0.00004361,-0.00049102,0.0006
 7277,-0.00012738,-0.00003702,0.00010510,-0.00006128,-0.00060395,-0.000
 54756,0.00048257,0.00032334,-0.00047718,-0.00001641,-0.00014416,-0.000
 20770,-0.00036977,-0.00009124,0.00107944,-0.00002111,0.00004802,0.0000
 4592,-0.00046668,0.00044398,0.00001187,0.00027680,0.00009137,-0.000682
 30,-0.00022811,0.00037313,-0.00035585,0.00222535,-0.00006783,-0.000294
 95,-0.00042665,0.00003840,0.00015609,-0.00070904,0.00009126,0.00038391
 ,-0.00020813,-0.00003491,-0.00012121,-0.00161135,0.00027305,0.00031939
 ,0.00021404,-0.00028822,0.00171110,-0.00015588,0.00009082,-0.00015622,
 -0.00005875,0.00022271,0.00009675,-0.00024605,-0.00010551,-0.00019905,
 -0.00026389,-0.00015290,-0.00190572,-0.00025208,0.00057658,-0.00150351
 ,-0.00009992,0.00040192,0.00169269,0.00010167,-0.00021714,0.00002308,0
 .00024976,-0.00066064,0.00045916,-0.00004410,-0.00003640,-0.00025312,0
 .00031574,-0.00025432,-0.00052998,0.01608504,0.00795868,0.00961671,-0.
 00214316,-0.00185028,-0.00171775,0.00073143,-0.00337226,0.00200784,-0.
 01491846,-1.30340598,-2.55747578,-0.00173778,0.00049022,0.00062620,0.0
 0052394,-0.00039814,-0.00008707,0.00958619,0.01495344,0.00516686,0.047
 79776,-0.00171938,0.00209209,-0.00785237,-0.00071011,-0.00377627,0.002
 66682,-1.31418776,-0.02507898,-2.52150682,0.00085621,0.00047361,-0.000
 00256,-0.00026768,-0.00001421,-0.00007934,1.29274196,0.02899313,0.0029
 7094,0.02781429,-0.00785540,-0.00184682,-0.00825547,0.00158660,-0.0005
 4093,-0.00502614,0.00440871,-2.54709281,-2.49043405,-3.66411599,0.0002
 7349,-0.00107615,-0.00031196,-0.00022443,-0.00049488,0.00052307,2.5237
 2856,2.46529026,3.63035393,-0.00146434,-0.00547927,0.00120959,0.000496
 07,0.00124521,-0.00008827,-0.00028805,0.00105948,-0.00092340,0.0005720
 6,0.00009313,-0.00677008,0.00008682,0.00028434,0.00005657,0.00037319,0
 .00027561,-0.00015963,-0.01389380,0.00505408,0.01874303,0.03512813,-0.
 00111771,-0.00307850,-0.00035613,0.00007902,0.00035654,-0.00000288,0.0
 0010702,0.00068544,-0.00064767,-0.00069648,0.00232839,-0.00146149,0.00
 006488,0.00023533,-0.00006699,0.00001218,0.00022044,0.00014575,0.00499
 790,-0.01112965,0.00400345,-0.00612091,0.01135922,-0.00298622,-0.01304
 624,0.00378550,0.00103089,0.00337606,-0.00013897,-0.00001159,0.0021242
 1,-0.00237978,-0.00605052,0.00082927,-0.01533398,0.00026982,0.00057773
 ,0.00019451,0.00008862,0.00089731,-0.00026396,0.01873569,0.00405197,0.
 02833939,-0.01096008,0.01046091,-0.00057814,-0.00016706,-0.00139521,0.
 00078802,0.00013974,0.00059609,-0.00001520,-0.00000925,0.00018044,-0.0
 0031530,-0.00180847,-0.00057534,-0.00292230,0.00000559,0.00004161,-0.0
 0002946,-0.00001146,0.00005250,-0.00003785,0.00851980,0.00374851,0.007
 92041,-0.01456670,-0.00385201,0.00282257,0.00745879,-0.00007679,-0.000
 31604,0.00008667,0.00009262,0.00006911,-0.00006023,0.00001621,0.000028
 96,-0.00006947,-0.00068301,-0.00019157,-0.00052377,-0.00000912,-0.0000
 1452,0.00001031,-0.00004933,-0.00001902,0.00009386,0.00365431,-0.00041
 546,0.00069583,-0.00615184,0.00426752,-0.00235045,0.00201231,-0.004090
 00,-0.00018994,-0.00077753,0.00006193,0.00003082,0.00015689,0.00005663
 ,0.00008878,0.00014973,-0.00011899,-0.00072885,0.00013927,-0.00016605,
 0.00005307,0.00004001,0.00007361,-0.00000513,0.00019362,-0.00004956,0.
 00487683,0.00259682,-0.00005967,0.00019427,-0.00407194,-0.00763723,-0.
 00672888,0.00184830,0.00622357,-0.00006708,0.00028192,-0.00041584,-0.0
 0011768,-0.00021988,0.00004295,0.00000886,0.00000771,0.00011388,0.0007
 6880,0.00019661,0.00133801,0.00001774,-0.00000918,0.00006515,0.0000722
 6,0.00002996,0.00001348,-0.00275320,-0.00046929,-0.00393143,-0.0064433
 9,0.00652611,-0.00293917,0.00043902,0.00119463,0.00240902,0.00807468,-
 0.00012086,-0.00086814,0.00048500,0.00005754,0.00037887,-0.00003562,-0
 .00006081,0.00011007,-0.00018809,-0.00050764,-0.00079103,-0.00228842,-
 0.00000203,-0.00000045,-0.00002457,0.00005754,-0.00005359,0.00002951,-
 0.00081641,0.00368885,0.00748286,0.00974017,-0.00524475,-0.00692076,-0
 .00080891,0.00068103,-0.00027516,-0.00753860,0.00209914,-0.00031096,-0
 .00132328,0.00049393,0.00021052,0.00040941,0.00000590,-0.00006973,0.00
 026201,-0.00021342,-0.00012098,-0.00062140,-0.00212404,0.00002521,0.00
 006606,0.00004958,0.00005724,0.00016862,-0.00009758,-0.00031126,0.0070
 3741,0.00713133,-0.00130197,-0.00800305,-0.00598731,-0.00148203,0.0002
 6896,0.00161577,0.00330395,0.00173525,-0.00087418,-0.00013107,-0.00003
 231,-0.00013176,0.00008288,0.00027473,-0.00023772,-0.00003461,0.000066
 84,0.00017866,-0.00026925,0.00025415,0.00007462,0.00034416,-0.00025554
 ,-0.00033121,0.00002140,-0.00015464,0.00010114,-0.00010991,-0.00045650
 ,-0.00010582,0.00009841,-0.00000168,-0.00006742,-0.00000675,0.00002976
 ,0.00000591,-0.00013645,-0.00006166,0.00004478,-0.00011621,0.00004996,
 0.00007389,0.00005266,-0.00000805,-0.00015936,-0.00004623,-0.00003117,
 0.00003841,-0.00000655,0.00004367,-0.00008347,0.00004968,0.00001020,-0
 .00001986,0.00014094,0.00006513,-0.00005872,0.00009266,-0.00018299,-0.
 00008652,-0.00001303,0.00000097,0.00000744,-0.00037315,-0.00019273,-0.
 00007039,-0.00040843,-0.00003463,-0.00016122,0.00019327,0.00000093,-0.
 00001009,0.00001546,0.00479120,0.00054890,0.00017766,0.00025393,0.0004
 5772,-0.00018545,-0.00015264,-0.00022742,-0.00000550,-0.00001440,-0.00
 000785,0.00870406,0.00859333,0.01177480,0.00003291,0.00002907,-0.00004
 888,0.00011120,0.00001944,0.00004583,0.00010249,-0.00002350,-0.0000266
 8,-0.00006922,0.00000485,0.00003475,-0.00025760,-0.00000750,0.00004550
 ,-0.00006466,-0.00000213,0.00000101,0.00010493,-0.00004275,0.00004115,
 -0.00003700,0.00003556,-0.00001412,0.00003649,0.00005031,-0.00007628,0
 .00002027,0.00007508,0.00000232,0.00004956,0.00015311,0.00014890,-0.00
 001751,0.00001139,0.00007023,0.00000594,-0.00005685,-0.00001206,0.0000
 1021,-0.00005972,-0.00024151,-0.00002139,0.00003054,-0.00002023,0.0001
 9137,0.00011140,0.00004847,-0.00009263,0.00003166,0.00005324,-0.000006
 30,0.00001802,0.00004535,0.00010862,-0.00005488,-0.00009525,-0.0002630
 0,0.00002470,-0.00010148,0.00008874,0.00005416,0.00017807,0.00017991,0
 .00005308,0.00000861,0.00003032,-0.00004572,0.00001044,-0.00013344,-0.
 00006484,0.00005883,-0.00008992,-0.00003659,-0.00011517,-0.00000597,0.
 00018627,-0.00021808,0.00008870,0.00026813,0.00014927,0.00002822,-0.00
 003952,0.00001327,0.00009774,0.00001595,0.00022060,-0.00007724,-0.0000
 4181,-0.00002847,-0.00006914,-0.00024433,-0.00020510,-0.00008543,-0.00
 038984,0.00009644,-0.00005189,0.00012437,0.00006621,0.00001642,0.00004
 674,-0.00005127,0.00027631,-0.00491221,-0.00950053,-0.00000130,0.00002
 674,0.00002118,0.00005730,0.00004011,-0.00010121,-0.00087335,-0.000039
 74,-0.00031822,0.00017503,0.00009695,0.00015209,0.00002318,-0.00002088
 ,0.00006445,-0.00009639,-0.00503588,-0.00018623,-0.00937098,0.00001863
 ,0.00001530,0.00002365,-0.00005649,0.00007581,-0.00014082,0.00575415,-
 0.00002437,-0.00025347,-0.00080788,0.00004688,0.00009492,0.00010491,0.
 00004905,0.00000973,0.00010394,-0.00004312,-0.00935952,-0.00901501,-0.
 01313909,0.00002694,0.00003470,0.00001850,-0.00001647,0.00011151,-0.00
 006723,0.01068020,0.01039747,0.01433500,0.00003885,-0.00009736,-0.0000
 8062,-0.00003437,0.00002190,-0.00001265,-0.00001170,0.00002288,-0.0000
 0543,0.00029881,0.00043516,0.00044561,0.00002340,-0.00001567,-0.000010
 55,0.00000420,-0.00008838,0.00000926,-0.00082902,-0.00019784,0.0001218
 1,2.85466309,-0.00005621,0.00003064,-0.00010163,0.00002188,0.00003475,
 -0.00001559,0.00000551,-0.00001256,0.00001406,0.00030619,0.00042331,0.
 00044182,-0.00002506,-0.00000099,-0.00004260,-0.00006302,-0.00011947,-
 0.00003677,0.00001065,-0.00077956,0.00009007,-1.55222638,-0.49365320,-
 0.00012394,-0.00023862,-0.00002245,-0.00000982,-0.00000704,-0.00006038
 ,0.00001307,0.00007279,-0.00004866,0.00057975,0.00082352,0.00084901,0.
 00000089,-0.00000994,0.00003725,-0.00002353,-0.00012148,0.00008143,-0.
 00006806,-0.00051104,-0.00045820,-0.88565631,-0.54019083,1.60429805,0.
 00001658,0.00057598,-0.00031784,-0.00008236,-0.00029323,-0.00001111,0.
 00004182,-0.00005469,0.00009632,0.00000524,-0.00012256,0.00081115,0.00
 000488,0.00000892,0.00007330,0.00002134,0.00005937,0.00003065,0.000321
 64,-0.00061491,-0.00201010,-0.78472660,0.05172220,1.85246888,0.8121164
 5,0.00001219,0.00008676,0.00000808,0.00010286,0.00004208,0.00001706,-0
 .00002152,-0.00001477,0.00000068,-0.00009036,-0.00022724,-0.00002575,-
 0.00002276,-0.00003354,-0.00002580,-0.00005349,0.00001129,0.00003291,0
 .00017132,0.00049164,-0.00019670,0.02635191,0.66353775,-0.01015513,-0.
 05967633,-0.69110078,0.00006287,0.00007591,0.00000873,-0.00008710,-0.0
 0004993,0.00004538,-0.00000677,-0.00003459,0.00000849,-0.00005130,-0.0
 0004042,-0.00017134,0.00003390,0.00000859,-0.00002893,0.00008008,0.000
 06763,0.00000627,-0.00030529,-0.00017589,0.00004410,1.92870946,-0.0441
 5082,-1.86371784,-1.91033186,0.03285191,1.83953819,-0.00005536,-0.0002
 4673,0.00023564,0.00008404,0.00017092,0.00003246,0.00000152,-0.0000040
 5,-0.00007062,-0.00035227,0.00001194,-0.00052714,-0.00005534,0.0000017
 5,-0.00005708,0.00000046,0.00000374,-0.00000094,0.00116929,0.00009600,
 0.00070595,-2.06942665,1.50030424,-0.96718091,-0.02771900,0.03322619,-
 0.01810398,2.09635331,0.00009889,0.00033898,-0.00019997,-0.00010013,-0
 .00006360,0.00005586,0.00000561,-0.00003602,0.00005019,0.00015590,-0.0
 0031333,0.00037162,0.00001398,-0.00003653,0.00001159,0.00007275,-0.000
 00721,0.00000004,-0.00087202,0.00050905,-0.00082298,1.52579379,-0.1694
 6065,0.55033776,0.00839524,0.02720682,0.01144763,-1.53356401,0.1418624
 8,0.00006433,0.00036588,-0.00017708,-0.00001299,-0.00024787,-0.0000165
 9,-0.00000928,-0.00004554,0.00007232,0.00016107,-0.00012091,0.00025555
 ,0.00000058,0.00002904,0.00003392,-0.00000271,0.00011032,0.00004827,-0
 .00083768,-0.00032421,-0.00078592,-1.04352055,0.58399228,0.25904183,0.
 05919061,-0.02250725,0.02426694,0.98496661,-0.56125175,-0.28273925,-0.
 00008422,-0.00003784,-0.00090183,-0.00013989,0.00111547,-0.00155385,0.
 00000637,0.00009718,-0.00000927,-0.00019865,0.00009622,0.00024057,-0.0
 0018059,0.00002496,-0.00001344,0.00001324,-0.00013454,0.00015456,0.000
 07075,-0.00003331,-0.00007594,0.00014252,-0.00002635,0.00009053,0.0000
 1083,0.00003218,-0.00008627,-0.00022305,-0.00008938,0.00001172,-0.0001
 6758,0.00000926,0.00005572,-0.00000021,-0.00002656,-0.00017065,0.00011
 479,-0.00007430,0.00054033,-0.00005794,0.00011516,-0.00025071,0.000004
 75,-0.00009433,-0.00011419,0.00000173,-0.00003784,-0.00008172,0.000142
 27,-0.00007020,-0.00004253,0.00000996,0.00007115,-0.00008445,-0.000463
 69,-0.00002856,0.00064789,-0.00071156,-0.00014612,-0.00042259,0.000119
 09,0.00004325,0.00002338,0.00013506,0.00001478,-0.00041397,-0.00010059
 ,-0.00082944,0.00058951,0.00007254,0.00042316,-0.00003302,-0.00007032,
 0.00018707,-0.00035562,-0.00005462,0.00006552,-0.00081185,0.00004630,0
 .00001750,-0.00004374,0.00006488,-0.00003170,-0.00002996,0.00008252,-0
 .00000819,-0.00001693,-0.00008844,0.00002227,0.00003154,-0.00027592,0.
 00001571,0.00005351,0.00000816,-0.00006322,0.00018315,-0.00024560,-0.0
 0005543,0.00001545,-0.00007620,0.00002731,-0.00004654,0.00002102,0.000
 04946,-0.00030966,-0.00000748,0.00004914,-0.00003709,-0.00001707,-0.00
 016991,0.00026211,0.00001894,0.00005299,0.00010729,0.00002715,0.000001
 42,-0.00003062,0.00009610,0.00011425,-0.00020748,0.00005171,-0.0000355
 1,0.00006684,-0.00001893,-0.00002554,0.00010210,-0.00008137,0.00007091
 ,0.00006351,-0.00003389,0.00003801,-0.00001683,0.00018739,0.00001877,-
 0.00012700,-0.00010650,-0.00003144,0.00000254,-0.00010878,0.00011452,0
 .00002115,0.00032771,0.00006406,0.00003115,0.00003568,0.00000332,-0.00
 000595,0.00001077,-0.00007760,0.00007816,-0.00008367,-0.00005631,-0.00
 012724,0.00007105,-0.00004106,0.00028552,-0.00004468,-0.00015243,-0.00
 001869,0.00006530,0.00004718,0.00003257,0.00000778,0.00007627,-0.00010
 872,-0.00002670,0.00021403,-0.00006113,-0.00004785,-0.00014019,-0.0000
 8828,-0.00014418,0.00016055,0.00001065,-0.00009044,-0.00004074,-0.0000
 0356,0.00007801,-0.00005279,0.00000169,0.00038400,0.00002835,0.0002926
 2,-0.00001891,0.00001169,0.00001395,0.00007011,-0.00002601,-0.00003018
 ,-0.00020761,0.00010902,0.00027534,-0.00016444,-0.00000359,-0.00009439
 ,0.00000618,-0.00003806,-0.00000054,-0.00001029,0.00005885,-0.00002933
 ,0.00047277,0.00001412,0.00000654,0.00000918,-0.00004398,-0.00001502,-
 0.00000748,-0.00032791,-0.00011457,0.00004408,0.00001780,-0.00009232,-
 0.00003644,-0.00009876,-0.00009516,-0.00001623,-0.00004943,0.00010423,
 0.00028970,0.00038312,0.00078333,0.00000967,-0.00000983,0.00000131,-0.
 00002042,0.00001741,0.00002054,-0.00046999,-0.00082343,-0.00057457,0.0
 0009981,-0.00048569,0.00025217,-0.00002781,0.00016333,-0.00002386,-0.0
 0006306,0.00007831,-0.00003893,0.00049213,0.00036458,-0.00013660,0.000
 06150,-0.00000216,-0.00000475,0.00000628,-0.00005691,-0.00006413,-0.00
 157025,0.00036743,0.00083252,2.78248567,-0.00017949,-0.00126518,0.0008
 5258,0.00005828,0.00027901,-0.00017608,0.00001471,0.00012997,-0.000149
 94,0.00001665,0.00132468,-0.00085320,0.00002420,0.00008844,0.00004459,
 -0.00000790,-0.00001976,0.00004199,0.00093040,-0.00103684,0.00185358,-
 1.60655800,-0.59304465,-0.00004516,-0.00004248,0.00009325,0.00007481,0
 .00012546,0.00002113,0.00002363,0.00003991,-0.00004563,0.00020695,0.00
 015658,0.00082324,-0.00002635,-0.00002551,0.00000482,-0.00011640,-0.00
 010450,-0.00018777,0.00030789,0.00022962,-0.00123983,-0.83399071,-0.66
 296558,1.77073324,-0.00001399,0.00037644,-0.00013235,0.00002588,-0.000
 15946,-0.00002158,0.00002337,-0.00003843,0.00002616,-0.00029881,-0.000
 35533,0.00004495,-0.00001657,0.00000580,0.00001820,-0.00003445,0.00002
 552,0.00006834,0.00076310,-0.00012688,-0.00060327,-0.69604056,0.010842
 61,1.97210492,0.69262169,-0.00001158,0.00042475,-0.00027764,0.00002505
 ,-0.00011635,0.00005331,0.00001120,-0.00004950,0.00004801,-0.00026282,
 -0.00039609,0.00032094,-0.00001819,-0.00003428,-0.00001163,-0.00001694
 ,0.00003144,-0.00001662,0.00036369,0.00028882,-0.00079567,0.01133597,0
 .74206086,0.01014525,-0.00803324,-0.74006431,0.00006742,-0.00012124,0.
 00001372,-0.00005481,0.00002720,0.00003992,-0.00003159,0.00000128,-0.0
 0001084,0.00001488,-0.00008639,-0.00049058,0.00002135,-0.00001010,-0.0
 0003374,0.00006071,0.00002264,0.00004671,-0.00034304,0.00024919,0.0007
 3319,1.96820515,0.01080833,-2.02259977,-1.96919019,-0.00746676,2.01720
 270,-0.00010607,-0.00002851,-0.00001328,0.00008566,0.00001121,0.000021
 56,0.00002028,-0.00001432,-0.00001264,-0.00014527,0.00001880,-0.000062
 71,-0.00004277,-0.00000801,-0.00001784,-0.00004035,0.00004080,0.000001
 04,0.00073616,-0.00000907,-0.00002960,-2.08544369,1.59485852,-1.138539
 56,0.00297033,-0.00339313,0.00125012,2.08196570,0.00015724,0.00051084,
 -0.00036606,-0.00011621,-0.00013239,0.00008338,-0.00001905,-0.00004688
 ,0.00007120,0.00017879,-0.00068143,0.00018134,0.00000821,-0.00003517,-
 0.00000580,0.00005847,0.00000356,-0.00002179,-0.00104727,0.00071988,-0
 .00049477,1.59479314,-0.14851650,0.65244125,-0.00253703,-0.00214533,-0
 .00342416,-1.59147629,0.15032342,-0.00001748,0.00006031,0.00000662,0.0
 0000213,-0.00005562,-0.00000445,0.00000128,-0.00001678,-0.00000743,-0.
 00028315,-0.00013910,-0.00036574,-0.00001492,0.00000989,-0.00000549,0.
 00003528,0.00002275,0.00007927,0.00021994,0.00003861,0.00035931,-1.135
 03083,0.65054370,0.25239740,-0.00231518,-0.00199919,0.00509868,1.13740
 292,-0.64846459,-0.25755818\\@
 The archive entry for this job was punched.


 Where a calculator on the ENIAC is equipped with 18,000
 vacuum tubes and weighs 30 tons, computers inthe future
 may  have only 1,000 vacuum tubes and weigh only 1 1/2 tons.
              ---Popular Mechanics, March 1949
 Job cpu time:      19 days 22 hours 14 minutes 54.1 seconds.
 Elapsed time:       0 days 12 hours 19 minutes 56.4 seconds.
 File lengths (MBytes):  RWF=  25546 Int=      0 D2E=      0 Chk=     56 Scr=      1
 Normal termination of Gaussian 16 at Fri Apr  4 08:18:05 2025.
