 Entering Gaussian System, Link 0=g16
 Input=enolc_nh3_mp2_avdz_opt_anharm.gjf
 Output=enolc_nh3_mp2_avdz_opt_anharm.log
 Initial command:
 /sw/contrib/chem-src/g16/c01/g16/l1.exe "/scr/Gau-8465.inp" -scrdir="/scr/"
 Entering Link 1 = /sw/contrib/chem-src/g16/c01/g16/l1.exe PID=      8466.
  
 Copyright (c) 1988-2019, Gaussian, Inc.  All Rights Reserved.
  
 This is part of the Gaussian(R) 16 program.  It is based on
 the Gaussian(R) 09 system (copyright 2009, Gaussian, Inc.),
 the Gaussian(R) 03 system (copyright 2003, Gaussian, Inc.),
 the Gaussian(R) 98 system (copyright 1998, Gaussian, Inc.),
 the Gaussian(R) 94 system (copyright 1995, Gaussian, Inc.),
 the Gaussian 92(TM) system (copyright 1992, Gaussian, Inc.),
 the Gaussian 90(TM) system (copyright 1990, Gaussian, Inc.),
 the Gaussian 88(TM) system (copyright 1988, Gaussian, Inc.),
 the Gaussian 86(TM) system (copyright 1986, Carnegie Mellon
 University), and the Gaussian 82(TM) system (copyright 1983,
 Carnegie Mellon University). Gaussian is a federally registered
 trademark of Gaussian, Inc.
  
 This software contains proprietary and confidential information,
 including trade secrets, belonging to Gaussian, Inc.
  
 This software is provided under written license and may be
 used, copied, transmitted, or stored only in accord with that
 written license.
  
 The following legend is applicable only to US Government
 contracts under FAR:
  
                    RESTRICTED RIGHTS LEGEND
  
 Use, reproduction and disclosure by the US Government is
 subject to restrictions as set forth in subparagraphs (a)
 and (c) of the Commercial Computer Software - Restricted
 Rights clause in FAR 52.227-19.
  
 Gaussian, Inc.
 340 Quinnipiac St., Bldg. 40, Wallingford CT 06492
  
  
 ---------------------------------------------------------------
 Warning -- This program may not be used in any manner that
 competes with the business of Gaussian, Inc. or will provide
 assistance to any competitor of Gaussian, Inc.  The licensee
 of this program is prohibited from giving any competitor of
 Gaussian, Inc. access to this program.  By using this program,
 the user acknowledges that Gaussian, Inc. is engaged in the
 business of creating and licensing software in the field of
 computational chemistry and represents and warrants to the
 licensee that it is not a competitor of Gaussian, Inc. and that
 it will not use this program in any manner prohibited above.
 ---------------------------------------------------------------
  

 Cite this work as:
 Gaussian 16, Revision C.01,
 M. J. Frisch, G. W. Trucks, H. B. Schlegel, G. E. Scuseria, 
 M. A. Robb, J. R. Cheeseman, G. Scalmani, V. Barone, 
 G. A. Petersson, H. Nakatsuji, X. Li, M. Caricato, A. V. Marenich, 
 J. Bloino, B. G. Janesko, R. Gomperts, B. Mennucci, H. P. Hratchian, 
 J. V. Ortiz, A. F. Izmaylov, J. L. Sonnenberg, D. Williams-Young, 
 F. Ding, F. Lipparini, F. Egidi, J. Goings, B. Peng, A. Petrone, 
 T. Henderson, D. Ranasinghe, V. G. Zakrzewski, J. Gao, N. Rega, 
 G. Zheng, W. Liang, M. Hada, M. Ehara, K. Toyota, R. Fukuda, 
 J. Hasegawa, M. Ishida, T. Nakajima, Y. Honda, O. Kitao, H. Nakai, 
 T. Vreven, K. Throssell, J. A. Montgomery, Jr., J. E. Peralta, 
 F. Ogliaro, M. J. Bearpark, J. J. Heyd, E. N. Brothers, K. N. Kudin, 
 V. N. Staroverov, T. A. Keith, R. Kobayashi, J. Normand, 
 K. Raghavachari, A. P. Rendell, J. C. Burant, S. S. Iyengar, 
 J. Tomasi, M. Cossi, J. M. Millam, M. Klene, C. Adamo, R. Cammi, 
 J. W. Ochterski, R. L. Martin, K. Morokuma, O. Farkas, 
 J. B. Foresman, and D. J. Fox, Gaussian, Inc., Wallingford CT, 2019.
 
 ******************************************
 Gaussian 16:  EM64L-G16RevC.01  3-Jul-2019
                21-Mar-2025 
 ******************************************
 %nprocshared=40
 Will use up to   40 processors via shared memory.
 %mem=50gb
 ----------------------------------------------
 # MP2/aug-cc-pVDZ opt freq=(vibrot,anharmonic)
 ----------------------------------------------
 1/18=20,19=15,38=1,80=1/1,3;
 2/9=110,12=2,17=6,18=5,40=1/2;
 3/5=16,7=10,11=9,25=1,30=1,71=1/1,2,3;
 4//1;
 5/5=2,38=5/2;
 8/6=4,10=1/1;
 9/15=2,16=-3/6;
 10/5=1/2;
 6/7=2,8=2,9=2,10=2/1;
 7/12=2/1,2,3,16;
 1/18=20,19=15,80=1/3(2);
 2/9=110/2;
 99//99;
 2/9=110/2;
 3/5=16,7=10,11=9,25=1,30=1,71=1/1,2,3;
 4/5=5,16=3,69=1/1;
 5/5=2,38=5/2;
 8/6=4,10=1/1;
 9/15=2,16=-3/6;
 10/5=1/2;
 7/12=2/1,2,3,16;
 1/18=20,19=15,80=1/3(-8);
 2/9=110/2;
 6/7=2,8=2,9=2,10=2/1;
 99/9=10/99;
 ----
 blah
 ----
 Symbolic Z-matrix:
 Charge =  0 Multiplicity = 1
 C                    -0.23663   1.21429   0.49743 
 C                    -0.69851  -0.03573   0.53762 
 H                     0.25828   1.70442   1.32664 
 O                    -0.32518   2.03837  -0.58741 
 H                    -0.59132  -0.63128   1.43788 
 H                    -1.1889   -0.49169  -0.31448 
 H                    -0.78019   1.56532  -1.32682 
 N                    -1.52677   1.09545  -2.85366 
 H                    -1.10601   0.33915  -3.40021 
 H                    -2.53176   0.90188  -2.87124 
 H                    -1.41637   1.9277   -3.44149 
 
 Add virtual bond connecting atoms N8         and H7         Dist= 3.33D+00.

 GradGradGradGradGradGradGradGradGradGradGradGradGradGradGradGradGradGrad
 Berny optimization.
 Initialization pass.
                           ----------------------------
                           !    Initial Parameters    !
                           ! (Angstroms and Degrees)  !
 --------------------------                            --------------------------
 ! Name  Definition              Value          Derivative Info.                !
 --------------------------------------------------------------------------------
 ! R1    R(1,2)                  1.3332         estimate D2E/DX2                !
 ! R2    R(1,3)                  1.0829         estimate D2E/DX2                !
 ! R3    R(1,4)                  1.3652         estimate D2E/DX2                !
 ! R4    R(2,5)                  1.0847         estimate D2E/DX2                !
 ! R5    R(2,6)                  1.0837         estimate D2E/DX2                !
 ! R6    R(4,7)                  0.9887         estimate D2E/DX2                !
 ! R7    R(7,8)                  1.7633         estimate D2E/DX2                !
 ! R8    R(8,9)                  1.0236         estimate D2E/DX2                !
 ! R9    R(8,10)                 1.0236         estimate D2E/DX2                !
 ! R10   R(8,11)                 1.0249         estimate D2E/DX2                !
 ! A1    A(2,1,3)              124.0277         estimate D2E/DX2                !
 ! A2    A(2,1,4)              124.5717         estimate D2E/DX2                !
 ! A3    A(3,1,4)              111.4006         estimate D2E/DX2                !
 ! A4    A(1,2,5)              120.368          estimate D2E/DX2                !
 ! A5    A(1,2,6)              121.8396         estimate D2E/DX2                !
 ! A6    A(5,2,6)              117.7924         estimate D2E/DX2                !
 ! A7    A(1,4,7)              109.5915         estimate D2E/DX2                !
 ! A8    A(7,8,9)              119.0244         estimate D2E/DX2                !
 ! A9    A(7,8,10)             118.747          estimate D2E/DX2                !
 ! A10   A(7,8,11)             103.5709         estimate D2E/DX2                !
 ! A11   A(9,8,10)             104.7552         estimate D2E/DX2                !
 ! A12   A(9,8,11)             104.4457         estimate D2E/DX2                !
 ! A13   A(10,8,11)            104.4459         estimate D2E/DX2                !
 ! A14   L(4,7,8,6,-1)         194.096          estimate D2E/DX2                !
 ! A15   L(4,7,8,6,-2)         179.9892         estimate D2E/DX2                !
 ! D1    D(3,1,2,5)             -0.0004         estimate D2E/DX2                !
 ! D2    D(3,1,2,6)            179.9994         estimate D2E/DX2                !
 ! D3    D(4,1,2,5)            179.9994         estimate D2E/DX2                !
 ! D4    D(4,1,2,6)             -0.0008         estimate D2E/DX2                !
 ! D5    D(2,1,4,7)             -0.0017         estimate D2E/DX2                !
 ! D6    D(3,1,4,7)            179.9981         estimate D2E/DX2                !
 ! D7    D(1,4,8,9)            -66.7898         estimate D2E/DX2                !
 ! D8    D(1,4,8,10)            68.0683         estimate D2E/DX2                !
 ! D9    D(1,4,8,11)          -179.4405         estimate D2E/DX2                !
 --------------------------------------------------------------------------------
 Trust Radius=3.00D-01 FncErr=1.00D-07 GrdErr=1.00D-07 EigMax=2.50D+02 EigMin=1.00D-04
 Number of steps in this run=     44 maximum allowed number of steps=    100.
 GradGradGradGradGradGradGradGradGradGradGradGradGradGradGradGradGradGrad

                          Input orientation:                          
 ---------------------------------------------------------------------
 Center     Atomic      Atomic             Coordinates (Angstroms)
 Number     Number       Type             X           Y           Z
 ---------------------------------------------------------------------
      1          6           0       -0.236631    1.214286    0.497433
      2          6           0       -0.698506   -0.035728    0.537622
      3          1           0        0.258280    1.704423    1.326641
      4          8           0       -0.325184    2.038372   -0.587407
      5          1           0       -0.591320   -0.631278    1.437881
      6          1           0       -1.188896   -0.491694   -0.314477
      7          1           0       -0.780192    1.565324   -1.326819
      8          7           0       -1.526767    1.095453   -2.853659
      9          1           0       -1.106005    0.339149   -3.400212
     10          1           0       -2.531760    0.901882   -2.871239
     11          1           0       -1.416373    1.927700   -3.441492
 ---------------------------------------------------------------------
                    Distance matrix (angstroms):
                    1          2          3          4          5
     1  C    0.000000
     2  C    1.333222   0.000000
     3  H    1.082939   2.136847   0.000000
     4  O    1.365224   2.388923   2.028677   0.000000
     5  H    2.101513   1.084728   2.487910   3.361495   0.000000
     6  H    2.115745   1.083726   3.100084   2.687327   1.856701
     7  H    1.935609   2.458899   2.852827   0.988705   3.536142
     8  N    3.592825   3.669656   4.586082   2.732911   4.719532
     9  H    4.088192   3.976573   5.105722   3.377709   4.961227
    10  H    4.088174   3.982495   5.103978   3.372904   4.968340
    11  H    4.173233   4.494856   5.058597   3.057572   5.571118
                    6          7          8          9         10
     6  H    0.000000
     7  H    2.328777   0.000000
     8  N    3.013410   1.763348   0.000000
     9  H    3.196706   2.430766   1.023600   0.000000
    10  H    3.206613   2.427628   1.023616   1.621499   0.000000
    11  H    3.960231   2.237830   1.024875   1.619113   1.619129
                   11
    11  H    0.000000
 Stoichiometry    C2H7NO
 Framework group  C1[X(C2H7NO)]
 Deg. of freedom    27
 Full point group                 C1      NOp   1
 Largest Abelian subgroup         C1      NOp   1
 Largest concise Abelian subgroup C1      NOp   1
                         Standard orientation:                         
 ---------------------------------------------------------------------
 Center     Atomic      Atomic             Coordinates (Angstroms)
 Number     Number       Type             X           Y           Z
 ---------------------------------------------------------------------
      1          6           0       -1.366605   -0.335352    0.000024
      2          6           0       -1.418070    0.996877   -0.000019
      3          1           0       -2.240047   -0.975551    0.000116
      4          8           0       -0.213390   -1.066058   -0.000046
      5          1           0       -2.374440    1.508726    0.000033
      6          1           0       -0.520169    1.603701   -0.000101
      7          1           0        0.565198   -0.456683   -0.000160
      8          7           0        2.176682    0.259218   -0.000046
      9          1           0        2.471993    0.817869   -0.805314
     10          1           0        2.474949    0.800286    0.816087
     11          1           0        2.800908   -0.553562   -0.010003
 ---------------------------------------------------------------------
 Rotational constants (GHZ):          12.2423450           3.4531855           2.7320305
 Standard basis: Aug-CC-pVDZ (5D, 7F)
 There are   163 symmetry adapted cartesian basis functions of A   symmetry.
 There are   155 symmetry adapted basis functions of A   symmetry.
   155 basis functions,   249 primitive gaussians,   163 cartesian basis functions
    17 alpha electrons       17 beta electrons
       nuclear repulsion energy       120.2848456009 Hartrees.
 NAtoms=   11 NActive=   11 NUniq=   11 SFac= 1.00D+00 NAtFMM=   60 NAOKFM=F Big=F
 Integral buffers will be    131072 words long.
 Raffenetti 1 integral format.
 Two-electron integral symmetry is turned on.
 One-electron integrals computed using PRISM.
 NBasis=   155 RedAO= T EigKep=  5.19D-05  NBF=   155
 NBsUse=   155 1.00D-06 EigRej= -1.00D+00 NBFU=   155
 ExpMin= 2.97D-02 ExpMax= 1.17D+04 ExpMxC= 4.01D+02 IAcc=3 IRadAn=         5 AccDes= 0.00D+00
 Harris functional with IExCor=  205 and IRadAn=       5 diagonalized for initial guess.
 HarFok:  IExCor=  205 AccDes= 0.00D+00 IRadAn=         5 IDoV= 1 UseB2=F ITyADJ=14
 ICtDFT=  3500011 ScaDFX=  1.000000  1.000000  1.000000  1.000000
 FoFCou: FMM=F IPFlag=           0 FMFlag=      100000 FMFlg1=           0
         NFxFlg=           0 DoJE=T BraDBF=F KetDBF=T FulRan=T
         wScrn=  0.000000 ICntrl=       500 IOpCl=  0 I1Cent=   200000004 NGrid=           0
         NMat0=    1 NMatS0=      1 NMatT0=    0 NMatD0=    1 NMtDS0=    0 NMtDT0=    0
 Petite list used in FoFCou.
 Keep R1 ints in memory in canonical form, NReq=81814054.
 Requested convergence on RMS density matrix=1.00D-08 within 128 cycles.
 Requested convergence on MAX density matrix=1.00D-06.
 Requested convergence on             energy=1.00D-06.
 No special actions if energy rises.
 SCF Done:  E(RHF) =  -209.130454664     A.U. after   12 cycles
            NFock= 12  Conv=0.93D-08     -V/T= 2.0017
 ExpMin= 2.97D-02 ExpMax= 1.17D+04 ExpMxC= 4.01D+02 IAcc=3 IRadAn=         5 AccDes= 0.00D+00
 HarFok:  IExCor=  205 AccDes= 0.00D+00 IRadAn=         5 IDoV=-2 UseB2=F ITyADJ=14
 ICtDFT= 12500011 ScaDFX=  1.000000  1.000000  1.000000  1.000000
 Range of M.O.s used for correlation:     5   155
 NBasis=   155 NAE=    17 NBE=    17 NFC=     4 NFV=     0
 NROrb=    151 NOA=    13 NOB=    13 NVA=   138 NVB=   138

 **** Warning!!: The largest alpha MO coefficient is  0.36699796D+02

 Fully direct method using O(ONN) memory.
 JobTyp=1 Pass  1:  I=   5 to  17 NPSUse= 40 ParTrn=T ParDer=T DoDerP=T.
 Spin components of T(2) and E(2):
     alpha-alpha T2 =       0.2785995444D-01 E2=     -0.8480784181D-01
     alpha-beta  T2 =       0.1657280875D+00 E2=     -0.5189056167D+00
     beta-beta   T2 =       0.2785995444D-01 E2=     -0.8480784181D-01
 ANorm=    0.1105191385D+01
 E2 =    -0.6885213003D+00 EUMP2 =    -0.20981897596422D+03
          IDoAtm=11111111111
          Differentiating once with respect to electric field.
                with respect to dipole field.
          Differentiating once with respect to nuclear coordinates.
 Keep R1 ints in memory in canonical form, NReq=81823634.
          There are     1 degrees of freedom in the 1st order CPHF.  IDoFFX=0 NUNeed=     1.
 LinEq1:  Iter=  0 NonCon=     1 RMS=4.22D-03 Max=6.36D-02 NDo=     1
 AX will form     1 AO Fock derivatives at one time.
 LinEq1:  Iter=  1 NonCon=     1 RMS=1.01D-03 Max=8.66D-03 NDo=     1
 LinEq1:  Iter=  2 NonCon=     1 RMS=3.89D-04 Max=4.73D-03 NDo=     1
 LinEq1:  Iter=  3 NonCon=     1 RMS=9.78D-05 Max=1.14D-03 NDo=     1
 LinEq1:  Iter=  4 NonCon=     1 RMS=3.61D-05 Max=4.27D-04 NDo=     1
 LinEq1:  Iter=  5 NonCon=     1 RMS=8.67D-06 Max=1.43D-04 NDo=     1
 LinEq1:  Iter=  6 NonCon=     1 RMS=2.66D-06 Max=2.50D-05 NDo=     1
 LinEq1:  Iter=  7 NonCon=     1 RMS=6.17D-07 Max=5.14D-06 NDo=     1
 LinEq1:  Iter=  8 NonCon=     1 RMS=1.18D-07 Max=1.32D-06 NDo=     1
 LinEq1:  Iter=  9 NonCon=     1 RMS=2.69D-08 Max=2.69D-07 NDo=     1
 LinEq1:  Iter= 10 NonCon=     1 RMS=6.78D-09 Max=1.00D-07 NDo=     1
 LinEq1:  Iter= 11 NonCon=     1 RMS=2.32D-09 Max=2.16D-08 NDo=     1
 LinEq1:  Iter= 12 NonCon=     1 RMS=7.30D-10 Max=6.32D-09 NDo=     1
 LinEq1:  Iter= 13 NonCon=     1 RMS=1.13D-10 Max=7.01D-10 NDo=     1
 LinEq1:  Iter= 14 NonCon=     0 RMS=2.15D-11 Max=1.72D-10 NDo=     1
 Linear equations converged to 1.000D-10 1.000D-09 after    14 iterations.
 End of Minotr F.D. properties file   721 does not exist.
 End of Minotr F.D. properties file   722 does not exist.
 End of Minotr F.D. properties file   788 does not exist.

 **********************************************************************

            Population analysis using the SCF Density.

 **********************************************************************

 Orbital symmetries:
       Occupied  (A) (A) (A) (A) (A) (A) (A) (A) (A) (A) (A) (A)
                 (A) (A) (A) (A) (A)
       Virtual   (A) (A) (A) (A) (A) (A) (A) (A) (A) (A) (A) (A)
                 (A) (A) (A) (A) (A) (A) (A) (A) (A) (A) (A) (A)
                 (A) (A) (A) (A) (A) (A) (A) (A) (A) (A) (A) (A)
                 (A) (A) (A) (A) (A) (A) (A) (A) (A) (A) (A) (A)
                 (A) (A) (A) (A) (A) (A) (A) (A) (A) (A) (A) (A)
                 (A) (A) (A) (A) (A) (A) (A) (A) (A) (A) (A) (A)
                 (A) (A) (A) (A) (A) (A) (A) (A) (A) (A) (A) (A)
                 (A) (A) (A) (A) (A) (A) (A) (A) (A) (A) (A) (A)
                 (A) (A) (A) (A) (A) (A) (A) (A) (A) (A) (A) (A)
                 (A) (A) (A) (A) (A) (A) (A) (A) (A) (A) (A) (A)
                 (A) (A) (A) (A) (A) (A) (A) (A) (A) (A) (A) (A)
                 (A) (A) (A) (A) (A) (A)
 The electronic state is 1-A.
 Alpha  occ. eigenvalues --  -20.55392 -15.59000 -11.28547 -11.20093  -1.36289
 Alpha  occ. eigenvalues --   -1.18029  -0.99968  -0.80393  -0.66163  -0.65650
 Alpha  occ. eigenvalues --   -0.65165  -0.63913  -0.53834  -0.53637  -0.51540
 Alpha  occ. eigenvalues --   -0.46100  -0.32417
 Alpha virt. eigenvalues --    0.02638   0.04917   0.05156   0.05382   0.06499
 Alpha virt. eigenvalues --    0.07689   0.09280   0.12581   0.13449   0.13780
 Alpha virt. eigenvalues --    0.15793   0.16370   0.17085   0.18686   0.18842
 Alpha virt. eigenvalues --    0.19574   0.20947   0.22618   0.23353   0.24534
 Alpha virt. eigenvalues --    0.26111   0.26202   0.28909   0.29209   0.32561
 Alpha virt. eigenvalues --    0.33499   0.33634   0.35311   0.37076   0.40789
 Alpha virt. eigenvalues --    0.40939   0.42306   0.42947   0.43288   0.46534
 Alpha virt. eigenvalues --    0.47051   0.50115   0.51142   0.52046   0.52642
 Alpha virt. eigenvalues --    0.53827   0.54179   0.54664   0.55398   0.56108
 Alpha virt. eigenvalues --    0.59336   0.60611   0.62973   0.63983   0.65558
 Alpha virt. eigenvalues --    0.65623   0.66311   0.67296   0.70127   0.70857
 Alpha virt. eigenvalues --    0.71697   0.72519   0.74069   0.77038   0.81217
 Alpha virt. eigenvalues --    0.81448   0.83068   0.86035   0.89512   0.92098
 Alpha virt. eigenvalues --    0.92343   0.94819   0.95931   0.98931   0.99609
 Alpha virt. eigenvalues --    1.08475   1.10791   1.11782   1.19038   1.21769
 Alpha virt. eigenvalues --    1.23213   1.26798   1.29843   1.30359   1.35431
 Alpha virt. eigenvalues --    1.36448   1.39240   1.49848   1.57613   1.60944
 Alpha virt. eigenvalues --    1.62687   1.63191   1.64636   1.71891   1.77215
 Alpha virt. eigenvalues --    1.79780   1.81323   1.84535   1.88165   1.90550
 Alpha virt. eigenvalues --    1.92431   1.94992   1.97475   1.99996   2.01701
 Alpha virt. eigenvalues --    2.02325   2.07100   2.11366   2.12846   2.15129
 Alpha virt. eigenvalues --    2.18588   2.20214   2.27281   2.28439   2.33997
 Alpha virt. eigenvalues --    2.36116   2.39315   2.40298   2.42460   2.43055
 Alpha virt. eigenvalues --    2.48080   2.50583   2.57271   2.71045   2.73492
 Alpha virt. eigenvalues --    2.80792   2.84637   2.87289   2.88547   2.90691
 Alpha virt. eigenvalues --    2.98533   3.01846   3.13188   3.19868   3.30188
 Alpha virt. eigenvalues --    3.53339   3.55904   3.64536   3.76156   3.83744
 Alpha virt. eigenvalues --    3.88175   4.05293   4.44991
          Condensed to atoms (all electrons):
               1          2          3          4          5          6
     1  C    4.599995   0.429158   0.284448  -0.080643  -0.160342   0.109050
     2  C    0.429158   4.682109  -0.103051  -0.014167   0.358142   0.152022
     3  H    0.284448  -0.103051   1.295438  -0.176323  -0.094519   0.057704
     4  O   -0.080643  -0.014167  -0.176323   8.856498   0.031503  -0.084140
     5  H   -0.160342   0.358142  -0.094519   0.031503   1.486887  -0.322714
     6  H    0.109050   0.152022   0.057704  -0.084140  -0.322714   1.421369
     7  H   -0.106347   0.021619   0.004951   0.289051   0.010716  -0.003417
     8  N    0.029473  -0.014173   0.002420  -0.076768  -0.004524   0.004037
     9  H    0.000834  -0.000060  -0.000240  -0.003843  -0.000102  -0.002773
    10  H    0.000866   0.000017  -0.000201  -0.003920  -0.000119  -0.002784
    11  H    0.001939  -0.003897   0.001618  -0.004835  -0.000537   0.003722
               7          8          9         10         11
     1  C   -0.106347   0.029473   0.000834   0.000866   0.001939
     2  C    0.021619  -0.014173  -0.000060   0.000017  -0.003897
     3  H    0.004951   0.002420  -0.000240  -0.000201   0.001618
     4  O    0.289051  -0.076768  -0.003843  -0.003920  -0.004835
     5  H    0.010716  -0.004524  -0.000102  -0.000119  -0.000537
     6  H   -0.003417   0.004037  -0.002773  -0.002784   0.003722
     7  H    0.548219  -0.120579  -0.010199  -0.010641  -0.006707
     8  N   -0.120579   6.232091   0.413335   0.413774   0.417639
     9  H   -0.010199   0.413335   0.685853  -0.090438  -0.066007
    10  H   -0.010641   0.413774  -0.090438   0.683683  -0.064506
    11  H   -0.006707   0.417639  -0.066007  -0.064506   0.698815
 Mulliken charges:
               1
     1  C    0.891568
     2  C    0.492282
     3  H   -0.272244
     4  O   -0.732413
     5  H   -0.304390
     6  H   -0.332076
     7  H    0.383333
     8  N   -0.296724
     9  H    0.073640
    10  H    0.074269
    11  H    0.022756
 Sum of Mulliken charges =  -0.00000
 Mulliken charges with hydrogens summed into heavy atoms:
               1
     1  C    0.619324
     2  C   -0.144184
     4  O   -0.349080
     8  N   -0.126059
 Electronic spatial extent (au):  <R**2>=            456.9910
 Charge=             -0.0000 electrons
 Dipole moment (field-independent basis, Debye):
    X=              3.2490    Y=              1.4799    Z=              0.0010  Tot=              3.5701
 Quadrupole moment (field-independent basis, Debye-Ang):
   XX=            -15.6291   YY=            -27.2801   ZZ=            -27.7176
   XY=              2.2091   XZ=              0.0003   YZ=             -0.0002
 Traceless Quadrupole moment (field-independent basis, Debye-Ang):
   XX=              7.9132   YY=             -3.7378   ZZ=             -4.1753
   XY=              2.2091   XZ=              0.0003   YZ=             -0.0002
 Octapole moment (field-independent basis, Debye-Ang**2):
  XXX=             27.5593  YYY=              1.4258  ZZZ=              0.0346  XYY=              5.6653
  XXY=             -3.3004  XXZ=             -0.0040  XZZ=             10.2909  YZZ=             -1.1223
  YYZ=             -0.0309  XYZ=              0.0060
 Hexadecapole moment (field-independent basis, Debye-Ang**3):
 XXXX=           -356.5913 YYYY=           -139.6141 ZZZZ=            -35.5447 XXXY=              7.2764
 XXXZ=             -0.0358 YYYX=              6.6804 YYYZ=             -0.0362 ZZZX=              0.0906
 ZZZY=              0.0137 XXYY=            -77.2057 XXZZ=            -74.9195 YYZZ=            -29.6589
 XXYZ=              0.0310 YYXZ=             -0.0799 ZZXY=              8.1303
 N-N= 1.202848456009D+02 E-N=-7.316752591307D+02  KE= 2.087672515811D+02
 Calling FoFJK, ICntrl=  10002127 FMM=F ISym2X=0 I1Cent= 0 IOpClX= 0 NMat=1 NMatS=1 NMatT=0.
 ***** Axes restored to original set *****
 -------------------------------------------------------------------
 Center     Atomic                   Forces (Hartrees/Bohr)
 Number     Number              X              Y              Z
 -------------------------------------------------------------------
      1        6           0.001813116    0.018350522   -0.013971739
      2        6          -0.004962127   -0.020233175    0.007426363
      3        1           0.003187884    0.001496872    0.007048161
      4        8           0.003636552    0.004671308    0.004997534
      5        1           0.000936680   -0.001456859    0.004017716
      6        1          -0.002676257   -0.001991425   -0.005157148
      7        1          -0.000067732    0.000472388   -0.000684752
      8        7          -0.004625423   -0.001219689   -0.011172097
      9        1           0.001072362    0.000168186    0.002598045
     10        1           0.001016598    0.000192687    0.002609574
     11        1           0.000668347   -0.000450814    0.002288342
 -------------------------------------------------------------------
 Cartesian Forces:  Max     0.020233175 RMS     0.006451333

 GradGradGradGradGradGradGradGradGradGradGradGradGradGradGradGradGradGrad
 Berny optimization.
 FormGI is forming the generalized inverse of G from B-inverse, IUseBI=4.
 Internal  Forces:  Max     0.024714708 RMS     0.005239328
 Search for a local minimum.
 Step number   1 out of a maximum of   44
 All quantities printed in internal units (Hartrees-Bohrs-Radians)
 Mixed Optimization -- RFO/linear search
 Second derivative matrix not updated -- first step.
 ITU=  0
     Eigenvalues ---    0.00230   0.00230   0.00230   0.02151   0.02739
     Eigenvalues ---    0.02972   0.02972   0.06547   0.07654   0.10272
     Eigenvalues ---    0.16000   0.16000   0.16000   0.16000   0.16000
     Eigenvalues ---    0.16000   0.16000   0.22000   0.35429   0.35548
     Eigenvalues ---    0.35642   0.43569   0.43766   0.43769   0.49721
     Eigenvalues ---    0.51906   0.58751
 RFO step:  Lambda=-3.24383087D-03 EMin= 2.30000000D-03
 Linear search not attempted -- first point.
 Maximum step size (   0.300) exceeded in Quadratic search.
    -- Step size scaled by   0.803
 Iteration  1 RMS(Cart)=  0.11701868 RMS(Int)=  0.01732430
 Iteration  2 RMS(Cart)=  0.07570807 RMS(Int)=  0.00158839
 Iteration  3 RMS(Cart)=  0.00225216 RMS(Int)=  0.00085466
 Iteration  4 RMS(Cart)=  0.00000074 RMS(Int)=  0.00085466
 Variable       Old X    -DE/DX   Delta X   Delta X   Delta X     New X
                                 (Linear)    (Quad)   (Total)
    R1        2.51942   0.02471   0.00000   0.03360   0.03360   2.55303
    R2        2.04646   0.00753   0.00000   0.01682   0.01682   2.06328
    R3        2.57990   0.00170   0.00000   0.00261   0.00261   2.58251
    R4        2.04984   0.00423   0.00000   0.00950   0.00950   2.05933
    R5        2.04794   0.00610   0.00000   0.01367   0.01367   2.06161
    R6        1.86838   0.00458   0.00000   0.00733   0.00734   1.87572
    R7        3.33224   0.00431   0.00000   0.05041   0.05040   3.38265
    R8        1.93432  -0.00107   0.00000  -0.00195  -0.00195   1.93237
    R9        1.93435  -0.00108   0.00000  -0.00197  -0.00197   1.93239
   R10        1.93673  -0.00161   0.00000  -0.00294  -0.00294   1.93379
    A1        2.16469  -0.00681   0.00000  -0.02764  -0.02764   2.13705
    A2        2.17419   0.00889   0.00000   0.03197   0.03197   2.20616
    A3        1.94431  -0.00207   0.00000  -0.00433  -0.00433   1.93998
    A4        2.10082  -0.00108   0.00000  -0.00530  -0.00530   2.09552
    A5        2.12650  -0.00016   0.00000  -0.00080  -0.00080   2.12570
    A6        2.05587   0.00124   0.00000   0.00609   0.00609   2.06196
    A7        1.91273   0.00093   0.00000   0.00457   0.00457   1.91730
    A8        2.07737  -0.00216   0.00000  -0.01163  -0.01246   2.06491
    A9        2.07253  -0.00213   0.00000  -0.01149  -0.01235   2.06017
   A10        1.80765  -0.00129   0.00000  -0.00448  -0.00289   1.80476
   A11        1.82832   0.00260   0.00000   0.01079   0.00869   1.83702
   A12        1.82292   0.00194   0.00000   0.01116   0.01259   1.83551
   A13        1.82293   0.00194   0.00000   0.01117   0.01253   1.83546
   A14        3.38761  -0.00179   0.00000  -0.28821  -0.28904   3.09858
   A15        3.14140   0.00001   0.00000   0.00055   0.00053   3.14193
    D1       -0.00001  -0.00000   0.00000  -0.00004  -0.00004  -0.00004
    D2        3.14158  -0.00000   0.00000  -0.00006  -0.00006   3.14152
    D3        3.14158   0.00000   0.00000   0.00003   0.00003  -3.14158
    D4       -0.00001   0.00000   0.00000   0.00000   0.00000  -0.00001
    D5       -0.00003  -0.00001   0.00000  -0.00016  -0.00016  -0.00019
    D6        3.14156  -0.00000   0.00000  -0.00010  -0.00010   3.14145
    D7       -1.16570   0.00093   0.00000   0.06286   0.06039  -1.10531
    D8        1.18802  -0.00095   0.00000  -0.06389  -0.06147   1.12655
    D9       -3.13183   0.00000   0.00000  -0.00038  -0.00033  -3.13216
         Item               Value     Threshold  Converged?
 Maximum Force            0.024715     0.000450     NO 
 RMS     Force            0.005239     0.000300     NO 
 Maximum Displacement     0.432875     0.001800     NO 
 RMS     Displacement     0.189299     0.001200     NO 
 Predicted change in Energy=-1.712267D-03
 GradGradGradGradGradGradGradGradGradGradGradGradGradGradGradGradGradGrad

                          Input orientation:                          
 ---------------------------------------------------------------------
 Center     Atomic      Atomic             Coordinates (Angstroms)
 Number     Number       Type             X           Y           Z
 ---------------------------------------------------------------------
      1          6           0       -0.241639    1.235228    0.461952
      2          6           0       -0.744367   -0.017001    0.395615
      3          1           0        0.241293    1.625721    1.359954
      4          8           0       -0.256197    2.168942   -0.535834
      5          1           0       -0.676270   -0.679055    1.258521
      6          1           0       -1.224957   -0.396351   -0.507334
      7          1           0       -0.698597    1.794392   -1.341582
      8          7           0       -1.506679    1.052957   -2.756308
      9          1           0       -1.064736    0.243578   -3.198164
     10          1           0       -2.495308    0.806165   -2.670473
     11          1           0       -1.475898    1.793314   -3.462074
 ---------------------------------------------------------------------
                    Distance matrix (angstroms):
                    1          2          3          4          5
     1  C    0.000000
     2  C    1.351004   0.000000
     3  H    1.091840   2.144763   0.000000
     4  O    1.366606   2.425748   2.033863   0.000000
     5  H    2.118468   1.089753   2.482781   3.392236   0.000000
     6  H    2.137400   1.090958   3.118561   2.742268   1.870621
     7  H    1.942732   2.510197   2.865334   0.992590   3.588729
     8  N    3.462766   3.414754   4.508555   2.782019   4.450651
     9  H    3.880375   3.617428   4.938873   3.383602   4.567735
    10  H    3.882681   3.625506   4.940141   3.380453   4.577311
    11  H    4.151246   4.323672   5.121405   3.192436   5.388510
                    6          7          8          9         10
     6  H    0.000000
     7  H    2.402577   0.000000
     8  N    2.690305   1.790020   0.000000
     9  H    2.770514   2.446626   1.022568   0.000000
    10  H    2.781907   2.443505   1.022576   1.625269   0.000000
    11  H    3.686203   2.258470   1.023319   1.624925   1.624897
                   11
    11  H    0.000000
 Stoichiometry    C2H7NO
 Framework group  C1[X(C2H7NO)]
 Deg. of freedom    27
 Full point group                 C1      NOp   1
 Largest Abelian subgroup         C1      NOp   1
 Largest concise Abelian subgroup C1      NOp   1
                         Standard orientation:                         
 ---------------------------------------------------------------------
 Center     Atomic      Atomic             Coordinates (Angstroms)
 Number     Number       Type             X           Y           Z
 ---------------------------------------------------------------------
      1          6           0       -1.341694   -0.260397   -0.000122
      2          6           0       -1.214501    1.084606    0.000061
      3          1           0       -2.314171   -0.756788   -0.000413
      4          8           0       -0.323014   -1.171386    0.000087
      5          1           0       -2.102052    1.716915   -0.000122
      6          1           0       -0.237245    1.569540    0.000416
      7          1           0        0.550604   -0.700189    0.000221
      8          7           0        2.088071    0.216526   -0.000128
      9          1           0        2.300620    0.806691   -0.807700
     10          1           0        2.305422    0.790920    0.817485
     11          1           0        2.801607   -0.516935   -0.009321
 ---------------------------------------------------------------------
 Rotational constants (GHZ):          10.7966035           3.8287689           2.8691555
 Standard basis: Aug-CC-pVDZ (5D, 7F)
 There are   163 symmetry adapted cartesian basis functions of A   symmetry.
 There are   155 symmetry adapted basis functions of A   symmetry.
   155 basis functions,   249 primitive gaussians,   163 cartesian basis functions
    17 alpha electrons       17 beta electrons
       nuclear repulsion energy       120.6889857530 Hartrees.
 NAtoms=   11 NActive=   11 NUniq=   11 SFac= 1.00D+00 NAtFMM=   60 NAOKFM=F Big=F
 Integral buffers will be    131072 words long.
 Raffenetti 1 integral format.
 Two-electron integral symmetry is turned on.
 One-electron integrals computed using PRISM.
 NBasis=   155 RedAO= T EigKep=  5.11D-05  NBF=   155
 NBsUse=   155 1.00D-06 EigRej= -1.00D+00 NBFU=   155
 Initial guess from the checkpoint file:  "/scr/Gau-8466.chk"
 B after Tr=    -0.000000    0.000000   -0.000000
         Rot=    0.999681    0.000036    0.000002    0.025246 Ang=   2.89 deg.
 ExpMin= 2.97D-02 ExpMax= 1.17D+04 ExpMxC= 4.01D+02 IAcc=3 IRadAn=         5 AccDes= 0.00D+00
 Harris functional with IExCor=  205 and IRadAn=       5 diagonalized for initial guess.
 HarFok:  IExCor=  205 AccDes= 0.00D+00 IRadAn=         5 IDoV= 1 UseB2=F ITyADJ=14
 ICtDFT=  3500011 ScaDFX=  1.000000  1.000000  1.000000  1.000000
 FoFCou: FMM=F IPFlag=           0 FMFlag=      100000 FMFlg1=           0
         NFxFlg=           0 DoJE=T BraDBF=F KetDBF=T FulRan=T
         wScrn=  0.000000 ICntrl=       500 IOpCl=  0 I1Cent=   200000004 NGrid=           0
         NMat0=    1 NMatS0=      1 NMatT0=    0 NMatD0=    1 NMtDS0=    0 NMtDT0=    0
 Petite list used in FoFCou.
 Keep R1 ints in memory in canonical form, NReq=81816958.
 Requested convergence on RMS density matrix=1.00D-08 within 128 cycles.
 Requested convergence on MAX density matrix=1.00D-06.
 Requested convergence on             energy=1.00D-06.
 No special actions if energy rises.
 SCF Done:  E(RHF) =  -209.129410865     A.U. after   12 cycles
            NFock= 12  Conv=0.73D-08     -V/T= 2.0023
 ExpMin= 2.97D-02 ExpMax= 1.17D+04 ExpMxC= 4.01D+02 IAcc=3 IRadAn=         5 AccDes= 0.00D+00
 HarFok:  IExCor=  205 AccDes= 0.00D+00 IRadAn=         5 IDoV=-2 UseB2=F ITyADJ=14
 ICtDFT= 12500011 ScaDFX=  1.000000  1.000000  1.000000  1.000000
 Range of M.O.s used for correlation:     5   155
 NBasis=   155 NAE=    17 NBE=    17 NFC=     4 NFV=     0
 NROrb=    151 NOA=    13 NOB=    13 NVA=   138 NVB=   138

 **** Warning!!: The largest alpha MO coefficient is  0.33948205D+02

 Fully direct method using O(ONN) memory.
 JobTyp=1 Pass  1:  I=   5 to  17 NPSUse= 40 ParTrn=T ParDer=T DoDerP=T.
 Spin components of T(2) and E(2):
     alpha-alpha T2 =       0.2808529665D-01 E2=     -0.8501236139D-01
     alpha-beta  T2 =       0.1671360536D+00 E2=     -0.5202409191D+00
     beta-beta   T2 =       0.2808529665D-01 E2=     -0.8501236139D-01
 ANorm=    0.1106031938D+01
 E2 =    -0.6902656419D+00 EUMP2 =    -0.20981967650701D+03
          IDoAtm=11111111111
          Differentiating once with respect to electric field.
                with respect to dipole field.
          Differentiating once with respect to nuclear coordinates.
 Keep R1 ints in memory in canonical form, NReq=81826289.
          There are     1 degrees of freedom in the 1st order CPHF.  IDoFFX=0 NUNeed=     1.
 LinEq1:  Iter=  0 NonCon=     1 RMS=4.27D-03 Max=6.63D-02 NDo=     1
 AX will form     1 AO Fock derivatives at one time.
 LinEq1:  Iter=  1 NonCon=     1 RMS=1.02D-03 Max=1.00D-02 NDo=     1
 LinEq1:  Iter=  2 NonCon=     1 RMS=3.95D-04 Max=4.88D-03 NDo=     1
 LinEq1:  Iter=  3 NonCon=     1 RMS=1.02D-04 Max=1.24D-03 NDo=     1
 LinEq1:  Iter=  4 NonCon=     1 RMS=3.70D-05 Max=4.31D-04 NDo=     1
 LinEq1:  Iter=  5 NonCon=     1 RMS=9.31D-06 Max=1.68D-04 NDo=     1
 LinEq1:  Iter=  6 NonCon=     1 RMS=2.83D-06 Max=2.25D-05 NDo=     1
 LinEq1:  Iter=  7 NonCon=     1 RMS=6.59D-07 Max=5.27D-06 NDo=     1
 LinEq1:  Iter=  8 NonCon=     1 RMS=1.26D-07 Max=1.12D-06 NDo=     1
 LinEq1:  Iter=  9 NonCon=     1 RMS=3.18D-08 Max=2.78D-07 NDo=     1
 LinEq1:  Iter= 10 NonCon=     1 RMS=9.92D-09 Max=1.10D-07 NDo=     1
 LinEq1:  Iter= 11 NonCon=     1 RMS=3.33D-09 Max=3.61D-08 NDo=     1
 LinEq1:  Iter= 12 NonCon=     1 RMS=6.58D-10 Max=6.75D-09 NDo=     1
 LinEq1:  Iter= 13 NonCon=     1 RMS=1.13D-10 Max=1.03D-09 NDo=     1
 LinEq1:  Iter= 14 NonCon=     0 RMS=2.30D-11 Max=1.62D-10 NDo=     1
 Linear equations converged to 1.000D-10 1.000D-09 after    14 iterations.
 End of Minotr F.D. properties file   721 does not exist.
 End of Minotr F.D. properties file   722 does not exist.
 End of Minotr F.D. properties file   788 does not exist.
 Calling FoFJK, ICntrl=  10002127 FMM=F ISym2X=0 I1Cent= 0 IOpClX= 0 NMat=1 NMatS=1 NMatT=0.
 ***** Axes restored to original set *****
 -------------------------------------------------------------------
 Center     Atomic                   Forces (Hartrees/Bohr)
 Number     Number              X              Y              Z
 -------------------------------------------------------------------
      1        6          -0.000493715    0.005117290   -0.006574270
      2        6          -0.001590131   -0.005069067    0.000933388
      3        1           0.000426568   -0.000596746    0.001754818
      4        8           0.001331411    0.001781463    0.001772004
      5        1           0.000753008    0.000909398    0.001090407
      6        1           0.000089361    0.000130548    0.000116485
      7        1           0.000449836   -0.003984528    0.005249488
      8        7          -0.002852500    0.000837805   -0.008475121
      9        1           0.001452495    0.000696701    0.001893245
     10        1           0.000706198    0.000970935    0.002139399
     11        1          -0.000272530   -0.000793799    0.000100156
 -------------------------------------------------------------------
 Cartesian Forces:  Max     0.008475121 RMS     0.002753987

 GradGradGradGradGradGradGradGradGradGradGradGradGradGradGradGradGradGrad
 Berny optimization.
 Using GEDIIS/GDIIS optimizer.
 FormGI is forming the generalized inverse of G from B-inverse, IUseBI=4.
 Internal  Forces:  Max     0.007195674 RMS     0.002251929
 Search for a local minimum.
 Step number   2 out of a maximum of   44
 All quantities printed in internal units (Hartrees-Bohrs-Radians)
 Mixed Optimization -- RFO/linear search
 Update second derivatives using D2CorX and points    1    2
 DE= -7.01D-04 DEPred=-1.71D-03 R= 4.09D-01
 Trust test= 4.09D-01 RLast= 3.13D-01 DXMaxT set to 3.00D-01
 ITU=  0  0
 Use linear search instead of GDIIS.
     Eigenvalues ---    0.00230   0.00230   0.01236   0.02152   0.02734
     Eigenvalues ---    0.02972   0.02972   0.04759   0.08036   0.10046
     Eigenvalues ---    0.12354   0.16000   0.16000   0.16000   0.16000
     Eigenvalues ---    0.16000   0.16371   0.18992   0.34441   0.35459
     Eigenvalues ---    0.35661   0.43428   0.43698   0.43767   0.49035
     Eigenvalues ---    0.51546   0.52729
 RFO step:  Lambda=-5.56725754D-03 EMin= 2.29998454D-03
 Quartic linear search produced a step of -0.31680.
 Maximum step size (   0.300) exceeded in Quadratic search.
    -- Step size scaled by   0.622
 Iteration  1 RMS(Cart)=  0.21048235 RMS(Int)=  0.02671891
 Iteration  2 RMS(Cart)=  0.11125345 RMS(Int)=  0.00346810
 Iteration  3 RMS(Cart)=  0.00655243 RMS(Int)=  0.00034788
 Iteration  4 RMS(Cart)=  0.00000194 RMS(Int)=  0.00034787
 Iteration  5 RMS(Cart)=  0.00000000 RMS(Int)=  0.00034787
 Variable       Old X    -DE/DX   Delta X   Delta X   Delta X     New X
                                 (Linear)    (Quad)   (Total)
    R1        2.55303   0.00391  -0.01065   0.06758   0.05693   2.60996
    R2        2.06328   0.00142  -0.00533   0.03396   0.02863   2.09191
    R3        2.58251  -0.00230  -0.00083   0.00278   0.00196   2.58447
    R4        2.05933   0.00036  -0.00301   0.01856   0.01555   2.07489
    R5        2.06161  -0.00018  -0.00433   0.02574   0.02141   2.08302
    R6        1.87572   0.00035  -0.00233   0.01438   0.01209   1.88781
    R7        3.38265   0.00316  -0.01597   0.11256   0.09657   3.47922
    R8        1.93237  -0.00074   0.00062  -0.00456  -0.00394   1.92843
    R9        1.93239  -0.00074   0.00062  -0.00459  -0.00396   1.92843
   R10        1.93379  -0.00065   0.00093  -0.00635  -0.00542   1.92838
    A1        2.13705  -0.00400   0.00876  -0.06190  -0.05314   2.08391
    A2        2.20616   0.00538  -0.01013   0.07227   0.06214   2.26830
    A3        1.93998  -0.00138   0.00137  -0.01037  -0.00900   1.93098
    A4        2.09552  -0.00210   0.00168  -0.01627  -0.01459   2.08093
    A5        2.12570   0.00097   0.00025   0.00145   0.00171   2.12741
    A6        2.06196   0.00113  -0.00193   0.01482   0.01289   2.07485
    A7        1.91730   0.00245  -0.00145   0.01598   0.01453   1.93184
    A8        2.06491  -0.00280   0.00395  -0.03298  -0.02893   2.03598
    A9        2.06017  -0.00273   0.00391  -0.03259  -0.02859   2.03158
   A10        1.80476   0.00230   0.00092   0.00374   0.00379   1.80855
   A11        1.83702   0.00190  -0.00275   0.01900   0.01672   1.85374
   A12        1.83551   0.00111  -0.00399   0.02880   0.02407   1.85958
   A13        1.83546   0.00111  -0.00397   0.02873   0.02393   1.85939
   A14        3.09858   0.00720   0.09157   0.23710   0.32900   3.42758
   A15        3.14193  -0.00001  -0.00017  -0.00028  -0.00045   3.14148
    D1       -0.00004  -0.00000   0.00001  -0.00007  -0.00006  -0.00010
    D2        3.14152  -0.00000   0.00002  -0.00015  -0.00013   3.14140
    D3       -3.14158   0.00000  -0.00001   0.00005   0.00004  -3.14153
    D4       -0.00001  -0.00000  -0.00000  -0.00002  -0.00002  -0.00003
    D5       -0.00019  -0.00001   0.00005  -0.00043  -0.00038  -0.00058
    D6        3.14145  -0.00001   0.00003  -0.00032  -0.00028   3.14117
    D7       -1.10531   0.00029  -0.01913  -0.02004  -0.03826  -1.14357
    D8        1.12655  -0.00031   0.01947   0.01865   0.03715   1.16370
    D9       -3.13216  -0.00000   0.00010  -0.00089  -0.00072  -3.13288
         Item               Value     Threshold  Converged?
 Maximum Force            0.007196     0.000450     NO 
 RMS     Force            0.002252     0.000300     NO 
 Maximum Displacement     0.691197     0.001800     NO 
 RMS     Displacement     0.313524     0.001200     NO 
 Predicted change in Energy=-2.895383D-03
 GradGradGradGradGradGradGradGradGradGradGradGradGradGradGradGradGradGrad

                          Input orientation:                          
 ---------------------------------------------------------------------
 Center     Atomic      Atomic             Coordinates (Angstroms)
 Number     Number       Type             X           Y           Z
 ---------------------------------------------------------------------
      1          6           0       -0.245800    1.194587    0.492389
      2          6           0       -0.679729   -0.105693    0.661221
      3          1           0        0.262508    1.710831    1.329372
      4          8           0       -0.336869    2.016611   -0.596843
      5          1           0       -0.512694   -0.605861    1.624287
      6          1           0       -1.190446   -0.658402   -0.144211
      7          1           0       -0.795148    1.551303   -1.352779
      8          7           0       -1.552399    1.153589   -2.983156
      9          1           0       -1.119603    0.399302   -3.517123
     10          1           0       -2.555112    0.964004   -2.983596
     11          1           0       -1.418062    2.007620   -3.525289
 ---------------------------------------------------------------------
                    Distance matrix (angstroms):
                    1          2          3          4          5
     1  C    0.000000
     2  C    1.381132   0.000000
     3  H    1.106990   2.152672   0.000000
     4  O    1.367642   2.490874   2.040357   0.000000
     5  H    2.143371   1.097982   2.460687   3.441176   0.000000
     6  H    2.175128   1.102288   3.145757   2.844146   1.894648
     7  H    1.957977   2.610585   2.887563   0.998985   3.687283
     8  N    3.713259   3.953331   4.711932   2.813683   5.040355
     9  H    4.179976   4.231675   5.207577   3.428761   5.273783
    10  H    4.179540   4.236272   5.205615   3.424204   5.279065
    11  H    4.263444   4.747430   5.145885   3.121675   5.845349
                    6          7          8          9         10
     6  H    0.000000
     7  H    2.549449   0.000000
     8  N    3.387319   1.841123   0.000000
     9  H    3.535576   2.473209   1.020481   0.000000
    10  H    3.543532   2.470214   1.020479   1.632246   0.000000
    11  H    4.311748   2.305655   1.020453   1.635797   1.635680
                   11
    11  H    0.000000
 Stoichiometry    C2H7NO
 Framework group  C1[X(C2H7NO)]
 Deg. of freedom    27
 Full point group                 C1      NOp   1
 Largest Abelian subgroup         C1      NOp   1
 Largest concise Abelian subgroup C1      NOp   1
                         Standard orientation:                         
 ---------------------------------------------------------------------
 Center     Atomic      Atomic             Coordinates (Angstroms)
 Number     Number       Type             X           Y           Z
 ---------------------------------------------------------------------
      1          6           0       -1.355086   -0.377488   -0.000144
      2          6           0       -1.597744    0.982160    0.000036
      3          1           0       -2.209043   -1.081892   -0.000427
      4          8           0       -0.168824   -1.058095    0.000142
      5          1           0       -2.635222    1.341608   -0.000204
      6          1           0       -0.778722    1.719888    0.000499
      7          1           0        0.602360   -0.423079    0.000002
      8          7           0        2.296073    0.298773   -0.000160
      9          1           0        2.553666    0.861774   -0.811367
     10          1           0        2.556036    0.846326    0.820803
     11          1           0        2.905990   -0.519306   -0.008673
 ---------------------------------------------------------------------
 Rotational constants (GHZ):          12.1598204           3.1060445           2.5070325
 Standard basis: Aug-CC-pVDZ (5D, 7F)
 There are   163 symmetry adapted cartesian basis functions of A   symmetry.
 There are   155 symmetry adapted basis functions of A   symmetry.
   155 basis functions,   249 primitive gaussians,   163 cartesian basis functions
    17 alpha electrons       17 beta electrons
       nuclear repulsion energy       117.2489720316 Hartrees.
 NAtoms=   11 NActive=   11 NUniq=   11 SFac= 1.00D+00 NAtFMM=   60 NAOKFM=F Big=F
 Integral buffers will be    131072 words long.
 Raffenetti 1 integral format.
 Two-electron integral symmetry is turned on.
 One-electron integrals computed using PRISM.
 NBasis=   155 RedAO= T EigKep=  6.35D-05  NBF=   155
 NBsUse=   155 1.00D-06 EigRej= -1.00D+00 NBFU=   155
 Initial guess from the checkpoint file:  "/scr/Gau-8466.chk"
 B after Tr=     0.000000   -0.000000    0.000000
         Rot=    0.999090    0.000045    0.000010   -0.042642 Ang=   4.89 deg.
 ExpMin= 2.97D-02 ExpMax= 1.17D+04 ExpMxC= 4.01D+02 IAcc=3 IRadAn=         5 AccDes= 0.00D+00
 Harris functional with IExCor=  205 and IRadAn=       5 diagonalized for initial guess.
 HarFok:  IExCor=  205 AccDes= 0.00D+00 IRadAn=         5 IDoV= 1 UseB2=F ITyADJ=14
 ICtDFT=  3500011 ScaDFX=  1.000000  1.000000  1.000000  1.000000
 FoFCou: FMM=F IPFlag=           0 FMFlag=      100000 FMFlg1=           0
         NFxFlg=           0 DoJE=T BraDBF=F KetDBF=T FulRan=T
         wScrn=  0.000000 ICntrl=       500 IOpCl=  0 I1Cent=   200000004 NGrid=           0
         NMat0=    1 NMatS0=      1 NMatT0=    0 NMatD0=    1 NMtDS0=    0 NMtDT0=    0
 Petite list used in FoFCou.
 Keep R1 ints in memory in canonical form, NReq=81810029.
 Requested convergence on RMS density matrix=1.00D-08 within 128 cycles.
 Requested convergence on MAX density matrix=1.00D-06.
 Requested convergence on             energy=1.00D-06.
 No special actions if energy rises.
 SCF Done:  E(RHF) =  -209.127072303     A.U. after   13 cycles
            NFock= 13  Conv=0.58D-08     -V/T= 2.0031
 ExpMin= 2.97D-02 ExpMax= 1.17D+04 ExpMxC= 4.01D+02 IAcc=3 IRadAn=         5 AccDes= 0.00D+00
 HarFok:  IExCor=  205 AccDes= 0.00D+00 IRadAn=         5 IDoV=-2 UseB2=F ITyADJ=14
 ICtDFT= 12500011 ScaDFX=  1.000000  1.000000  1.000000  1.000000
 Range of M.O.s used for correlation:     5   155
 NBasis=   155 NAE=    17 NBE=    17 NFC=     4 NFV=     0
 NROrb=    151 NOA=    13 NOB=    13 NVA=   138 NVB=   138

 **** Warning!!: The largest alpha MO coefficient is  0.34580892D+02

 Fully direct method using O(ONN) memory.
 JobTyp=1 Pass  1:  I=   5 to  17 NPSUse= 40 ParTrn=T ParDer=T DoDerP=T.
 Spin components of T(2) and E(2):
     alpha-alpha T2 =       0.2832772978D-01 E2=     -0.8499465095D-01
     alpha-beta  T2 =       0.1694434713D+00 E2=     -0.5218468652D+00
     beta-beta   T2 =       0.2832772978D-01 E2=     -0.8499465095D-01
 ANorm=    0.1107293516D+01
 E2 =    -0.6918361671D+00 EUMP2 =    -0.20981890847007D+03
          IDoAtm=11111111111
          Differentiating once with respect to electric field.
                with respect to dipole field.
          Differentiating once with respect to nuclear coordinates.
 Keep R1 ints in memory in canonical form, NReq=81819432.
          There are     1 degrees of freedom in the 1st order CPHF.  IDoFFX=0 NUNeed=     1.
 LinEq1:  Iter=  0 NonCon=     1 RMS=4.34D-03 Max=7.31D-02 NDo=     1
 AX will form     1 AO Fock derivatives at one time.
 LinEq1:  Iter=  1 NonCon=     1 RMS=1.07D-03 Max=8.59D-03 NDo=     1
 LinEq1:  Iter=  2 NonCon=     1 RMS=4.10D-04 Max=5.62D-03 NDo=     1
 LinEq1:  Iter=  3 NonCon=     1 RMS=1.12D-04 Max=1.35D-03 NDo=     1
 LinEq1:  Iter=  4 NonCon=     1 RMS=3.90D-05 Max=4.82D-04 NDo=     1
 LinEq1:  Iter=  5 NonCon=     1 RMS=1.12D-05 Max=2.56D-04 NDo=     1
 LinEq1:  Iter=  6 NonCon=     1 RMS=3.29D-06 Max=2.95D-05 NDo=     1
 LinEq1:  Iter=  7 NonCon=     1 RMS=8.30D-07 Max=9.12D-06 NDo=     1
 LinEq1:  Iter=  8 NonCon=     1 RMS=1.66D-07 Max=1.66D-06 NDo=     1
 LinEq1:  Iter=  9 NonCon=     1 RMS=5.40D-08 Max=5.91D-07 NDo=     1
 LinEq1:  Iter= 10 NonCon=     1 RMS=1.84D-08 Max=1.58D-07 NDo=     1
 LinEq1:  Iter= 11 NonCon=     1 RMS=5.38D-09 Max=4.69D-08 NDo=     1
 LinEq1:  Iter= 12 NonCon=     1 RMS=9.68D-10 Max=8.55D-09 NDo=     1
 LinEq1:  Iter= 13 NonCon=     1 RMS=1.33D-10 Max=9.60D-10 NDo=     1
 LinEq1:  Iter= 14 NonCon=     0 RMS=2.48D-11 Max=2.02D-10 NDo=     1
 Linear equations converged to 1.000D-10 1.000D-09 after    14 iterations.
 End of Minotr F.D. properties file   721 does not exist.
 End of Minotr F.D. properties file   722 does not exist.
 End of Minotr F.D. properties file   788 does not exist.
 Calling FoFJK, ICntrl=  10002127 FMM=F ISym2X=0 I1Cent= 0 IOpClX= 0 NMat=1 NMatS=1 NMatT=0.
 ***** Axes restored to original set *****
 -------------------------------------------------------------------
 Center     Atomic                   Forces (Hartrees/Bohr)
 Number     Number              X              Y              Z
 -------------------------------------------------------------------
      1        6          -0.001237836   -0.014646065    0.011753746
      2        6           0.003934632    0.020171909   -0.010133438
      3        1          -0.003662243   -0.003618621   -0.006144485
      4        8          -0.004689420   -0.011810745   -0.000501596
      5        1          -0.000310189    0.003817838   -0.004760172
      6        1           0.002873007    0.003098260    0.004531255
      7        1           0.003259116    0.003633372    0.005016615
      8        7          -0.000622827   -0.001467891   -0.000088919
      9        1           0.000517414    0.000433584    0.000257952
     10        1           0.000117994    0.000570358    0.000394556
     11        1          -0.000179650   -0.000182000   -0.000325514
 -------------------------------------------------------------------
 Cartesian Forces:  Max     0.020171909 RMS     0.006114331

 GradGradGradGradGradGradGradGradGradGradGradGradGradGradGradGradGradGrad
 Berny optimization.
 Using GEDIIS/GDIIS optimizer.
 FormGI is forming the generalized inverse of G from B-inverse, IUseBI=4.
 Internal  Forces:  Max     0.028810363 RMS     0.006183094
 Search for a local minimum.
 Step number   3 out of a maximum of   44
 All quantities printed in internal units (Hartrees-Bohrs-Radians)
 Mixed Optimization -- RFO/linear search
 Update second derivatives using D2CorX and points    1    3    2
 DE=  7.68D-04 DEPred=-2.90D-03 R=-2.65D-01
 Trust test=-2.65D-01 RLast= 3.69D-01 DXMaxT set to 1.50D-01
 ITU= -1  0  0
 Use linear search instead of GDIIS.
     Eigenvalues ---    0.00230   0.00230   0.02151   0.02474   0.02724
     Eigenvalues ---    0.02972   0.02972   0.05680   0.08272   0.10425
     Eigenvalues ---    0.14173   0.16000   0.16000   0.16000   0.16000
     Eigenvalues ---    0.16070   0.16380   0.22950   0.35435   0.35602
     Eigenvalues ---    0.35891   0.43462   0.43704   0.43767   0.49864
     Eigenvalues ---    0.51718   0.62856
 RFO step:  Lambda=-3.98397498D-04 EMin= 2.29999295D-03
 Quartic linear search produced a step of -0.62317.
 Iteration  1 RMS(Cart)=  0.16095738 RMS(Int)=  0.00581130
 Iteration  2 RMS(Cart)=  0.00888164 RMS(Int)=  0.00012579
 Iteration  3 RMS(Cart)=  0.00000831 RMS(Int)=  0.00012573
 Iteration  4 RMS(Cart)=  0.00000000 RMS(Int)=  0.00012573
 Variable       Old X    -DE/DX   Delta X   Delta X   Delta X     New X
                                 (Linear)    (Quad)   (Total)
    R1        2.60996  -0.02881  -0.03548  -0.01159  -0.04707   2.56289
    R2        2.09191  -0.00801  -0.01784  -0.00487  -0.02271   2.06919
    R3        2.58447  -0.00898  -0.00122  -0.00865  -0.00987   2.57460
    R4        2.07489  -0.00596  -0.00969  -0.00497  -0.01466   2.06023
    R5        2.08302  -0.00620  -0.01334  -0.00565  -0.01899   2.06403
    R6        1.88781  -0.00678  -0.00753  -0.00408  -0.01162   1.87619
    R7        3.47922  -0.00001  -0.06018   0.02268  -0.03749   3.44172
    R8        1.92843  -0.00024   0.00246  -0.00129   0.00117   1.92960
    R9        1.92843  -0.00022   0.00247  -0.00128   0.00119   1.92962
   R10        1.92838  -0.00000   0.00338  -0.00107   0.00230   1.93068
    A1        2.08391   0.00552   0.03312  -0.00296   0.03016   2.11406
    A2        2.26830  -0.01074  -0.03872  -0.00316  -0.04188   2.22641
    A3        1.93098   0.00522   0.00561   0.00612   0.01173   1.94271
    A4        2.08093  -0.00186   0.00909  -0.01151  -0.00242   2.07851
    A5        2.12741   0.00094  -0.00106   0.00534   0.00428   2.13169
    A6        2.07485   0.00092  -0.00803   0.00617  -0.00186   2.07299
    A7        1.93184  -0.00375  -0.00906  -0.00052  -0.00957   1.92226
    A8        2.03598  -0.00035   0.01803  -0.01181   0.00624   2.04222
    A9        2.03158  -0.00033   0.01782  -0.01153   0.00633   2.03792
   A10        1.80855   0.00033  -0.00236   0.00972   0.00769   1.81624
   A11        1.85374   0.00110  -0.01042   0.00703  -0.00351   1.85023
   A12        1.85958  -0.00043  -0.01500   0.00469  -0.01003   1.84955
   A13        1.85939  -0.00042  -0.01492   0.00477  -0.00982   1.84957
   A14        3.42758  -0.00326  -0.20502   0.04434  -0.16079   3.26679
   A15        3.14148  -0.00001   0.00028  -0.00161  -0.00133   3.14016
    D1       -0.00010   0.00000   0.00004   0.00001   0.00005  -0.00006
    D2        3.14140   0.00001   0.00008   0.00004   0.00012   3.14152
    D3       -3.14153  -0.00000  -0.00003  -0.00004  -0.00007   3.14158
    D4       -0.00003   0.00000   0.00001  -0.00001  -0.00000  -0.00003
    D5       -0.00058   0.00001   0.00024  -0.00004   0.00020  -0.00038
    D6        3.14117   0.00000   0.00018  -0.00009   0.00009   3.14126
    D7       -1.14357   0.00024   0.02384   0.00026   0.02380  -1.11977
    D8        1.16370  -0.00025  -0.02315  -0.00031  -0.02312   1.14057
    D9       -3.13288   0.00001   0.00045  -0.00016   0.00026  -3.13262
         Item               Value     Threshold  Converged?
 Maximum Force            0.028810     0.000450     NO 
 RMS     Force            0.006183     0.000300     NO 
 Maximum Displacement     0.369259     0.001800     NO 
 RMS     Displacement     0.164026     0.001200     NO 
 Predicted change in Energy=-6.243396D-04
 GradGradGradGradGradGradGradGradGradGradGradGradGradGradGradGradGradGrad

                          Input orientation:                          
 ---------------------------------------------------------------------
 Center     Atomic      Atomic             Coordinates (Angstroms)
 Number     Number       Type             X           Y           Z
 ---------------------------------------------------------------------
      1          6           0       -0.240658    1.216248    0.484851
      2          6           0       -0.712687   -0.054714    0.519236
      3          1           0        0.251921    1.660870    1.355848
      4          8           0       -0.292163    2.093529   -0.556262
      5          1           0       -0.596697   -0.638685    1.432534
      6          1           0       -1.206620   -0.514485   -0.339614
      7          1           0       -0.741164    1.673115   -1.335605
      8          7           0       -1.532057    1.100073   -2.872868
      9          1           0       -1.093373    0.314104   -3.355000
     10          1           0       -2.527858    0.879670   -2.823165
     11          1           0       -1.451999    1.898165   -3.505682
 ---------------------------------------------------------------------
                    Distance matrix (angstroms):
                    1          2          3          4          5
     1  C    0.000000
     2  C    1.356222   0.000000
     3  H    1.094970   2.138602   0.000000
     4  O    1.362421   2.438951   2.034548   0.000000
     5  H    2.113207   1.090225   2.452343   3.393088   0.000000
     6  H    2.146686   1.092238   3.119953   2.772166   1.878282
     7  H    1.942497   2.535082   2.868848   0.992837   3.609417
     8  N    3.599373   3.675768   4.623755   2.809084   4.736526
     9  H    4.035522   3.910326   5.080913   3.411923   4.906626
    10  H    4.035782   3.916575   5.079527   3.407438   4.913834
    11  H    4.225720   4.534345   5.156949   3.175290   5.617218
                    6          7          8          9         10
     6  H    0.000000
     7  H    2.448315   0.000000
     8  N    3.021603   1.821282   0.000000
     9  H    3.129207   2.459454   1.021098   0.000000
    10  H    3.139644   2.456555   1.021111   1.631091   0.000000
    11  H    3.988117   2.294595   1.021671   1.631124   1.631145
                   11
    11  H    0.000000
 Stoichiometry    C2H7NO
 Framework group  C1[X(C2H7NO)]
 Deg. of freedom    27
 Full point group                 C1      NOp   1
 Largest Abelian subgroup         C1      NOp   1
 Largest concise Abelian subgroup C1      NOp   1
                         Standard orientation:                         
 ---------------------------------------------------------------------
 Center     Atomic      Atomic             Coordinates (Angstroms)
 Number     Number       Type             X           Y           Z
 ---------------------------------------------------------------------
      1          6           0       -1.356327   -0.319596    0.000160
      2          6           0       -1.395895    1.036048   -0.000099
      3          1           0       -2.276734   -0.912731    0.000739
      4          8           0       -0.252602   -1.118334   -0.000177
      5          1           0       -2.363657    1.538072    0.000226
      6          1           0       -0.488353    1.643790   -0.000605
      7          1           0        0.570787   -0.563577   -0.001016
      8          7           0        2.196480    0.257514    0.000006
      9          1           0        2.424393    0.835907   -0.810030
     10          1           0        2.427495    0.819044    0.820971
     11          1           0        2.864856   -0.515143   -0.009267
 ---------------------------------------------------------------------
 Rotational constants (GHZ):          11.4430006           3.4432324           2.6844992
 Standard basis: Aug-CC-pVDZ (5D, 7F)
 There are   163 symmetry adapted cartesian basis functions of A   symmetry.
 There are   155 symmetry adapted basis functions of A   symmetry.
   155 basis functions,   249 primitive gaussians,   163 cartesian basis functions
    17 alpha electrons       17 beta electrons
       nuclear repulsion energy       119.1950154950 Hartrees.
 NAtoms=   11 NActive=   11 NUniq=   11 SFac= 1.00D+00 NAtFMM=   60 NAOKFM=F Big=F
 Integral buffers will be    131072 words long.
 Raffenetti 1 integral format.
 Two-electron integral symmetry is turned on.
 One-electron integrals computed using PRISM.
 NBasis=   155 RedAO= T EigKep=  5.55D-05  NBF=   155
 NBsUse=   155 1.00D-06 EigRej= -1.00D+00 NBFU=   155
 Lowest energy guess from the checkpoint file:  "/scr/Gau-8466.chk"
 B after Tr=    -0.000000   -0.000000    0.000000
         Rot=    0.999781   -0.000027    0.000009   -0.020944 Ang=  -2.40 deg.
 B after Tr=    -0.000000    0.000000    0.000000
         Rot=    0.999769   -0.000051    0.000003    0.021513 Ang=  -2.47 deg.
 Keep R1 ints in memory in canonical form, NReq=81813451.
 Requested convergence on RMS density matrix=1.00D-08 within 128 cycles.
 Requested convergence on MAX density matrix=1.00D-06.
 Requested convergence on             energy=1.00D-06.
 No special actions if energy rises.
 SCF Done:  E(RHF) =  -209.131005683     A.U. after   11 cycles
            NFock= 11  Conv=0.26D-08     -V/T= 2.0024
 ExpMin= 2.97D-02 ExpMax= 1.17D+04 ExpMxC= 4.01D+02 IAcc=3 IRadAn=         5 AccDes= 0.00D+00
 HarFok:  IExCor=  205 AccDes= 0.00D+00 IRadAn=         5 IDoV=-2 UseB2=F ITyADJ=14
 ICtDFT= 12500011 ScaDFX=  1.000000  1.000000  1.000000  1.000000
 Range of M.O.s used for correlation:     5   155
 NBasis=   155 NAE=    17 NBE=    17 NFC=     4 NFV=     0
 NROrb=    151 NOA=    13 NOB=    13 NVA=   138 NVB=   138

 **** Warning!!: The largest alpha MO coefficient is  0.36190261D+02

 Fully direct method using O(ONN) memory.
 JobTyp=1 Pass  1:  I=   5 to  17 NPSUse= 40 ParTrn=T ParDer=T DoDerP=T.
 Spin components of T(2) and E(2):
     alpha-alpha T2 =       0.2804081150D-01 E2=     -0.8483790591D-01
     alpha-beta  T2 =       0.1672136859D+00 E2=     -0.5199470547D+00
     beta-beta   T2 =       0.2804081150D-01 E2=     -0.8483790591D-01
 ANorm=    0.1106026812D+01
 E2 =    -0.6896228665D+00 EUMP2 =    -0.20982062854956D+03
          IDoAtm=11111111111
          Differentiating once with respect to electric field.
                with respect to dipole field.
          Differentiating once with respect to nuclear coordinates.
 Keep R1 ints in memory in canonical form, NReq=81823634.
          There are     1 degrees of freedom in the 1st order CPHF.  IDoFFX=0 NUNeed=     1.
 LinEq1:  Iter=  0 NonCon=     1 RMS=4.26D-03 Max=6.84D-02 NDo=     1
 AX will form     1 AO Fock derivatives at one time.
 LinEq1:  Iter=  1 NonCon=     1 RMS=1.03D-03 Max=8.58D-03 NDo=     1
 LinEq1:  Iter=  2 NonCon=     1 RMS=3.95D-04 Max=4.99D-03 NDo=     1
 LinEq1:  Iter=  3 NonCon=     1 RMS=1.03D-04 Max=1.27D-03 NDo=     1
 LinEq1:  Iter=  4 NonCon=     1 RMS=3.69D-05 Max=4.25D-04 NDo=     1
 LinEq1:  Iter=  5 NonCon=     1 RMS=9.56D-06 Max=1.90D-04 NDo=     1
 LinEq1:  Iter=  6 NonCon=     1 RMS=2.84D-06 Max=2.49D-05 NDo=     1
 LinEq1:  Iter=  7 NonCon=     1 RMS=6.66D-07 Max=7.17D-06 NDo=     1
 LinEq1:  Iter=  8 NonCon=     1 RMS=1.21D-07 Max=1.03D-06 NDo=     1
 LinEq1:  Iter=  9 NonCon=     1 RMS=3.22D-08 Max=2.48D-07 NDo=     1
 LinEq1:  Iter= 10 NonCon=     1 RMS=9.88D-09 Max=8.55D-08 NDo=     1
 LinEq1:  Iter= 11 NonCon=     1 RMS=3.69D-09 Max=5.16D-08 NDo=     1
 LinEq1:  Iter= 12 NonCon=     1 RMS=7.60D-10 Max=9.34D-09 NDo=     1
 LinEq1:  Iter= 13 NonCon=     1 RMS=1.18D-10 Max=9.20D-10 NDo=     1
 LinEq1:  Iter= 14 NonCon=     0 RMS=2.31D-11 Max=2.01D-10 NDo=     1
 Linear equations converged to 1.000D-10 1.000D-09 after    14 iterations.
 End of Minotr F.D. properties file   721 does not exist.
 End of Minotr F.D. properties file   722 does not exist.
 End of Minotr F.D. properties file   788 does not exist.
 Calling FoFJK, ICntrl=  10002127 FMM=F ISym2X=0 I1Cent= 0 IOpClX= 0 NMat=1 NMatS=1 NMatT=0.
 ***** Axes restored to original set *****
 -------------------------------------------------------------------
 Center     Atomic                   Forces (Hartrees/Bohr)
 Number     Number              X              Y              Z
 -------------------------------------------------------------------
      1        6          -0.000261784   -0.000705259    0.000018842
      2        6           0.000340694    0.001669196   -0.000792000
      3        1          -0.000234683   -0.000370479   -0.000248055
      4        8          -0.000548887   -0.000689454   -0.000830182
      5        1           0.000107861    0.000282459    0.000000626
      6        1           0.000041344    0.000133108   -0.000028520
      7        1           0.000824719   -0.000711785    0.003031673
      8        7          -0.001019697    0.000205048   -0.002952445
      9        1           0.000665690    0.000287712    0.000861536
     10        1           0.000311775    0.000427048    0.000983205
     11        1          -0.000227031   -0.000527594   -0.000044680
 -------------------------------------------------------------------
 Cartesian Forces:  Max     0.003031673 RMS     0.000936630

 GradGradGradGradGradGradGradGradGradGradGradGradGradGradGradGradGradGrad
 Berny optimization.
 Using GEDIIS/GDIIS optimizer.
 FormGI is forming the generalized inverse of G from B-inverse, IUseBI=4.
 Internal  Forces:  Max     0.002144997 RMS     0.000828647
 Search for a local minimum.
 Step number   4 out of a maximum of   44
 All quantities printed in internal units (Hartrees-Bohrs-Radians)
 Mixed Optimization -- En-DIIS/RFO-DIIS
 Update second derivatives using D2CorX and points    1    3    2    4
 DE= -9.52D-04 DEPred=-6.24D-04 R= 1.52D+00
 TightC=F SS=  1.41D+00  RLast= 1.89D-01 DXNew= 2.5227D-01 5.6565D-01
 Trust test= 1.52D+00 RLast= 1.89D-01 DXMaxT set to 2.52D-01
 ITU=  1 -1  0  0
 Use linear search instead of GDIIS.
     Eigenvalues ---    0.00230   0.00230   0.02152   0.02729   0.02905
     Eigenvalues ---    0.02972   0.02972   0.04655   0.08003   0.10233
     Eigenvalues ---    0.12531   0.15939   0.16000   0.16000   0.16000
     Eigenvalues ---    0.16116   0.16966   0.24384   0.35452   0.35648
     Eigenvalues ---    0.36192   0.43338   0.43673   0.43767   0.49844
     Eigenvalues ---    0.51048   0.64346
 RFO step:  Lambda=-1.50225954D-04 EMin= 2.29998815D-03
 Quartic linear search produced a step of  0.12075.
 Iteration  1 RMS(Cart)=  0.01133099 RMS(Int)=  0.00008593
 Iteration  2 RMS(Cart)=  0.00012795 RMS(Int)=  0.00002633
 Iteration  3 RMS(Cart)=  0.00000000 RMS(Int)=  0.00002633
 Variable       Old X    -DE/DX   Delta X   Delta X   Delta X     New X
                                 (Linear)    (Quad)   (Total)
    R1        2.56289  -0.00214   0.00119  -0.00300  -0.00181   2.56108
    R2        2.06919  -0.00045   0.00071  -0.00077  -0.00006   2.06913
    R3        2.57460  -0.00145  -0.00095  -0.00402  -0.00497   2.56963
    R4        2.06023  -0.00014   0.00011  -0.00019  -0.00008   2.06015
    R5        2.06403  -0.00005   0.00029   0.00033   0.00062   2.06465
    R6        1.87619  -0.00159   0.00006  -0.00384  -0.00378   1.87241
    R7        3.44172   0.00096   0.00713   0.02331   0.03045   3.47217
    R8        1.92960  -0.00034  -0.00034  -0.00124  -0.00157   1.92802
    R9        1.92962  -0.00035  -0.00033  -0.00126  -0.00159   1.92803
   R10        1.93068  -0.00040  -0.00038  -0.00147  -0.00184   1.92884
    A1        2.11406   0.00045  -0.00278  -0.00010  -0.00287   2.11119
    A2        2.22641  -0.00135   0.00245  -0.00568  -0.00324   2.22318
    A3        1.94271   0.00090   0.00033   0.00578   0.00611   1.94882
    A4        2.07851  -0.00028  -0.00205  -0.00353  -0.00559   2.07292
    A5        2.13169   0.00000   0.00072   0.00044   0.00116   2.13285
    A6        2.07299   0.00028   0.00133   0.00309   0.00442   2.07741
    A7        1.92226  -0.00198   0.00060  -0.01529  -0.01470   1.90757
    A8        2.04222  -0.00120  -0.00274  -0.01251  -0.01532   2.02690
    A9        2.03792  -0.00117  -0.00269  -0.01231  -0.01507   2.02284
   A10        1.81624   0.00104   0.00139   0.01110   0.01245   1.82869
   A11        1.85023   0.00111   0.00160   0.00741   0.00893   1.85916
   A12        1.84955   0.00022   0.00170   0.00484   0.00649   1.85605
   A13        1.84957   0.00022   0.00170   0.00479   0.00645   1.85602
   A14        3.26679   0.00038   0.02031   0.00212   0.02243   3.28921
   A15        3.14016   0.00003  -0.00021   0.01366   0.01345   3.15360
    D1       -0.00006  -0.00000  -0.00000  -0.00004  -0.00005  -0.00010
    D2        3.14152  -0.00000  -0.00000  -0.00004  -0.00004   3.14148
    D3        3.14158   0.00000  -0.00000   0.00005   0.00004  -3.14156
    D4       -0.00003   0.00000  -0.00000   0.00005   0.00005   0.00002
    D5       -0.00038  -0.00000  -0.00002  -0.00008  -0.00010  -0.00048
    D6        3.14126   0.00000  -0.00002   0.00000  -0.00002   3.14123
    D7       -1.11977   0.00037  -0.00175   0.00488   0.00311  -1.11665
    D8        1.14057  -0.00038   0.00169  -0.01004  -0.00833   1.13225
    D9       -3.13262  -0.00000  -0.00006  -0.00041  -0.00045  -3.13307
         Item               Value     Threshold  Converged?
 Maximum Force            0.002145     0.000450     NO 
 RMS     Force            0.000829     0.000300     NO 
 Maximum Displacement     0.030314     0.001800     NO 
 RMS     Displacement     0.011339     0.001200     NO 
 Predicted change in Energy=-7.577378D-05
 GradGradGradGradGradGradGradGradGradGradGradGradGradGradGradGradGradGrad

                          Input orientation:                          
 ---------------------------------------------------------------------
 Center     Atomic      Atomic             Coordinates (Angstroms)
 Number     Number       Type             X           Y           Z
 ---------------------------------------------------------------------
      1          6           0       -0.237298    1.217468    0.485405
      2          6           0       -0.715429   -0.050287    0.515839
      3          1           0        0.261625    1.652441    1.357623
      4          8           0       -0.291657    2.095562   -0.551428
      5          1           0       -0.594931   -0.634743    1.428191
      6          1           0       -1.216514   -0.504350   -0.342324
      7          1           0       -0.748100    1.667331   -1.319564
      8          7           0       -1.533612    1.100164   -2.880752
      9          1           0       -1.082247    0.315713   -3.351758
     10          1           0       -2.526249    0.871560   -2.822764
     11          1           0       -1.458943    1.897030   -3.514195
 ---------------------------------------------------------------------
                    Distance matrix (angstroms):
                    1          2          3          4          5
     1  C    0.000000
     2  C    1.355263   0.000000
     3  H    1.094939   2.136006   0.000000
     4  O    1.359789   2.433785   2.036407   0.000000
     5  H    2.108894   1.090182   2.443335   3.386065   0.000000
     6  H    2.146778   1.092566   3.118728   2.767422   1.880982
     7  H    1.929043   2.513958   2.861310   0.990835   3.587920
     8  N    3.609045   3.678286   4.635915   2.821173   4.738989
     9  H    4.031243   3.902155   5.076525   3.410973   4.897832
    10  H    4.037689   3.908342   5.085042   3.413289   4.906074
    11  H    4.236864   4.537183   5.172503   3.190604   5.619926
                    6          7          8          9         10
     6  H    0.000000
     7  H    2.427057   0.000000
     8  N    3.019707   1.837394   0.000000
     9  H    3.122054   2.463400   1.020265   0.000000
    10  H    3.124279   2.460625   1.020269   1.635219   0.000000
    11  H    3.985745   2.318289   1.020696   1.633661   1.633648
                   11
    11  H    0.000000
 Stoichiometry    C2H7NO
 Framework group  C1[X(C2H7NO)]
 Deg. of freedom    27
 Full point group                 C1      NOp   1
 Largest Abelian subgroup         C1      NOp   1
 Largest concise Abelian subgroup C1      NOp   1
                         Standard orientation:                         
 ---------------------------------------------------------------------
 Center     Atomic      Atomic             Coordinates (Angstroms)
 Number     Number       Type             X           Y           Z
 ---------------------------------------------------------------------
      1          6           0       -1.359595   -0.316868   -0.002382
      2          6           0       -1.389277    1.038066    0.001255
      3          1           0       -2.285929   -0.900597   -0.009866
      4          8           0       -0.261253   -1.118521    0.002419
      5          1           0       -2.356130    1.541721   -0.003512
      6          1           0       -0.477780    1.640409    0.008804
      7          1           0        0.554515   -0.556174    0.008805
      8          7           0        2.204208    0.252794   -0.001259
      9          1           0        2.419710    0.823830   -0.818827
     10          1           0        2.426950    0.820960    0.816373
     11          1           0        2.872457   -0.518727   -0.005557
 ---------------------------------------------------------------------
 Rotational constants (GHZ):          11.4519764           3.4330211           2.6789858
 Standard basis: Aug-CC-pVDZ (5D, 7F)
 There are   163 symmetry adapted cartesian basis functions of A   symmetry.
 There are   155 symmetry adapted basis functions of A   symmetry.
   155 basis functions,   249 primitive gaussians,   163 cartesian basis functions
    17 alpha electrons       17 beta electrons
       nuclear repulsion energy       119.2184671885 Hartrees.
 NAtoms=   11 NActive=   11 NUniq=   11 SFac= 1.00D+00 NAtFMM=   60 NAOKFM=F Big=F
 Integral buffers will be    131072 words long.
 Raffenetti 1 integral format.
 Two-electron integral symmetry is turned on.
 One-electron integrals computed using PRISM.
 NBasis=   155 RedAO= T EigKep=  5.54D-05  NBF=   155
 NBsUse=   155 1.00D-06 EigRej= -1.00D+00 NBFU=   155
 Initial guess from the checkpoint file:  "/scr/Gau-8466.chk"
 B after Tr=     0.000000   -0.000000    0.000000
         Rot=    0.999999    0.000427   -0.000036    0.001554 Ang=   0.18 deg.
 ExpMin= 2.97D-02 ExpMax= 1.17D+04 ExpMxC= 4.01D+02 IAcc=3 IRadAn=         5 AccDes= 0.00D+00
 Harris functional with IExCor=  205 and IRadAn=       5 diagonalized for initial guess.
 HarFok:  IExCor=  205 AccDes= 0.00D+00 IRadAn=         5 IDoV= 1 UseB2=F ITyADJ=14
 ICtDFT=  3500011 ScaDFX=  1.000000  1.000000  1.000000  1.000000
 FoFCou: FMM=F IPFlag=           0 FMFlag=      100000 FMFlg1=           0
         NFxFlg=           0 DoJE=T BraDBF=F KetDBF=T FulRan=T
         wScrn=  0.000000 ICntrl=       500 IOpCl=  0 I1Cent=   200000004 NGrid=           0
         NMat0=    1 NMatS0=      1 NMatT0=    0 NMatD0=    1 NMtDS0=    0 NMtDT0=    0
 Petite list used in FoFCou.
 Keep R1 ints in memory in canonical form, NReq=81813392.
 Requested convergence on RMS density matrix=1.00D-08 within 128 cycles.
 Requested convergence on MAX density matrix=1.00D-06.
 Requested convergence on             energy=1.00D-06.
 No special actions if energy rises.
 SCF Done:  E(RHF) =  -209.131482314     A.U. after   10 cycles
            NFock= 10  Conv=0.53D-08     -V/T= 2.0023
 ExpMin= 2.97D-02 ExpMax= 1.17D+04 ExpMxC= 4.01D+02 IAcc=3 IRadAn=         5 AccDes= 0.00D+00
 HarFok:  IExCor=  205 AccDes= 0.00D+00 IRadAn=         5 IDoV=-2 UseB2=F ITyADJ=14
 ICtDFT= 12500011 ScaDFX=  1.000000  1.000000  1.000000  1.000000
 Range of M.O.s used for correlation:     5   155
 NBasis=   155 NAE=    17 NBE=    17 NFC=     4 NFV=     0
 NROrb=    151 NOA=    13 NOB=    13 NVA=   138 NVB=   138

 **** Warning!!: The largest alpha MO coefficient is  0.36180735D+02

 Fully direct method using O(ONN) memory.
 JobTyp=1 Pass  1:  I=   5 to  17 NPSUse= 40 ParTrn=T ParDer=T DoDerP=T.
 Spin components of T(2) and E(2):
     alpha-alpha T2 =       0.2799997397D-01 E2=     -0.8478660714D-01
     alpha-beta  T2 =       0.1669814565D+00 E2=     -0.5196644788D+00
     beta-beta   T2 =       0.2799997397D-01 E2=     -0.8478660714D-01
 ANorm=    0.1105884897D+01
 E2 =    -0.6892376931D+00 EUMP2 =    -0.20982072000737D+03
          IDoAtm=11111111111
          Differentiating once with respect to electric field.
                with respect to dipole field.
          Differentiating once with respect to nuclear coordinates.
 Keep R1 ints in memory in canonical form, NReq=81823516.
          There are     1 degrees of freedom in the 1st order CPHF.  IDoFFX=0 NUNeed=     1.
 LinEq1:  Iter=  0 NonCon=     1 RMS=4.25D-03 Max=6.82D-02 NDo=     1
 AX will form     1 AO Fock derivatives at one time.
 LinEq1:  Iter=  1 NonCon=     1 RMS=1.02D-03 Max=8.42D-03 NDo=     1
 LinEq1:  Iter=  2 NonCon=     1 RMS=3.93D-04 Max=4.95D-03 NDo=     1
 LinEq1:  Iter=  3 NonCon=     1 RMS=1.03D-04 Max=1.26D-03 NDo=     1
 LinEq1:  Iter=  4 NonCon=     1 RMS=3.66D-05 Max=4.29D-04 NDo=     1
 LinEq1:  Iter=  5 NonCon=     1 RMS=9.45D-06 Max=1.88D-04 NDo=     1
 LinEq1:  Iter=  6 NonCon=     1 RMS=2.80D-06 Max=2.48D-05 NDo=     1
 LinEq1:  Iter=  7 NonCon=     1 RMS=6.59D-07 Max=7.22D-06 NDo=     1
[...]
 5269,-0.00001809,-0.00005439,-0.00007436,0.00848370,0.00098075,0.00026
 085,0.00117542,-0.00012995,-0.00020574,-0.00031609,-0.00026636,0.00004
 469,-0.00013457,0.00018092,0.01641489,0.01409323,0.02209932,0.00003188
 ,-0.00000623,-0.00005021,-0.00015659,0.00008822,0.00010699,0.00000993,
 -0.00000587,-0.00000498,0.00000099,-0.00001119,0.00000299,0.00005702,-
 0.00003747,0.00003226,-0.00007928,0.00009230,-0.00006950,0.00008395,-0
 .00000217,0.00000053,0.00000831,0.00000279,-0.00000985,0.00002110,-0.0
 0003760,0.00003965,-0.00001738,0.00000499,0.00000233,0.00010297,0.0000
 7205,-0.00003348,-0.00000907,-0.00000200,-0.00000859,-0.00001155,-0.00
 001541,-0.00001087,-0.00005524,-0.00004970,0.00000044,0.00004293,-0.00
 003156,-0.00000588,-0.00012811,0.00009459,0.00000765,-0.00004571,0.000
 03017,0.00001592,0.00002181,0.00000859,-0.00001693,0.00005822,-0.00002
 326,-0.00001262,0.00008485,-0.00001026,-0.00007600,0.00010977,0.000005
 72,0.00002315,-0.00018459,0.00003122,0.00001161,0.00000620,-0.00005156
 ,0.00001897,-0.00013304,-0.00000413,0.00003791,0.00002511,0.00001942,0
 .00004087,-0.00002792,0.00005474,-0.00007414,0.00009923,0.00005207,0.0
 0004513,0.00001497,0.00000367,-0.00002634,0.00004585,0.00002862,0.0001
 1830,-0.00003229,-0.00002634,0.00001064,-0.00011366,0.00013627,-0.0003
 2666,-0.00012381,-0.00054422,0.00016604,-0.00002596,0.00016534,0.00007
 749,-0.00004636,0.00007544,-0.00006821,-0.00225778,-0.00856707,-0.0174
 9331,0.00000588,0.00002236,0.00002530,0.00006556,-0.00000372,-0.000032
 70,0.00225701,-0.00006056,-0.00034817,0.00022405,0.00011910,0.00019781
 ,-0.00000832,-0.00000340,0.00001085,-0.00007322,-0.00887088,-0.0005511
 6,-0.01546103,0.00001817,0.00001439,0.00002135,-0.00005323,-0.00004195
 ,-0.00001750,0.00918667,0.00032791,-0.00033668,-0.00107704,0.00023731,
 0.00012547,0.00011582,0.00009905,0.00001389,0.00013950,-0.00015797,-0.
 01717791,-0.01464399,-0.02347124,0.00002967,0.00003266,0.00003366,0.00
 001893,0.00011618,0.00000957,0.01820645,0.01602009,0.02430394,0.000174
 44,0.00019863,-0.00028199,-0.00014124,-0.00002522,0.00004980,0.0000414
 9,-0.00003278,0.00001299,0.00030791,0.00030211,0.00112162,0.00003358,-
 0.00004879,-0.00002185,-0.00007525,0.00003962,-0.00008125,-0.00170610,
 0.00006277,-0.00017566,1.25938288,0.00001282,0.00017096,0.00007069,-0.
 00000659,-0.00009622,-0.00007434,-0.00001337,0.00002426,-0.00001008,0.
 00038140,0.00002042,0.00077121,-0.00005027,-0.00003537,-0.00003573,-0.
 00001965,0.00019689,-0.00031973,0.00008188,-0.00117412,-0.00029684,-0.
 23081536,1.35733359,-0.00008876,0.00056857,-0.00062767,0.00002998,-0.0
 0012467,0.00006046,-0.00000722,-0.00006175,0.00009405,0.00103819,0.000
 55656,0.00199088,-0.00002042,-0.00003151,0.00003874,-0.00001977,-0.000
 16046,0.00005246,-0.00019281,-0.00034205,-0.00183072,-0.60238152,-0.39
 815707,0.36598521,0.00005339,0.00044011,-0.00031806,-0.00014079,-0.000
 30519,-0.00007468,0.00001211,-0.00003641,0.00006005,-0.00001732,0.0000
 2435,0.00036811,-0.00000118,0.00000786,0.00003378,0.00007777,0.0002515
 1,-0.00010555,0.00027262,-0.00125323,-0.00093646,-0.09876689,0.6748103
 7,0.32963027,0.09621561,0.00000895,-0.00050912,0.00038977,0.00006681,0
 .00032808,0.00013965,0.00000736,0.00002068,-0.00003217,-0.00013284,0.0
 0013389,-0.00053313,0.00002978,0.00000255,-0.00004284,-0.00007475,-0.0
 0024627,0.00013915,0.00008860,0.00094294,0.00103184,0.69883717,-0.9226
 2961,-0.56880177,-0.70431927,0.91961807,0.00007699,-0.00011621,0.00012
 743,-0.00003399,-0.00002171,-0.00004109,0.00001368,-0.00000577,-0.0000
 1173,-0.00017986,0.00011520,-0.00020240,-0.00000460,0.00001465,-0.0000
 2086,0.00005749,-0.00001814,0.00007596,0.00025161,-0.00022166,0.000214
 82,0.35555533,-0.59427017,0.01471876,-0.34726386,0.57604681,-0.0414312
 8,-0.00010126,-0.00056866,0.00052895,0.00021478,0.00030790,0.00005752,
 -0.00001981,0.00003916,-0.00005001,-0.00019398,0.00014080,-0.00063265,
 -0.00003775,0.00002634,-0.00003656,-0.00004131,-0.00030269,0.00018059,
 0.00138117,0.00061713,0.00076461,-1.43373830,-0.45720781,0.27199216,-0
 .00803461,-0.01137801,0.00348255,1.43372561,-0.00002594,-0.00008474,0.
 00009948,0.00010000,0.00002690,0.00002514,-0.00000039,-0.00000049,0.00
 001749,0.00001159,0.00005977,-0.00017652,-0.00001551,0.00001841,0.0000
 0636,0.00000773,-0.00004766,0.00001519,0.00002505,0.00008374,0.0002425
 2,-0.46708652,0.15932733,0.07874602,0.03348111,0.01421473,-0.00740950,
 0.46234640,-0.17633294,0.00001763,0.00030444,-0.00014507,-0.00015348,-
 0.00025568,-0.00009517,-0.00000828,-0.00002072,0.00004178,0.00021259,-
 0.00005387,0.00004902,0.00002274,0.00000246,0.00000006,0.00003416,0.00
 021508,-0.00000529,-0.00119971,-0.00051866,-0.00003181,0.23144666,0.06
 622939,0.26753140,0.01427458,0.00514111,0.00942225,-0.27224715,-0.0788
 2839,-0.28278667,-0.00008646,0.00019064,-0.00004149,0.00006652,-0.0000
 6995,-0.00004396,0.00001007,-0.00001845,0.00000460,-0.00002537,-0.0001
 8610,0.00013549,-0.00000198,-0.00000236,0.00000223,-0.00006076,0.00002
 488,0.00005272,0.00017778,0.00023746,-0.00053232,0.27448748,0.01282658
 ,0.00001991,0.01032928,0.01686620,-0.01195534,0.00684546,-0.02884352,0
 .02760025,-0.29174201,0.00011072,0.00067535,-0.00055468,-0.00013730,-0
 .00023423,-0.00001352,-0.00000355,-0.00007199,0.00008123,0.00010269,-0
 .00040736,0.00069343,-0.00000537,-0.00003097,0.00001582,0.00004194,0.0
 0008248,-0.00006615,-0.00053035,0.00053777,-0.00168075,-0.00143164,-0.
 59313811,0.88780812,-0.00310121,-0.01187594,0.02588650,0.00597945,0.00
 273495,0.00778484,-0.00102538,0.60172805,0.00004209,-0.00033675,0.0003
 1849,0.00002624,0.00016877,0.00000477,-0.00001085,0.00004081,-0.000056
 13,-0.00016300,-0.00008271,-0.00035763,0.00000535,0.00002371,-0.000012
 08,0.00003471,-0.00011239,0.00012036,0.00025987,0.00037695,0.00059338,
 0.01475586,0.92609265,-0.64801357,0.00433182,-0.01347842,0.01714813,-0
 .00404000,0.00726222,0.00601948,-0.01524209,-0.91995485,0.62423479,-0.
 00055926,-0.00032628,-0.00067006,-0.00002157,-0.00060648,0.00016496,0.
 00009941,0.00013017,-0.00008156,0.00037081,0.00009548,0.00035085,-0.00
 000656,-0.00004315,0.00012094,-0.00005746,0.00006095,-0.00013366,-0.00
 002591,0.00014840,0.00018482,0.00015138,0.00005503,0.00001620,-0.00001
 860,-0.00000907,-0.00002045,-0.00006389,0.00009335,0.00013420,0.000222
 24,-0.00003851,-0.00004383,-0.00006411,-0.00005274,-0.00006902,-0.0000
 2037,0.00012394,-0.00007584,0.00000725,0.00001349,0.00000174,0.0000006
 1,-0.00010298,0.00007821,0.00016770,0.00009129,-0.00005270,-0.00011711
 ,0.00003995,0.00002216,-0.00002702,-0.00002269,0.00000920,0.00014936,0
 .00008467,0.00011168,0.00026691,0.00000675,-0.00007724,-0.00004079,-0.
 00001106,-0.00002694,-0.00002375,0.00008008,0.00029633,-0.00004072,0.0
 0028949,-0.00026742,0.00005423,0.00004242,-0.00003655,-0.00000219,-0.0
 0005512,0.00002837,0.00029725,-0.00009103,0.00088382,-0.00002207,0.000
 03654,0.00000152,-0.00003603,-0.00003051,0.00002747,-0.00000919,0.0000
 1281,0.00000703,0.00002753,-0.00001479,-0.00001230,0.00004604,0.000055
 85,0.00010116,-0.00000001,-0.00007226,-0.00011911,-0.00009198,0.000012
 31,0.00001460,-0.00000051,-0.00001922,-0.00001515,0.00000438,-0.000019
 71,0.00002112,-0.00001648,-0.00004506,-0.00002863,0.00006804,0.0000128
 7,0.00011938,0.00000854,0.00000317,0.00000277,-0.00000822,0.00001364,0
 .00000040,-0.00002311,-0.00001765,0.00003101,0.00008201,-0.00001379,0.
 00005628,-0.00043607,-0.00002078,0.00011985,0.00001928,0.00001246,-0.0
 0001080,0.00001168,-0.00000220,-0.00004408,0.00000910,0.00004149,-0.00
 002335,0.00048609,-0.00001341,0.00005569,-0.00002925,0.00007211,-0.000
 25004,-0.00002677,-0.00000714,0.00000969,-0.00000977,-0.00000983,-0.00
 000123,0.00000323,0.00000166,-0.00001741,0.00002520,-0.00005053,0.0002
 6235,0.00005983,-0.00002261,0.00024868,0.00001795,-0.00028463,-0.00011
 737,0.00000899,0.00004235,-0.00000062,-0.00003498,0.00002617,-0.000093
 96,0.00001739,0.00013122,-0.00008923,-0.00011295,0.00015457,0.00007868
 ,0.00018458,0.00007977,-0.00005597,-0.00005217,-0.00004563,0.00002649,
 -0.00006923,-0.00000600,0.00002895,-0.00015094,-0.00015203,-0.00016784
 ,-0.00000580,0.00000715,0.00000578,-0.00003362,-0.00001839,0.00004156,
 -0.00005260,-0.00003843,0.00017955,-0.00011645,-0.00001066,-0.00006524
 ,-0.00000309,0.00001344,-0.00006276,0.00002127,-0.00003015,-0.00032490
 ,0.00022366,0.00000859,0.00000689,0.00000480,0.00000167,-0.00009658,0.
 00006210,-0.00003333,0.00032631,0.00006353,0.00019617,0.00014161,-0.00
 001009,-0.00009567,0.00002613,0.00000806,-0.00002851,-0.00002562,-0.00
 029966,-0.00010613,-0.00071006,0.00000418,0.00000043,0.00000006,0.0000
 2055,0.00000681,0.00000598,0.00007478,-0.00046503,0.00063432,-0.000134
 50,-0.00015836,0.00018741,0.00021807,-0.00005252,-0.00014203,0.0000036
 7,0.00004649,-0.00002022,0.00091719,-0.00020567,-0.00033201,0.00007238
 ,-0.00003052,-0.00002053,-0.00019035,0.00024699,-0.00009237,-0.0030465
 3,0.00080120,0.00090329,2.41237007,0.00002860,0.00002833,-0.00010144,-
 0.00023562,-0.00026357,-0.00006100,0.00002416,0.00006053,-0.00000674,-
 0.00046930,0.00021907,-0.00033808,-0.00001071,0.00002288,0.00003933,0.
 00019999,0.00055236,-0.00029477,0.00041368,-0.00220276,-0.00038153,-0.
 25344444,1.19907858,-0.00000581,-0.00061388,0.00048595,0.00007050,0.00
 045763,-0.00000701,0.00000365,0.00005369,-0.00005398,-0.00004297,0.000
 39193,0.00062640,-0.00004350,-0.00001301,-0.00001149,-0.00005865,-0.00
 020235,-0.00018384,0.00136365,0.00069453,-0.00082832,-0.91321925,0.877
 44508,-0.57186304,0.00004588,-0.00004773,0.00009958,-0.00003704,-0.000
 00092,-0.00016300,-0.00001089,0.00000062,-0.00001818,-0.00056754,0.000
 05930,-0.00060890,-0.00001202,0.00001843,0.00002750,-0.00001038,0.0001
 2874,-0.00007395,0.00101569,-0.00086767,-0.00002845,-0.05858488,1.0783
 7896,0.52048715,0.04411670,-0.00000903,-0.00023826,0.00024714,0.000211
 44,0.00016813,0.00004480,-0.00002343,0.00000332,-0.00000325,0.00048383
 ,-0.00018542,-0.00009960,0.00002224,-0.00000072,-0.00002475,-0.0001722
 4,-0.00028273,0.00018881,-0.00080482,0.00174777,0.00084775,1.08893124,
 -1.49116393,-0.96162125,-1.07846820,1.49250287,-0.00000336,0.00019180,
 -0.00019612,-0.00001362,-0.00005681,0.00004142,-0.00000204,-0.00003008
 ,0.00001228,-0.00018408,-0.00019904,-0.00016214,0.00000450,-0.00001611
 ,-0.00003193,-0.00002713,0.00000460,0.00003504,0.00004986,-0.00002221,
 0.00030851,0.53386544,-0.97661101,0.06495323,-0.52077049,0.95429994,-0
 .06372958,0.00000431,-0.00002158,-0.00003207,0.00004941,0.00011266,0.0
 0018241,0.00000351,-0.00002139,0.00001008,-0.00033387,0.00005047,0.000
 49837,-0.00005519,0.00000804,-0.00002290,0.00001918,-0.00030041,0.0001
 2416,0.00193819,0.00043082,-0.00037847,-2.33246045,-0.82780543,0.39553
 743,0.00737828,-0.00908353,-0.00698664,2.31016166,0.00000160,-0.000251
 52,0.00030020,-0.00003566,0.00021060,-0.00000705,0.00000931,-0.0000026
 9,-0.00002876,-0.00031250,0.00008804,-0.00027141,0.00000650,0.00001606
 ,0.00000709,0.00003961,-0.00021027,0.00002888,0.00083513,0.00049607,0.
 00024740,-0.83044375,0.29976273,0.11482223,0.00240636,-0.00233287,0.00
 178849,0.83157436,-0.29531416,0.00000313,0.00018364,-0.00014476,-0.000
 05035,-0.00009517,-0.00008362,-0.00001361,-0.00001985,0.00000245,0.000
 00149,-0.00031926,-0.00071126,0.00000183,-0.00000580,-0.00000827,0.000
 05016,0.00012918,-0.00006664,-0.00098763,-0.00022046,0.00073956,0.3740
 7486,0.10845106,0.50076816,0.00027865,0.00330956,-0.00221881,-0.382844
 64,-0.12262322,-0.49473363,-0.00001943,0.00017492,-0.00011710,-0.00004
 069,-0.00004550,0.00003047,0.00002098,-0.00002441,0.00000644,-0.000076
 97,0.00010447,0.00035820,-0.00001475,-0.00000156,0.00000472,0.00004309
 ,-0.00004978,0.00004437,0.00027244,-0.00027547,-0.00035772,-0.01916467
 ,0.00292011,-0.00409219,0.00666621,-0.00108749,-0.00593244,0.01329497,
 -0.00408095,0.00948612,-0.00098118,0.00002761,0.00019836,-0.00017628,0
 .00001540,-0.00003146,0.00004062,-0.00001082,-0.00001709,0.00001706,0.
 00016855,-0.00008422,0.00029205,-0.00001261,-0.00003030,-0.00001865,-0
 .00003569,-0.00002183,-0.00003210,-0.00027553,-0.00000435,-0.00022171,
 -0.00569066,-0.00609421,-0.03141459,-0.00160789,-0.00021816,0.02065044
 ,0.00505599,-0.00246199,0.01121032,0.00236564,0.00876527,0.00003929,0.
 00024206,-0.00019476,-0.00003644,-0.00013599,0.00000473,-0.00000776,-0
 .00002080,0.00003023,0.00029250,0.00008133,0.00044242,0.00001499,0.000
 00904,0.00001593,0.00003012,-0.00005544,0.00018329,-0.00037963,-0.0001
 7911,-0.00029216,0.00479543,-0.00814090,0.00611396,0.00077009,0.002810
 83,0.00098810,-0.00608772,0.00573614,-0.00354316,0.00056913,-0.0003471
 5,-0.00374857,0.00034050,-0.00025933,-0.00030668,-0.00013197,0.0001363
 7,-0.00001117,-0.00003232,-0.00003235,0.00001582,0.00011768,-0.0000259
 9,-0.00012833,0.00002256,0.00012299,0.00039109,0.00001364,0.00001517,-
 0.00000557,-0.00016883,0.00007783,-0.00040459,-0.00003399,0.00008207,0
 .00005277,0.00002074,-0.00001911,-0.00000107,-0.00001502,0.00009047,0.
 00010032,0.00005094,0.00001007,0.00001164,0.00004452,-0.00005296,-0.00
 012972,0.00004410,0.00002454,-0.00000058,-0.00003116,-0.00003146,-0.00
 002175,-0.00000646,0.00000249,-0.00000534,-0.00017445,0.00004991,-0.00
 006581,0.00004690,-0.00006583,0.00000766,0.00000994,-0.00001995,-0.000
 00658,0.00055737,0.00002530,0.00016900,-0.00028499,-0.00005997,-0.0001
 1899,0.00003271,-0.00000527,0.00003223,-0.00002599,-0.00000277,0.00018
 376,-0.00004172,-0.00021500,-0.00004769,0.00000282,0.00001964,0.000053
 57,-0.00002235,-0.00006644,0.00002892,0.00003013,0.00036600,0.00025384
 ,-0.00000326,0.00004653,0.00001747,-0.00000777,-0.00001492,0.00007385,
 0.00000874,-0.00000392,0.00000285,0.00000016,-0.00000175,0.00000646,0.
 00001269,0.00005886,0.00009505,0.00003388,-0.00004569,-0.00012852,-0.0
 0002134,-0.00000158,-0.00000287,0.00000846,-0.00000203,-0.00001314,0.0
 0000450,0.00000331,0.00008336,0.00000408,-0.00000200,-0.00001276,0.000
 10775,0.00006357,0.00018795,-0.00000009,0.00000132,0.00000726,0.000006
 94,0.00000768,0.00000922,-0.00005436,-0.00004772,-0.00005887,0.0000040
 5,0.00009932,-0.00001806,-0.00000878,-0.00006122,0.00004230,-0.0000136
 0,0.00000207,0.00000834,0.00000834,-0.00000624,0.00002469,-0.00004792,
 0.00000016,-0.00005072,0.00004484,0.00005541,0.00010819,0.00001106,-0.
 00008387,-0.00006960,-0.00016204,0.00000755,0.00000319,-0.00000180,0.0
 0000723,0.00001425,0.00000407,-0.00000865,-0.00003005,-0.00002124,0.00
 001234,-0.00000017,0.00002527,0.00012550,-0.00009214,0.00006717,-0.000
 10158,0.00028816,0.00000307,-0.00001572,0.00000788,0.00001139,-0.00002
 985,0.00006380,-0.00004010,0.00000447,-0.00014408,-0.00003241,0.000092
 32,-0.00013259,-0.00014393,0.00012460,0.00010526,-0.00020197,0.0000891
 4,0.00006494,0.00001708,-0.00002734,-0.00000118,-0.00062370,-0.0000196
 4,0.00013946,0.00004182,-0.00002133,-0.00000984,0.00011492,-0.00005471
 ,-0.00007582,0.00139089,0.00008075,-0.00001512,-0.00000174,0.00010881,
 0.00004911,-0.00003333,-0.00001010,-0.00001427,0.00001539,-0.00003443,
 -0.00049215,-0.00026379,-0.00001700,0.00000200,0.00000874,-0.00007980,
 -0.00002360,-0.00002018,-0.00014761,0.00073215,0.00015202,0.00012127,0
 .00005373,0.00004634,-0.00008824,-0.00004635,-0.00001810,-0.00003204,0
 .00001245,0.00016018,-0.00022322,-0.00000685,-0.00001454,-0.00000302,0
 .00001778,-0.00004939,0.00005020,-0.00001937,-0.00056325,0.00052419,-0
 .00043264,0.00001324,-0.00057714,0.00022106,-0.00009121,0.00003745,-0.
 00004401,-0.00000389,0.00006693,-0.00006123,0.00068340,0.00054440,-0.0
 0032875,0.00005216,0.00001972,-0.00000176,-0.00017532,0.00011697,0.000
 04182,-0.00206864,0.00015503,0.00134156,0.06478581,-0.00024250,-0.0013
 1278,0.00087943,-0.00007608,-0.00007623,-0.00021541,0.00001011,0.00015
 398,-0.00013808,0.00033984,0.00208221,-0.00061748,0.00004266,0.0001121
 0,0.00004758,0.00016960,0.00025571,-0.00005520,0.00092488,-0.00261686,
 0.00241012,-0.21085593,1.60037759,-0.00012764,-0.00001583,-0.00018117,
 0.00005178,0.00006347,-0.00000422,-0.00000283,0.00001491,-0.00002917,-
 0.00013393,-0.00009097,0.00030160,-0.00002334,-0.00001408,-0.00000277,
 0.00000095,-0.00016370,-0.00007738,0.00048834,0.00031657,-0.00156036,-
 0.29987655,-1.80537550,1.38066049,0.00000309,0.00012483,-0.00010496,-0
 .00014183,-0.00014419,0.00000011,0.00002384,-0.00000393,0.00000890,-0.
 00022932,0.00010958,0.00007909,0.00001027,0.00002031,0.00003024,0.0001
 3379,0.00017356,-0.00005178,0.00044306,-0.00071434,-0.00063188,-0.0607
 3728,0.37455866,0.20000577,0.06793636,0.00005383,0.00022833,-0.0001618
 2,0.00000413,0.00000825,0.00012271,0.00001898,-0.00004229,0.00004142,0
 .00004490,-0.00028687,0.00045090,0.00000534,-0.00001825,-0.00001157,-0
 .00000620,-0.00013815,0.00005641,-0.00020750,0.00047615,-0.00048969,0.
 38892353,-0.45120805,-0.32902310,-0.38798282,0.44181286,0.00002923,0.0
 0020737,-0.00013997,0.00005513,-0.00003975,0.00001718,-0.00001878,-0.0
 0003041,0.00002637,0.00018019,-0.00009770,0.00018868,-0.00003129,-0.00
 002472,-0.00003032,-0.00002144,-0.00001988,0.00000961,-0.00025557,0.00
 010839,0.00017893,0.21454342,-0.34269643,-0.01363566,-0.21449412,0.348
 41816,0.00144740,0.00001660,0.00020343,-0.00011057,0.00001742,0.000089
 05,0.00011111,0.00000382,-0.00004635,0.00002936,-0.00011419,-0.0001362
 8,0.00046912,-0.00003148,-0.00003055,-0.00003447,-0.00002355,-0.000205
 25,0.00004304,0.00076261,0.00019546,-0.00033578,-0.72817912,-0.1925602
 3,0.11747745,-0.00431644,-0.00368681,-0.00119840,0.74135289,0.00001607
 ,0.00021688,-0.00014797,0.00006061,-0.00013075,0.00003417,-0.00001668,
 -0.00000949,0.00004998,0.00020305,-0.00026893,0.00023463,0.00000126,0.
 00000856,0.00002020,-0.00003472,0.00004865,0.00005249,-0.00059805,0.00
 021277,-0.00051146,-0.19910107,0.11031866,0.02949646,0.01242929,0.0062
 5101,-0.00229838,0.19248043,-0.12266934,0.00002550,0.00017936,-0.00013
 791,-0.00005263,-0.00011014,-0.00000761,0.00000303,-0.00001975,0.00001
 516,0.00009338,0.00002921,0.00009548,0.00000642,-0.00001351,-0.0000127
 3,0.00001101,0.00013251,-0.00002029,-0.00036626,-0.00025165,0.00002356
 ,0.09475677,0.02225515,0.13961843,0.01042922,-0.00081259,0.00677481,-0
 .11083369,-0.01618876,-0.15491399,0.00001047,0.00013814,0.00001899,0.0
 0028112,-0.00000737,-0.00009970,-0.00001766,-0.00001510,0.00001308,-0.
 00016444,-0.00044736,-0.00035897,-0.00003541,-0.00000116,0.00000224,-0
 .00003677,-0.00002059,0.00000835,0.00026786,0.00046324,-0.00008717,0.7
 2572086,0.02768899,-0.01786000,-0.00312555,0.00283263,0.00121164,-0.00
 948856,-0.00544019,0.00592726,-0.71341192,0.00014713,0.00084512,-0.000
 53769,-0.00000864,0.00019235,0.00010499,-0.00001301,-0.00010272,0.0000
 5505,-0.00051992,-0.00130136,0.00008296,-0.00005285,-0.00010823,-0.000
 06655,-0.00009530,-0.00016841,-0.00010866,-0.00006244,0.00168983,-0.00
 175811,0.02067011,-1.25808631,2.10479178,0.00142904,0.00291700,-0.0035
 2665,0.00369709,0.00602198,-0.00519984,-0.02519122,1.24810074,0.000007
 51,-0.00057673,0.00057525,-0.00009419,0.00012407,-0.00005678,0.0000108
 2,0.00005018,-0.00004119,-0.00028356,0.00031712,-0.00094057,0.00005658
 ,0.00007309,0.00003932,0.00008472,0.00007850,0.00011641,0.00047393,-0.
 00040258,0.00177911,-0.01059232,2.12350582,-1.50508977,0.00472940,-0.0
 1859082,0.00516297,-0.00561716,-0.01074137,0.00856507,0.01122428,-2.09
 383727,1.48989018\\@
 The archive entry for this job was punched.


      HUMANKIND PERIODICALLY GOES THROUGH A SPEEDUP OF ITS AFFAIRS, 
      THEREBY EXPERIENCING THE RACE BETWEEN THE RENEWABLE VITALITY
      OF THE LIVING, AND THE BECKONING VITIATION OF DECADENCE.
      IN THIS PERIODIC RACE, ANY PAUSE BECOMES A LUXURY.
      ONLY THEN CAN ONE REFLECT THAT ALL IS PERMITTED;
      ALL IS POSSIBLE.

                              -- THE APOCRYPHA OF MUAD'DIB
                                 CHILDREN OF DUNE, BY FRANK HERBERT
 Job cpu time:       2 days 10 hours  6 minutes  4.4 seconds.
 Elapsed time:       0 days  1 hours 28 minutes 47.7 seconds.
 File lengths (MBytes):  RWF=   2599 Int=      0 D2E=      0 Chk=     45 Scr=      1
 Normal termination of Gaussian 16 at Fri Mar 21 13:02:18 2025.
